<LesHouchesEvents version="3.0">
<header>
<!--
#*********************************************************************
#                                                                    *
#                        MadGraph5_aMC@NLO                           *
#                                                                    *
#                           Going Beyond                             *
#                                                                    *
#                   http://madgraph.hep.uiuc.edu                     *
#                   http://madgraph.phys.ucl.ac.be                   *
#                   http://amcatnlo.cern.ch                          *
#                                                                    *
#                     The MadGraph5_aMC@NLO team                     *
#                                                                    *
#....................................................................*
#                                                                    *
# This file contains all the information necessary to reproduce      *
# the events generated:                                              *
#                                                                    *
# 1. software version                                                *
# 2. proc_card          : code generation info including model       *
# 3. param_card         : model primary parameters in the LH format  *
# 4. run_card           : running parameters (collider and cuts)     *
# 5. pythia_card        : present only if pythia has been run        *
# 6. pgs_card           : present only if pgs has been run           *
# 7. delphes_cards      : present only if delphes has been run       *
#                                                                    *
#                                                                    *
#*********************************************************************
-->
<MGVersion>
#5.2.2.3
</MGVersion>
<MG5ProcCard>
#************************************************************
#*                     MadGraph5_aMC@NLO                    *
#*                                                          *
#*                *                       *                 *
#*                  *        * *        *                   *
#*                    * * * * 5 * * * *                     *
#*                  *        * *        *                   *
#*                *                       *                 *
#*                                                          *
#*                                                          *
#*         VERSION 2.2.3                 2015-02-10         *
#*                                                          *
#*    The MadGraph5_aMC@NLO Development Team - Find us at   *
#*    https://server06.fynu.ucl.ac.be/projects/madgraph     *
#*                                                          *
#************************************************************
#*                                                          *
#*               Command File for MadGraph5_aMC@NLO         *
#*                                                          *
#*     run as ./bin/mg5_aMC  filename                       *
#*                                                          *
#************************************************************
set group_subprocesses Auto
set ignore_six_quark_processes False
set loop_optimized_output True
set gauge unitary
set complex_mass_scheme False
import model sm
define p = g u c d s u~ c~ d~ s~
define j = g u c d s u~ c~ d~ s~
define l+ = e+ mu+
define l- = e- mu-
define vl = ve vm vt
define vl~ = ve~ vm~ vt~
import model Zprime_UFO
generate p p > zph, zph > j j
add process p p > zph, zph > b b~
output Dijet_signal
</MG5ProcCard>
<MGProcCard>
#*********************************************************************
#                        MadGraph/MadEvent                           *
#                   http://madgraph.hep.uiuc.edu                     *
#                                                                    *
#                          proc_card.dat                             *
#*********************************************************************
#                                                                    *
#            This Files is generated by MADGRAPH 5                   *
#                                                                    *
# WARNING: This Files is generated for MADEVENT (compatibility issue)*
#          This files is NOT a valid MG4 proc_card.dat               *
#          Running this in MG4 will NEVER reproduce the result of MG5*
#                                                                    *
#*********************************************************************
#*********************************************************************
# Process(es) requested : mg2 input                                  *
#*********************************************************************
# Begin PROCESS # This is TAG. Do not modify this line
p p > zph , zph > j j           #Process
# Be carefull the coupling are here in MG5 convention
          
end_coup           # End the couplings input

done               # this tells MG there are no more procs
# End PROCESS  # This is TAG. Do not modify this line
#*********************************************************************
# Model information                                                  *
#*********************************************************************
# Begin MODEL  # This is TAG. Do not modify this line
Zprime_UFO
# End   MODEL  # This is TAG. Do not modify this line
#*********************************************************************
# Start multiparticle definitions                                    *
#*********************************************************************
# Begin MULTIPARTICLES # This is TAG. Do not modify this line

# End  MULTIPARTICLES # This is TAG. Do not modify this line
</MGProcCard>
<MGRunCard>
#*********************************************************************
#                       MadGraph5_aMC@NLO                            *
#                                                                    *
#                     run_card.dat MadEvent                          *
#                                                                    *
#  This file is used to set the parameters of the run.               *
#                                                                    *
#  Some notation/conventions:                                        *
#                                                                    *
#   Lines starting with a '# ' are info or comments                  *
#                                                                    *
#   mind the format:   value    = variable     ! comment             *
#*********************************************************************
#
#*******************                                                 
# Running parameters
#*******************                                                 
#                                                                    
#*********************************************************************
# Tag name for the run (one word)                                    *
#*********************************************************************
  tag_1     = run_tag ! name of the run 
#*********************************************************************
# Run to generate the grid pack                                      *
#*********************************************************************
  .false.     = gridpack  !True = setting up the grid pack
#*********************************************************************
# Number of events and rnd seed                                      *
# Warning: Do not generate more than 1M events in a single run       *
# If you want to run Pythia, avoid more than 50k events in a run.    *
#*********************************************************************
  2000 = nevents ! Number of unweighted events requested 
 2424 = iseed   ! rnd seed (0=assigned automatically=default))
#*********************************************************************
# Collider type and energy                                           *
# lpp: 0=No PDF, 1=proton, -1=antiproton, 2=photon from proton,      *
#                                         3=photon from electron     *
#*********************************************************************
        1     = lpp1    ! beam 1 type 
        1     = lpp2    ! beam 2 type
     4000     = ebeam1  ! beam 1 total energy in GeV
     4000     = ebeam2  ! beam 2 total energy in GeV
#*********************************************************************
# Beam polarization from -100 (left-handed) to 100 (right-handed)    *
#*********************************************************************
        0     = polbeam1 ! beam polarization for beam 1
        0     = polbeam2 ! beam polarization for beam 2
#*********************************************************************
# PDF CHOICE: this automatically fixes also alpha_s and its evol.    *
#*********************************************************************
 'nn23lo1'    = pdlabel     ! PDF set                                     
 230000    = lhaid     ! if pdlabel=lhapdf, this is the lhapdf number
#*********************************************************************
# Renormalization and factorization scales                           *
#*********************************************************************
 F        = fixed_ren_scale  ! if .true. use fixed ren scale
 F        = fixed_fac_scale  ! if .true. use fixed fac scale
 91.1880  = scale            ! fixed ren scale
 91.1880  = dsqrt_q2fact1    ! fixed fact scale for pdf1
 91.1880  = dsqrt_q2fact2    ! fixed fact scale for pdf2
 1        = scalefact        ! scale factor for event-by-event scales
#*********************************************************************
# Matching - Warning! ickkw > 1 is still beta
#*********************************************************************
 0        = ickkw            ! 0 no matching, 1 MLM, 2 CKKW matching
 1        = highestmult      ! for ickkw=2, highest mult group
 1        = ktscheme         ! for ickkw=1, 1 Durham kT, 2 Pythia pTE
 1        = alpsfact         ! scale factor for QCD emission vx
 F        = chcluster        ! cluster only according to channel diag
 T        = pdfwgt           ! for ickkw=1, perform pdf reweighting
 5        = asrwgtflavor     ! highest quark flavor for a_s reweight
 T        = clusinfo         ! include clustering tag in output
 3.0      = lhe_version       ! Change the way clustering information pass to shower.        
#*********************************************************************
#**********************************************************
#
#**********************************************************
# Automatic ptj and mjj cuts if xqcut > 0
# (turn off for VBF and single top processes)
#**********************************************************
   T  = auto_ptj_mjj  ! Automatic setting of ptj and mjj
#**********************************************************
#                                                                    
#**********************************
# BW cutoff (M+/-bwcutoff*Gamma)
#**********************************
  15  = bwcutoff      ! (M+/-bwcutoff*Gamma)
#**********************************************************
# Apply pt/E/eta/dr/mij cuts on decay products or not
# (note that etmiss/ptll/ptheavy/ht/sorted cuts always apply)
#**********************************************************
   T  = cut_decays    ! Cut decay products 
#*************************************************************
# Number of helicities to sum per event (0 = all helicities)
# 0 gives more stable result, but longer run time (needed for
# long decay chains e.g.).
# Use >=2 if most helicities contribute, e.g. pure QCD.
#*************************************************************
   0  = nhel          ! Number of helicities used per event
#*******************                                                 
# Standard Cuts
#*******************                                                 
#                                                                    
#*********************************************************************
# Minimum and maximum pt's (for max, -1 means no cut)                *
#*********************************************************************
 20  = ptj       ! minimum pt for the jets 
  0  = ptb       ! minimum pt for the b 
 10  = pta       ! minimum pt for the photons 
 10  = ptl       ! minimum pt for the charged leptons 
  0  = misset    ! minimum missing Et (sum of neutrino's momenta)
  0  = ptheavy   ! minimum pt for one heavy final state
 1.0 = ptonium   ! minimum pt for the quarkonium states
 -1  = ptjmax    ! maximum pt for the jets
 -1  = ptbmax    ! maximum pt for the b
 -1  = ptamax    ! maximum pt for the photons
 -1  = ptlmax    ! maximum pt for the charged leptons
 -1  = missetmax ! maximum missing Et (sum of neutrino's momenta)
#*********************************************************************
# Minimum and maximum E's (in the center of mass frame)              *
#*********************************************************************
  0  = ej     ! minimum E for the jets 
  0  = eb     ! minimum E for the b 
  0  = ea     ! minimum E for the photons 
  0  = el     ! minimum E for the charged leptons 
 -1   = ejmax ! maximum E for the jets
 -1   = ebmax ! maximum E for the b
 -1   = eamax ! maximum E for the photons
 -1   = elmax ! maximum E for the charged leptons
#*********************************************************************
# Maximum and minimum absolute rapidity (for max, -1 means no cut)   *
#*********************************************************************
   5  = etaj    ! max rap for the jets 
  -1  = etab    ! max rap for the b
 2.5  = etaa    ! max rap for the photons 
 2.5  = etal    ! max rap for the charged leptons 
 0.6  = etaonium ! max rap for the quarkonium states
   0  = etajmin ! min rap for the jets
   0  = etabmin ! min rap for the b
   0  = etaamin ! min rap for the photons
   0  = etalmin ! main rap for the charged leptons
#*********************************************************************
# Minimum and maximum DeltaR distance                                *
#*********************************************************************
 0.4 = drjj    ! min distance between jets 
 0   = drbb    ! min distance between b's 
 0.4 = drll    ! min distance between leptons 
 0.4 = draa    ! min distance between gammas 
 0   = drbj    ! min distance between b and jet 
 0.4 = draj    ! min distance between gamma and jet 
 0.4 = drjl    ! min distance between jet and lepton 
 0   = drab    ! min distance between gamma and b 
 0   = drbl    ! min distance between b and lepton 
 0.4 = dral    ! min distance between gamma and lepton 
 -1  = drjjmax ! max distance between jets
 -1  = drbbmax ! max distance between b's
 -1  = drllmax ! max distance between leptons
 -1  = draamax ! max distance between gammas
 -1  = drbjmax ! max distance between b and jet
 -1  = drajmax ! max distance between gamma and jet
 -1  = drjlmax ! max distance between jet and lepton
 -1  = drabmax ! max distance between gamma and b
 -1  = drblmax ! max distance between b and lepton
 -1  = dralmax ! maxdistance between gamma and lepton
#*********************************************************************
# Minimum and maximum invariant mass for pairs                       *
# WARNING: for four lepton final state mmll cut require to have      *
#          different lepton masses for each flavor!                  *           
#*********************************************************************
 0   = mmjj    ! min invariant mass of a jet pair 
 0   = mmbb    ! min invariant mass of a b pair 
 0   = mmaa    ! min invariant mass of gamma gamma pair
 0   = mmll    ! min invariant mass of l+l- (same flavour) lepton pair
 -1  = mmjjmax ! max invariant mass of a jet pair
 -1  = mmbbmax ! max invariant mass of a b pair
 -1  = mmaamax ! max invariant mass of gamma gamma pair
 -1  = mmllmax ! max invariant mass of l+l- (same flavour) lepton pair
#*********************************************************************
# Minimum and maximum invariant mass for all letpons                 *
#*********************************************************************
 0   = mmnl    ! min invariant mass for all letpons (l+- and vl) 
 -1  = mmnlmax ! max invariant mass for all letpons (l+- and vl) 
#*********************************************************************
# Minimum and maximum pt for 4-momenta sum of leptons                *
#*********************************************************************
 0   = ptllmin  ! Minimum pt for 4-momenta sum of leptons(l and vl)
 -1  = ptllmax  ! Maximum pt for 4-momenta sum of leptons(l and vl)
#*********************************************************************
# Inclusive cuts                                                     *
#*********************************************************************
 0  = xptj ! minimum pt for at least one jet  
 0  = xptb ! minimum pt for at least one b 
 0  = xpta ! minimum pt for at least one photon 
 0  = xptl ! minimum pt for at least one charged lepton 
#*********************************************************************
# Control the pt's of the jets sorted by pt                          *
#*********************************************************************
 0   = ptj1min ! minimum pt for the leading jet in pt
 0   = ptj2min ! minimum pt for the second jet in pt
 0   = ptj3min ! minimum pt for the third jet in pt
 0   = ptj4min ! minimum pt for the fourth jet in pt
 -1  = ptj1max ! maximum pt for the leading jet in pt 
 -1  = ptj2max ! maximum pt for the second jet in pt
 -1  = ptj3max ! maximum pt for the third jet in pt
 -1  = ptj4max ! maximum pt for the fourth jet in pt
 0   = cutuse  ! reject event if fails any (0) / all (1) jet pt cuts
#*********************************************************************
# Control the pt's of leptons sorted by pt                           *
#*********************************************************************
 0   = ptl1min ! minimum pt for the leading lepton in pt
 0   = ptl2min ! minimum pt for the second lepton in pt
 0   = ptl3min ! minimum pt for the third lepton in pt
 0   = ptl4min ! minimum pt for the fourth lepton in pt
 -1  = ptl1max ! maximum pt for the leading lepton in pt 
 -1  = ptl2max ! maximum pt for the second lepton in pt
 -1  = ptl3max ! maximum pt for the third lepton in pt
 -1  = ptl4max ! maximum pt for the fourth lepton in pt
#*********************************************************************
# Control the Ht(k)=Sum of k leading jets                            *
#*********************************************************************
 0   = htjmin ! minimum jet HT=Sum(jet pt)
 -1  = htjmax ! maximum jet HT=Sum(jet pt)
 0   = ihtmin  !inclusive Ht for all partons (including b)
 -1  = ihtmax  !inclusive Ht for all partons (including b)
 0   = ht2min ! minimum Ht for the two leading jets
 0   = ht3min ! minimum Ht for the three leading jets
 0   = ht4min ! minimum Ht for the four leading jets
 -1  = ht2max ! maximum Ht for the two leading jets
 -1  = ht3max ! maximum Ht for the three leading jets
 -1  = ht4max ! maximum Ht for the four leading jets
#***********************************************************************
# Photon-isolation cuts, according to hep-ph/9801442                   *
# When ptgmin=0, all the other parameters are ignored                  *
# When ptgmin>0, pta and draj are not going to be used                 *
#***********************************************************************
   0 = ptgmin ! Min photon transverse momentum
 0.4 = R0gamma ! Radius of isolation code
 1.0 = xn ! n parameter of eq.(3.4) in hep-ph/9801442
 1.0 = epsgamma ! epsilon_gamma parameter of eq.(3.4) in hep-ph/9801442
 .true. = isoEM ! isolate photons from EM energy (photons and leptons)
#*********************************************************************
# WBF cuts                                                           *
#*********************************************************************
 0   = xetamin ! minimum rapidity for two jets in the WBF case  
 0   = deltaeta ! minimum rapidity for two jets in the WBF case 
#*********************************************************************
# KT DURHAM CUT                                                      *
#*********************************************************************
 -1    =  ktdurham        
 0.4  =  dparameter 
#*********************************************************************
# maximal pdg code for quark to be considered as a light jet         *
# (otherwise b cuts are applied)                                     *
#*********************************************************************
 4 = maxjetflavor    ! Maximum jet pdg code
#*********************************************************************
# Jet measure cuts                                                   *
#*********************************************************************
 0   = xqcut   ! minimum kt jet measure between partons
#*********************************************************************
#
#*********************************************************************
# Store info for systematics studies                                 *
# WARNING: If use_syst is T, matched Pythia output is                *
#          meaningful ONLY if plotted taking matchscale              *
#          reweighting into account!                                 *
#*********************************************************************
   F  = use_syst      ! Enable systematics studies
#
#**************************************
# Parameter of the systematics study
#  will be used by SysCalc (if installed)
#**************************************                                  
#
0.5 1 2 = sys_scalefact  # factorization/renormalization scale factor
0.5 1 2 = sys_alpsfact  # \alpha_s emission scale factors
30 50 = sys_matchscale # variation of merging scale
# PDF sets and number of members (0 or none for all members).
CT10nlo.LHgrid = sys_pdf # matching scales
# MSTW2008nlo68cl.LHgrid 1  = sys_pdf
</MGRunCard>
<slha>
######################################################################
## PARAM_CARD AUTOMATICALY GENERATED BY MG5 FOLLOWING UFO MODEL   ####
######################################################################
##                                                                  ##
##  Width set on Auto will be computed following the information    ##
##        present in the decay.py files of the model.               ##
##        See  arXiv:1402.1178 for more details.                    ##
##                                                                  ##
######################################################################

###################################
## INFORMATION FOR CKMBLOCK
###################################
Block ckmblock 
    1 2.277360e-01 # cabi 

###################################
## INFORMATION FOR FRBLOCK
###################################
Block frblock 
    1 1.200000e+00 # gz 

###################################
## INFORMATION FOR MASS
###################################
Block mass 
    1 5.040000e-03 # MD 
    2 2.550000e-03 # MU 
    3 1.010000e-01 # MS 
    4 1.270000e+00 # MC 
    5 4.700000e+00 # MB 
    6 1.720000e+02 # MT 
   11 5.110000e-04 # Me 
   13 1.056600e-01 # MM 
   15 1.777000e+00 # MTA 
   23 9.118760e+01 # MZ 
   25 1.200000e+02 # MH 
  10030 3.900000e+03 # MZph 
  10031 3.000000e+02 # MZpl 
## Dependent parameters, given by model restrictions.
## Those values should be edited following the 
## analytical expression. MG5 ignores those values 
## but they are important for interfacing the output of MG5
## to external program such as Pythia.
  12 0.000000 # ve : 0.0 
  14 0.000000 # vm : 0.0 
  16 0.000000 # vt : 0.0 
  21 0.000000 # g : 0.0 
  22 0.000000 # a : 0.0 
  24 79.824360 # w+ : cmath.sqrt(MZ__exp__2/2. + cmath.sqrt(MZ__exp__4/4. - (aEW*cmath.pi*MZ__exp__2)/(Gf*sqrt__2))) 

###################################
## INFORMATION FOR SMINPUTS
###################################
Block sminputs 
    1 1.279000e+02 # aEWM1 
    2 1.166370e-05 # Gf 
    3 1.184000e-01 # aS 

###################################
## INFORMATION FOR YUKAWA
###################################
Block yukawa 
    1 5.040000e-03 # ymdo 
    2 2.550000e-03 # ymup 
    3 1.010000e-01 # yms 
    4 1.270000e+00 # ymc 
    5 4.700000e+00 # ymb 
    6 1.720000e+02 # ymt 
   11 5.110000e-04 # yme 
   13 1.056600e-01 # ymm 
   15 1.777000e+00 # ymtau 

###################################
## INFORMATION FOR DECAY
###################################
DECAY   6 1.508336e+00 # WT 
DECAY  23 2.495200e+00 # WZ 
DECAY  24 2.085000e+00 # WW 
DECAY  25 5.753088e-03 # WH 
## Dependent parameters, given by model restrictions.
## Those values should be edited following the 
## analytical expression. MG5 ignores those values 
## but they are important for interfacing the output of MG5
## to external program such as Pythia.
DECAY  1 0.000000 # d : 0.0 
DECAY  2 0.000000 # u : 0.0 
DECAY  3 0.000000 # s : 0.0 
DECAY  4 0.000000 # c : 0.0 
DECAY  5 0.000000 # b : 0.0 
DECAY  11 0.000000 # e- : 0.0 
DECAY  12 0.000000 # ve : 0.0 
DECAY  13 0.000000 # mu- : 0.0 
DECAY  14 0.000000 # vm : 0.0 
DECAY  15 0.000000 # ta- : 0.0 
DECAY  16 0.000000 # vt : 0.0 
DECAY  21 0.000000 # g : 0.0 
DECAY  22 0.000000 # a : 0.0 
DECAY  10030 0.308725 # zph : (gz__exp__2*MZph*(5 + cmath.sqrt(1 - (4*MT__exp__2)/MZph__exp__2)))/(144.*cmath.pi) 
DECAY  10031 0.132629 # zpl : (5*gz__exp__2*MZpl)/(144.*cmath.pi) 
#===========================================================
# QUANTUM NUMBERS OF NEW STATE(S) (NON SM PDG CODE)
#===========================================================

Block QNUMBERS 10030  # zph 
        1 0  # 3 times electric charge
        2 3  # number of spin states (2S+1)
        3 1  # colour rep (1: singlet, 3: triplet, 8: octet)
        4 0  # Particle/Antiparticle distinction (0=own anti)
Block QNUMBERS 10031  # zpl 
        1 0  # 3 times electric charge
        2 3  # number of spin states (2S+1)
        3 1  # colour rep (1: singlet, 3: triplet, 8: octet)
        4 0  # Particle/Antiparticle distinction (0=own anti)
</slha>
## END BANNER##
<MGGenerationInfo>
#  Number of Events        :         3874
#  Integrated weight (pb)  :  0.95034E-04
#  Max wgt                 :  0.38324E-07
#  Average wgt             :  0.24531E-07
</MGGenerationInfo>
</header>
<init>
     2212     2212  0.40000000000E+04  0.40000000000E+04 0 0  247000  247000 2   1
  0.95055499490E-04  0.34260749038E-06  0.38323890000E-07   0
</init>
<event>
 5   0  0.3680814E-07  0.3942189E+04  0.7818609E-02  0.8016311E-01
       -2   -1    0    0    0  501  0.00000000000E+00  0.00000000000E+00  0.14460293290E+04  0.14460293290E+04  0.25500000920E-02 0. -1.
        2   -1    0    0  501    0  0.00000000000E+00  0.00000000000E+00 -0.26868151999E+04  0.26868151999E+04  0.25500000920E-02 0.  1.
    10030    2    1    2    0    0  0.00000000000E+00  0.00000000000E+00 -0.12407858710E+04  0.41328445289E+04  0.39421890267E+04 0.  0.
        1    1    3    3  502    0 -0.81455776861E+03 -0.20103909423E+02 -0.25019940015E+04  0.26313271384E+04  0.50400001928E-02 0.  1.
       -1    1    3    3    0  502  0.81455776861E+03  0.20103909423E+02  0.12612081305E+04  0.15015173905E+04  0.50400001928E-02 0. -1.
</event>
<event>
 5   0  0.3680814E-07  0.3887519E+04  0.7818609E-02  0.8027630E-01
        2   -1    0    0  501    0  0.00000000000E+00  0.00000000000E+00  0.19009916933E+04  0.19009916933E+04  0.25500000920E-02 0.  1.
       -2   -1    0    0    0  501  0.00000000000E+00  0.00000000000E+00 -0.19874890256E+04  0.19874890256E+04  0.25500000920E-02 0. -1.
    10030    2    1    2    0    0  0.00000000000E+00  0.00000000000E+00 -0.86497332247E+02  0.38884807189E+04  0.38875185546E+04 0.  0.
        1    1    3    3  502    0  0.96387241269E+03 -0.13445968244E+03 -0.17262436906E+04  0.19816777522E+04  0.50400001928E-02 0.  1.
       -1    1    3    3    0  502 -0.96387241269E+03  0.13445968244E+03  0.16397463583E+04  0.19068029667E+04  0.50400001928E-02 0. -1.
</event>
<event>
 5   0  0.3810833E-07  0.3928754E+04  0.7818609E-02  0.8019075E-01
       -2   -1    0    0    0  501  0.00000000000E+00  0.00000000000E+00  0.26329145331E+04  0.26329145331E+04  0.25500000920E-02 0. -1.
        2   -1    0    0  501    0  0.00000000000E+00  0.00000000000E+00 -0.14655912064E+04  0.14655912064E+04  0.25500000920E-02 0.  1.
    10030    2    1    2    0    0  0.00000000000E+00  0.00000000000E+00  0.11673233267E+04  0.40985057395E+04  0.39287536888E+04 0.  0.
        3    1    3    3  502    0 -0.11049124574E+04  0.12485881975E+04  0.16672788981E+04  0.23578852728E+04  0.10100000352E+00 0. -1.
       -3    1    3    3    0  502  0.11049124574E+04 -0.12485881975E+04 -0.49995557138E+03  0.17406204667E+04  0.10100000352E+00 0.  1.
</event>
<event>
 5   0  0.3680814E-07  0.3929190E+04  0.7818609E-02  0.8018985E-01
       -2   -1    0    0    0  501  0.00000000000E+00  0.00000000000E+00  0.20126591761E+04  0.20126591761E+04  0.25500000920E-02 0.  1.
        2   -1    0    0  501    0  0.00000000000E+00  0.00000000000E+00 -0.19176787495E+04  0.19176787495E+04  0.25500000920E-02 0. -1.
    10030    2    1    2    0    0  0.00000000000E+00  0.00000000000E+00  0.94980426541E+02  0.39303379256E+04  0.39291901109E+04 0.  0.
        1    1    3    3  502    0 -0.15994750390E+04  0.89061366314E+03  0.76052425704E+03  0.19824001218E+04  0.50400001928E-02 0. -1.
       -1    1    3    3    0  502  0.15994750390E+04 -0.89061366314E+03 -0.66554383050E+03  0.19479378038E+04  0.50400001928E-02 0.  1.
</event>
<event>
 5   0  0.3810833E-07  0.3882677E+04  0.7818609E-02  0.8028642E-01
       -2   -1    0    0    0  501  0.00000000000E+00  0.00000000000E+00  0.11586816638E+04  0.11586816638E+04  0.25500000920E-02 0. -1.
        2   -1    0    0  501    0  0.00000000000E+00  0.00000000000E+00 -0.32526573469E+04  0.32526573469E+04  0.25500000920E-02 0.  1.
    10030    2    1    2    0    0  0.00000000000E+00  0.00000000000E+00 -0.20939756831E+04  0.44113390107E+04  0.38826766162E+04 0.  0.
        3    1    3    3  502    0 -0.44616647959E+03 -0.13567234504E+04  0.44697794070E+03  0.14965133939E+04  0.10100000352E+00 0. -1.
       -3    1    3    3    0  502  0.44616647959E+03  0.13567234504E+04 -0.25409536238E+04  0.29148256169E+04  0.10100000352E+00 0.  1.
</event>
<event>
 5   0  0.1187925E-07  0.3814713E+04  0.7818609E-02  0.8043005E-01
        1   -1    0    0  501    0  0.00000000000E+00  0.00000000000E+00  0.21230572183E+04  0.21230572183E+04  0.50400001928E-02 0.  1.
       -1   -1    0    0    0  501  0.00000000000E+00  0.00000000000E+00 -0.17135710343E+04  0.17135710343E+04  0.50400001928E-02 0. -1.
    10030    2    1    2    0    0  0.00000000000E+00  0.00000000000E+00  0.40948618402E+03  0.38366282526E+04  0.38147132807E+04 0.  0.
        1    1    3    3  502    0  0.12314968639E+04 -0.59796396036E+03 -0.11309920711E+04  0.17757501199E+04  0.50400001928E-02 0. -1.
       -1    1    3    3    0  502 -0.12314968639E+04  0.59796396036E+03  0.15404782551E+04  0.20608781327E+04  0.50400001928E-02 0.  1.
</event>
<event>
 5   0  0.1187925E-07  0.3949191E+04  0.7818609E-02  0.8014875E-01
        1   -1    0    0  501    0  0.00000000000E+00  0.00000000000E+00  0.17344206617E+04  0.17344206617E+04  0.50400001928E-02 0.  1.
       -1   -1    0    0    0  501  0.00000000000E+00  0.00000000000E+00 -0.22480290085E+04  0.22480290085E+04  0.50400001928E-02 0. -1.
    10030    2    1    2    0    0  0.00000000000E+00  0.00000000000E+00 -0.51360834687E+03  0.39824496702E+04  0.39491912896E+04 0.  0.
        3    1    3    3  502    0  0.25594268975E+03  0.17003759525E+04 -0.12356708961E+04  0.21174672640E+04  0.10100000352E+00 0. -1.
       -3    1    3    3    0  502 -0.25594268975E+03 -0.17003759525E+04  0.72206254922E+03  0.18649824062E+04  0.10100000352E+00 0.  1.
</event>
<event>
 5   0  0.3680814E-07  0.3827770E+04  0.7818609E-02  0.8040222E-01
        2   -1    0    0  501    0  0.00000000000E+00  0.00000000000E+00  0.12902123053E+04  0.12902123053E+04  0.25500000920E-02 0. -1.
       -2   -1    0    0    0  501  0.00000000000E+00  0.00000000000E+00 -0.28390327637E+04  0.28390327637E+04  0.25500000920E-02 0.  1.
    10030    2    1    2    0    0  0.00000000000E+00  0.00000000000E+00 -0.15488204584E+04  0.41292450690E+04  0.38277695892E+04 0.  0.
        1    1    3    3  502    0  0.57777954371E+03  0.10790841398E+04 -0.23615824481E+04  0.26599480147E+04  0.50400001928E-02 0.  1.
       -1    1    3    3    0  502 -0.57777954371E+03 -0.10790841398E+04  0.81276198971E+03  0.14692970543E+04  0.50400001928E-02 0. -1.
</event>
<event>
 5   0  0.1187925E-07  0.3296180E+04  0.7818609E-02  0.8163868E-01
       -1   -1    0    0    0  501  0.00000000000E+00  0.00000000000E+00  0.16693156056E+04  0.16693156056E+04  0.50400001928E-02 0.  1.
        1   -1    0    0  501    0  0.00000000000E+00  0.00000000000E+00 -0.16271346887E+04  0.16271346887E+04  0.50400001928E-02 0. -1.
    10030    2    1    2    0    0  0.00000000000E+00  0.00000000000E+00  0.42180916913E+02  0.32964502944E+04  0.32961804128E+04 0.  0.
        2    1    3    3  502    0 -0.41835762201E+03 -0.12739695773E+04  0.97938587555E+03  0.16604873613E+04  0.25500000920E-02 0.  1.
       -2    1    3    3    0  502  0.41835762201E+03  0.12739695773E+04 -0.93720495864E+03  0.16359629331E+04  0.25500000920E-02 0. -1.
</event>
<event>
 5   0  0.3680814E-07  0.3845109E+04  0.7818609E-02  0.8036543E-01
        2   -1    0    0  501    0  0.00000000000E+00  0.00000000000E+00  0.24131757042E+04  0.24131757042E+04  0.25500000920E-02 0. -1.
       -2   -1    0    0    0  501  0.00000000000E+00  0.00000000000E+00 -0.15316809706E+04  0.15316809706E+04  0.25500000920E-02 0.  1.
    10030    2    1    2    0    0  0.00000000000E+00  0.00000000000E+00  0.88149473355E+03  0.39448566748E+04  0.38451087397E+04 0.  0.
        1    1    3    3  502    0 -0.98728790000E+02 -0.15697508709E+03 -0.15224840689E+04  0.15337360568E+04  0.50400001928E-02 0.  1.
       -1    1    3    3    0  502  0.98728790000E+02  0.15697508709E+03  0.24039788025E+04  0.24111206180E+04  0.50400001928E-02 0. -1.
</event>
<event>
 5   0  0.3832389E-07  0.3752422E+04  0.7818609E-02  0.8056443E-01
        2   -1    0    0  501    0  0.00000000000E+00  0.00000000000E+00  0.15668006906E+04  0.15668006906E+04  0.25500000920E-02 0.  1.
       -2   -1    0    0    0  501  0.00000000000E+00  0.00000000000E+00 -0.22467239551E+04  0.22467239551E+04  0.25500000920E-02 0. -1.
    10030    2    1    2    0    0  0.00000000000E+00  0.00000000000E+00 -0.67992326451E+03  0.38135246458E+04  0.37524224946E+04 0.  0.
        5    1    3    3  502    0  0.96669580729E+03 -0.10223246682E+04  0.92141680384E+03  0.16818678686E+04  0.46999998093E+01 0. -1.
       -5    1    3    3    0  502 -0.96669580729E+03  0.10223246682E+04 -0.16013400684E+04  0.21316567772E+04  0.46999998093E+01 0.  1.
</event>
<event>
 5   0  0.3832389E-07  0.3734894E+04  0.7818609E-02  0.8060273E-01
       -2   -1    0    0    0  501  0.00000000000E+00  0.00000000000E+00  0.19965643141E+04  0.19965643141E+04  0.25500000920E-02 0.  1.
        2   -1    0    0  501    0  0.00000000000E+00  0.00000000000E+00 -0.17466793773E+04  0.17466793773E+04  0.25500000920E-02 0. -1.
    10030    2    1    2    0    0  0.00000000000E+00  0.00000000000E+00  0.24988493683E+03  0.37432436914E+04  0.37348936868E+04 0.  0.
        5    1    3    3  502    0 -0.37644025392E+03  0.10193752119E+04  0.16470552235E+04  0.19732323955E+04  0.46999998093E+01 0.  1.
       -5    1    3    3    0  502  0.37644025392E+03 -0.10193752119E+04 -0.13971702867E+04  0.17700112959E+04  0.46999998093E+01 0. -1.
</event>
<event>
 5   0  0.1187925E-07  0.3787365E+04  0.7818609E-02  0.8048872E-01
        1   -1    0    0  501    0  0.00000000000E+00  0.00000000000E+00  0.22117033638E+04  0.22117033638E+04  0.50400001928E-02 0. -1.
       -1   -1    0    0    0  501  0.00000000000E+00  0.00000000000E+00 -0.16213901134E+04  0.16213901134E+04  0.50400001928E-02 0.  1.
    10030    2    1    2    0    0  0.00000000000E+00  0.00000000000E+00  0.59031325045E+03  0.38330934772E+04  0.37873652941E+04 0.  0.
        5    1    3    3  502    0  0.13685291495E+04  0.78104119732E+03 -0.76781705305E+03  0.17528441180E+04  0.46999998093E+01 0.  1.
       -5    1    3    3    0  502 -0.13685291495E+04 -0.78104119732E+03  0.13581303035E+04  0.20802493592E+04  0.46999998093E+01 0. -1.
</event>
<event>
 5   0  0.1187925E-07  0.4068154E+04  0.7818609E-02  0.7990937E-01
       -1   -1    0    0    0  501  0.00000000000E+00  0.00000000000E+00  0.19073579621E+04  0.19073579622E+04  0.50400001928E-02 0. -1.
        1   -1    0    0  501    0  0.00000000000E+00  0.00000000000E+00 -0.21692146191E+04  0.21692146191E+04  0.50400001928E-02 0.  1.
    10030    2    1    2    0    0  0.00000000000E+00  0.00000000000E+00 -0.26185665691E+03  0.40765725812E+04  0.40681537706E+04 0.  0.
        1    1    3    3  502    0 -0.71427936041E+03  0.14435358789E+04 -0.13758672125E+04  0.21182543343E+04  0.50400001928E-02 0.  1.
       -1    1    3    3    0  502  0.71427936041E+03 -0.14435358789E+04  0.11140105556E+04  0.19583182469E+04  0.50400001928E-02 0. -1.
</event>
<event>
 5   0  0.1187925E-07  0.4311857E+04  0.7818609E-02  0.7944429E-01
        1   -1    0    0  501    0  0.00000000000E+00  0.00000000000E+00  0.34247982309E+04  0.34247982309E+04  0.50400001928E-02 0.  1.
       -1   -1    0    0    0  501  0.00000000000E+00  0.00000000000E+00 -0.13571684444E+04  0.13571684444E+04  0.50400001928E-02 0. -1.
    10030    2    1    2    0    0  0.00000000000E+00  0.00000000000E+00  0.20676297865E+04  0.47819666753E+04  0.43118571811E+04 0.  0.
        3    1    3    3  502    0  0.19332957685E+04 -0.12327236039E+02  0.20919009513E+04  0.28484792591E+04  0.10100000352E+00 0. -1.
       -3    1    3    3    0  502 -0.19332957685E+04  0.12327236039E+02 -0.24271164785E+02  0.19334874163E+04  0.10100000352E+00 0.  1.
</event>
<event>
 5   0  0.1187925E-07  0.3897536E+04  0.7818609E-02  0.8025542E-01
        1   -1    0    0  501    0  0.00000000000E+00  0.00000000000E+00  0.24743330138E+04  0.24743330138E+04  0.50400001928E-02 0.  1.
       -1   -1    0    0    0  501  0.00000000000E+00  0.00000000000E+00 -0.15348362602E+04  0.15348362602E+04  0.50400001928E-02 0. -1.
    10030    2    1    2    0    0  0.00000000000E+00  0.00000000000E+00  0.93949675357E+03  0.40091692739E+04  0.38975356467E+04 0.  0.
        3    1    3    3  502    0  0.12768861009E+04 -0.13340337516E+04 -0.17066857991E+03  0.18545112401E+04  0.10100000352E+00 0.  1.
       -3    1    3    3    0  502 -0.12768861009E+04  0.13340337516E+04  0.11101653335E+04  0.21546580339E+04  0.10100000352E+00 0. -1.
</event>
<event>
 5   0  0.3680814E-07  0.3896452E+04  0.7818609E-02  0.8025768E-01
       -2   -1    0    0    0  501  0.00000000000E+00  0.00000000000E+00  0.31022693570E+04  0.31022693570E+04  0.25500000920E-02 0. -1.
        2   -1    0    0  501    0  0.00000000000E+00  0.00000000000E+00 -0.12234864091E+04  0.12234864091E+04  0.25500000920E-02 0.  1.
    10030    2    1    2    0    0  0.00000000000E+00  0.00000000000E+00  0.18787829479E+04  0.43257557661E+04  0.38964519222E+04 0.  0.
        1    1    3    3  502    0 -0.77358368718E+03  0.93662366431E+03 -0.75154096685E+03  0.14284640123E+04  0.50400001928E-02 0.  1.
       -1    1    3    3    0  502  0.77358368718E+03 -0.93662366431E+03  0.26303239148E+04  0.28972917538E+04  0.50400001928E-02 0. -1.
</event>
<event>
 5   0  0.1187925E-07  0.3827633E+04  0.7818609E-02  0.8040251E-01
       -1   -1    0    0    0  501  0.00000000000E+00  0.00000000000E+00  0.21206163339E+04  0.21206163339E+04  0.50400001928E-02 0.  1.
        1   -1    0    0  501    0  0.00000000000E+00  0.00000000000E+00 -0.17271831930E+04  0.17271831930E+04  0.50400001928E-02 0. -1.
    10030    2    1    2    0    0  0.00000000000E+00  0.00000000000E+00  0.39343314089E+03  0.38477995269E+04  0.38276326317E+04 0.  0.
        4    1    3    3  502    0  0.61010359779E+02  0.52034072106E+03  0.20471251777E+04  0.21131019465E+04  0.12699999809E+01 0.  1.
       -4    1    3    3    0  502 -0.61010359779E+02 -0.52034072106E+03 -0.16536920369E+04  0.17346975805E+04  0.12699999809E+01 0. -1.
</event>
<event>
 5   0  0.1187925E-07  0.3893791E+04  0.7818609E-02  0.8026322E-01
       -1   -1    0    0    0  501  0.00000000000E+00  0.00000000000E+00  0.17519684897E+04  0.17519684897E+04  0.50400001928E-02 0.  1.
        1   -1    0    0  501    0  0.00000000000E+00  0.00000000000E+00 -0.21635105371E+04  0.21635105371E+04  0.50400001928E-02 0. -1.
    10030    2    1    2    0    0  0.00000000000E+00  0.00000000000E+00 -0.41154204744E+03  0.39154790268E+04  0.38937911028E+04 0.  0.
        1    1    3    3  502    0 -0.14709536795E+04  0.12107778019E+04 -0.60889629188E+03  0.20001105738E+04  0.50400001928E-02 0.  1.
       -1    1    3    3    0  502  0.14709536795E+04 -0.12107778019E+04  0.19735424444E+03  0.19153684530E+04  0.50400001928E-02 0. -1.
</event>
<event>
 5   0  0.3665303E-07  0.3885743E+04  0.7818609E-02  0.8028001E-01
       -2   -1    0    0    0  501  0.00000000000E+00  0.00000000000E+00  0.17697279351E+04  0.17697279351E+04  0.25500000920E-02 0. -1.
        2   -1    0    0  501    0  0.00000000000E+00  0.00000000000E+00 -0.21329549360E+04  0.21329549360E+04  0.25500000920E-02 0.  1.
    10030    2    1    2    0    0  0.00000000000E+00  0.00000000000E+00 -0.36322700089E+03  0.39026828712E+04  0.38857431385E+04 0.  0.
        2    1    3    3  502    0  0.12826266826E+04  0.14432739670E+04  0.35149013363E+02  0.19311671093E+04  0.25500000920E-02 0. -1.
       -2    1    3    3    0  502 -0.12826266826E+04 -0.14432739670E+04 -0.39837601426E+03  0.19715157619E+04  0.25500000920E-02 0.  1.
</event>
<event>
 5   0  0.1187925E-07  0.3209288E+04  0.7818609E-02  0.8186369E-01
       -1   -1    0    0    0  501  0.00000000000E+00  0.00000000000E+00  0.15761449421E+04  0.15761449421E+04  0.50400001928E-02 0.  1.
        1   -1    0    0  501    0  0.00000000000E+00  0.00000000000E+00 -0.16336582028E+04  0.16336582028E+04  0.50400001928E-02 0. -1.
    10030    2    1    2    0    0  0.00000000000E+00  0.00000000000E+00 -0.57513260652E+02  0.32098031449E+04  0.32092878421E+04 0.  0.
        3    1    3    3  502    0 -0.14158946018E+04  0.67591747672E+03 -0.36535211288E+03  0.16109326911E+04  0.10100000352E+00 0. -1.
       -3    1    3    3    0  502  0.14158946018E+04 -0.67591747672E+03  0.30783885223E+03  0.15988704538E+04  0.10100000352E+00 0.  1.
</event>
<event>
 5   0  0.3810833E-07  0.3922062E+04  0.7818609E-02  0.8020456E-01
        2   -1    0    0  501    0  0.00000000000E+00  0.00000000000E+00  0.13101847631E+04  0.13101847631E+04  0.25500000920E-02 0.  1.
       -2   -1    0    0    0  501  0.00000000000E+00  0.00000000000E+00 -0.29351910223E+04  0.29351910223E+04  0.25500000920E-02 0. -1.
    10030    2    1    2    0    0  0.00000000000E+00  0.00000000000E+00 -0.16250062593E+04  0.42453757854E+04  0.39220619853E+04 0.  0.
        3    1    3    3  502    0 -0.79408826732E+03  0.13033443395E+04  0.52041302319E+03  0.16124863932E+04  0.10100000352E+00 0.  1.
       -3    1    3    3    0  502  0.79408826732E+03 -0.13033443395E+04 -0.21454192825E+04  0.26328893922E+04  0.10100000352E+00 0. -1.
</event>
<event>
 5   0  0.1187925E-07  0.3894244E+04  0.7818609E-02  0.8026227E-01
       -1   -1    0    0    0  501  0.00000000000E+00  0.00000000000E+00  0.33947531005E+04  0.33947531005E+04  0.50400001928E-02 0.  1.
        1   -1    0    0  501    0  0.00000000000E+00  0.00000000000E+00 -0.11168068253E+04  0.11168068253E+04  0.50400001928E-02 0. -1.
    10030    2    1    2    0    0  0.00000000000E+00  0.00000000000E+00  0.22779462752E+04  0.45115599259E+04  0.38942436663E+04 0.  0.
        1    1    3    3  502    0 -0.12106414654E+02 -0.38097426812E+03 -0.10731620847E+04  0.11388436321E+04  0.50400001928E-02 0. -1.
       -1    1    3    3    0  502  0.12106414654E+02  0.38097426812E+03  0.33511083599E+04  0.33727162938E+04  0.50400001928E-02 0.  1.
</event>
<event>
 5   0  0.3665303E-07  0.3512088E+04  0.7818609E-02  0.8110931E-01
       -2   -1    0    0    0  501  0.00000000000E+00  0.00000000000E+00  0.14734108683E+04  0.14734108683E+04  0.25500000920E-02 0. -1.
        2   -1    0    0  501    0  0.00000000000E+00  0.00000000000E+00 -0.20928927383E+04  0.20928927383E+04  0.25500000920E-02 0.  1.
    10030    2    1    2    0    0  0.00000000000E+00  0.00000000000E+00 -0.61948187007E+03  0.35663036066E+04  0.35120882146E+04 0.  0.
        2    1    3    3  502    0  0.14388778254E+04  0.10060105777E+04 -0.27363607930E+03  0.17768802387E+04  0.25500000920E-02 0. -1.
       -2    1    3    3    0  502 -0.14388778254E+04 -0.10060105777E+04 -0.34584579077E+03  0.17894233679E+04  0.25500000920E-02 0.  1.
</event>
<event>
 5   0  0.1187925E-07  0.3446843E+04  0.7818609E-02  0.8126504E-01
       -1   -1    0    0    0  501  0.00000000000E+00  0.00000000000E+00  0.11864149899E+04  0.11864149899E+04  0.50400001928E-02 0. -1.
        1   -1    0    0  501    0  0.00000000000E+00  0.00000000000E+00 -0.25034926574E+04  0.25034926574E+04  0.50400001928E-02 0.  1.
    10030    2    1    2    0    0  0.00000000000E+00  0.00000000000E+00 -0.13170776675E+04  0.36899076473E+04  0.34468427384E+04 0.  0.
        2    1    3    3  502    0  0.74528977923E+03 -0.53848247340E+03 -0.22189860008E+04  0.24019406947E+04  0.25500000920E-02 0.  1.
       -2    1    3    3    0  502 -0.74528977923E+03  0.53848247340E+03  0.90190833332E+03  0.12879669526E+04  0.25500000920E-02 0. -1.
</event>
<event>
 5   0  0.3810833E-07  0.3890455E+04  0.7818609E-02  0.8027017E-01
       -2   -1    0    0    0  501  0.00000000000E+00  0.00000000000E+00  0.11434240455E+04  0.11434240455E+04  0.25500000920E-02 0. -1.
        2   -1    0    0  501    0  0.00000000000E+00  0.00000000000E+00 -0.33092789387E+04  0.33092789387E+04  0.25500000920E-02 0.  1.
    10030    2    1    2    0    0  0.00000000000E+00  0.00000000000E+00 -0.21658548932E+04  0.44527029842E+04  0.38904545297E+04 0.  0.
        3    1    3    3  502    0 -0.79792700755E+02  0.19432252014E+04 -0.10398283541E+04  0.22053875112E+04  0.10100000352E+00 0.  1.
       -3    1    3    3    0  502  0.79792700755E+02 -0.19432252014E+04 -0.11260265391E+04  0.22473154730E+04  0.10100000352E+00 0. -1.
</event>
<event>
 5   0  0.3832389E-07  0.3738391E+04  0.7818609E-02  0.8059507E-01
       -2   -1    0    0    0  501  0.00000000000E+00  0.00000000000E+00  0.20077329403E+04  0.20077329403E+04  0.25500000920E-02 0. -1.
        2   -1    0    0  501    0  0.00000000000E+00  0.00000000000E+00 -0.17402176221E+04  0.17402176221E+04  0.25500000920E-02 0.  1.
    10030    2    1    2    0    0  0.00000000000E+00  0.00000000000E+00  0.26751531820E+03  0.37479505624E+04  0.37383912279E+04 0.  0.
        5    1    3    3  502    0  0.45574416257E+03 -0.43136419315E+03  0.18989678255E+04  0.19999696751E+04  0.46999998093E+01 0. -1.
       -5    1    3    3    0  502 -0.45574416257E+03  0.43136419315E+03 -0.16314525073E+04  0.17479808873E+04  0.46999998093E+01 0.  1.
</event>
<event>
 5   0  0.1187925E-07  0.3845136E+04  0.7818609E-02  0.8036538E-01
       -1   -1    0    0    0  501  0.00000000000E+00  0.00000000000E+00  0.23870798448E+04  0.23870798448E+04  0.50400001928E-02 0.  1.
        1   -1    0    0  501    0  0.00000000000E+00  0.00000000000E+00 -0.15484477545E+04  0.15484477545E+04  0.50400001928E-02 0. -1.
    10030    2    1    2    0    0  0.00000000000E+00  0.00000000000E+00  0.83863209036E+03  0.39355275993E+04  0.38451363697E+04 0.  0.
        2    1    3    3  502    0 -0.77790772461E+03 -0.97119828896E+03  0.19193408291E+04  0.22874080883E+04  0.25500000920E-02 0.  1.
       -2    1    3    3    0  502  0.77790772461E+03  0.97119828896E+03 -0.10807087387E+04  0.16481195109E+04  0.25500000920E-02 0. -1.
</event>
<event>
 5   0  0.3810833E-07  0.3857361E+04  0.7818609E-02  0.8033956E-01
       -2   -1    0    0    0  501  0.00000000000E+00  0.00000000000E+00  0.20283294959E+04  0.20283294959E+04  0.25500000920E-02 0.  1.
        2   -1    0    0  501    0  0.00000000000E+00  0.00000000000E+00 -0.18339270302E+04  0.18339270302E+04  0.25500000920E-02 0. -1.
    10030    2    1    2    0    0  0.00000000000E+00  0.00000000000E+00  0.19440246576E+03  0.38622565261E+04  0.38573609054E+04 0.  0.
        3    1    3    3  502    0  0.17506241349E+04 -0.17492693647E+03 -0.69407004521E+03  0.18913004871E+04  0.10100000352E+00 0. -1.
       -3    1    3    3    0  502 -0.17506241349E+04  0.17492693647E+03  0.88847251096E+03  0.19709560390E+04  0.10100000352E+00 0.  1.
</event>
<event>
 5   0  0.3680814E-07  0.4057343E+04  0.7818609E-02  0.7993077E-01
        2   -1    0    0  501    0  0.00000000000E+00  0.00000000000E+00  0.24893811848E+04  0.24893811848E+04  0.25500000920E-02 0.  1.
       -2   -1    0    0    0  501  0.00000000000E+00  0.00000000000E+00 -0.16532256274E+04  0.16532256274E+04  0.25500000920E-02 0. -1.
    10030    2    1    2    0    0  0.00000000000E+00  0.00000000000E+00  0.83615555738E+03  0.41426068122E+04  0.40573433530E+04 0.  0.
        1    1    3    3  502    0 -0.15893684390E+04 -0.98872877064E+01 -0.86909690134E+03  0.18114964027E+04  0.50400001928E-02 0. -1.
       -1    1    3    3    0  502  0.15893684390E+04  0.98872877064E+01  0.17052524587E+04  0.23311104095E+04  0.50400001928E-02 0.  1.
</event>
<event>
 5   0  0.1187925E-07  0.3839002E+04  0.7818609E-02  0.8037837E-01
        1   -1    0    0  501    0  0.00000000000E+00  0.00000000000E+00  0.14798517811E+04  0.14798517811E+04  0.50400001928E-02 0. -1.
       -1   -1    0    0    0  501  0.00000000000E+00  0.00000000000E+00 -0.24897661060E+04  0.24897661060E+04  0.50400001928E-02 0.  1.
    10030    2    1    2    0    0  0.00000000000E+00  0.00000000000E+00 -0.10099143249E+04  0.39696178872E+04  0.38390023739E+04 0.  0.
        5    1    3    3  502    0  0.36696960201E+03  0.18807450026E+04 -0.62099956202E+03  0.20143314027E+04  0.46999998093E+01 0.  1.
       -5    1    3    3    0  502 -0.36696960201E+03 -0.18807450026E+04 -0.38891476287E+03  0.19552864845E+04  0.46999998093E+01 0. -1.
</event>
<event>
 5   0  0.3810833E-07  0.3902600E+04  0.7818609E-02  0.8024489E-01
        2   -1    0    0  501    0  0.00000000000E+00  0.00000000000E+00  0.16202636759E+04  0.16202636759E+04  0.25500000920E-02 0.  1.
       -2   -1    0    0    0  501  0.00000000000E+00  0.00000000000E+00 -0.23499707554E+04  0.23499707554E+04  0.25500000920E-02 0. -1.
    10030    2    1    2    0    0  0.00000000000E+00  0.00000000000E+00 -0.72970707947E+03  0.39702344313E+04  0.39026002892E+04 0.  0.
        3    1    3    3  502    0 -0.52536099729E+03 -0.10968390456E+04  0.11875382440E+04  0.16997962115E+04  0.10100000352E+00 0.  1.
       -3    1    3    3    0  502  0.52536099729E+03  0.10968390456E+04 -0.19172453235E+04  0.22704382198E+04  0.10100000352E+00 0. -1.
</event>
<event>
 5   0  0.1187925E-07  0.3848654E+04  0.7818609E-02  0.8035794E-01
        1   -1    0    0  501    0  0.00000000000E+00  0.00000000000E+00  0.15535541206E+04  0.15535541206E+04  0.50400001928E-02 0. -1.
       -1   -1    0    0    0  501  0.00000000000E+00  0.00000000000E+00 -0.23835892730E+04  0.23835892730E+04  0.50400001928E-02 0.  1.
    10030    2    1    2    0    0  0.00000000000E+00  0.00000000000E+00 -0.83003515240E+03  0.39371433936E+04  0.38486542775E+04 0.  0.
        4    1    3    3  502    0 -0.27660120427E+03 -0.11503512750E+04  0.11375115790E+04  0.16412649047E+04  0.12699999809E+01 0. -1.
       -4    1    3    3    0  502  0.27660120427E+03  0.11503512750E+04 -0.19675467314E+04  0.22958784888E+04  0.12699999809E+01 0.  1.
</event>
<event>
 5   0  0.1187925E-07  0.2909534E+04  0.7818609E-02  0.8270046E-01
       -1   -1    0    0    0  501  0.00000000000E+00  0.00000000000E+00  0.11415322407E+04  0.11415322407E+04  0.50400001928E-02 0.  1.
        1   -1    0    0  501    0  0.00000000000E+00  0.00000000000E+00 -0.18539530759E+04  0.18539530759E+04  0.50400001928E-02 0. -1.
    10030    2    1    2    0    0  0.00000000000E+00  0.00000000000E+00 -0.71242083523E+03  0.29954853166E+04  0.29095341268E+04 0.  0.
        1    1    3    3  502    0  0.11322010517E+04 -0.87308137714E+03 -0.63284279112E+03  0.15635345570E+04  0.50400001928E-02 0.  1.
       -1    1    3    3    0  502 -0.11322010517E+04  0.87308137714E+03 -0.79578044112E+02  0.14319507596E+04  0.50400001928E-02 0. -1.
</event>
<event>
 5   0  0.1187925E-07  0.3998379E+04  0.7818609E-02  0.8004874E-01
        1   -1    0    0  501    0  0.00000000000E+00  0.00000000000E+00  0.14776249159E+04  0.14776249159E+04  0.50400001928E-02 0.  1.
       -1   -1    0    0    0  501  0.00000000000E+00  0.00000000000E+00 -0.27048530339E+04  0.27048530339E+04  0.50400001928E-02 0. -1.
    10030    2    1    2    0    0  0.00000000000E+00  0.00000000000E+00 -0.12272281180E+04  0.41824779497E+04  0.39983787898E+04 0.  0.
        3    1    3    3  502    0  0.14163817790E+04 -0.12081683938E+04 -0.13758273959E+04  0.23148886032E+04  0.10100000352E+00 0.  1.
       -3    1    3    3    0  502 -0.14163817790E+04  0.12081683938E+04  0.14859927794E+03  0.18675893465E+04  0.10100000352E+00 0. -1.
</event>
<event>
 5   0  0.3610483E-07  0.3876737E+04  0.7818609E-02  0.8029885E-01
       -2   -1    0    0    0  501  0.00000000000E+00  0.00000000000E+00  0.32410594163E+04  0.32410594163E+04  0.25500000920E-02 0. -1.
        2   -1    0    0  501    0  0.00000000000E+00  0.00000000000E+00 -0.11592726993E+04  0.11592726993E+04  0.25500000920E-02 0.  1.
    10030    2    1    2    0    0  0.00000000000E+00  0.00000000000E+00  0.20817867170E+04  0.44003321156E+04  0.38767366163E+04 0.  0.
        4    1    3    3  502    0  0.79540735695E+03 -0.93145062873E+03 -0.66434324281E+03  0.13934226546E+04  0.12699999809E+01 0.  1.
       -4    1    3    3    0  502 -0.79540735695E+03  0.93145062873E+03  0.27461299598E+04  0.30069094610E+04  0.12699999809E+01 0. -1.
</event>
<event>
 5   0  0.3610483E-07  0.3861299E+04  0.7818609E-02  0.8033127E-01
        2   -1    0    0  501    0  0.00000000000E+00  0.00000000000E+00  0.33198149248E+04  0.33198149248E+04  0.25500000920E-02 0.  1.
       -2   -1    0    0    0  501  0.00000000000E+00  0.00000000000E+00 -0.11227758493E+04  0.11227758493E+04  0.25500000920E-02 0. -1.
    10030    2    1    2    0    0  0.00000000000E+00  0.00000000000E+00  0.21970390754E+04  0.44425907741E+04  0.38612992745E+04 0.  0.
        4    1    3    3  502    0  0.15649206384E+04  0.76418110343E+03  0.13972502217E+03  0.17471330968E+04  0.12699999809E+01 0.  1.
       -4    1    3    3    0  502 -0.15649206384E+04 -0.76418110343E+03  0.20573140533E+04  0.26954576773E+04  0.12699999809E+01 0. -1.
</event>
<event>
 5   0  0.1187925E-07  0.3900350E+04  0.7818609E-02  0.8024956E-01
       -1   -1    0    0    0  501  0.00000000000E+00  0.00000000000E+00  0.20209493355E+04  0.20209493355E+04  0.50400001928E-02 0. -1.
        1   -1    0    0  501    0  0.00000000000E+00  0.00000000000E+00 -0.18818791926E+04  0.18818791926E+04  0.50400001928E-02 0.  1.
    10030    2    1    2    0    0  0.00000000000E+00  0.00000000000E+00  0.13907014286E+03  0.39028285281E+04  0.39003499862E+04 0.  0.
        2    1    3    3  502    0  0.11382768284E+04 -0.15093965005E+04  0.54861961433E+03  0.19684855638E+04  0.25500000920E-02 0. -1.
       -2    1    3    3    0  502 -0.11382768284E+04  0.15093965005E+04 -0.40954947147E+03  0.19343429643E+04  0.25500000920E-02 0.  1.
</event>
<event>
 5   0  0.1187925E-07  0.3558176E+04  0.7818609E-02  0.8100140E-01
       -1   -1    0    0    0  501  0.00000000000E+00  0.00000000000E+00  0.20766652228E+04  0.20766652228E+04  0.50400001928E-02 0. -1.
        1   -1    0    0  501    0  0.00000000000E+00  0.00000000000E+00 -0.15241525800E+04  0.15241525800E+04  0.50400001928E-02 0.  1.
    10030    2    1    2    0    0  0.00000000000E+00  0.00000000000E+00  0.55251264283E+03  0.36008178028E+04  0.35581763066E+04 0.  0.
        5    1    3    3  502    0  0.96857918418E+03  0.14623337571E+04 -0.24912104910E+02  0.17541973538E+04  0.46999998093E+01 0. -1.
       -5    1    3    3    0  502 -0.96857918418E+03 -0.14623337571E+04  0.57742474773E+03  0.18466204490E+04  0.46999998093E+01 0.  1.
</event>
<event>
 5   0  0.1187925E-07  0.3939561E+04  0.7818609E-02  0.8016851E-01
       -1   -1    0    0    0  501  0.00000000000E+00  0.00000000000E+00  0.16062117787E+04  0.16062117787E+04  0.50400001928E-02 0. -1.
        1   -1    0    0  501    0  0.00000000000E+00  0.00000000000E+00 -0.24156438031E+04  0.24156438031E+04  0.50400001928E-02 0.  1.
    10030    2    1    2    0    0  0.00000000000E+00  0.00000000000E+00 -0.80943202445E+03  0.40218555818E+04  0.39395611581E+04 0.  0.
        5    1    3    3  502    0  0.98680078670E+03 -0.43339358889E+03 -0.20879167631E+04  0.23496859993E+04  0.46999998093E+01 0.  1.
       -5    1    3    3    0  502 -0.98680078670E+03  0.43339358889E+03  0.12784847387E+04  0.16721695825E+04  0.46999998093E+01 0. -1.
</event>
<event>
 5   0  0.3665303E-07  0.3880477E+04  0.7818609E-02  0.8029102E-01
       -2   -1    0    0    0  501  0.00000000000E+00  0.00000000000E+00  0.15663149699E+04  0.15663149699E+04  0.25500000920E-02 0.  1.
        2   -1    0    0  501    0  0.00000000000E+00  0.00000000000E+00 -0.24034279034E+04  0.24034279034E+04  0.25500000920E-02 0. -1.
    10030    2    1    2    0    0  0.00000000000E+00  0.00000000000E+00 -0.83711293355E+03  0.39697428733E+04  0.38804768285E+04 0.  0.
        2    1    3    3  502    0  0.40273175534E+03  0.18701366204E+04 -0.74992329369E+03  0.20547478658E+04  0.25500000920E-02 0. -1.
       -2    1    3    3    0  502 -0.40273175534E+03 -0.18701366204E+04 -0.87189639859E+02  0.19149950075E+04  0.25500000920E-02 0.  1.
</event>
<event>
 5   0  0.3810833E-07  0.3510724E+04  0.7818609E-02  0.8111253E-01
        2   -1    0    0  501    0  0.00000000000E+00  0.00000000000E+00  0.24745522524E+04  0.24745522524E+04  0.25500000920E-02 0. -1.
       -2   -1    0    0    0  501  0.00000000000E+00  0.00000000000E+00 -0.12451934568E+04  0.12451934568E+04  0.25500000920E-02 0.  1.
    10030    2    1    2    0    0  0.00000000000E+00  0.00000000000E+00  0.12293587956E+04  0.37197457091E+04  0.35107242974E+04 0.  0.
        3    1    3    3  502    0 -0.71033428894E+03 -0.16047188944E+04  0.65704410330E+03  0.18738741943E+04  0.10100000352E+00 0. -1.
       -3    1    3    3    0  502  0.71033428894E+03  0.16047188944E+04  0.57231469234E+03  0.18458715149E+04  0.10100000352E+00 0.  1.
</event>
<event>
 5   0  0.3680814E-07  0.3915080E+04  0.7818609E-02  0.8021900E-01
        2   -1    0    0  501    0  0.00000000000E+00  0.00000000000E+00  0.26132553049E+04  0.26132553050E+04  0.25500000920E-02 0.  1.
       -2   -1    0    0    0  501  0.00000000000E+00  0.00000000000E+00 -0.14663558699E+04  0.14663558699E+04  0.25500000920E-02 0. -1.
    10030    2    1    2    0    0  0.00000000000E+00  0.00000000000E+00  0.11468994350E+04  0.40796111749E+04  0.39150796957E+04 0.  0.
        1    1    3    3  502    0  0.16999539115E+03  0.13901169683E+04  0.19986408643E+04  0.24404689965E+04  0.50400001928E-02 0.  1.
       -1    1    3    3    0  502 -0.16999539115E+03 -0.13901169683E+04 -0.85174142925E+03  0.16391421783E+04  0.50400001928E-02 0. -1.
</event>
<event>
 5   0  0.3665303E-07  0.3912430E+04  0.7818609E-02  0.8022449E-01
        2   -1    0    0  501    0  0.00000000000E+00  0.00000000000E+00  0.12058724050E+04  0.12058724050E+04  0.25500000920E-02 0. -1.
       -2   -1    0    0    0  501  0.00000000000E+00  0.00000000000E+00 -0.31734518250E+04  0.31734518250E+04  0.25500000920E-02 0.  1.
    10030    2    1    2    0    0  0.00000000000E+00  0.00000000000E+00 -0.19675794200E+04  0.43793242300E+04  0.39124304387E+04 0.  0.
        2    1    3    3  502    0 -0.16566889045E+04  0.59341738332E+03 -0.19401610686E+04  0.26193486384E+04  0.25500000920E-02 0.  1.
       -2    1    3    3    0  502  0.16566889045E+04 -0.59341738332E+03 -0.27418351354E+02  0.17599755916E+04  0.25500000920E-02 0. -1.
</event>
<event>
 5   0  0.3810833E-07  0.3492247E+04  0.7818609E-02  0.8115630E-01
       -2   -1    0    0    0  501  0.00000000000E+00  0.00000000000E+00  0.16211970974E+04  0.16211970974E+04  0.25500000920E-02 0.  1.
        2   -1    0    0  501    0  0.00000000000E+00  0.00000000000E+00 -0.18806760680E+04  0.18806760680E+04  0.25500000920E-02 0. -1.
    10030    2    1    2    0    0  0.00000000000E+00  0.00000000000E+00 -0.25947897062E+03  0.35018731653E+04  0.34922466021E+04 0.  0.
        3    1    3    3  502    0 -0.59380107058E+03  0.79856683200E+03 -0.15684899875E+04  0.18575439558E+04  0.10100000352E+00 0. -1.
       -3    1    3    3    0  502  0.59380107058E+03 -0.79856683200E+03  0.13090110169E+04  0.16443292095E+04  0.10100000352E+00 0.  1.
</event>
<event>
 5   0  0.1187925E-07  0.3925161E+04  0.7818609E-02  0.8019816E-01
        1   -1    0    0  501    0  0.00000000000E+00  0.00000000000E+00  0.15271519497E+04  0.15271519497E+04  0.50400001928E-02 0.  1.
       -1   -1    0    0    0  501  0.00000000000E+00  0.00000000000E+00 -0.25221606094E+04  0.25221606094E+04  0.50400001928E-02 0. -1.
    10030    2    1    2    0    0  0.00000000000E+00  0.00000000000E+00 -0.99500865974E+03  0.40493125591E+04  0.39251611392E+04 0.  0.
        5    1    3    3  502    0  0.14662547848E+04  0.10709596826E+04  0.27093349678E+03  0.18358335397E+04  0.46999998093E+01 0.  1.
       -5    1    3    3    0  502 -0.14662547848E+04 -0.10709596826E+04 -0.12659421565E+04  0.22134790194E+04  0.46999998093E+01 0. -1.
</event>
<event>
 5   0  0.3832389E-07  0.3904222E+04  0.7818609E-02  0.8024152E-01
       -2   -1    0    0    0  501  0.00000000000E+00  0.00000000000E+00  0.30773212881E+04  0.30773212881E+04  0.25500000920E-02 0.  1.
        2   -1    0    0  501    0  0.00000000000E+00  0.00000000000E+00 -0.12383291917E+04  0.12383291917E+04  0.25500000920E-02 0. -1.
    10030    2    1    2    0    0  0.00000000000E+00  0.00000000000E+00  0.18389920964E+04  0.43156504797E+04  0.39042217064E+04 0.  0.
        5    1    3    3  502    0 -0.54365835654E+03  0.94453945354E+03 -0.87074110489E+03  0.13949664332E+04  0.46999998093E+01 0. -1.
       -5    1    3    3    0  502  0.54365835654E+03 -0.94453945354E+03  0.27097332013E+04  0.29206840466E+04  0.46999998093E+01 0.  1.
</event>
<event>
 5   0  0.1187925E-07  0.3849699E+04  0.7818609E-02  0.8035573E-01
       -1   -1    0    0    0  501  0.00000000000E+00  0.00000000000E+00  0.24720628424E+04  0.24720628425E+04  0.50400001928E-02 0.  1.
        1   -1    0    0  501    0  0.00000000000E+00  0.00000000000E+00 -0.14987671023E+04  0.14987671023E+04  0.50400001928E-02 0. -1.
    10030    2    1    2    0    0  0.00000000000E+00  0.00000000000E+00  0.97329574010E+03  0.39708299448E+04  0.38496994497E+04 0.  0.
        5    1    3    3  502    0  0.15516503610E+03  0.17499803524E+04  0.12978522119E+04  0.21842504152E+04  0.46999998093E+01 0. -1.
       -5    1    3    3    0  502 -0.15516503610E+03 -0.17499803524E+04 -0.32455647184E+03  0.17865795296E+04  0.46999998093E+01 0.  1.
</event>
<event>
 5   0  0.1187925E-07  0.3864731E+04  0.7818609E-02  0.8032405E-01
       -1   -1    0    0    0  501  0.00000000000E+00  0.00000000000E+00  0.18915297822E+04  0.18915297822E+04  0.50400001928E-02 0.  1.
        1   -1    0    0  501    0  0.00000000000E+00  0.00000000000E+00 -0.19740826899E+04  0.19740826899E+04  0.50400001928E-02 0. -1.
    10030    2    1    2    0    0  0.00000000000E+00  0.00000000000E+00 -0.82552907697E+02  0.38656124721E+04  0.38647308835E+04 0.  0.
        3    1    3    3  502    0  0.13604648919E+04  0.45360041109E+03 -0.13367236733E+04  0.19604714341E+04  0.10100000352E+00 0. -1.
       -3    1    3    3    0  502 -0.13604648919E+04 -0.45360041109E+03  0.12541707656E+04  0.19051410380E+04  0.10100000352E+00 0.  1.
</event>
<event>
 5   0  0.3810833E-07  0.3367991E+04  0.7818609E-02  0.8145807E-01
        2   -1    0    0  501    0  0.00000000000E+00  0.00000000000E+00  0.17186299627E+04  0.17186299627E+04  0.25500000920E-02 0. -1.
       -2   -1    0    0    0  501  0.00000000000E+00  0.00000000000E+00 -0.16500586294E+04  0.16500586294E+04  0.25500000920E-02 0.  1.
    10030    2    1    2    0    0  0.00000000000E+00  0.00000000000E+00  0.68571333396E+02  0.33686885921E+04  0.33679906180E+04 0.  0.
        3    1    3    3  502    0 -0.15519559570E+03  0.12374290519E+04 -0.10975511852E+04  0.16613051934E+04  0.10100000352E+00 0.  1.
       -3    1    3    3    0  502  0.15519559570E+03 -0.12374290519E+04  0.11661225186E+04  0.17073833987E+04  0.10100000352E+00 0. -1.
</event>
<event>
 5   0  0.1187925E-07  0.3902347E+04  0.7818609E-02  0.8024541E-01
        1   -1    0    0  501    0  0.00000000000E+00  0.00000000000E+00  0.22193810936E+04  0.22193810936E+04  0.50400001928E-02 0.  1.
       -1   -1    0    0    0  501  0.00000000000E+00  0.00000000000E+00 -0.17153778988E+04  0.17153778988E+04  0.50400001928E-02 0. -1.
    10030    2    1    2    0    0  0.00000000000E+00  0.00000000000E+00  0.50400319477E+03  0.39347589923E+04  0.39023466155E+04 0.  0.
        1    1    3    3  502    0 -0.81474614299E+03 -0.54838343305E+03  0.19519890272E+04  0.21851308495E+04  0.50400001928E-02 0.  1.
       -1    1    3    3    0  502  0.81474614299E+03  0.54838343305E+03 -0.14479858324E+04  0.17496281428E+04  0.50400001928E-02 0. -1.
</event>
<event>
 5   0  0.1187925E-07  0.3896269E+04  0.7818609E-02  0.8025806E-01
        1   -1    0    0  501    0  0.00000000000E+00  0.00000000000E+00  0.13198460887E+04  0.13198460887E+04  0.50400001928E-02 0.  1.
       -1   -1    0    0    0  501  0.00000000000E+00  0.00000000000E+00 -0.28755085138E+04  0.28755085138E+04  0.50400001928E-02 0. -1.
    10030    2    1    2    0    0  0.00000000000E+00  0.00000000000E+00 -0.15556624252E+04  0.41953546025E+04  0.38962693258E+04 0.  0.
        3    1    3    3  502    0  0.66596339419E+03 -0.14022933834E+04 -0.20451643424E+04  0.25676119592E+04  0.10100000352E+00 0. -1.
       -3    1    3    3    0  502 -0.66596339419E+03  0.14022933834E+04  0.48950191728E+03  0.16277426432E+04  0.10100000352E+00 0.  1.
</event>
<event>
 5   0  0.1187925E-07  0.3933497E+04  0.7818609E-02  0.8018098E-01
       -1   -1    0    0    0  501  0.00000000000E+00  0.00000000000E+00  0.16071922475E+04  0.16071922475E+04  0.50400001928E-02 0.  1.
        1   -1    0    0  501    0  0.00000000000E+00  0.00000000000E+00 -0.24067434131E+04  0.24067434131E+04  0.50400001928E-02 0. -1.
    10030    2    1    2    0    0  0.00000000000E+00  0.00000000000E+00 -0.79955116559E+03  0.40139356606E+04  0.39334968439E+04 0.  0.
        2    1    3    3  502    0  0.19401801949E+04 -0.27502896341E+03 -0.57101432695E+03  0.20410775294E+04  0.25500000920E-02 0. -1.
       -2    1    3    3    0  502 -0.19401801949E+04  0.27502896341E+03 -0.22853683864E+03  0.19728581312E+04  0.25500000920E-02 0.  1.
</event>
<event>
 5   0  0.1187925E-07  0.3914726E+04  0.7818609E-02  0.8021973E-01
       -1   -1    0    0    0  501  0.00000000000E+00  0.00000000000E+00  0.29881625769E+04  0.29881625769E+04  0.50400001928E-02 0. -1.
        1   -1    0    0  501    0  0.00000000000E+00  0.00000000000E+00 -0.12821493105E+04  0.12821493106E+04  0.50400001928E-02 0.  1.
    10030    2    1    2    0    0  0.00000000000E+00  0.00000000000E+00  0.17060132663E+04  0.42703118875E+04  0.39147263444E+04 0.  0.
        5    1    3    3  502    0  0.11980991129E+04  0.11096133533E+04 -0.32416583091E+03  0.16648690201E+04  0.46999998093E+01 0.  1.
       -5    1    3    3    0  502 -0.11980991129E+04 -0.11096133533E+04  0.20301790973E+04  0.26054428674E+04  0.46999998093E+01 0. -1.
</event>
<event>
 5   0  0.3610483E-07  0.3861341E+04  0.7818609E-02  0.8033118E-01
        2   -1    0    0  501    0  0.00000000000E+00  0.00000000000E+00  0.26420171151E+04  0.26420171151E+04  0.25500000920E-02 0. -1.
       -2   -1    0    0    0  501  0.00000000000E+00  0.00000000000E+00 -0.14108495561E+04  0.14108495561E+04  0.25500000920E-02 0.  1.
    10030    2    1    2    0    0  0.00000000000E+00  0.00000000000E+00  0.12311675590E+04  0.40528666712E+04  0.38613410490E+04 0.  0.
        4    1    3    3  502    0  0.86502697844E+03  0.44167764471E+03  0.23669194651E+04  0.25584487844E+04  0.12699999809E+01 0. -1.
       -4    1    3    3    0  502 -0.86502697844E+03 -0.44167764471E+03 -0.11357519061E+04  0.14944178868E+04  0.12699999809E+01 0.  1.
</event>
<event>
 5   0  0.3680814E-07  0.3861076E+04  0.7818609E-02  0.8033174E-01
        2   -1    0    0  501    0  0.00000000000E+00  0.00000000000E+00  0.21684871797E+04  0.21684871797E+04  0.25500000920E-02 0.  1.
       -2   -1    0    0    0  501  0.00000000000E+00  0.00000000000E+00 -0.17186990687E+04  0.17186990687E+04  0.25500000920E-02 0. -1.
    10030    2    1    2    0    0  0.00000000000E+00  0.00000000000E+00  0.44978811103E+03  0.38871862484E+04  0.38610759620E+04 0.  0.
        1    1    3    3  502    0 -0.10313999060E+04 -0.57185526456E+03 -0.13138963676E+04  0.17655389756E+04  0.50400001928E-02 0. -1.
       -1    1    3    3    0  502  0.10313999060E+04  0.57185526456E+03  0.17636844786E+04  0.21216472727E+04  0.50400001928E-02 0.  1.
</event>
<event>
 5   0  0.1187925E-07  0.3915261E+04  0.7818609E-02  0.8021863E-01
       -1   -1    0    0    0  501  0.00000000000E+00  0.00000000000E+00  0.12265063384E+04  0.12265063384E+04  0.50400001928E-02 0.  1.
        1   -1    0    0  501    0  0.00000000000E+00  0.00000000000E+00 -0.31245800713E+04  0.31245800713E+04  0.50400001928E-02 0. -1.
    10030    2    1    2    0    0  0.00000000000E+00  0.00000000000E+00 -0.18980737329E+04  0.43510864096E+04  0.39152610448E+04 0.  0.
        4    1    3    3  502    0 -0.37435507131E+01 -0.12778845702E+04  0.69905141714E+03  0.14565979148E+04  0.12699999809E+01 0.  1.
       -4    1    3    3    0  502  0.37435507131E+01  0.12778845702E+04 -0.25971251500E+04  0.28944884948E+04  0.12699999809E+01 0. -1.
</event>
<event>
 5   0  0.3665303E-07  0.3895625E+04  0.7818609E-02  0.8025940E-01
        2   -1    0    0  501    0  0.00000000000E+00  0.00000000000E+00  0.26316310586E+04  0.26316310586E+04  0.25500000920E-02 0. -1.
       -2   -1    0    0    0  501  0.00000000000E+00  0.00000000000E+00 -0.14416811406E+04  0.14416811406E+04  0.25500000920E-02 0.  1.
    10030    2    1    2    0    0  0.00000000000E+00  0.00000000000E+00  0.11899499180E+04  0.40733121992E+04  0.38956246566E+04 0.  0.
        2    1    3    3  502    0 -0.11756287333E+03 -0.12919089335E+04  0.21142184189E+04  0.24804776242E+04  0.25500000920E-02 0. -1.
       -2    1    3    3    0  502  0.11756287333E+03  0.12919089335E+04 -0.92426850088E+03  0.15928345750E+04  0.25500000920E-02 0.  1.
</event>
<event>
 5   0  0.1187925E-07  0.3331217E+04  0.7818609E-02  0.8154997E-01
       -1   -1    0    0    0  501  0.00000000000E+00  0.00000000000E+00  0.16005509878E+04  0.16005509878E+04  0.50400001928E-02 0. -1.
        1   -1    0    0  501    0  0.00000000000E+00  0.00000000000E+00 -0.17333099354E+04  0.17333099354E+04  0.50400001928E-02 0.  1.
    10030    2    1    2    0    0  0.00000000000E+00  0.00000000000E+00 -0.13275894761E+03  0.33338609232E+04  0.33312165521E+04 0.  0.
        5    1    3    3  502    0  0.58352160087E+03  0.12494150508E+04  0.86854270279E+03  0.16297005689E+04  0.46999998093E+01 0. -1.
       -5    1    3    3    0  502 -0.58352160087E+03 -0.12494150508E+04 -0.10013016504E+04  0.17041603542E+04  0.46999998093E+01 0.  1.
</event>
<event>
 5   0  0.3665303E-07  0.3617755E+04  0.7818609E-02  0.8086437E-01
        2   -1    0    0  501    0  0.00000000000E+00  0.00000000000E+00  0.21348079233E+04  0.21348079233E+04  0.25500000920E-02 0. -1.
       -2   -1    0    0    0  501  0.00000000000E+00  0.00000000000E+00 -0.15327086991E+04  0.15327086991E+04  0.25500000920E-02 0.  1.
    10030    2    1    2    0    0  0.00000000000E+00  0.00000000000E+00  0.60209922422E+03  0.36675166225E+04  0.36177554782E+04 0.  0.
        2    1    3    3  502    0 -0.81882629946E+03  0.38463605602E+03 -0.12868984406E+04  0.15730635717E+04  0.25500000920E-02 0.  1.
       -2    1    3    3    0  502  0.81882629946E+03 -0.38463605602E+03  0.18889976648E+04  0.20944530508E+04  0.25500000920E-02 0. -1.
</event>
<event>
 5   0  0.1187925E-07  0.3849783E+04  0.7818609E-02  0.8035555E-01
       -1   -1    0    0    0  501  0.00000000000E+00  0.00000000000E+00  0.13380975381E+04  0.13380975381E+04  0.50400001928E-02 0. -1.
        1   -1    0    0  501    0  0.00000000000E+00  0.00000000000E+00 -0.27690115613E+04  0.27690115613E+04  0.50400001928E-02 0.  1.
    10030    2    1    2    0    0  0.00000000000E+00  0.00000000000E+00 -0.14309140232E+04  0.41071090994E+04  0.38497831384E+04 0.  0.
        4    1    3    3  502    0  0.13649131710E+03  0.18937615002E+04 -0.37768165847E+03  0.19358738459E+04  0.12699999809E+01 0. -1.
       -4    1    3    3    0  502 -0.13649131710E+03 -0.18937615002E+04 -0.10532323648E+04  0.21712352535E+04  0.12699999809E+01 0.  1.
</event>
<event>
 5   0  0.1187925E-07  0.3899925E+04  0.7818609E-02  0.8025045E-01
       -1   -1    0    0    0  501  0.00000000000E+00  0.00000000000E+00  0.17527205023E+04  0.17527205023E+04  0.50400001928E-02 0. -1.
        1   -1    0    0  501    0  0.00000000000E+00  0.00000000000E+00 -0.21694014048E+04  0.21694014048E+04  0.50400001928E-02 0.  1.
    10030    2    1    2    0    0  0.00000000000E+00  0.00000000000E+00 -0.41668090247E+03  0.39221219071E+04  0.38999252916E+04 0.  0.
        4    1    3    3  502    0 -0.16386697514E+04 -0.97722552951E+03 -0.61330387610E+03  0.20040837176E+04  0.12699999809E+01 0.  1.
       -4    1    3    3    0  502  0.16386697514E+04  0.97722552951E+03  0.19662297363E+03  0.19180381895E+04  0.12699999809E+01 0. -1.
</event>
<event>
 5   0  0.1187925E-07  0.2980945E+04  0.7818609E-02  0.8249193E-01
        1   -1    0    0  501    0  0.00000000000E+00  0.00000000000E+00  0.23189164671E+04  0.23189164671E+04  0.50400001928E-02 0. -1.
       -1   -1    0    0    0  501  0.00000000000E+00  0.00000000000E+00 -0.95799392056E+03  0.95799392058E+03  0.50400001928E-02 0.  1.
    10030    2    1    2    0    0  0.00000000000E+00  0.00000000000E+00  0.13609225466E+04  0.32769103877E+04  0.29809447347E+04 0.  0.
        2    1    3    3  502    0 -0.12633732211E+04 -0.22596043122E+03  0.15135559617E+04  0.19844449253E+04  0.25500000920E-02 0.  1.
       -2    1    3    3    0  502  0.12633732211E+04  0.22596043122E+03 -0.15263341517E+03  0.12924654624E+04  0.25500000920E-02 0. -1.
</event>
<event>
 5   0  0.3665303E-07  0.3845504E+04  0.7818609E-02  0.8036460E-01
       -2   -1    0    0    0  501  0.00000000000E+00  0.00000000000E+00  0.11383628212E+04  0.11383628212E+04  0.25500000920E-02 0. -1.
        2   -1    0    0  501    0  0.00000000000E+00  0.00000000000E+00 -0.32476252559E+04  0.32476252559E+04  0.25500000920E-02 0.  1.
    10030    2    1    2    0    0  0.00000000000E+00  0.00000000000E+00 -0.21092624346E+04  0.43859880771E+04  0.38455043095E+04 0.  0.
        2    1    3    3  502    0  0.98617476516E+03 -0.13746353353E+04 -0.12532853901E+02  0.16918392491E+04  0.25500000920E-02 0. -1.
       -2    1    3    3    0  502 -0.98617476516E+03  0.13746353353E+04 -0.20967295807E+04  0.26941488280E+04  0.25500000920E-02 0.  1.
</event>
<event>
 5   0  0.1187925E-07  0.3874867E+04  0.7818609E-02  0.8030277E-01
       -3   -1    0    0    0  501  0.00000000000E+00  0.00000000000E+00  0.22810993269E+04  0.22810993292E+04  0.10100000352E+00 0.  1.
        3   -1    0    0  501    0  0.00000000000E+00  0.00000000000E+00 -0.16455435557E+04  0.16455435588E+04  0.10100000352E+00 0. -1.
    10030    2    1    2    0    0  0.00000000000E+00  0.00000000000E+00  0.63555577119E+03  0.39266428880E+04  0.38748668663E+04 0.  0.
        3    1    3    3  502    0  0.15953552032E+03  0.10985165952E+04 -0.12913497367E+04  0.17028724100E+04  0.10100000352E+00 0. -1.
       -3    1    3    3    0  502 -0.15953552032E+03 -0.10985165952E+04  0.19269055079E+04  0.22237704780E+04  0.10100000352E+00 0.  1.
</event>
<event>
 5   0  0.3832389E-07  0.3084163E+04  0.7818609E-02  0.8220098E-01
       -2   -1    0    0    0  501  0.00000000000E+00  0.00000000000E+00  0.13420364324E+04  0.13420364324E+04  0.25500000920E-02 0.  1.
        2   -1    0    0  501    0  0.00000000000E+00  0.00000000000E+00 -0.17719451248E+04  0.17719451248E+04  0.25500000920E-02 0. -1.
    10030    2    1    2    0    0  0.00000000000E+00  0.00000000000E+00 -0.42990869244E+03  0.31139815572E+04  0.30841627154E+04 0.  0.
        5    1    3    3  502    0  0.14159199353E+04  0.35181205137E+03 -0.71917412109E+03  0.16266021299E+04  0.46999998093E+01 0. -1.
       -5    1    3    3    0  502 -0.14159199353E+04 -0.35181205137E+03  0.28926542866E+03  0.14873794273E+04  0.46999998093E+01 0.  1.
</event>
<event>
 5   0  0.3832389E-07  0.4096692E+04  0.7818609E-02  0.7985320E-01
        2   -1    0    0  501    0  0.00000000000E+00  0.00000000000E+00  0.19705493710E+04  0.19705493710E+04  0.25500000920E-02 0.  1.
       -2   -1    0    0    0  501  0.00000000000E+00  0.00000000000E+00 -0.21292138309E+04  0.21292138309E+04  0.25500000920E-02 0. -1.
    10030    2    1    2    0    0  0.00000000000E+00  0.00000000000E+00 -0.15866445988E+03  0.40997632019E+04  0.40966918240E+04 0.  0.
        5    1    3    3  502    0  0.11661311295E+04 -0.16574765917E+04 -0.37722706900E+03  0.20614103945E+04  0.46999998093E+01 0. -1.
       -5    1    3    3    0  502 -0.11661311295E+04  0.16574765917E+04  0.21856260912E+03  0.20383528073E+04  0.46999998093E+01 0.  1.
</event>
<event>
 5   0  0.3610483E-07  0.3970799E+04  0.7818609E-02  0.8010463E-01
       -2   -1    0    0    0  501  0.00000000000E+00  0.00000000000E+00  0.21198814340E+04  0.21198814340E+04  0.25500000920E-02 0. -1.
        2   -1    0    0  501    0  0.00000000000E+00  0.00000000000E+00 -0.18594484954E+04  0.18594484954E+04  0.25500000920E-02 0.  1.
    10030    2    1    2    0    0  0.00000000000E+00  0.00000000000E+00  0.26043293865E+03  0.39793299294E+04  0.39707985811E+04 0.  0.
        4    1    3    3  502    0  0.15018553986E+04  0.18852781309E+02 -0.11709890345E+04  0.19045057095E+04  0.12699999809E+01 0.  1.
       -4    1    3    3    0  502 -0.15018553986E+04 -0.18852781309E+02  0.14314219732E+04  0.20748242200E+04  0.12699999809E+01 0. -1.
</event>
<event>
 5   0  0.1187925E-07  0.4003303E+04  0.7818609E-02  0.8003881E-01
        1   -1    0    0  501    0  0.00000000000E+00  0.00000000000E+00  0.13667089872E+04  0.13667089872E+04  0.50400001928E-02 0. -1.
       -1   -1    0    0    0  501  0.00000000000E+00  0.00000000000E+00 -0.29315734812E+04  0.29315734812E+04  0.50400001928E-02 0.  1.
    10030    2    1    2    0    0  0.00000000000E+00  0.00000000000E+00 -0.15648644940E+04  0.42982824685E+04  0.40033025484E+04 0.  0.
        4    1    3    3  502    0  0.13049078556E+04 -0.15161300469E+04 -0.85964334991E+03  0.21772512792E+04  0.12699999809E+01 0. -1.
       -4    1    3    3    0  502 -0.13049078556E+04  0.15161300469E+04 -0.70522114410E+03  0.21210311893E+04  0.12699999809E+01 0.  1.
</event>
<event>
 5   0  0.1187925E-07  0.3829401E+04  0.7818609E-02  0.8039875E-01
        1   -1    0    0  501    0  0.00000000000E+00  0.00000000000E+00  0.15442002140E+04  0.15442002140E+04  0.50400001928E-02 0.  1.
       -1   -1    0    0    0  501  0.00000000000E+00  0.00000000000E+00 -0.23740952819E+04  0.23740952819E+04  0.50400001928E-02 0. -1.
    10030    2    1    2    0    0  0.00000000000E+00  0.00000000000E+00 -0.82989506784E+03  0.39182954959E+04  0.38294012286E+04 0.  0.
        2    1    3    3  502    0 -0.82876544862E+03 -0.65664551088E+03 -0.20482615333E+04  0.23050836871E+04  0.25500000920E-02 0. -1.
       -2    1    3    3    0  502  0.82876544862E+03  0.65664551088E+03  0.12183664655E+04  0.16132118088E+04  0.25500000920E-02 0.  1.
</event>
<event>
 5   0  0.3665303E-07  0.3866742E+04  0.7818609E-02  0.8031982E-01
        2   -1    0    0  501    0  0.00000000000E+00  0.00000000000E+00  0.16222827580E+04  0.16222827580E+04  0.25500000920E-02 0. -1.
       -2   -1    0    0    0  501  0.00000000000E+00  0.00000000000E+00 -0.23041131254E+04  0.23041131254E+04  0.25500000920E-02 0.  1.
    10030    2    1    2    0    0  0.00000000000E+00  0.00000000000E+00 -0.68183036741E+03  0.39263958834E+04  0.38667417787E+04 0.  0.
        2    1    3    3  502    0  0.59350965177E+03  0.46971273792E+03  0.14655868872E+04  0.16494934637E+04  0.25500000920E-02 0. -1.
       -2    1    3    3    0  502 -0.59350965177E+03 -0.46971273792E+03 -0.21474172546E+04  0.22769024196E+04  0.25500000920E-02 0.  1.
</event>
<event>
 5   0  0.1187925E-07  0.3864280E+04  0.7818609E-02  0.8032499E-01
       -1   -1    0    0    0  501  0.00000000000E+00  0.00000000000E+00  0.29932612519E+04  0.29932612519E+04  0.50400001928E-02 0.  1.
        1   -1    0    0  501    0  0.00000000000E+00  0.00000000000E+00 -0.12471901137E+04  0.12471901137E+04  0.50400001928E-02 0. -1.
    10030    2    1    2    0    0  0.00000000000E+00  0.00000000000E+00  0.17460711382E+04  0.42404513656E+04  0.38642804459E+04 0.  0.
        2    1    3    3  502    0 -0.15449243139E+04 -0.51176027594E+03 -0.26972026464E+03  0.16496783737E+04  0.25500000920E-02 0. -1.
       -2    1    3    3    0  502  0.15449243139E+04  0.51176027594E+03  0.20157914028E+04  0.25907729919E+04  0.25500000920E-02 0.  1.
</event>
<event>
 5   0  0.3810833E-07  0.3951241E+04  0.7818609E-02  0.8014456E-01
        2   -1    0    0  501    0  0.00000000000E+00  0.00000000000E+00  0.26368540851E+04  0.26368540851E+04  0.25500000920E-02 0.  1.
       -2   -1    0    0    0  501  0.00000000000E+00  0.00000000000E+00 -0.14802018754E+04  0.14802018754E+04  0.25500000920E-02 0. -1.
    10030    2    1    2    0    0  0.00000000000E+00  0.00000000000E+00  0.11566522098E+04  0.41170559605E+04  0.39512410009E+04 0.  0.
        3    1    3    3  502    0  0.36755501583E+03  0.16151035748E+03  0.25939012516E+04  0.26247868482E+04  0.10100000352E+00 0.  1.
       -3    1    3    3    0  502 -0.36755501583E+03 -0.16151035748E+03 -0.14372490418E+04  0.14922691123E+04  0.10100000352E+00 0. -1.
</event>
<event>
 5   0  0.3832389E-07  0.3902327E+04  0.7818609E-02  0.8024545E-01
        2   -1    0    0  501    0  0.00000000000E+00  0.00000000000E+00  0.23131498007E+04  0.23131498007E+04  0.25500000920E-02 0.  1.
       -2   -1    0    0    0  501  0.00000000000E+00  0.00000000000E+00 -0.16458247157E+04  0.16458247157E+04  0.25500000920E-02 0. -1.
    10030    2    1    2    0    0  0.00000000000E+00  0.00000000000E+00  0.66732508501E+03  0.39589745164E+04  0.39023270561E+04 0.  0.
        5    1    3    3  502    0 -0.16528590150E+03 -0.15609498941E+04 -0.84209711471E+03  0.17813011093E+04  0.46999998093E+01 0. -1.
       -5    1    3    3    0  502  0.16528590150E+03  0.15609498941E+04  0.15094221997E+04  0.21776734072E+04  0.46999998093E+01 0.  1.
</event>
<event>
 5   0  0.1187925E-07  0.3891760E+04  0.7818609E-02  0.8026745E-01
        1   -1    0    0  501    0  0.00000000000E+00  0.00000000000E+00  0.11874677073E+04  0.11874677073E+04  0.50400001928E-02 0. -1.
       -1   -1    0    0    0  501  0.00000000000E+00  0.00000000000E+00 -0.31886749143E+04  0.31886749143E+04  0.50400001928E-02 0.  1.
    10030    2    1    2    0    0  0.00000000000E+00  0.00000000000E+00 -0.20012072070E+04  0.43761426216E+04  0.38917597510E+04 0.  0.
        5    1    3    3  502    0  0.88134448762E+02 -0.12473748823E+03 -0.31819180884E+04  0.31855850222E+04  0.46999998093E+01 0.  1.
       -5    1    3    3    0  502 -0.88134448762E+02  0.12473748823E+03  0.11807108814E+04  0.11905575994E+04  0.46999998093E+01 0. -1.
</event>
<event>
 5   0  0.1187925E-07  0.3832042E+04  0.7818609E-02  0.8039314E-01
       -1   -1    0    0    0  501  0.00000000000E+00  0.00000000000E+00  0.14226580353E+04  0.14226580353E+04  0.50400001928E-02 0. -1.
        1   -1    0    0  501    0  0.00000000000E+00  0.00000000000E+00 -0.25804770149E+04  0.25804770149E+04  0.50400001928E-02 0.  1.
    10030    2    1    2    0    0  0.00000000000E+00  0.00000000000E+00 -0.11578189796E+04  0.40031350501E+04  0.38320419413E+04 0.  0.
        3    1    3    3  502    0 -0.38118602483E+03  0.18614422345E+04 -0.83663576421E+03  0.20761091951E+04  0.10100000352E+00 0. -1.
       -3    1    3    3    0  502  0.38118602483E+03 -0.18614422345E+04 -0.32118321540E+03  0.19270258550E+04  0.10100000352E+00 0.  1.
</event>
<event>
 5   0  0.3810833E-07  0.3925656E+04  0.7818609E-02  0.8019714E-01
       -2   -1    0    0    0  501  0.00000000000E+00  0.00000000000E+00  0.14085008032E+04  0.14085008032E+04  0.25500000920E-02 0.  1.
        2   -1    0    0  501    0  0.00000000000E+00  0.00000000000E+00 -0.27353151989E+04  0.27353151989E+04  0.25500000920E-02 0. -1.
    10030    2    1    2    0    0  0.00000000000E+00  0.00000000000E+00 -0.13268143957E+04  0.41438160021E+04  0.39256559476E+04 0.  0.
        3    1    3    3  502    0  0.10944138358E+04 -0.13753639036E+04  0.25883139948E+03  0.17766151004E+04  0.10100000352E+00 0.  1.
       -3    1    3    3    0  502 -0.10944138358E+04  0.13753639036E+04 -0.15856457952E+04  0.23672009018E+04  0.10100000352E+00 0. -1.
</event>
<event>
 5   0  0.3610483E-07  0.3894407E+04  0.7818609E-02  0.8026194E-01
        2   -1    0    0  501    0  0.00000000000E+00  0.00000000000E+00  0.16094161895E+04  0.16094161895E+04  0.25500000920E-02 0.  1.
       -2   -1    0    0    0  501  0.00000000000E+00  0.00000000000E+00 -0.23558858294E+04  0.23558858294E+04  0.25500000920E-02 0. -1.
    10030    2    1    2    0    0  0.00000000000E+00  0.00000000000E+00 -0.74646963989E+03  0.39653020188E+04  0.38944066528E+04 0.  0.
        4    1    3    3  502    0 -0.66477822354E+02  0.49871012913E+01 -0.23547231245E+04  0.23556669497E+04  0.12699999809E+01 0. -1.
       -4    1    3    3    0  502  0.66477822354E+02 -0.49871012913E+01  0.16082534846E+04  0.16096350691E+04  0.12699999809E+01 0.  1.
</event>
<event>
 5   0  0.3680814E-07  0.3917446E+04  0.7818609E-02  0.8021411E-01
        2   -1    0    0  501    0  0.00000000000E+00  0.00000000000E+00  0.21781415026E+04  0.21781415026E+04  0.25500000920E-02 0.  1.
       -2   -1    0    0    0  501  0.00000000000E+00  0.00000000000E+00 -0.17614079807E+04  0.17614079807E+04  0.25500000920E-02 0. -1.
    10030    2    1    2    0    0  0.00000000000E+00  0.00000000000E+00  0.41673352194E+03  0.39395494833E+04  0.39174460179E+04 0.  0.
        1    1    3    3  502    0 -0.79040375361E+03  0.15835879245E+04 -0.63547861636E+03  0.18805110689E+04  0.50400001928E-02 0. -1.
       -1    1    3    3    0  502  0.79040375361E+03 -0.15835879245E+04  0.10522121383E+04  0.20590384145E+04  0.50400001928E-02 0.  1.
</event>
<event>
 5   0  0.3665303E-07  0.3921939E+04  0.7818609E-02  0.8020482E-01
        2   -1    0    0  501    0  0.00000000000E+00  0.00000000000E+00  0.11388757617E+04  0.11388757617E+04  0.25500000920E-02 0. -1.
       -2   -1    0    0    0  501  0.00000000000E+00  0.00000000000E+00 -0.33764892331E+04  0.33764892331E+04  0.25500000920E-02 0.  1.
    10030    2    1    2    0    0  0.00000000000E+00  0.00000000000E+00 -0.22376134714E+04  0.45153649948E+04  0.39219391873E+04 0.  0.
        2    1    3    3  502    0  0.95241114902E+02 -0.11162559103E+04 -0.29717722757E+04  0.31759295625E+04  0.25500000920E-02 0.  1.
       -2    1    3    3    0  502 -0.95241114902E+02  0.11162559103E+04  0.73415880435E+03  0.13394354323E+04  0.25500000920E-02 0. -1.
</event>
<event>
 5   0  0.1187925E-07  0.3303579E+04  0.7818609E-02  0.8161985E-01
       -1   -1    0    0    0  501  0.00000000000E+00  0.00000000000E+00  0.13677393145E+04  0.13677393145E+04  0.50400001928E-02 0.  1.
        1   -1    0    0  501    0  0.00000000000E+00  0.00000000000E+00 -0.19948309348E+04  0.19948309348E+04  0.50400001928E-02 0. -1.
    10030    2    1    2    0    0  0.00000000000E+00  0.00000000000E+00 -0.62709162034E+03  0.33625702493E+04  0.33035790866E+04 0.  0.
        1    1    3    3  502    0  0.94990983699E+03 -0.10180341037E+04 -0.12180571824E+04  0.18499690360E+04  0.50400001928E-02 0. -1.
       -1    1    3    3    0  502 -0.94990983699E+03  0.10180341037E+04  0.59096556203E+03  0.15126012132E+04  0.50400001928E-02 0.  1.
</event>
<event>
 5   0  0.3610483E-07  0.3793461E+04  0.7818609E-02  0.8047560E-01
        2   -1    0    0  501    0  0.00000000000E+00  0.00000000000E+00  0.13493632410E+04  0.13493632410E+04  0.25500000920E-02 0.  1.
       -2   -1    0    0    0  501  0.00000000000E+00  0.00000000000E+00 -0.26661365814E+04  0.26661365814E+04  0.25500000920E-02 0. -1.
    10030    2    1    2    0    0  0.00000000000E+00  0.00000000000E+00 -0.13167733404E+04  0.40154998224E+04  0.37934610573E+04 0.  0.
        4    1    3    3  502    0  0.28997427028E+03  0.18675663225E+04 -0.48870416235E+03  0.19521071737E+04  0.12699999809E+01 0.  1.
       -4    1    3    3    0  502 -0.28997427028E+03 -0.18675663225E+04 -0.82806917806E+03  0.20633926487E+04  0.12699999809E+01 0. -1.
</event>
<event>
 5   0  0.3610483E-07  0.2822492E+04  0.7818609E-02  0.8296319E-01
        2   -1    0    0  501    0  0.00000000000E+00  0.00000000000E+00  0.16046511574E+04  0.16046511574E+04  0.25500000920E-02 0.  1.
       -2   -1    0    0    0  501  0.00000000000E+00  0.00000000000E+00 -0.12411518410E+04  0.12411518410E+04  0.25500000920E-02 0. -1.
    10030    2    1    2    0    0  0.00000000000E+00  0.00000000000E+00  0.36349931645E+03  0.28458029984E+04  0.28224923299E+04 0.  0.
        4    1    3    3  502    0  0.97758568660E+03  0.67382643995E+03 -0.58737298752E+03  0.13246601395E+04  0.12699999809E+01 0. -1.
       -4    1    3    3    0  502 -0.97758568660E+03 -0.67382643995E+03  0.95087230397E+03  0.15211428589E+04  0.12699999809E+01 0.  1.
</event>
<event>
 5   0  0.3810833E-07  0.3887111E+04  0.7818609E-02  0.8027715E-01
       -2   -1    0    0    0  501  0.00000000000E+00  0.00000000000E+00  0.13198453832E+04  0.13198453832E+04  0.25500000920E-02 0. -1.
        2   -1    0    0  501    0  0.00000000000E+00  0.00000000000E+00 -0.28620079710E+04  0.28620079710E+04  0.25500000920E-02 0.  1.
    10030    2    1    2    0    0  0.00000000000E+00  0.00000000000E+00 -0.15421625879E+04  0.41818533542E+04  0.38871110132E+04 0.  0.
        3    1    3    3  502    0  0.91130238987E+03  0.13796328628E+04 -0.18700828375E+04  0.24962108707E+04  0.10100000352E+00 0.  1.
       -3    1    3    3    0  502 -0.91130238987E+03 -0.13796328628E+04  0.32792024958E+03  0.16856424835E+04  0.10100000352E+00 0. -1.
</event>
<event>
 5   0  0.1187925E-07  0.3898673E+04  0.7818609E-02  0.8025305E-01
       -1   -1    0    0    0  501  0.00000000000E+00  0.00000000000E+00  0.17722768500E+04  0.17722768500E+04  0.50400001928E-02 0. -1.
        1   -1    0    0  501    0  0.00000000000E+00  0.00000000000E+00 -0.21440850094E+04  0.21440850094E+04  0.50400001928E-02 0.  1.
    10030    2    1    2    0    0  0.00000000000E+00  0.00000000000E+00 -0.37180815937E+03  0.39163618594E+04  0.38986727108E+04 0.  0.
        5    1    3    3  502    0  0.12973714081E+04  0.92976808841E+03 -0.13100206717E+04  0.20649013340E+04  0.46999998093E+01 0.  1.
       -5    1    3    3    0  502 -0.12973714081E+04 -0.92976808841E+03  0.93821251237E+03  0.18514605254E+04  0.46999998093E+01 0. -1.
</event>
<event>
 5   0  0.1187925E-07  0.3544407E+04  0.7818609E-02  0.8103346E-01
       -1   -1    0    0    0  501  0.00000000000E+00  0.00000000000E+00  0.19425400661E+04  0.19425400661E+04  0.50400001928E-02 0.  1.
        1   -1    0    0  501    0  0.00000000000E+00  0.00000000000E+00 -0.16168030368E+04  0.16168030368E+04  0.50400001928E-02 0. -1.
    10030    2    1    2    0    0  0.00000000000E+00  0.00000000000E+00  0.32573702925E+03  0.35593431029E+04  0.35444066798E+04 0.  0.
        2    1    3    3  502    0  0.30498656009E+03 -0.16228754829E+04 -0.48324242283E+03  0.17205420291E+04  0.25500000920E-02 0. -1.
       -2    1    3    3    0  502 -0.30498656009E+03  0.16228754829E+04  0.80897945208E+03  0.18388010737E+04  0.25500000920E-02 0.  1.
</event>
<event>
 5   0  0.3680814E-07  0.3991971E+04  0.7818609E-02  0.8006168E-01
        2   -1    0    0  501    0  0.00000000000E+00  0.00000000000E+00  0.21999959340E+04  0.21999959340E+04  0.25500000920E-02 0. -1.
       -2   -1    0    0    0  501  0.00000000000E+00  0.00000000000E+00 -0.18108932558E+04  0.18108932558E+04  0.25500000920E-02 0.  1.
    10030    2    1    2    0    0  0.00000000000E+00  0.00000000000E+00  0.38910267823E+03  0.40108891898E+04  0.39919708414E+04 0.  0.
        1    1    3    3  502    0 -0.31280132188E+03  0.77877834329E+03 -0.16250024388E+04  0.18289268167E+04  0.50400001928E-02 0.  1.
       -1    1    3    3    0  502  0.31280132188E+03 -0.77877834329E+03  0.20141051170E+04  0.21819623730E+04  0.50400001928E-02 0. -1.
</event>
<event>
 5   0  0.3610483E-07  0.3756519E+04  0.7818609E-02  0.8055551E-01
        2   -1    0    0  501    0  0.00000000000E+00  0.00000000000E+00  0.13157426250E+04  0.13157426250E+04  0.25500000920E-02 0. -1.
       -2   -1    0    0    0  501  0.00000000000E+00  0.00000000000E+00 -0.26812679036E+04  0.26812679036E+04  0.25500000920E-02 0.  1.
    10030    2    1    2    0    0  0.00000000000E+00  0.00000000000E+00 -0.13655252785E+04  0.39970105286E+04  0.37565188512E+04 0.  0.
        4    1    3    3  502    0 -0.16457672490E+03  0.11966502769E+04 -0.22131765979E+04  0.25213507590E+04  0.12699999809E+01 0.  1.
       -4    1    3    3    0  502  0.16457672490E+03 -0.11966502769E+04  0.84765131935E+03  0.14756597696E+04  0.12699999809E+01 0. -1.
</event>
<event>
 5   0  0.3810833E-07  0.3966164E+04  0.7818609E-02  0.8011407E-01
        2   -1    0    0  501    0  0.00000000000E+00  0.00000000000E+00  0.20289265651E+04  0.20289265651E+04  0.25500000920E-02 0. -1.
       -2   -1    0    0    0  501  0.00000000000E+00  0.00000000000E+00 -0.19382736586E+04  0.19382736586E+04  0.25500000920E-02 0.  1.
    10030    2    1    2    0    0  0.00000000000E+00  0.00000000000E+00  0.90652906501E+02  0.39672002237E+04  0.39661643518E+04 0.  0.
        3    1    3    3  502    0  0.13443163814E+04 -0.12761660843E+04  0.75037117000E+03  0.19997108068E+04  0.10100000352E+00 0. -1.
       -3    1    3    3    0  502 -0.13443163814E+04  0.12761660843E+04 -0.65971826350E+03  0.19674894168E+04  0.10100000352E+00 0.  1.
</event>
<event>
 5   0  0.1187925E-07  0.3935535E+04  0.7818609E-02  0.8017679E-01
        1   -1    0    0  501    0  0.00000000000E+00  0.00000000000E+00  0.12730205289E+04  0.12730205289E+04  0.50400001928E-02 0.  1.
       -1   -1    0    0    0  501  0.00000000000E+00  0.00000000000E+00 -0.30416706843E+04  0.30416706843E+04  0.50400001928E-02 0. -1.
    10030    2    1    2    0    0  0.00000000000E+00  0.00000000000E+00 -0.17686501554E+04  0.43146912133E+04  0.39355351470E+04 0.  0.
        1    1    3    3  502    0  0.34750410467E+03 -0.32770781553E+03  0.12084983531E+04  0.12994690395E+04  0.50400001928E-02 0.  1.
       -1    1    3    3    0  502 -0.34750410467E+03  0.32770781553E+03 -0.29771485085E+04  0.30152221737E+04  0.50400001928E-02 0. -1.
</event>
<event>
 5   0  0.3665303E-07  0.3899727E+04  0.7818609E-02  0.8025086E-01
       -2   -1    0    0    0  501  0.00000000000E+00  0.00000000000E+00  0.19994582567E+04  0.19994582567E+04  0.25500000920E-02 0.  1.
        2   -1    0    0  501    0  0.00000000000E+00  0.00000000000E+00 -0.19014988101E+04  0.19014988101E+04  0.25500000920E-02 0. -1.
    10030    2    1    2    0    0  0.00000000000E+00  0.00000000000E+00  0.97959446582E+02  0.39009570669E+04  0.38997269115E+04 0.  0.
        2    1    3    3  502    0  0.58711449441E+03  0.61569729942E+03 -0.17060482569E+04  0.19064068949E+04  0.25500000920E-02 0. -1.
       -2    1    3    3    0  502 -0.58711449441E+03 -0.61569729942E+03  0.18040077035E+04  0.19945501719E+04  0.25500000920E-02 0.  1.
</event>
<event>
 5   0  0.1187925E-07  0.3905170E+04  0.7818609E-02  0.8023955E-01
        1   -1    0    0  501    0  0.00000000000E+00  0.00000000000E+00  0.19004159932E+04  0.19004159932E+04  0.50400001928E-02 0.  1.
       -1   -1    0    0    0  501  0.00000000000E+00  0.00000000000E+00 -0.20061860266E+04  0.20061860266E+04  0.50400001928E-02 0. -1.
    10030    2    1    2    0    0  0.00000000000E+00  0.00000000000E+00 -0.10577003344E+03  0.39066020198E+04  0.39051699120E+04 0.  0.
        1    1    3    3  502    0 -0.17942443005E+02 -0.17774942149E+04 -0.86112957088E+03  0.19751839796E+04  0.50400001928E-02 0. -1.
       -1    1    3    3    0  502  0.17942443005E+02  0.17774942149E+04  0.75535953744E+03  0.19314180402E+04  0.50400001928E-02 0.  1.
</event>
<event>
 5   0  0.1187925E-07  0.3951983E+04  0.7818609E-02  0.8014304E-01
       -1   -1    0    0    0  501  0.00000000000E+00  0.00000000000E+00  0.14807045270E+04  0.14807045270E+04  0.50400001928E-02 0.  1.
        1   -1    0    0  501    0  0.00000000000E+00  0.00000000000E+00 -0.26369495424E+04  0.26369495424E+04  0.50400001928E-02 0. -1.
    10030    2    1    2    0    0  0.00000000000E+00  0.00000000000E+00 -0.11562450154E+04  0.41176540694E+04  0.39519833628E+04 0.  0.
        2    1    3    3  502    0 -0.50278806086E+03 -0.35320937632E+03  0.13786344688E+04  0.15093659915E+04  0.25500000920E-02 0.  1.
       -2    1    3    3    0  502  0.50278806086E+03  0.35320937632E+03 -0.25348794842E+04  0.26082880779E+04  0.25500000920E-02 0. -1.
</event>
<event>
 5   0  0.3832389E-07  0.3461382E+04  0.7818609E-02  0.8123003E-01
        2   -1    0    0  501    0  0.00000000000E+00  0.00000000000E+00  0.15478490429E+04  0.15478490429E+04  0.25500000920E-02 0. -1.
       -2   -1    0    0    0  501  0.00000000000E+00  0.00000000000E+00 -0.19351317482E+04  0.19351317482E+04  0.25500000920E-02 0.  1.
    10030    2    1    2    0    0  0.00000000000E+00  0.00000000000E+00 -0.38728270531E+03  0.34829807912E+04  0.34613822814E+04 0.  0.
        5    1    3    3  502    0 -0.44837575078E+03 -0.15623238340E+04  0.40451992075E+03  0.16749791140E+04  0.46999998093E+01 0. -1.
       -5    1    3    3    0  502  0.44837575078E+03  0.15623238340E+04 -0.79180262606E+03  0.18080016772E+04  0.46999998093E+01 0.  1.
</event>
<event>
 5   0  0.1187925E-07  0.3878960E+04  0.7818609E-02  0.8029419E-01
       -1   -1    0    0    0  501  0.00000000000E+00  0.00000000000E+00  0.21798148218E+04  0.21798148218E+04  0.50400001928E-02 0.  1.
        1   -1    0    0  501    0  0.00000000000E+00  0.00000000000E+00 -0.17256431179E+04  0.17256431179E+04  0.50400001928E-02 0. -1.
    10030    2    1    2    0    0  0.00000000000E+00  0.00000000000E+00  0.45417170388E+03  0.39054579397E+04  0.38789598840E+04 0.  0.
        1    1    3    3  502    0  0.17507221778E+04 -0.63548844656E+03 -0.31763565038E+03  0.18893824695E+04  0.50400001928E-02 0. -1.
       -1    1    3    3    0  502 -0.17507221778E+04  0.63548844656E+03  0.77180735426E+03  0.20160754702E+04  0.50400001928E-02 0.  1.
</event>
<event>
 5   0  0.3610483E-07  0.3912632E+04  0.7818609E-02  0.8022407E-01
        2   -1    0    0  501    0  0.00000000000E+00  0.00000000000E+00  0.16748338144E+04  0.16748338144E+04  0.25500000920E-02 0. -1.
       -2   -1    0    0    0  501  0.00000000000E+00  0.00000000000E+00 -0.22851051526E+04  0.22851051526E+04  0.25500000920E-02 0.  1.
    10030    2    1    2    0    0  0.00000000000E+00  0.00000000000E+00 -0.61027133817E+03  0.39599389671E+04  0.39126315335E+04 0.  0.
        4    1    3    3  502    0  0.30771477189E+03  0.14299347070E+04  0.10097134845E+04  0.17773363725E+04  0.12699999809E+01 0. -1.
       -4    1    3    3    0  502 -0.30771477189E+03 -0.14299347070E+04 -0.16199848227E+04  0.21826025946E+04  0.12699999809E+01 0.  1.
</event>
<event>
 5   0  0.1187925E-07  0.3899898E+04  0.7818609E-02  0.8025050E-01
       -3   -1    0    0    0  501  0.00000000000E+00  0.00000000000E+00  0.17407654701E+04  0.17407654731E+04  0.10100000352E+00 0.  1.
        3   -1    0    0  501    0  0.00000000000E+00  0.00000000000E+00 -0.21842696116E+04  0.21842696139E+04  0.10100000352E+00 0. -1.
    10030    2    1    2    0    0  0.00000000000E+00  0.00000000000E+00 -0.44350414142E+03  0.39250350870E+04  0.38998980128E+04 0.  0.
        5    1    3    3  502    0  0.18862278340E+04  0.34981776331E+03  0.12985790870E+03  0.19227878395E+04  0.46999998093E+01 0.  1.
       -5    1    3    3    0  502 -0.18862278340E+04 -0.34981776331E+03 -0.57336205013E+03  0.20022472474E+04  0.46999998093E+01 0. -1.
</event>
<event>
 5   0  0.3810833E-07  0.3961109E+04  0.7818609E-02  0.8012438E-01
        2   -1    0    0  501    0  0.00000000000E+00  0.00000000000E+00  0.14844927831E+04  0.14844927831E+04  0.25500000920E-02 0.  1.
       -2   -1    0    0    0  501  0.00000000000E+00  0.00000000000E+00 -0.26423810899E+04  0.26423810899E+04  0.25500000920E-02 0. -1.
    10030    2    1    2    0    0  0.00000000000E+00  0.00000000000E+00 -0.11578883068E+04  0.41268738731E+04  0.39611087631E+04 0.  0.
        3    1    3    3  502    0  0.18690938021E+04  0.16681419682E+03  0.81013023684E+02  0.18782709436E+04  0.10100000352E+00 0.  1.
       -3    1    3    3    0  502 -0.18690938021E+04 -0.16681419682E+03 -0.12389013305E+04  0.22486029294E+04  0.10100000352E+00 0. -1.
</event>
<event>
 5   0  0.3810833E-07  0.3928117E+04  0.7818609E-02  0.8019207E-01
       -2   -1    0    0    0  501  0.00000000000E+00  0.00000000000E+00  0.13041182131E+04  0.13041182131E+04  0.25500000920E-02 0. -1.
        2   -1    0    0  501    0  0.00000000000E+00  0.00000000000E+00 -0.29579578558E+04  0.29579578558E+04  0.25500000920E-02 0.  1.
    10030    2    1    2    0    0  0.00000000000E+00  0.00000000000E+00 -0.16538396427E+04  0.42620760690E+04  0.39281174695E+04 0.  0.
        3    1    3    3  502    0 -0.18546097098E+04  0.63478582240E+03 -0.69404842459E+03  0.20794791276E+04  0.10100000352E+00 0.  1.
       -3    1    3    3    0  502  0.18546097098E+04 -0.63478582240E+03 -0.95979121812E+03  0.21825969414E+04  0.10100000352E+00 0. -1.
</event>
<event>
 5   0  0.1187925E-07  0.3151133E+04  0.7818609E-02  0.8201843E-01
       -1   -1    0    0    0  501  0.00000000000E+00  0.00000000000E+00  0.16737582859E+04  0.16737582859E+04  0.50400001928E-02 0. -1.
        1   -1    0    0  501    0  0.00000000000E+00  0.00000000000E+00 -0.14831354742E+04  0.14831354742E+04  0.50400001928E-02 0.  1.
    10030    2    1    2    0    0  0.00000000000E+00  0.00000000000E+00  0.19062281173E+03  0.31568937601E+04  0.31511333130E+04 0.  0.
        3    1    3    3  502    0 -0.35649912962E+03 -0.13475936373E+04 -0.64040838993E+03  0.15340218893E+04  0.10100000352E+00 0.  1.
       -3    1    3    3    0  502  0.35649912962E+03  0.13475936373E+04  0.83103120165E+03  0.16228718708E+04  0.10100000352E+00 0. -1.
</event>
<event>
 5   0  0.3665303E-07  0.3846689E+04  0.7818609E-02  0.8036209E-01
       -2   -1    0    0    0  501  0.00000000000E+00  0.00000000000E+00  0.13631027316E+04  0.13631027316E+04  0.25500000920E-02 0.  1.
        2   -1    0    0  501    0  0.00000000000E+00  0.00000000000E+00 -0.27138484390E+04  0.27138484390E+04  0.25500000920E-02 0. -1.
    10030    2    1    2    0    0  0.00000000000E+00  0.00000000000E+00 -0.13507457074E+04  0.40769511705E+04  0.38466890803E+04 0.  0.
        2    1    3    3  502    0  0.12199071069E+04  0.36100151933E+03  0.85345748559E+03  0.15319546750E+04  0.25500000920E-02 0.  1.
       -2    1    3    3    0  502 -0.12199071069E+04 -0.36100151933E+03 -0.22042031930E+04  0.25449964956E+04  0.25500000920E-02 0. -1.
</event>
<event>
 5   0  0.3610483E-07  0.3912727E+04  0.7818609E-02  0.8022387E-01
       -2   -1    0    0    0  501  0.00000000000E+00  0.00000000000E+00  0.17240710095E+04  0.17240710095E+04  0.25500000920E-02 0. -1.
        2   -1    0    0  501    0  0.00000000000E+00  0.00000000000E+00 -0.22199537185E+04  0.22199537185E+04  0.25500000920E-02 0.  1.
    10030    2    1    2    0    0  0.00000000000E+00  0.00000000000E+00 -0.49588270895E+03  0.39440247280E+04  0.39127268489E+04 0.  0.
        4    1    3    3  502    0  0.14035015766E+04  0.12329924083E+04 -0.83333565840E+03  0.20456140611E+04  0.12699999809E+01 0. -1.
       -4    1    3    3    0  502 -0.14035015766E+04 -0.12329924083E+04  0.33745294944E+03  0.18984106670E+04  0.12699999809E+01 0.  1.
</event>
<event>
 5   0  0.3610483E-07  0.3911693E+04  0.7818609E-02  0.8022602E-01
        2   -1    0    0  501    0  0.00000000000E+00  0.00000000000E+00  0.24362143644E+04  0.24362143644E+04  0.25500000920E-02 0.  1.
       -2   -1    0    0    0  501  0.00000000000E+00  0.00000000000E+00 -0.15701968213E+04  0.15701968213E+04  0.25500000920E-02 0. -1.
    10030    2    1    2    0    0  0.00000000000E+00  0.00000000000E+00  0.86601754305E+03  0.40064111857E+04  0.39116932656E+04 0.  0.
        4    1    3    3  502    0 -0.62703073825E+03 -0.18031413011E+04 -0.25512298622E+01  0.19090558452E+04  0.12699999809E+01 0. -1.
       -4    1    3    3    0  502  0.62703073825E+03  0.18031413011E+04  0.86856877291E+03  0.20973553405E+04  0.12699999809E+01 0.  1.
</event>
<event>
 5   0  0.1187925E-07  0.3813572E+04  0.7818609E-02  0.8043249E-01
        1   -1    0    0  501    0  0.00000000000E+00  0.00000000000E+00  0.18276292406E+04  0.18276292406E+04  0.50400001928E-02 0.  1.
       -1   -1    0    0    0  501  0.00000000000E+00  0.00000000000E+00 -0.19893714437E+04  0.19893714437E+04  0.50400001928E-02 0. -1.
    10030    2    1    2    0    0  0.00000000000E+00  0.00000000000E+00 -0.16174220308E+03  0.38170006843E+04  0.38135722995E+04 0.  0.
        4    1    3    3  502    0 -0.62950143163E+03  0.12460133306E+04  0.12191462557E+04  0.18534131968E+04  0.12699999809E+01 0.  1.
       -4    1    3    3    0  502  0.62950143163E+03 -0.12460133306E+04 -0.13808884587E+04  0.19635874875E+04  0.12699999809E+01 0. -1.
</event>
<event>
 5   0  0.1187925E-07  0.3926297E+04  0.7818609E-02  0.8019582E-01
        1   -1    0    0  501    0  0.00000000000E+00  0.00000000000E+00  0.19372904354E+04  0.19372904354E+04  0.50400001928E-02 0.  1.
       -1   -1    0    0    0  501  0.00000000000E+00  0.00000000000E+00 -0.19893521247E+04  0.19893521247E+04  0.50400001928E-02 0. -1.
    10030    2    1    2    0    0  0.00000000000E+00  0.00000000000E+00 -0.52061689275E+02  0.39266425602E+04  0.39262974131E+04 0.  0.
        5    1    3    3  502    0  0.31949575303E+03 -0.17937204144E+04  0.70507397336E+03  0.19536278712E+04  0.46999998093E+01 0.  1.
       -5    1    3    3    0  502 -0.31949575303E+03  0.17937204144E+04 -0.75713566263E+03  0.19730146890E+04  0.46999998093E+01 0. -1.
</event>
<event>
 5   0  0.1187925E-07  0.3926979E+04  0.7818609E-02  0.8019441E-01
        1   -1    0    0  501    0  0.00000000000E+00  0.00000000000E+00  0.17920270788E+04  0.17920270788E+04  0.50400001928E-02 0.  1.
       -1   -1    0    0    0  501  0.00000000000E+00  0.00000000000E+00 -0.21513574318E+04  0.21513574318E+04  0.50400001928E-02 0. -1.
    10030    2    1    2    0    0  0.00000000000E+00  0.00000000000E+00 -0.35933035293E+03  0.39433845106E+04  0.39269788764E+04 0.  0.
        1    1    3    3  502    0 -0.97991899383E+03  0.42101368307E+03  0.14757962658E+04  0.18208427648E+04  0.50400001928E-02 0.  1.
       -1    1    3    3    0  502  0.97991899383E+03 -0.42101368307E+03 -0.18351266188E+04  0.21225417458E+04  0.50400001928E-02 0. -1.
</event>
<event>
 5   0  0.1187925E-07  0.3917331E+04  0.7818609E-02  0.8021434E-01
        1   -1    0    0  501    0  0.00000000000E+00  0.00000000000E+00  0.13526115025E+04  0.13526115025E+04  0.50400001928E-02 0.  1.
       -1   -1    0    0    0  501  0.00000000000E+00  0.00000000000E+00 -0.28362698314E+04  0.28362698314E+04  0.50400001928E-02 0. -1.
    10030    2    1    2    0    0  0.00000000000E+00  0.00000000000E+00 -0.14836583289E+04  0.41888813339E+04  0.39173313355E+04 0.  0.
        4    1    3    3  502    0  0.51503321474E+03 -0.16891492327E+04  0.16418557646E+03  0.17735396413E+04  0.12699999809E+01 0.  1.
       -4    1    3    3    0  502 -0.51503321474E+03  0.16891492327E+04 -0.16478439054E+04  0.24153416926E+04  0.12699999809E+01 0. -1.
</event>
<event>
 5   0  0.1187925E-07  0.3622715E+04  0.7818609E-02  0.8085308E-01
        1   -1    0    0  501    0  0.00000000000E+00  0.00000000000E+00  0.22948135395E+04  0.22948135395E+04  0.50400001928E-02 0.  1.
       -1   -1    0    0    0  501  0.00000000000E+00  0.00000000000E+00 -0.14297527792E+04  0.14297527792E+04  0.50400001928E-02 0. -1.
    10030    2    1    2    0    0  0.00000000000E+00  0.00000000000E+00  0.86506076026E+03  0.37245663187E+04  0.36227150237E+04 0.  0.
        1    1    3    3  502    0  0.15354900743E+04  0.84840773822E+03 -0.31251408659E+02  0.17545660743E+04  0.50400001928E-02 0. -1.
       -1    1    3    3    0  502 -0.15354900743E+04 -0.84840773822E+03  0.89631216892E+03  0.19700002444E+04  0.50400001928E-02 0.  1.
</event>
<event>
 5   0  0.3665303E-07  0.3872682E+04  0.7818609E-02  0.8030735E-01
        2   -1    0    0  501    0  0.00000000000E+00  0.00000000000E+00  0.21473807672E+04  0.21473807672E+04  0.25500000920E-02 0. -1.
       -2   -1    0    0    0  501  0.00000000000E+00  0.00000000000E+00 -0.17460420599E+04  0.17460420599E+04  0.25500000920E-02 0.  1.
    10030    2    1    2    0    0  0.00000000000E+00  0.00000000000E+00  0.40133870733E+03  0.38934228271E+04  0.38726823460E+04 0.  0.
        2    1    3    3  502    0 -0.10978162868E+04 -0.25182298861E+03  0.17841608021E+04  0.21099396164E+04  0.25500000920E-02 0. -1.
       -2    1    3    3    0  502  0.10978162868E+04  0.25182298861E+03 -0.13828220947E+04  0.17834832107E+04  0.25500000920E-02 0.  1.
</event>
<event>
 5   0  0.1187925E-07  0.3465108E+04  0.7818609E-02  0.8122109E-01
       -1   -1    0    0    0  501  0.00000000000E+00  0.00000000000E+00  0.19102501521E+04  0.19102501522E+04  0.50400001928E-02 0.  1.
        1   -1    0    0  501    0  0.00000000000E+00  0.00000000000E+00 -0.15713878660E+04  0.15713878660E+04  0.50400001928E-02 0. -1.
    10030    2    1    2    0    0  0.00000000000E+00  0.00000000000E+00  0.33886228616E+03  0.34816380181E+04  0.34651083158E+04 0.  0.
        4    1    3    3  502    0  0.14441721197E+03 -0.13358558735E+04  0.12684381851E+04  0.18477836150E+04  0.12699999809E+01 0.  1.
       -4    1    3    3    0  502 -0.14441721197E+03  0.13358558735E+04 -0.92957589890E+03  0.16338544031E+04  0.12699999809E+01 0. -1.
</event>
<event>
 5   0  0.3665303E-07  0.3909663E+04  0.7818609E-02  0.8023023E-01
       -2   -1    0    0    0  501  0.00000000000E+00  0.00000000000E+00  0.19700220059E+04  0.19700220059E+04  0.25500000920E-02 0. -1.
        2   -1    0    0  501    0  0.00000000000E+00  0.00000000000E+00 -0.19397579811E+04  0.19397579811E+04  0.25500000920E-02 0.  1.
    10030    2    1    2    0    0  0.00000000000E+00  0.00000000000E+00  0.30264024851E+02  0.39097799870E+04  0.39096628544E+04 0.  0.
        2    1    3    3  502    0  0.10437840847E+04 -0.15394078782E+04  0.61690088448E+03  0.19595480428E+04  0.25500000920E-02 0. -1.
       -2    1    3    3    0  502 -0.10437840847E+04  0.15394078782E+04 -0.58663685962E+03  0.19502319441E+04  0.25500000920E-02 0.  1.
</event>
<event>
 5   0  0.1187925E-07  0.3853248E+04  0.7818609E-02  0.8034824E-01
        1   -1    0    0  501    0  0.00000000000E+00  0.00000000000E+00  0.22846346257E+04  0.22846346257E+04  0.50400001928E-02 0.  1.
       -1   -1    0    0    0  501  0.00000000000E+00  0.00000000000E+00 -0.16247149172E+04  0.16247149172E+04  0.50400001928E-02 0. -1.
    10030    2    1    2    0    0  0.00000000000E+00  0.00000000000E+00  0.65991970850E+03  0.39093495429E+04  0.38532479581E+04 0.  0.
        1    1    3    3  502    0 -0.18087221361E+04 -0.25354828567E+02  0.10027599770E+04  0.20682471333E+04  0.50400001928E-02 0.  1.
       -1    1    3    3    0  502  0.18087221361E+04  0.25354828567E+02 -0.34284026850E+03  0.18411024096E+04  0.50400001928E-02 0. -1.
</event>
<event>
 5   0  0.1187925E-07  0.3270099E+04  0.7818609E-02  0.8170546E-01
       -1   -1    0    0    0  501  0.00000000000E+00  0.00000000000E+00  0.11284147155E+04  0.11284147155E+04  0.50400001928E-02 0.  1.
        1   -1    0    0  501    0  0.00000000000E+00  0.00000000000E+00 -0.23691526041E+04  0.23691526041E+04  0.50400001928E-02 0. -1.
    10030    2    1    2    0    0  0.00000000000E+00  0.00000000000E+00 -0.12407378886E+04  0.34975673196E+04  0.32700988742E+04 0.  0.
        3    1    3    3  502    0  0.88731097448E+03 -0.56868466835E+03  0.71665120100E+03  0.12744849829E+04  0.10100000352E+00 0.  1.
       -3    1    3    3    0  502 -0.88731097448E+03  0.56868466835E+03 -0.19573890896E+04  0.22230823367E+04  0.10100000352E+00 0. -1.
</event>
<event>
 5   0  0.3665303E-07  0.3422989E+04  0.7818609E-02  0.8132287E-01
       -2   -1    0    0    0  501  0.00000000000E+00  0.00000000000E+00  0.12949596990E+04  0.12949596990E+04  0.25500000920E-02 0. -1.
        2   -1    0    0  501    0  0.00000000000E+00  0.00000000000E+00 -0.22620117818E+04  0.22620117818E+04  0.25500000920E-02 0.  1.
    10030    2    1    2    0    0  0.00000000000E+00  0.00000000000E+00 -0.96705208284E+03  0.35569714809E+04  0.34229893930E+04 0.  0.
        2    1    3    3  502    0  0.11319965621E+04 -0.93210758063E+03 -0.14006670787E+04  0.20278335789E+04  0.25500000920E-02 0.  1.
       -2    1    3    3    0  502 -0.11319965621E+04  0.93210758063E+03  0.43361499590E+03  0.15291379019E+04  0.25500000920E-02 0. -1.
</event>
<event>
 5   0  0.3680814E-07  0.3888575E+04  0.7818609E-02  0.8027410E-01
        2   -1    0    0  501    0  0.00000000000E+00  0.00000000000E+00  0.19335557461E+04  0.19335557461E+04  0.25500000920E-02 0. -1.
       -2   -1    0    0    0  501  0.00000000000E+00  0.00000000000E+00 -0.19550789019E+04  0.19550789019E+04  0.25500000920E-02 0.  1.
    10030    2    1    2    0    0  0.00000000000E+00  0.00000000000E+00 -0.21523155794E+02  0.38886346480E+04  0.38885750834E+04 0.  0.
        1    1    3    3  502    0 -0.13375864087E+04  0.14019655355E+04 -0.17079303082E+03  0.19452030801E+04  0.50400001928E-02 0. -1.
       -1    1    3    3    0  502  0.13375864087E+04 -0.14019655355E+04  0.14926987502E+03  0.19434315679E+04  0.50400001928E-02 0.  1.
</event>
<event>
 5   0  0.3832389E-07  0.3921254E+04  0.7818609E-02  0.8020623E-01
       -2   -1    0    0    0  501  0.00000000000E+00  0.00000000000E+00  0.14968449990E+04  0.14968449990E+04  0.25500000920E-02 0.  1.
        2   -1    0    0  501    0  0.00000000000E+00  0.00000000000E+00 -0.25681075077E+04  0.25681075077E+04  0.25500000920E-02 0. -1.
    10030    2    1    2    0    0  0.00000000000E+00  0.00000000000E+00 -0.10712625087E+04  0.40649525066E+04  0.39212543298E+04 0.  0.
        5    1    3    3  502    0  0.10155699039E+04  0.37004689036E+03 -0.22313381473E+04  0.24793565594E+04  0.46999998093E+01 0. -1.
       -5    1    3    3    0  502 -0.10155699039E+04 -0.37004689036E+03  0.11600756386E+04  0.15855959473E+04  0.46999998093E+01 0.  1.
</event>
<event>
 5   0  0.1187925E-07  0.3855927E+04  0.7818609E-02  0.8034258E-01
       -1   -1    0    0    0  501  0.00000000000E+00  0.00000000000E+00  0.13779520264E+04  0.13779520264E+04  0.50400001928E-02 0.  1.
        1   -1    0    0  501    0  0.00000000000E+00  0.00000000000E+00 -0.26975128851E+04  0.26975128851E+04  0.50400001928E-02 0. -1.
    10030    2    1    2    0    0  0.00000000000E+00  0.00000000000E+00 -0.13195608587E+04  0.40754649116E+04  0.38559270462E+04 0.  0.
        4    1    3    3  502    0 -0.13020590979E+04  0.13046714407E+04 -0.12572211763E+04  0.22311728220E+04  0.12699999809E+01 0. -1.
       -4    1    3    3    0  502  0.13020590979E+04 -0.13046714407E+04 -0.62339682390E+02  0.18442920895E+04  0.12699999809E+01 0.  1.
</event>
<event>
 5   0  0.1187925E-07  0.3876114E+04  0.7818609E-02  0.8030016E-01
        1   -1    0    0  501    0  0.00000000000E+00  0.00000000000E+00  0.23815328113E+04  0.23815328113E+04  0.50400001928E-02 0. -1.
       -1   -1    0    0    0  501  0.00000000000E+00  0.00000000000E+00 -0.15771625657E+04  0.15771625657E+04  0.50400001928E-02 0.  1.
    10030    2    1    2    0    0  0.00000000000E+00  0.00000000000E+00  0.80437024558E+03  0.39586953770E+04  0.38761137233E+04 0.  0.
        1    1    3    3  502    0  0.14849484271E+04 -0.12181264066E+04  0.66686013335E+03  0.20331271999E+04  0.50400001928E-02 0.  1.
       -1    1    3    3    0  502 -0.14849484271E+04  0.12181264066E+04  0.13751011222E+03  0.19255681771E+04  0.50400001928E-02 0. -1.
</event>
<event>
 5   0  0.1187925E-07  0.3911318E+04  0.7818609E-02  0.8022679E-01
       -1   -1    0    0    0  501  0.00000000000E+00  0.00000000000E+00  0.11274360100E+04  0.11274360100E+04  0.50400001928E-02 0.  1.
        1   -1    0    0  501    0  0.00000000000E+00  0.00000000000E+00 -0.33923006682E+04  0.33923006682E+04  0.50400001928E-02 0. -1.
    10030    2    1    2    0    0  0.00000000000E+00  0.00000000000E+00 -0.22648646582E+04  0.45197366782E+04  0.39113179007E+04 0.  0.
        5    1    3    3  502    0  0.82533135059E+03  0.77965740803E+02 -0.31792071872E+04  0.32855183646E+04  0.46999998093E+01 0. -1.
       -5    1    3    3    0  502 -0.82533135059E+03 -0.77965740803E+02  0.91434252906E+03  0.12342183135E+04  0.46999998093E+01 0.  1.
</event>
<event>
 5   0  0.3810833E-07  0.3873887E+04  0.7818609E-02  0.8030482E-01
        2   -1    0    0  501    0  0.00000000000E+00  0.00000000000E+00  0.22084113737E+04  0.22084113737E+04  0.25500000920E-02 0.  1.
       -2   -1    0    0    0  501  0.00000000000E+00  0.00000000000E+00 -0.16988460996E+04  0.16988460996E+04  0.25500000920E-02 0. -1.
    10030    2    1    2    0    0  0.00000000000E+00  0.00000000000E+00  0.50956527411E+03  0.39072574734E+04  0.38738874783E+04 0.  0.
        3    1    3    3  502    0  0.66195735408E+03 -0.16099348054E+03  0.20835878888E+04  0.21921325097E+04  0.10100000352E+00 0.  1.
       -3    1    3    3    0  502 -0.66195735408E+03  0.16099348054E+03 -0.15740226147E+04  0.17151249637E+04  0.10100000352E+00 0. -1.
</event>
<event>
 5   0  0.3665303E-07  0.3860142E+04  0.7818609E-02  0.8033370E-01
       -2   -1    0    0    0  501  0.00000000000E+00  0.00000000000E+00  0.15770931515E+04  0.15770931515E+04  0.25500000920E-02 0.  1.
        2   -1    0    0  501    0  0.00000000000E+00  0.00000000000E+00 -0.23620509946E+04  0.23620509946E+04  0.25500000920E-02 0. -1.
    10030    2    1    2    0    0  0.00000000000E+00  0.00000000000E+00 -0.78495784309E+03  0.39391441461E+04  0.38601421979E+04 0.  0.
        2    1    3    3  502    0  0.45375666825E+03  0.18593689347E+04 -0.64662721595E+03  0.20202164997E+04  0.25500000920E-02 0.  1.
       -2    1    3    3    0  502 -0.45375666825E+03 -0.18593689347E+04 -0.13833062713E+03  0.19189276463E+04  0.25500000920E-02 0. -1.
</event>
<event>
 5   0  0.1187925E-07  0.3565571E+04  0.7818609E-02  0.8098424E-01
        1   -1    0    0  501    0  0.00000000000E+00  0.00000000000E+00  0.18075961427E+04  0.18075961427E+04  0.50400001928E-02 0. -1.
       -1   -1    0    0    0  501  0.00000000000E+00  0.00000000000E+00 -0.17583150352E+04  0.17583150352E+04  0.50400001928E-02 0.  1.
    10030    2    1    2    0    0  0.00000000000E+00  0.00000000000E+00  0.49281107481E+02  0.35659111779E+04  0.35655706277E+04 0.  0.
        2    1    3    3  502    0  0.11033555180E+03  0.14970159023E+04  0.98654993120E+03  0.17962492345E+04  0.25500000920E-02 0. -1.
       -2    1    3    3    0  502 -0.11033555180E+03 -0.14970159023E+04 -0.93726882372E+03  0.17696619433E+04  0.25500000920E-02 0.  1.
</event>
<event>
 5   0  0.1187925E-07  0.4231238E+04  0.7818609E-02  0.7959457E-01
        1   -1    0    0  501    0  0.00000000000E+00  0.00000000000E+00  0.17620848858E+04  0.17620848858E+04  0.50400001928E-02 0.  1.
       -1   -1    0    0    0  501  0.00000000000E+00  0.00000000000E+00 -0.25400837561E+04  0.25400837562E+04  0.50400001928E-02 0. -1.
    10030    2    1    2    0    0  0.00000000000E+00  0.00000000000E+00 -0.77799887033E+03  0.43021686420E+04  0.42312377364E+04 0.  0.
        2    1    3    3  502    0  0.19846669388E+03 -0.21012418364E+04 -0.53717127888E+03  0.21778795344E+04  0.25500000920E-02 0.  1.
       -2    1    3    3    0  502 -0.19846669388E+03  0.21012418364E+04 -0.24082759145E+03  0.21242891075E+04  0.25500000920E-02 0. -1.
</event>
<event>
 5   0  0.3610483E-07  0.3807427E+04  0.7818609E-02  0.8044563E-01
       -2   -1    0    0    0  501  0.00000000000E+00  0.00000000000E+00  0.28328874773E+04  0.28328874773E+04  0.25500000920E-02 0. -1.
        2   -1    0    0  501    0  0.00000000000E+00  0.00000000000E+00 -0.12793045072E+04  0.12793045072E+04  0.25500000920E-02 0.  1.
    10030    2    1    2    0    0  0.00000000000E+00  0.00000000000E+00  0.15535829701E+04  0.41121919845E+04  0.38074273298E+04 0.  0.
        4    1    3    3  502    0  0.19562819146E+03  0.46564803773E+03 -0.12056205067E+04  0.13071422659E+04  0.12699999809E+01 0.  1.
       -4    1    3    3    0  502 -0.19562819146E+03 -0.46564803773E+03  0.27592034768E+04  0.28050497185E+04  0.12699999809E+01 0. -1.
</event>
<event>
 5   0  0.1187925E-07  0.3157553E+04  0.7818609E-02  0.8200118E-01
       -1   -1    0    0    0  501  0.00000000000E+00  0.00000000000E+00  0.12081250637E+04  0.12081250637E+04  0.50400001928E-02 0.  1.
        1   -1    0    0  501    0  0.00000000000E+00  0.00000000000E+00 -0.20631430320E+04  0.20631430320E+04  0.50400001928E-02 0. -1.
    10030    2    1    2    0    0  0.00000000000E+00  0.00000000000E+00 -0.85501796832E+03  0.32712680957E+04  0.31575527276E+04 0.  0.
        3    1    3    3  502    0  0.21552084942E+03  0.15639291399E+04 -0.44256527551E+03  0.16395693412E+04  0.10100000352E+00 0. -1.
       -3    1    3    3    0  502 -0.21552084942E+03 -0.15639291399E+04 -0.41245269281E+03  0.16316987545E+04  0.10100000352E+00 0.  1.
</event>
<event>
 5   0  0.3680814E-07  0.3956828E+04  0.7818609E-02  0.8013313E-01
        2   -1    0    0  501    0  0.00000000000E+00  0.00000000000E+00  0.24589575567E+04  0.24589575567E+04  0.25500000920E-02 0. -1.
       -2   -1    0    0    0  501  0.00000000000E+00  0.00000000000E+00 -0.15917806344E+04  0.15917806344E+04  0.25500000920E-02 0.  1.
    10030    2    1    2    0    0  0.00000000000E+00  0.00000000000E+00  0.86717692228E+03  0.40507381911E+04  0.39568275270E+04 0.  0.
        1    1    3    3  502    0 -0.17359732004E+04  0.35231657681E+03  0.13356316416E+04  0.22184773618E+04  0.50400001928E-02 0. -1.
       -1    1    3    3    0  502  0.17359732004E+04 -0.35231657681E+03 -0.46845471928E+03  0.18322608293E+04  0.50400001928E-02 0.  1.
</event>
<event>
 5   0  0.1187925E-07  0.4057740E+04  0.7818609E-02  0.7992999E-01
       -1   -1    0    0    0  501  0.00000000000E+00  0.00000000000E+00  0.14446465484E+04  0.14446465484E+04  0.50400001928E-02 0.  1.
        1   -1    0    0  501    0  0.00000000000E+00  0.00000000000E+00 -0.28493564308E+04  0.28493564308E+04  0.50400001928E-02 0. -1.
    10030    2    1    2    0    0  0.00000000000E+00  0.00000000000E+00 -0.14047098824E+04  0.42940029793E+04  0.40577397319E+04 0.  0.
        2    1    3    3  502    0 -0.17574288598E+04  0.97936108550E+02 -0.17701484838E+04  0.24963119463E+04  0.25500000920E-02 0. -1.
       -2    1    3    3    0  502  0.17574288598E+04 -0.97936108550E+02  0.36543860138E+03  0.17976910330E+04  0.25500000920E-02 0.  1.
</event>
<event>
 5   0  0.1187925E-07  0.3862033E+04  0.7818609E-02  0.8032972E-01
        1   -1    0    0  501    0  0.00000000000E+00  0.00000000000E+00  0.19560578935E+04  0.19560578935E+04  0.50400001928E-02 0.  1.
       -1   -1    0    0    0  501  0.00000000000E+00  0.00000000000E+00 -0.19062952312E+04  0.19062952312E+04  0.50400001928E-02 0. -1.
    10030    2    1    2    0    0  0.00000000000E+00  0.00000000000E+00  0.49762662233E+02  0.38623531247E+04  0.38620325397E+04 0.  0.
        4    1    3    3  502    0  0.58192406218E+01 -0.32795154301E+03  0.19279938768E+04  0.19556963159E+04  0.12699999809E+01 0.  1.
       -4    1    3    3    0  502 -0.58192406218E+01  0.32795154301E+03 -0.18782312146E+04  0.19066568088E+04  0.12699999809E+01 0. -1.
</event>
<event>
 5   0  0.3610483E-07  0.3900498E+04  0.7818609E-02  0.8024926E-01
        2   -1    0    0  501    0  0.00000000000E+00  0.00000000000E+00  0.13416453361E+04  0.13416453361E+04  0.25500000920E-02 0. -1.
       -2   -1    0    0    0  501  0.00000000000E+00  0.00000000000E+00 -0.28349309349E+04  0.28349309349E+04  0.25500000920E-02 0.  1.
    10030    2    1    2    0    0  0.00000000000E+00  0.00000000000E+00 -0.14932855988E+04  0.41765762710E+04  0.39004983614E+04 0.  0.
        4    1    3    3  502    0 -0.61040691369E+03  0.15183727808E+04 -0.18825875205E+04  0.24944317763E+04  0.12699999809E+01 0.  1.
       -4    1    3    3    0  502  0.61040691369E+03 -0.15183727808E+04  0.38930192163E+03  0.16821444946E+04  0.12699999809E+01 0. -1.
</event>
<event>
 5   0  0.3665303E-07  0.3911994E+04  0.7818609E-02  0.8022539E-01
       -2   -1    0    0    0  501  0.00000000000E+00  0.00000000000E+00  0.22573834939E+04  0.22573834939E+04  0.25500000920E-02 0.  1.
        2   -1    0    0  501    0  0.00000000000E+00  0.00000000000E+00 -0.16948490649E+04  0.16948490649E+04  0.25500000920E-02 0. -1.
    10030    2    1    2    0    0  0.00000000000E+00  0.00000000000E+00  0.56253442906E+03  0.39522325588E+04  0.39119940203E+04 0.  0.
        2    1    3    3  502    0  0.65438032066E+03 -0.13508191425E+04  0.15483600696E+04  0.21564658275E+04  0.25500000920E-02 0.  1.
       -2    1    3    3    0  502 -0.65438032066E+03  0.13508191425E+04 -0.98582564057E+03  0.17957667313E+04  0.25500000920E-02 0. -1.
</event>
<event>
 5   0  0.1187925E-07  0.3423515E+04  0.7818609E-02  0.8132159E-01
       -1   -1    0    0    0  501  0.00000000000E+00  0.00000000000E+00  0.10885345545E+04  0.10885345545E+04  0.50400001928E-02 0. -1.
        1   -1    0    0  501    0  0.00000000000E+00  0.00000000000E+00 -0.26917961023E+04  0.26917961023E+04  0.50400001928E-02 0.  1.
    10030    2    1    2    0    0  0.00000000000E+00  0.00000000000E+00 -0.16032615478E+04  0.37803306568E+04  0.34235146098E+04 0.  0.
        5    1    3    3  502    0  0.38827228051E+03 -0.10943837499E+04 -0.21903490289E+04  0.24791293056E+04  0.46999998093E+01 0.  1.
       -5    1    3    3    0  502 -0.38827228051E+03  0.10943837499E+04  0.58708748101E+03  0.13012013511E+04  0.46999998093E+01 0. -1.
</event>
<event>
 5   0  0.3832389E-07  0.4077300E+04  0.7818609E-02  0.7989132E-01
       -2   -1    0    0    0  501  0.00000000000E+00  0.00000000000E+00  0.17456655161E+04  0.17456655161E+04  0.25500000920E-02 0. -1.
        2   -1    0    0  501    0  0.00000000000E+00  0.00000000000E+00 -0.23808076778E+04  0.23808076778E+04  0.25500000920E-02 0.  1.
    10030    2    1    2    0    0  0.00000000000E+00  0.00000000000E+00 -0.63514216168E+03  0.41264731939E+04  0.40773000202E+04 0.  0.
        5    1    3    3  502    0 -0.28202613061E+03  0.10393335555E+04 -0.20694350002E+04  0.23328815418E+04  0.46999998093E+01 0.  1.
       -5    1    3    3    0  502  0.28202613061E+03 -0.10393335555E+04  0.14342928386E+04  0.17935916521E+04  0.46999998093E+01 0. -1.
</event>
<event>
 5   0  0.3665303E-07  0.3405319E+04  0.7818609E-02  0.8136602E-01
        2   -1    0    0  501    0  0.00000000000E+00  0.00000000000E+00  0.17395156048E+04  0.17395156048E+04  0.25500000920E-02 0. -1.
       -2   -1    0    0    0  501  0.00000000000E+00  0.00000000000E+00 -0.16665846237E+04  0.16665846237E+04  0.25500000920E-02 0.  1.
    10030    2    1    2    0    0  0.00000000000E+00  0.00000000000E+00  0.72930981108E+02  0.34061002285E+04  0.34053193446E+04 0.  0.
        2    1    3    3  502    0 -0.15819488229E+04 -0.14440808728E+02  0.66611706814E+03  0.17165321330E+04  0.25500000920E-02 0.  1.
       -2    1    3    3    0  502  0.15819488229E+04  0.14440808728E+02 -0.59318608703E+03  0.16895680954E+04  0.25500000920E-02 0. -1.
</event>
<event>
 5   0  0.3832389E-07  0.2946311E+04  0.7818609E-02  0.8259231E-01
       -2   -1    0    0    0  501  0.00000000000E+00  0.00000000000E+00  0.12339096226E+04  0.12339096226E+04  0.25500000920E-02 0.  1.
        2   -1    0    0  501    0  0.00000000000E+00  0.00000000000E+00 -0.17587890265E+04  0.17587890265E+04  0.25500000920E-02 0. -1.
    10030    2    1    2    0    0  0.00000000000E+00  0.00000000000E+00 -0.52487940392E+03  0.29926986491E+04  0.29463107126E+04 0.  0.
        5    1    3    3  502    0  0.51382536892E+03 -0.46448712871E+03  0.10581842220E+04  0.12647295127E+04  0.46999998093E+01 0.  1.
       -5    1    3    3    0  502 -0.51382536892E+03  0.46448712871E+03 -0.15830636260E+04  0.17279691364E+04  0.46999998093E+01 0. -1.
</event>
<event>
 5   0  0.1187925E-07  0.3901118E+04  0.7818609E-02  0.8024797E-01
        1   -1    0    0  501    0  0.00000000000E+00  0.00000000000E+00  0.20125424011E+04  0.20125424011E+04  0.50400001928E-02 0.  1.
       -1   -1    0    0    0  501  0.00000000000E+00  0.00000000000E+00 -0.18904850268E+04  0.18904850268E+04  0.50400001928E-02 0. -1.
    10030    2    1    2    0    0  0.00000000000E+00  0.00000000000E+00  0.12205737426E+03  0.39030274279E+04  0.39011184422E+04 0.  0.
        3    1    3    3  502    0  0.13817179238E+04 -0.12549790499E+04  0.62748983937E+03  0.19692283629E+04  0.10100000352E+00 0.  1.
       -3    1    3    3    0  502 -0.13817179238E+04  0.12549790499E+04 -0.50543246511E+03  0.19337990650E+04  0.10100000352E+00 0. -1.
</event>
<event>
 5   0  0.3680814E-07  0.3892630E+04  0.7818609E-02  0.8026564E-01
       -2   -1    0    0    0  501  0.00000000000E+00  0.00000000000E+00  0.17136280043E+04  0.17136280043E+04  0.25500000920E-02 0.  1.
        2   -1    0    0  501    0  0.00000000000E+00  0.00000000000E+00 -0.22105979246E+04  0.22105979246E+04  0.25500000920E-02 0. -1.
    10030    2    1    2    0    0  0.00000000000E+00  0.00000000000E+00 -0.49696992030E+03  0.39242259289E+04  0.38926302212E+04 0.  0.
        1    1    3    3  502    0  0.35573859258E+03 -0.17149807698E+04  0.60718800247E+03  0.18537492434E+04  0.50400001928E-02 0.  1.
       -1    1    3    3    0  502 -0.35573859258E+03  0.17149807698E+04 -0.11041579228E+04  0.20704766855E+04  0.50400001928E-02 0. -1.
</event>
<event>
 5   0  0.1187925E-07  0.3925448E+04  0.7818609E-02  0.8019757E-01
       -1   -1    0    0    0  501  0.00000000000E+00  0.00000000000E+00  0.18708455548E+04  0.18708455548E+04  0.50400001928E-02 0. -1.
        1   -1    0    0  501    0  0.00000000000E+00  0.00000000000E+00 -0.20591146988E+04  0.20591146988E+04  0.50400001928E-02 0.  1.
    10030    2    1    2    0    0  0.00000000000E+00  0.00000000000E+00 -0.18826914399E+03  0.39299602537E+04  0.39254480413E+04 0.  0.
        3    1    3    3  502    0 -0.14610591236E+03  0.12036945091E+04 -0.16393004375E+04  0.20390030268E+04  0.10100000352E+00 0.  1.
       -3    1    3    3    0  502  0.14610591236E+03 -0.12036945091E+04  0.14510312935E+04  0.18909572269E+04  0.10100000352E+00 0. -1.
</event>
<event>
 5   0  0.3665303E-07  0.3837281E+04  0.7818609E-02  0.8038201E-01
       -2   -1    0    0    0  501  0.00000000000E+00  0.00000000000E+00  0.15674906565E+04  0.15674906565E+04  0.25500000920E-02 0.  1.
        2   -1    0    0  501    0  0.00000000000E+00  0.00000000000E+00 -0.23484554022E+04  0.23484554022E+04  0.25500000920E-02 0. -1.
    10030    2    1    2    0    0  0.00000000000E+00  0.00000000000E+00 -0.78096474565E+03  0.39159460587E+04  0.38372812773E+04 0.  0.
        2    1    3    3  502    0 -0.17670829151E+04  0.66297499832E+03 -0.74261262880E+03  0.20281990518E+04  0.25500000920E-02 0. -1.
       -2    1    3    3    0  502  0.17670829151E+04 -0.66297499832E+03 -0.38352116855E+02  0.18877470069E+04  0.25500000920E-02 0.  1.
</event>
<event>
 5   0  0.3680814E-07  0.3910526E+04  0.7818609E-02  0.8022843E-01
       -2   -1    0    0    0  501  0.00000000000E+00  0.00000000000E+00  0.20997337861E+04  0.20997337861E+04  0.25500000920E-02 0.  1.
        2   -1    0    0  501    0  0.00000000000E+00  0.00000000000E+00 -0.18207327976E+04  0.18207327976E+04  0.25500000920E-02 0. -1.
    10030    2    1    2    0    0  0.00000000000E+00  0.00000000000E+00  0.27900098849E+03  0.39204665836E+04  0.39105263945E+04 0.  0.
        1    1    3    3  502    0  0.35856131304E+03  0.10764400337E+04  0.17359567396E+04  0.20738455012E+04  0.50400001928E-02 0.  1.
       -1    1    3    3    0  502 -0.35856131304E+03 -0.10764400337E+04 -0.14569557511E+04  0.18466210824E+04  0.50400001928E-02 0. -1.
</event>
<event>
 5   0  0.3680814E-07  0.3886909E+04  0.7818609E-02  0.8027757E-01
        2   -1    0    0  501    0  0.00000000000E+00  0.00000000000E+00  0.16990374554E+04  0.16990374554E+04  0.25500000920E-02 0. -1.
       -2   -1    0    0    0  501  0.00000000000E+00  0.00000000000E+00 -0.22230321292E+04  0.22230321292E+04  0.25500000920E-02 0.  1.
    10030    2    1    2    0    0  0.00000000000E+00  0.00000000000E+00 -0.52399467379E+03  0.39220695846E+04  0.38869087214E+04 0.  0.
        1    1    3    3  502    0 -0.69442397243E+03  0.51890762660E+03 -0.20171355864E+04  0.21955240268E+04  0.50400001928E-02 0.  1.
       -1    1    3    3    0  502  0.69442397243E+03 -0.51890762660E+03  0.14931409126E+04  0.17265455578E+04  0.50400001928E-02 0. -1.
</event>
<event>
 5   0  0.3832389E-07  0.3776412E+04  0.7818609E-02  0.8051236E-01
       -2   -1    0    0    0  501  0.00000000000E+00  0.00000000000E+00  0.13703125515E+04  0.13703125515E+04  0.25500000920E-02 0. -1.
        2   -1    0    0  501    0  0.00000000000E+00  0.00000000000E+00 -0.26018307606E+04  0.26018307606E+04  0.25500000920E-02 0.  1.
    10030    2    1    2    0    0  0.00000000000E+00  0.00000000000E+00 -0.12315182091E+04  0.39721433121E+04  0.37764117086E+04 0.  0.
        5    1    3    3  502    0 -0.87878344634E+03 -0.69522756262E+03 -0.22142977146E+04  0.24816805129E+04  0.46999998093E+01 0.  1.
       -5    1    3    3    0  502  0.87878344634E+03  0.69522756262E+03  0.98277950549E+03  0.14904627992E+04  0.46999998093E+01 0. -1.
</event>
<event>
 5   0  0.1187925E-07  0.3861033E+04  0.7818609E-02  0.8033183E-01
       -1   -1    0    0    0  501  0.00000000000E+00  0.00000000000E+00  0.23128349430E+04  0.23128349430E+04  0.50400001928E-02 0. -1.
        1   -1    0    0  501    0  0.00000000000E+00  0.00000000000E+00 -0.16113967441E+04  0.16113967441E+04  0.50400001928E-02 0.  1.
    10030    2    1    2    0    0  0.00000000000E+00  0.00000000000E+00  0.70143819895E+03  0.39242316871E+04  0.38610333833E+04 0.  0.
        4    1    3    3  502    0  0.18859692761E+04  0.38590229045E+03  0.49832850730E+03  0.19885003400E+04  0.12699999809E+01 0. -1.
       -4    1    3    3    0  502 -0.18859692761E+04 -0.38590229045E+03  0.20310969165E+03  0.19357313471E+04  0.12699999809E+01 0.  1.
</event>
<event>
 5   0  0.1187925E-07  0.3846668E+04  0.7818609E-02  0.8036213E-01
        1   -1    0    0  501    0  0.00000000000E+00  0.00000000000E+00  0.17204487886E+04  0.17204487886E+04  0.50400001928E-02 0.  1.
       -1   -1    0    0    0  501  0.00000000000E+00  0.00000000000E+00 -0.21501451414E+04  0.21501451414E+04  0.50400001928E-02 0. -1.
    10030    2    1    2    0    0  0.00000000000E+00  0.00000000000E+00 -0.42969635280E+03  0.38705939300E+04  0.38466684826E+04 0.  0.
        5    1    3    3  502    0  0.73167425431E+03  0.11330088695E+04 -0.15945572102E+04  0.20884662073E+04  0.46999998093E+01 0. -1.
       -5    1    3    3    0  502 -0.73167425431E+03 -0.11330088695E+04  0.11648608574E+04  0.17821277226E+04  0.46999998093E+01 0.  1.
</event>
<event>
 5   0  0.3610483E-07  0.3895564E+04  0.7818609E-02  0.8025952E-01
        2   -1    0    0  501    0  0.00000000000E+00  0.00000000000E+00  0.12510845680E+04  0.12510845680E+04  0.25500000920E-02 0. -1.
       -2   -1    0    0    0  501  0.00000000000E+00  0.00000000000E+00 -0.30324524777E+04  0.30324524777E+04  0.25500000920E-02 0.  1.
    10030    2    1    2    0    0  0.00000000000E+00  0.00000000000E+00 -0.17813679097E+04  0.42835370457E+04  0.38955638863E+04 0.  0.
        4    1    3    3  502    0 -0.38180279182E+03  0.60503912176E+02 -0.29898477854E+04  0.30147347293E+04  0.12699999809E+01 0.  1.
       -4    1    3    3    0  502  0.38180279182E+03 -0.60503912176E+02  0.12084798757E+04  0.12688023164E+04  0.12699999809E+01 0. -1.
</event>
<event>
 5   0  0.1187925E-07  0.4140613E+04  0.7818609E-02  0.7976766E-01
        1   -1    0    0  501    0  0.00000000000E+00  0.00000000000E+00  0.15550087910E+04  0.15550087910E+04  0.50400001928E-02 0. -1.
       -1   -1    0    0    0  501  0.00000000000E+00  0.00000000000E+00 -0.27563634979E+04  0.27563634979E+04  0.50400001928E-02 0.  1.
    10030    2    1    2    0    0  0.00000000000E+00  0.00000000000E+00 -0.12013547069E+04  0.43113722890E+04  0.41406132254E+04 0.  0.
        4    1    3    3  502    0  0.15511702352E+04  0.13630515337E+04 -0.44578340241E+03  0.21125252749E+04  0.12699999809E+01 0.  1.
       -4    1    3    3    0  502 -0.15511702352E+04 -0.13630515337E+04 -0.75557130450E+03  0.21988470141E+04  0.12699999809E+01 0. -1.
</event>
<event>
 5   0  0.1187925E-07  0.3891572E+04  0.7818609E-02  0.8026784E-01
       -1   -1    0    0    0  501  0.00000000000E+00  0.00000000000E+00  0.18319508311E+04  0.18319508311E+04  0.50400001928E-02 0.  1.
        1   -1    0    0  501    0  0.00000000000E+00  0.00000000000E+00 -0.20666946923E+04  0.20666946923E+04  0.50400001928E-02 0. -1.
    10030    2    1    2    0    0  0.00000000000E+00  0.00000000000E+00 -0.23474386118E+03  0.38986455234E+04  0.38915719494E+04 0.  0.
        1    1    3    3  502    0 -0.22473886359E+03  0.37187819317E+03 -0.20174696398E+04  0.20637307709E+04  0.50400001928E-02 0. -1.
       -1    1    3    3    0  502  0.22473886359E+03 -0.37187819317E+03  0.17827257786E+04  0.18349147525E+04  0.50400001928E-02 0.  1.
</event>
<event>
 5   0  0.3680814E-07  0.3898382E+04  0.7818609E-02  0.8025366E-01
       -2   -1    0    0    0  501  0.00000000000E+00  0.00000000000E+00  0.14236721657E+04  0.14236721657E+04  0.25500000920E-02 0. -1.
        2   -1    0    0  501    0  0.00000000000E+00  0.00000000000E+00 -0.26686939512E+04  0.26686939513E+04  0.25500000920E-02 0.  1.
    10030    2    1    2    0    0  0.00000000000E+00  0.00000000000E+00 -0.12450217855E+04  0.40923661170E+04  0.38983818680E+04 0.  0.
        1    1    3    3  502    0 -0.12233987841E+04  0.14889670545E+04 -0.31534556454E+03  0.19527340575E+04  0.50400001928E-02 0. -1.
       -1    1    3    3    0  502  0.12233987841E+04 -0.14889670545E+04 -0.92967622100E+03  0.21396320595E+04  0.50400001928E-02 0.  1.
</event>
<event>
 5   0  0.1187925E-07  0.3614981E+04  0.7818609E-02  0.8087069E-01
        1   -1    0    0  501    0  0.00000000000E+00  0.00000000000E+00  0.20500593682E+04  0.20500593682E+04  0.50400001928E-02 0. -1.
       -1   -1    0    0    0  501  0.00000000000E+00  0.00000000000E+00 -0.15936234801E+04  0.15936234801E+04  0.50400001928E-02 0.  1.
    10030    2    1    2    0    0  0.00000000000E+00  0.00000000000E+00  0.45643588809E+03  0.36436828483E+04  0.36149814632E+04 0.  0.
        5    1    3    3  502    0 -0.43167440320E+03  0.88956475940E+03  0.17532849354E+04  0.20128831080E+04  0.46999998093E+01 0. -1.
       -5    1    3    3    0  502  0.43167440320E+03 -0.88956475940E+03 -0.12968490474E+04  0.16307997404E+04  0.46999998093E+01 0.  1.
</event>
<event>
 5   0  0.3610483E-07  0.3813820E+04  0.7818609E-02  0.8043196E-01
        2   -1    0    0  501    0  0.00000000000E+00  0.00000000000E+00  0.24202253791E+04  0.24202253791E+04  0.25500000920E-02 0. -1.
       -2   -1    0    0    0  501  0.00000000000E+00  0.00000000000E+00 -0.15024659514E+04  0.15024659514E+04  0.25500000920E-02 0.  1.
    10030    2    1    2    0    0  0.00000000000E+00  0.00000000000E+00  0.91775942768E+03  0.39226913305E+04  0.38138202510E+04 0.  0.
        4    1    3    3  502    0  0.27874414674E+03 -0.91648353487E+03 -0.12370259980E+04  0.15645687271E+04  0.12699999809E+01 0.  1.
       -4    1    3    3    0  502 -0.27874414674E+03  0.91648353487E+03  0.21547854257E+04  0.23581226034E+04  0.12699999809E+01 0. -1.
</event>
<event>
 5   0  0.3680814E-07  0.3910699E+04  0.7818609E-02  0.8022808E-01
       -2   -1    0    0    0  501  0.00000000000E+00  0.00000000000E+00  0.16450839131E+04  0.16450839131E+04  0.25500000920E-02 0.  1.
        2   -1    0    0  501    0  0.00000000000E+00  0.00000000000E+00 -0.23241313776E+04  0.23241313776E+04  0.25500000920E-02 0. -1.
    10030    2    1    2    0    0  0.00000000000E+00  0.00000000000E+00 -0.67904746451E+03  0.39692152907E+04  0.39106987310E+04 0.  0.
        1    1    3    3  502    0 -0.27126309084E+03 -0.19194077220E+04 -0.79404934184E+02  0.19401069072E+04  0.50400001928E-02 0. -1.
       -1    1    3    3    0  502  0.27126309084E+03  0.19194077220E+04 -0.59964253033E+03  0.20291083835E+04  0.50400001928E-02 0.  1.
</event>
<event>
 5   0  0.3810833E-07  0.3860985E+04  0.7818609E-02  0.8033193E-01
       -2   -1    0    0    0  501  0.00000000000E+00  0.00000000000E+00  0.14662628148E+04  0.14662628148E+04  0.25500000920E-02 0.  1.
        2   -1    0    0  501    0  0.00000000000E+00  0.00000000000E+00 -0.25417013428E+04  0.25417013428E+04  0.25500000920E-02 0. -1.
    10030    2    1    2    0    0  0.00000000000E+00  0.00000000000E+00 -0.10754385280E+04  0.40079641576E+04  0.38609854521E+04 0.  0.
        3    1    3    3  502    0  0.56192193814E+02 -0.18714958706E+04 -0.49553886512E+02  0.18729949157E+04  0.10100000352E+00 0. -1.
       -3    1    3    3    0  502 -0.56192193814E+02  0.18714958706E+04 -0.10258846415E+04  0.21349692420E+04  0.10100000352E+00 0.  1.
</event>
<event>
 5   0  0.3665303E-07  0.3285433E+04  0.7818609E-02  0.8166612E-01
        2   -1    0    0  501    0  0.00000000000E+00  0.00000000000E+00  0.20198871265E+04  0.20198871265E+04  0.25500000920E-02 0.  1.
       -2   -1    0    0    0  501  0.00000000000E+00  0.00000000000E+00 -0.13359741608E+04  0.13359741608E+04  0.25500000920E-02 0. -1.
    10030    2    1    2    0    0  0.00000000000E+00  0.00000000000E+00  0.68391296568E+03  0.33558612873E+04  0.32854327013E+04 0.  0.
        2    1    3    3  502    0 -0.58018940254E+03 -0.65984410911E+03  0.17596954375E+04  0.19668609569E+04  0.25500000920E-02 0.  1.
       -2    1    3    3    0  502  0.58018940254E+03  0.65984410911E+03 -0.10757824718E+04  0.13890003304E+04  0.25500000920E-02 0. -1.
</event>
<event>
 5   0  0.3680814E-07  0.3932995E+04  0.7818609E-02  0.8018202E-01
       -2   -1    0    0    0  501  0.00000000000E+00  0.00000000000E+00  0.18186615447E+04  0.18186615447E+04  0.25500000920E-02 0. -1.
        2   -1    0    0  501    0  0.00000000000E+00  0.00000000000E+00 -0.21263506815E+04  0.21263506815E+04  0.25500000920E-02 0.  1.
    10030    2    1    2    0    0  0.00000000000E+00  0.00000000000E+00 -0.30768913679E+03  0.39450122262E+04  0.39329948971E+04 0.  0.
        1    1    3    3  502    0  0.58373334992E+03  0.18315324745E+04 -0.56966689880E+03  0.20049379553E+04  0.50400001928E-02 0. -1.
       -1    1    3    3    0  502 -0.58373334992E+03 -0.18315324745E+04  0.26197776201E+03  0.19400742709E+04  0.50400001928E-02 0.  1.
</event>
<event>
 5   0  0.3810833E-07  0.3821109E+04  0.7818609E-02  0.8041640E-01
       -2   -1    0    0    0  501  0.00000000000E+00  0.00000000000E+00  0.19253647568E+04  0.19253647568E+04  0.25500000920E-02 0.  1.
        2   -1    0    0  501    0  0.00000000000E+00  0.00000000000E+00 -0.18958581476E+04  0.18958581476E+04  0.25500000920E-02 0. -1.
    10030    2    1    2    0    0  0.00000000000E+00  0.00000000000E+00  0.29506609180E+02  0.38212229045E+04  0.38211089811E+04 0.  0.
        3    1    3    3  502    0  0.10270841892E+03 -0.13652549508E+04 -0.13178585060E+04  0.19003213287E+04  0.10100000352E+00 0. -1.
       -3    1    3    3    0  502 -0.10270841892E+03  0.13652549508E+04  0.13473651152E+04  0.19209015758E+04  0.10100000352E+00 0.  1.
</event>
<event>
 5   0  0.3665303E-07  0.4120050E+04  0.7818609E-02  0.7980757E-01
        2   -1    0    0  501    0  0.00000000000E+00  0.00000000000E+00  0.14727873034E+04  0.14727873034E+04  0.25500000920E-02 0.  1.
       -2   -1    0    0    0  501  0.00000000000E+00  0.00000000000E+00 -0.28814089638E+04  0.28814089638E+04  0.25500000920E-02 0. -1.
    10030    2    1    2    0    0  0.00000000000E+00  0.00000000000E+00 -0.14086216605E+04  0.43541962672E+04  0.41200497753E+04 0.  0.
        2    1    3    3  502    0  0.68635076100E+02 -0.53158295665E+03  0.13978031300E+04  0.14970453580E+04  0.25500000920E-02 0.  1.
       -2    1    3    3    0  502 -0.68635076100E+02  0.53158295665E+03 -0.28064247905E+04  0.28571509092E+04  0.25500000920E-02 0. -1.
</event>
<event>
 5   0  0.1187925E-07  0.3907716E+04  0.7818609E-02  0.8023426E-01
        1   -1    0    0  501    0  0.00000000000E+00  0.00000000000E+00  0.17326487997E+04  0.17326487997E+04  0.50400001928E-02 0.  1.
       -1   -1    0    0    0  501  0.00000000000E+00  0.00000000000E+00 -0.22033088349E+04  0.22033088349E+04  0.50400001928E-02 0. -1.
    10030    2    1    2    0    0  0.00000000000E+00  0.00000000000E+00 -0.47066003523E+03  0.39359576347E+04  0.39077156541E+04 0.  0.
        3    1    3    3  502    0 -0.16887372236E+04 -0.97016069907E+03 -0.39303493390E+03  0.19868370999E+04  0.10100000352E+00 0.  1.
       -3    1    3    3    0  502  0.16887372236E+04  0.97016069907E+03 -0.77625101328E+02  0.19491205347E+04  0.10100000352E+00 0. -1.
</event>
<event>
 5   0  0.1187925E-07  0.3080943E+04  0.7818609E-02  0.8220987E-01
        1   -1    0    0  501    0  0.00000000000E+00  0.00000000000E+00  0.18584350392E+04  0.18584350392E+04  0.50400001928E-02 0.  1.
       -1   -1    0    0    0  501  0.00000000000E+00  0.00000000000E+00 -0.12769089246E+04  0.12769089246E+04  0.50400001928E-02 0. -1.
    10030    2    1    2    0    0  0.00000000000E+00  0.00000000000E+00  0.58152611455E+03  0.31353439638E+04  0.30809428994E+04 0.  0.
        1    1    3    3  502    0 -0.11596339523E+04  0.62123131593E+03  0.11063968188E+04  0.17189511837E+04  0.50400001928E-02 0.  1.
       -1    1    3    3    0  502  0.11596339523E+04 -0.62123131593E+03 -0.52487070429E+03  0.14163927801E+04  0.50400001928E-02 0. -1.
</event>
<event>
 5   0  0.3665303E-07  0.3451787E+04  0.7818609E-02  0.8125312E-01
       -2   -1    0    0    0  501  0.00000000000E+00  0.00000000000E+00  0.27790190644E+04  0.27790190644E+04  0.25500000920E-02 0. -1.
        2   -1    0    0  501    0  0.00000000000E+00  0.00000000000E+00 -0.10718558711E+04  0.10718558711E+04  0.25500000920E-02 0.  1.
    10030    2    1    2    0    0  0.00000000000E+00  0.00000000000E+00  0.17071631933E+04  0.38508749355E+04  0.34517867258E+04 0.  0.
        2    1    3    3  502    0  0.12825853205E+04 -0.98337307230E+03  0.15291158007E+04  0.22249141187E+04  0.25500000920E-02 0. -1.
       -2    1    3    3    0  502 -0.12825853205E+04  0.98337307230E+03  0.17804739262E+03  0.16259608168E+04  0.25500000920E-02 0.  1.
</event>
<event>
 5   0  0.3832389E-07  0.3927017E+04  0.7818609E-02  0.8019434E-01
       -2   -1    0    0    0  501  0.00000000000E+00  0.00000000000E+00  0.13486240797E+04  0.13486240797E+04  0.25500000920E-02 0. -1.
        2   -1    0    0  501    0  0.00000000000E+00  0.00000000000E+00 -0.28587401081E+04  0.28587401081E+04  0.25500000920E-02 0.  1.
    10030    2    1    2    0    0  0.00000000000E+00  0.00000000000E+00 -0.15101160284E+04  0.42073641877E+04  0.39270170599E+04 0.  0.
        5    1    3    3  502    0  0.36007557057E+03  0.11223094885E+04  0.92743627051E+03  0.14997976965E+04  0.46999998093E+01 0. -1.
       -5    1    3    3    0  502 -0.36007557057E+03 -0.11223094885E+04 -0.24375522989E+04  0.27075664912E+04  0.46999998093E+01 0.  1.
</event>
<event>
 5   0  0.3832389E-07  0.3880016E+04  0.7818609E-02  0.8029198E-01
        2   -1    0    0  501    0  0.00000000000E+00  0.00000000000E+00  0.23744876380E+04  0.23744876380E+04  0.25500000920E-02 0.  1.
       -2   -1    0    0    0  501  0.00000000000E+00  0.00000000000E+00 -0.15850285487E+04  0.15850285487E+04  0.25500000920E-02 0. -1.
    10030    2    1    2    0    0  0.00000000000E+00  0.00000000000E+00  0.78945908937E+03  0.39595161867E+04  0.38800158220E+04 0.  0.
        5    1    3    3  502    0  0.70331456825E+03  0.13140196320E+04 -0.87261415802E+03  0.17270716644E+04  0.46999998093E+01 0. -1.
       -5    1    3    3    0  502 -0.70331456825E+03 -0.13140196320E+04  0.16620732474E+04  0.22324445223E+04  0.46999998093E+01 0.  1.
</event>
<event>
 5   0  0.1187925E-07  0.3080201E+04  0.7818609E-02  0.8221193E-01
        1   -1    0    0  501    0  0.00000000000E+00  0.00000000000E+00  0.23763767831E+04  0.23763767831E+04  0.50400001928E-02 0.  1.
       -1   -1    0    0    0  501  0.00000000000E+00  0.00000000000E+00 -0.99811997262E+03  0.99811997263E+03  0.50400001928E-02 0. -1.
    10030    2    1    2    0    0  0.00000000000E+00  0.00000000000E+00  0.13782568105E+04  0.33744967557E+04  0.30802007270E+04 0.  0.
        4    1    3    3  502    0  0.77067852722E+03  0.12050799534E+04  0.13143997058E+04  0.19426299920E+04  0.12699999809E+01 0.  1.
       -4    1    3    3    0  502 -0.77067852722E+03 -0.12050799534E+04  0.63857104689E+02  0.14318667637E+04  0.12699999809E+01 0. -1.
</event>
<event>
 5   0  0.1187925E-07  0.3798319E+04  0.7818609E-02  0.8046516E-01
        3   -1    0    0  501    0  0.00000000000E+00  0.00000000000E+00  0.19174638003E+04  0.19174638029E+04  0.10100000352E+00 0.  1.
       -3   -1    0    0    0  501  0.00000000000E+00  0.00000000000E+00 -0.18810297052E+04  0.18810297079E+04  0.10100000352E+00 0. -1.
    10030    2    1    2    0    0  0.00000000000E+00  0.00000000000E+00  0.36434095057E+02  0.37984935109E+04  0.37983187740E+04 0.  0.
        2    1    3    3  502    0  0.63624994076E+03  0.39607003173E+03  0.17633248094E+04  0.19159853445E+04  0.25500000920E-02 0.  1.
       -2    1    3    3    0  502 -0.63624994076E+03 -0.39607003173E+03 -0.17268907143E+04  0.18825081663E+04  0.25500000920E-02 0. -1.
</event>
<event>
 5   0  0.3680814E-07  0.4015720E+04  0.7818609E-02  0.8001383E-01
       -2   -1    0    0    0  501  0.00000000000E+00  0.00000000000E+00  0.20076605771E+04  0.20076605771E+04  0.25500000920E-02 0.  1.
        2   -1    0    0  501    0  0.00000000000E+00  0.00000000000E+00 -0.20080589701E+04  0.20080589701E+04  0.25500000920E-02 0. -1.
    10030    2    1    2    0    0  0.00000000000E+00  0.00000000000E+00 -0.39839298405E+00  0.40157195471E+04  0.40157195274E+04 0.  0.
        1    1    3    3  502    0  0.14205043409E+04 -0.13359878527E+04 -0.47853454729E+03  0.20079072284E+04  0.50400001928E-02 0. -1.
       -1    1    3    3    0  502 -0.14205043409E+04  0.13359878527E+04  0.47813615430E+03  0.20078123187E+04  0.50400001928E-02 0.  1.
</event>
<event>
 5   0  0.3610483E-07  0.4022091E+04  0.7818609E-02  0.8000105E-01
       -2   -1    0    0    0  501  0.00000000000E+00  0.00000000000E+00  0.22947749281E+04  0.22947749281E+04  0.25500000920E-02 0. -1.
        2   -1    0    0  501    0  0.00000000000E+00  0.00000000000E+00 -0.17623971256E+04  0.17623971256E+04  0.25500000920E-02 0.  1.
    10030    2    1    2    0    0  0.00000000000E+00  0.00000000000E+00  0.53237780245E+03  0.40571720537E+04  0.40220913651E+04 0.  0.
        4    1    3    3  502    0  0.10797751113E+03  0.18679968127E+04 -0.47728225071E+03  0.19310285329E+04  0.12699999809E+01 0.  1.
       -4    1    3    3    0  502 -0.10797751113E+03 -0.18679968127E+04  0.10096600532E+04  0.21261435208E+04  0.12699999809E+01 0. -1.
</event>
<event>
 5   0  0.3665303E-07  0.3884344E+04  0.7818609E-02  0.8028293E-01
        2   -1    0    0  501    0  0.00000000000E+00  0.00000000000E+00  0.20354630956E+04  0.20354630956E+04  0.25500000920E-02 0. -1.
       -2   -1    0    0    0  501  0.00000000000E+00  0.00000000000E+00 -0.18531563299E+04  0.18531563299E+04  0.25500000920E-02 0.  1.
    10030    2    1    2    0    0  0.00000000000E+00  0.00000000000E+00  0.18230676568E+03  0.38886194254E+04  0.38843436098E+04 0.  0.
        2    1    3    3  502    0 -0.69964799268E+03 -0.14149699196E+04  0.12239395639E+04  0.19974171430E+04  0.25500000920E-02 0. -1.
       -2    1    3    3    0  502  0.69964799268E+03  0.14149699196E+04 -0.10416327982E+04  0.18912022825E+04  0.25500000920E-02 0.  1.
</event>
<event>
 5   0  0.3665303E-07  0.4013341E+04  0.7818609E-02  0.8001861E-01
        2   -1    0    0  501    0  0.00000000000E+00  0.00000000000E+00  0.15875598402E+04  0.15875598402E+04  0.25500000920E-02 0.  1.
       -2   -1    0    0    0  501  0.00000000000E+00  0.00000000000E+00 -0.25364251011E+04  0.25364251011E+04  0.25500000920E-02 0. -1.
    10030    2    1    2    0    0  0.00000000000E+00  0.00000000000E+00 -0.94886526096E+03  0.41239849413E+04  0.40133410661E+04 0.  0.
        2    1    3    3  502    0  0.17316749896E+04 -0.56827697028E+03  0.38841313021E+03  0.18634649834E+04  0.25500000920E-02 0.  1.
       -2    1    3    3    0  502 -0.17316749896E+04  0.56827697028E+03 -0.13372783912E+04  0.22605199579E+04  0.25500000920E-02 0. -1.
</event>
<event>
 5   0  0.1187925E-07  0.3866390E+04  0.7818609E-02  0.8032056E-01
       -1   -1    0    0    0  501  0.00000000000E+00  0.00000000000E+00  0.16090068517E+04  0.16090068517E+04  0.50400001928E-02 0. -1.
        1   -1    0    0  501    0  0.00000000000E+00  0.00000000000E+00 -0.23227020308E+04  0.23227020308E+04  0.50400001928E-02 0.  1.
    10030    2    1    2    0    0  0.00000000000E+00  0.00000000000E+00 -0.71369517910E+03  0.39317088825E+04  0.38663902969E+04 0.  0.
        2    1    3    3  502    0 -0.57811108212E+03  0.13056956003E+04 -0.16820090854E+04  0.22064015925E+04  0.25500000920E-02 0.  1.
       -2    1    3    3    0  502  0.57811108212E+03 -0.13056956003E+04  0.96831390630E+03  0.17253072900E+04  0.25500000920E-02 0. -1.
</event>
<event>
 5   0  0.1187925E-07  0.2784609E+04  0.7818609E-02  0.8308063E-01
       -1   -1    0    0    0  501  0.00000000000E+00  0.00000000000E+00  0.19314943072E+04  0.19314943072E+04  0.50400001928E-02 0.  1.
        1   -1    0    0  501    0  0.00000000000E+00  0.00000000000E+00 -0.10036330507E+04  0.10036330507E+04  0.50400001928E-02 0. -1.
    10030    2    1    2    0    0  0.00000000000E+00  0.00000000000E+00  0.92786125651E+03  0.29351273579E+04  0.27846087868E+04 0.  0.
        3    1    3    3  502    0  0.47394244999E+02 -0.11160171894E+04  0.13399824323E+04  0.17445038006E+04  0.10100000352E+00 0.  1.
       -3    1    3    3    0  502 -0.47394244999E+02  0.11160171894E+04 -0.41212117575E+03  0.11906235573E+04  0.10100000352E+00 0. -1.
</event>
<event>
 5   0  0.3832389E-07  0.3883459E+04  0.7818609E-02  0.8028478E-01
       -2   -1    0    0    0  501  0.00000000000E+00  0.00000000000E+00  0.15974997138E+04  0.15974997138E+04  0.25500000920E-02 0.  1.
        2   -1    0    0  501    0  0.00000000000E+00  0.00000000000E+00 -0.23601344622E+04  0.23601344622E+04  0.25500000920E-02 0. -1.
    10030    2    1    2    0    0  0.00000000000E+00  0.00000000000E+00 -0.76263474840E+03  0.39576341761E+04  0.38834593486E+04 0.  0.
        5    1    3    3  502    0 -0.17899861005E+04  0.12358961352E+03  0.37513194772E+03  0.18330495631E+04  0.46999998093E+01 0.  1.
       -5    1    3    3    0  502  0.17899861005E+04 -0.12358961352E+03 -0.11377666961E+04  0.21245846129E+04  0.46999998093E+01 0. -1.
</event>
<event>
 5   0  0.3680814E-07  0.3970341E+04  0.7818609E-02  0.8010557E-01
        2   -1    0    0  501    0  0.00000000000E+00  0.00000000000E+00  0.22479931735E+04  0.22479931735E+04  0.25500000920E-02 0.  1.
       -2   -1    0    0    0  501  0.00000000000E+00  0.00000000000E+00 -0.17530758110E+04  0.17530758110E+04  0.25500000920E-02 0. -1.
    10030    2    1    2    0    0  0.00000000000E+00  0.00000000000E+00  0.49491736244E+03  0.40010689845E+04  0.39703412728E+04 0.  0.
        1    1    3    3  502    0 -0.71322032023E+03 -0.30710888580E+03 -0.15936739721E+04  0.17727932260E+04  0.50400001928E-02 0. -1.
       -1    1    3    3    0  502  0.71322032023E+03  0.30710888580E+03  0.20885913345E+04  0.22282757584E+04  0.50400001928E-02 0.  1.
</event>
<event>
 5   0  0.1187925E-07  0.3901123E+04  0.7818609E-02  0.8024796E-01
       -1   -1    0    0    0  501  0.00000000000E+00  0.00000000000E+00  0.22109546321E+04  0.22109546321E+04  0.50400001928E-02 0. -1.
        1   -1    0    0  501    0  0.00000000000E+00  0.00000000000E+00 -0.17208362088E+04  0.17208362088E+04  0.50400001928E-02 0.  1.
    10030    2    1    2    0    0  0.00000000000E+00  0.00000000000E+00  0.49011842332E+03  0.39317908409E+04  0.39011233187E+04 0.  0.
        4    1    3    3  502    0  0.34038876533E+03  0.23271909845E+03 -0.16764081450E+04  0.17263744008E+04  0.12699999809E+01 0.  1.
       -4    1    3    3    0  502 -0.34038876533E+03 -0.23271909845E+03  0.21665265683E+04  0.22054164401E+04  0.12699999809E+01 0. -1.
</event>
<event>
 5   0  0.1187925E-07  0.3750956E+04  0.7818609E-02  0.8056762E-01
       -1   -1    0    0    0  501  0.00000000000E+00  0.00000000000E+00  0.17371753805E+04  0.17371753805E+04  0.50400001928E-02 0. -1.
        1   -1    0    0  501    0  0.00000000000E+00  0.00000000000E+00 -0.20247913350E+04  0.20247913350E+04  0.50400001928E-02 0.  1.
    10030    2    1    2    0    0  0.00000000000E+00  0.00000000000E+00 -0.28761595453E+03  0.37619667155E+04  0.37509559623E+04 0.  0.
        3    1    3    3  502    0  0.18494486523E+04  0.30065012443E+03 -0.62534102129E+02  0.18747696762E+04  0.10100000352E+00 0.  1.
       -3    1    3    3    0  502 -0.18494486523E+04 -0.30065012443E+03 -0.22508185240E+03  0.18871970393E+04  0.10100000352E+00 0. -1.
</event>
<event>
 5   0  0.3832389E-07  0.3944534E+04  0.7818609E-02  0.8015830E-01
       -2   -1    0    0    0  501  0.00000000000E+00  0.00000000000E+00  0.19935549587E+04  0.19935549587E+04  0.25500000920E-02 0.  1.
        2   -1    0    0  501    0  0.00000000000E+00  0.00000000000E+00 -0.19512065424E+04  0.19512065424E+04  0.25500000920E-02 0. -1.
    10030    2    1    2    0    0  0.00000000000E+00  0.00000000000E+00  0.42348416309E+02  0.39447615010E+04  0.39445341818E+04 0.  0.
        5    1    3    3  502    0 -0.35469852964E+03  0.75818777429E+03 -0.17647494256E+04  0.19532082258E+04  0.46999998093E+01 0. -1.
       -5    1    3    3    0  502  0.35469852964E+03 -0.75818777429E+03  0.18070978419E+04  0.19915532753E+04  0.46999998093E+01 0.  1.
</event>
<event>
 5   0  0.3832389E-07  0.2892643E+04  0.7818609E-02  0.8275070E-01
       -2   -1    0    0    0  501  0.00000000000E+00  0.00000000000E+00  0.10402970935E+04  0.10402970935E+04  0.25500000920E-02 0.  1.
        2   -1    0    0  501    0  0.00000000000E+00  0.00000000000E+00 -0.20108162302E+04  0.20108162302E+04  0.25500000920E-02 0. -1.
    10030    2    1    2    0    0  0.00000000000E+00  0.00000000000E+00 -0.97051913666E+03  0.30511133237E+04  0.28926432755E+04 0.  0.
        5    1    3    3  502    0 -0.36175937031E+03  0.63228434692E+03  0.83265930191E+03  0.11063439521E+04  0.46999998093E+01 0.  1.
       -5    1    3    3    0  502  0.36175937031E+03 -0.63228434692E+03 -0.18031784386E+04  0.19447693716E+04  0.46999998093E+01 0. -1.
</event>
<event>
 5   0  0.3665303E-07  0.3886064E+04  0.7818609E-02  0.8027934E-01
        2   -1    0    0  501    0  0.00000000000E+00  0.00000000000E+00  0.24391449216E+04  0.24391449216E+04  0.25500000920E-02 0. -1.
       -2   -1    0    0    0  501  0.00000000000E+00  0.00000000000E+00 -0.15478267698E+04  0.15478267698E+04  0.25500000920E-02 0.  1.
    10030    2    1    2    0    0  0.00000000000E+00  0.00000000000E+00  0.89131815178E+03  0.39869716914E+04  0.38860642327E+04 0.  0.
        2    1    3    3  502    0  0.76932741507E+03  0.12278406516E+04 -0.88252834119E+03  0.16965593447E+04  0.25500000920E-02 0.  1.
       -2    1    3    3    0  502 -0.76932741507E+03 -0.12278406516E+04  0.17738464930E+04  0.22904123467E+04  0.25500000920E-02 0. -1.
</event>
<event>
 5   0  0.3610483E-07  0.2793134E+04  0.7818609E-02  0.8305403E-01
       -2   -1    0    0    0  501  0.00000000000E+00  0.00000000000E+00  0.10911100729E+04  0.10911100729E+04  0.25500000920E-02 0.  1.
        2   -1    0    0  501    0  0.00000000000E+00  0.00000000000E+00 -0.17875368253E+04  0.17875368253E+04  0.25500000920E-02 0. -1.
    10030    2    1    2    0    0  0.00000000000E+00  0.00000000000E+00 -0.69642675241E+03  0.28786468982E+04  0.27931340360E+04 0.  0.
        4    1    3    3  502    0  0.14034735178E+03 -0.96862119799E+02 -0.17767660714E+04  0.17849310729E+04  0.12699999809E+01 0. -1.
       -4    1    3    3    0  502 -0.14034735178E+03  0.96862119799E+02  0.10803393190E+04  0.10937158253E+04  0.12699999809E+01 0.  1.
</event>
<event>
 5   0  0.1187925E-07  0.3883534E+04  0.7818609E-02  0.8028463E-01
        1   -1    0    0  501    0  0.00000000000E+00  0.00000000000E+00  0.24540426870E+04  0.24540426870E+04  0.50400001928E-02 0.  1.
       -1   -1    0    0    0  501  0.00000000000E+00  0.00000000000E+00 -0.15364275559E+04  0.15364275559E+04  0.50400001928E-02 0. -1.
    10030    2    1    2    0    0  0.00000000000E+00  0.00000000000E+00  0.91761513110E+03  0.39904702428E+04  0.38835338585E+04 0.  0.
        1    1    3    3  502    0 -0.14496791954E+04  0.10162208629E+04 -0.36076689916E+03  0.18067726385E+04  0.50400001928E-02 0. -1.
       -1    1    3    3    0  502  0.14496791954E+04 -0.10162208629E+04  0.12783820303E+04  0.21836976043E+04  0.50400001928E-02 0.  1.
</event>
<event>
 5   0  0.1187925E-07  0.3632367E+04  0.7818609E-02  0.8083118E-01
        1   -1    0    0  501    0  0.00000000000E+00  0.00000000000E+00  0.19469270290E+04  0.19469270290E+04  0.50400001928E-02 0. -1.
       -1   -1    0    0    0  501  0.00000000000E+00  0.00000000000E+00 -0.16942199404E+04  0.16942199404E+04  0.50400001928E-02 0.  1.
    10030    2    1    2    0    0  0.00000000000E+00  0.00000000000E+00  0.25270708864E+03  0.36411469694E+04  0.36323670492E+04 0.  0.
        1    1    3    3  502    0  0.36025652324E+03  0.12761985627E+04  0.13703427323E+04  0.19069102595E+04  0.50400001928E-02 0. -1.
       -1    1    3    3    0  502 -0.36025652324E+03 -0.12761985627E+04 -0.11176356437E+04  0.17342367099E+04  0.50400001928E-02 0.  1.
</event>
<event>
 5   0  0.1187925E-07  0.3911022E+04  0.7818609E-02  0.8022741E-01
       -1   -1    0    0    0  501  0.00000000000E+00  0.00000000000E+00  0.28726100506E+04  0.28726100506E+04  0.50400001928E-02 0.  1.
        1   -1    0    0  501    0  0.00000000000E+00  0.00000000000E+00 -0.13312019514E+04  0.13312019515E+04  0.50400001928E-02 0. -1.
    10030    2    1    2    0    0  0.00000000000E+00  0.00000000000E+00  0.15414080992E+04  0.42038120021E+04  0.39110224265E+04 0.  0.
        5    1    3    3  502    0 -0.66164566823E+03 -0.22845756164E+03  0.27333321045E+04  0.28215411269E+04  0.46999998093E+01 0.  1.
       -5    1    3    3    0  502  0.66164566823E+03  0.22845756164E+03 -0.11919240053E+04  0.13822708751E+04  0.46999998093E+01 0. -1.
</event>
<event>
 5   0  0.3680814E-07  0.3913719E+04  0.7818609E-02  0.8022182E-01
        2   -1    0    0  501    0  0.00000000000E+00  0.00000000000E+00  0.19699940628E+04  0.19699940628E+04  0.25500000920E-02 0. -1.
       -2   -1    0    0    0  501  0.00000000000E+00  0.00000000000E+00 -0.19438123694E+04  0.19438123694E+04  0.25500000920E-02 0.  1.
    10030    2    1    2    0    0  0.00000000000E+00  0.00000000000E+00  0.26181693371E+02  0.39138064321E+04  0.39137188590E+04 0.  0.
        1    1    3    3  502    0  0.86178972135E+02  0.15021104848E+03  0.19623159955E+04  0.19699426998E+04  0.50400001928E-02 0. -1.
       -1    1    3    3    0  502 -0.86178972135E+02 -0.15021104848E+03 -0.19361343021E+04  0.19438637324E+04  0.50400001928E-02 0.  1.
</event>
<event>
 5   0  0.3610483E-07  0.3848419E+04  0.7818609E-02  0.8035843E-01
        2   -1    0    0  501    0  0.00000000000E+00  0.00000000000E+00  0.31071797009E+04  0.31071797009E+04  0.25500000920E-02 0. -1.
       -2   -1    0    0    0  501  0.00000000000E+00  0.00000000000E+00 -0.11916213928E+04  0.11916213928E+04  0.25500000920E-02 0.  1.
    10030    2    1    2    0    0  0.00000000000E+00  0.00000000000E+00  0.19155583081E+04  0.42988010937E+04  0.38484187937E+04 0.  0.
        4    1    3    3  502    0  0.75193905302E+03  0.15240665258E+04 -0.50268338063E+02  0.17002116437E+04  0.12699999809E+01 0.  1.
       -4    1    3    3    0  502 -0.75193905302E+03 -0.15240665258E+04  0.19658266461E+04  0.25985894501E+04  0.12699999809E+01 0. -1.
</event>
<event>
 5   0  0.1187925E-07  0.3623473E+04  0.7818609E-02  0.8085136E-01
       -1   -1    0    0    0  501  0.00000000000E+00  0.00000000000E+00  0.11347489079E+04  0.11347489079E+04  0.50400001928E-02 0. -1.
        1   -1    0    0  501    0  0.00000000000E+00  0.00000000000E+00 -0.28926134346E+04  0.28926134346E+04  0.50400001928E-02 0.  1.
    10030    2    1    2    0    0  0.00000000000E+00  0.00000000000E+00 -0.17578645267E+04  0.40273623425E+04  0.36234734363E+04 0.  0.
        4    1    3    3  502    0 -0.12455025293E+04  0.13060503690E+04 -0.10558759079E+04  0.20909135952E+04  0.12699999809E+01 0. -1.
       -4    1    3    3    0  502  0.12455025293E+04 -0.13060503690E+04 -0.70198861874E+03  0.19364487472E+04  0.12699999809E+01 0.  1.
</event>
<event>
 5   0  0.1187925E-07  0.3945137E+04  0.7818609E-02  0.8015706E-01
        1   -1    0    0  501    0  0.00000000000E+00  0.00000000000E+00  0.22196923630E+04  0.22196923630E+04  0.50400001928E-02 0. -1.
       -1   -1    0    0    0  501  0.00000000000E+00  0.00000000000E+00 -0.17529579781E+04  0.17529579781E+04  0.50400001928E-02 0.  1.
    10030    2    1    2    0    0  0.00000000000E+00  0.00000000000E+00  0.46673438492E+03  0.39726503411E+04  0.39451374814E+04 0.  0.
        5    1    3    3  502    0  0.92593384591E+03 -0.16288299609E+04 -0.38783433909E+03  0.19133421265E+04  0.46999998093E+01 0.  1.
       -5    1    3    3    0  502 -0.92593384591E+03  0.16288299609E+04  0.85456872401E+03  0.20593082146E+04  0.46999998093E+01 0. -1.
</event>
<event>
 5   0  0.3680814E-07  0.3991368E+04  0.7818609E-02  0.8006290E-01
        2   -1    0    0  501    0  0.00000000000E+00  0.00000000000E+00  0.16304708880E+04  0.16304708880E+04  0.25500000920E-02 0.  1.
       -2   -1    0    0    0  501  0.00000000000E+00  0.00000000000E+00 -0.24427023300E+04  0.24427023300E+04  0.25500000920E-02 0. -1.
    10030    2    1    2    0    0  0.00000000000E+00  0.00000000000E+00 -0.81223144200E+03  0.40731732180E+04  0.39913682051E+04 0.  0.
        1    1    3    3  502    0 -0.13073443149E+04 -0.11595228234E+04 -0.13897763399E+04  0.22327383659E+04  0.50400001928E-02 0. -1.
       -1    1    3    3    0  502  0.13073443149E+04  0.11595228234E+04  0.57754489786E+03  0.18404348521E+04  0.50400001928E-02 0.  1.
</event>
<event>
 5   0  0.1187925E-07  0.4006683E+04  0.7818609E-02  0.8003200E-01
        1   -1    0    0  501    0  0.00000000000E+00  0.00000000000E+00  0.13570609871E+04  0.13570609871E+04  0.50400001928E-02 0. -1.
       -1   -1    0    0    0  501  0.00000000000E+00  0.00000000000E+00 -0.29574034950E+04  0.29574034950E+04  0.50400001928E-02 0.  1.
    10030    2    1    2    0    0  0.00000000000E+00  0.00000000000E+00 -0.16003425080E+04  0.43144644821E+04  0.40066828705E+04 0.  0.
        3    1    3    3  502    0 -0.90860685042E+03  0.22458031582E+02  0.11222732752E+04  0.14441496066E+04  0.10100000352E+00 0. -1.
       -3    1    3    3    0  502  0.90860685042E+03 -0.22458031582E+02 -0.27226157832E+04  0.28703148755E+04  0.10100000352E+00 0.  1.
</event>
<event>
 5   0  0.3665303E-07  0.3945344E+04  0.7818609E-02  0.8015664E-01
       -2   -1    0    0    0  501  0.00000000000E+00  0.00000000000E+00  0.18541006785E+04  0.18541006785E+04  0.25500000920E-02 0. -1.
        2   -1    0    0  501    0  0.00000000000E+00  0.00000000000E+00 -0.20988256482E+04  0.20988256482E+04  0.25500000920E-02 0.  1.
    10030    2    1    2    0    0  0.00000000000E+00  0.00000000000E+00 -0.24472496964E+03  0.39529263267E+04  0.39453436142E+04 0.  0.
        2    1    3    3  502    0  0.13948970756E+04 -0.51495017714E+03  0.11764787124E+04  0.18960521346E+04  0.25500000920E-02 0. -1.
       -2    1    3    3    0  502 -0.13948970756E+04  0.51495017714E+03 -0.14212036820E+04  0.20568741921E+04  0.25500000920E-02 0.  1.
</event>
<event>
 5   0  0.3665303E-07  0.3918717E+04  0.7818609E-02  0.8021148E-01
        2   -1    0    0  501    0  0.00000000000E+00  0.00000000000E+00  0.21991465539E+04  0.21991465540E+04  0.25500000920E-02 0. -1.
       -2   -1    0    0    0  501  0.00000000000E+00  0.00000000000E+00 -0.17457160296E+04  0.17457160296E+04  0.25500000920E-02 0.  1.
    10030    2    1    2    0    0  0.00000000000E+00  0.00000000000E+00  0.45343052435E+03  0.39448625836E+04  0.39187168260E+04 0.  0.
        2    1    3    3  502    0 -0.80432777314E+03 -0.12362097783E+04  0.15252549020E+04  0.21216880776E+04  0.25500000920E-02 0. -1.
       -2    1    3    3    0  502  0.80432777314E+03  0.12362097783E+04 -0.10718243776E+04  0.18231745059E+04  0.25500000920E-02 0.  1.
</event>
<event>
 5   0  0.3610483E-07  0.3870052E+04  0.7818609E-02  0.8031287E-01
       -2   -1    0    0    0  501  0.00000000000E+00  0.00000000000E+00  0.15824722087E+04  0.15824722087E+04  0.25500000920E-02 0.  1.
        2   -1    0    0  501    0  0.00000000000E+00  0.00000000000E+00 -0.23661239462E+04  0.23661239462E+04  0.25500000920E-02 0. -1.
    10030    2    1    2    0    0  0.00000000000E+00  0.00000000000E+00 -0.78365173742E+03  0.39485961549E+04  0.38700518794E+04 0.  0.
        4    1    3    3  502    0 -0.66170362660E+02 -0.71936515791E+03 -0.22233794716E+04  0.23377943953E+04  0.12699999809E+01 0. -1.
       -4    1    3    3    0  502  0.66170362660E+02  0.71936515791E+03  0.14397277341E+04  0.16108017596E+04  0.12699999809E+01 0.  1.
</event>
<event>
 5   0  0.3810833E-07  0.4004436E+04  0.7818609E-02  0.8003652E-01
        2   -1    0    0  501    0  0.00000000000E+00  0.00000000000E+00  0.15264437778E+04  0.15264437778E+04  0.25500000920E-02 0.  1.
       -2   -1    0    0    0  501  0.00000000000E+00  0.00000000000E+00 -0.26262856145E+04  0.26262856145E+04  0.25500000920E-02 0. -1.
    10030    2    1    2    0    0  0.00000000000E+00  0.00000000000E+00 -0.10998418367E+04  0.41527293922E+04  0.40044362074E+04 0.  0.
        3    1    3    3  502    0 -0.33357580492E+03  0.11674323956E+04  0.11011132379E+04  0.16390916963E+04  0.10100000352E+00 0.  1.
       -3    1    3    3    0  502  0.33357580492E+03 -0.11674323956E+04 -0.22009550746E+04  0.25136376960E+04  0.10100000352E+00 0. -1.
</event>
<event>
 5   0  0.3680814E-07  0.3907583E+04  0.7818609E-02  0.8023454E-01
        2   -1    0    0  501    0  0.00000000000E+00  0.00000000000E+00  0.30834086689E+04  0.30834086689E+04  0.25500000920E-02 0. -1.
       -2   -1    0    0    0  501  0.00000000000E+00  0.00000000000E+00 -0.12380131997E+04  0.12380131997E+04  0.25500000920E-02 0.  1.
    10030    2    1    2    0    0  0.00000000000E+00  0.00000000000E+00  0.18453954692E+04  0.43214218686E+04  0.39075826963E+04 0.  0.
        1    1    3    3  502    0  0.78153800579E+03  0.17455165554E+04  0.13646052815E+04  0.23494206251E+04  0.50400001928E-02 0.  1.
       -1    1    3    3    0  502 -0.78153800579E+03 -0.17455165554E+04  0.48079018774E+03  0.19720012435E+04  0.50400001928E-02 0. -1.
</event>
<event>
 5   0  0.3832389E-07  0.3683442E+04  0.7818609E-02  0.8071641E-01
       -2   -1    0    0    0  501  0.00000000000E+00  0.00000000000E+00  0.31507555740E+04  0.31507555740E+04  0.25500000920E-02 0. -1.
        2   -1    0    0  501    0  0.00000000000E+00  0.00000000000E+00 -0.10765470032E+04  0.10765470032E+04  0.25500000920E-02 0.  1.
    10030    2    1    2    0    0  0.00000000000E+00  0.00000000000E+00  0.20742085708E+04  0.42273025773E+04  0.36834421245E+04 0.  0.
        5    1    3    3  502    0 -0.15508449241E+04  0.87027067299E+03  0.48740104097E+03  0.18439286558E+04  0.46999998093E+01 0.  1.
       -5    1    3    3    0  502  0.15508449241E+04 -0.87027067299E+03  0.15868075299E+04  0.23833739215E+04  0.46999998093E+01 0. -1.
</event>
<event>
 5   0  0.1187925E-07  0.3905438E+04  0.7818609E-02  0.8023899E-01
       -1   -1    0    0    0  501  0.00000000000E+00  0.00000000000E+00  0.17934118342E+04  0.17934118342E+04  0.50400001928E-02 0. -1.
        1   -1    0    0  501    0  0.00000000000E+00  0.00000000000E+00 -0.21261767464E+04  0.21261767465E+04  0.50400001928E-02 0.  1.
    10030    2    1    2    0    0  0.00000000000E+00  0.00000000000E+00 -0.33276491221E+03  0.39195885807E+04  0.39054375114E+04 0.  0.
        4    1    3    3  502    0  0.18203344465E+04  0.47136356174E+03  0.36212588982E+03  0.19149250318E+04  0.12699999809E+01 0. -1.
       -4    1    3    3    0  502 -0.18203344465E+04 -0.47136356174E+03 -0.69489080203E+03  0.20046635489E+04  0.12699999809E+01 0.  1.
</event>
<event>
 5   0  0.1187925E-07  0.3945787E+04  0.7818609E-02  0.8015573E-01
        1   -1    0    0  501    0  0.00000000000E+00  0.00000000000E+00  0.24820533691E+04  0.24820533692E+04  0.50400001928E-02 0.  1.
       -1   -1    0    0    0  501  0.00000000000E+00  0.00000000000E+00 -0.15681809518E+04  0.15681809518E+04  0.50400001928E-02 0. -1.
    10030    2    1    2    0    0  0.00000000000E+00  0.00000000000E+00  0.91387241736E+03  0.40502343209E+04  0.39457870266E+04 0.  0.
        5    1    3    3  502    0 -0.19477013264E+04  0.26975312398E+03  0.29148799939E+03  0.19877863438E+04  0.46999998093E+01 0. -1.
       -5    1    3    3    0  502  0.19477013264E+04 -0.26975312398E+03  0.62238441797E+03  0.20624479772E+04  0.46999998093E+01 0.  1.
</event>
<event>
 5   0  0.3610483E-07  0.3892869E+04  0.7818609E-02  0.8026514E-01
        2   -1    0    0  501    0  0.00000000000E+00  0.00000000000E+00  0.17100128384E+04  0.17100128384E+04  0.25500000920E-02 0. -1.
       -2   -1    0    0    0  501  0.00000000000E+00  0.00000000000E+00 -0.22155432112E+04  0.22155432112E+04  0.25500000920E-02 0.  1.
    10030    2    1    2    0    0  0.00000000000E+00  0.00000000000E+00 -0.50553037283E+03  0.39255560497E+04  0.38928690372E+04 0.  0.
        4    1    3    3  502    0 -0.17422442805E+04  0.66177746111E+02  0.61983946669E+03  0.18504046056E+04  0.12699999809E+01 0.  1.
       -4    1    3    3    0  502  0.17422442805E+04 -0.66177746111E+02 -0.11253698395E+04  0.20751514440E+04  0.12699999809E+01 0. -1.
</event>
<event>
 5   0  0.3665303E-07  0.3896950E+04  0.7818609E-02  0.8025664E-01
        2   -1    0    0  501    0  0.00000000000E+00  0.00000000000E+00  0.26083022621E+04  0.26083022621E+04  0.25500000920E-02 0.  1.
       -2   -1    0    0    0  501  0.00000000000E+00  0.00000000000E+00 -0.14555653154E+04  0.14555653154E+04  0.25500000920E-02 0. -1.
    10030    2    1    2    0    0  0.00000000000E+00  0.00000000000E+00  0.11527369467E+04  0.40638675774E+04  0.38969497326E+04 0.  0.
        2    1    3    3  502    0  0.11039264150E+04 -0.10788567360E+04 -0.66366861735E+03  0.16801908880E+04  0.25500000920E-02 0. -1.
       -2    1    3    3    0  502 -0.11039264150E+04  0.10788567360E+04  0.18164055641E+04  0.23836766894E+04  0.25500000920E-02 0.  1.
</event>
<event>
 5   0  0.1187925E-07  0.3827472E+04  0.7818609E-02  0.8040285E-01
        1   -1    0    0  501    0  0.00000000000E+00  0.00000000000E+00  0.14799611780E+04  0.14799611780E+04  0.50400001928E-02 0.  1.
       -1   -1    0    0    0  501  0.00000000000E+00  0.00000000000E+00 -0.24746493852E+04  0.24746493852E+04  0.50400001928E-02 0. -1.
    10030    2    1    2    0    0  0.00000000000E+00  0.00000000000E+00 -0.99468820726E+03  0.39546105632E+04  0.38274717605E+04 0.  0.
        5    1    3    3  502    0 -0.95221889009E+03  0.15068393842E+04  0.22226583242E+03  0.17963045217E+04  0.46999998093E+01 0. -1.
       -5    1    3    3    0  502  0.95221889009E+03 -0.15068393842E+04 -0.12169540397E+04  0.21583060416E+04  0.46999998093E+01 0.  1.
</event>
<event>
 5   0  0.1187925E-07  0.3859602E+04  0.7818609E-02  0.8033484E-01
        1   -1    0    0  501    0  0.00000000000E+00  0.00000000000E+00  0.22042908625E+04  0.22042908625E+04  0.50400001928E-02 0.  1.
       -1   -1    0    0    0  501  0.00000000000E+00  0.00000000000E+00 -0.16894921423E+04  0.16894921424E+04  0.50400001928E-02 0. -1.
    10030    2    1    2    0    0  0.00000000000E+00  0.00000000000E+00  0.51479872012E+03  0.38937830048E+04  0.38596020995E+04 0.  0.
        2    1    3    3  502    0 -0.99790093953E+03 -0.16470522926E+04  0.38318130752E+03  0.19635211876E+04  0.25500000920E-02 0.  1.
       -2    1    3    3    0  502  0.99790093953E+03  0.16470522926E+04  0.13161741260E+03  0.19302618172E+04  0.25500000920E-02 0. -1.
</event>
<event>
 5   0  0.3832389E-07  0.3878915E+04  0.7818609E-02  0.8029429E-01
        2   -1    0    0  501    0  0.00000000000E+00  0.00000000000E+00  0.15895375660E+04  0.15895375660E+04  0.25500000920E-02 0. -1.
       -2   -1    0    0    0  501  0.00000000000E+00  0.00000000000E+00 -0.23664082258E+04  0.23664082258E+04  0.25500000920E-02 0.  1.
    10030    2    1    2    0    0  0.00000000000E+00  0.00000000000E+00 -0.77687065985E+03  0.39559457918E+04  0.38789146789E+04 0.  0.
        5    1    3    3  502    0  0.87881025258E+03 -0.56429793261E+03  0.12782566535E+04  0.16506670709E+04  0.46999998093E+01 0. -1.
       -5    1    3    3    0  502 -0.87881025258E+03  0.56429793261E+03 -0.20551273134E+04  0.23052787209E+04  0.46999998093E+01 0.  1.
</event>
<event>
 5   0  0.1187925E-07  0.3079468E+04  0.7818609E-02  0.8221395E-01
        1   -1    0    0  501    0  0.00000000000E+00  0.00000000000E+00  0.15465176435E+04  0.15465176435E+04  0.50400001928E-02 0. -1.
       -1   -1    0    0    0  501  0.00000000000E+00  0.00000000000E+00 -0.15329798363E+04  0.15329798363E+04  0.50400001928E-02 0.  1.
    10030    2    1    2    0    0  0.00000000000E+00  0.00000000000E+00  0.13537807181E+02  0.30794974797E+04  0.30794677228E+04 0.  0.
        2    1    3    3  502    0 -0.85118198921E+02 -0.77305721387E+03 -0.13221223367E+04  0.15339067889E+04  0.25500000920E-02 0.  1.
       -2    1    3    3    0  502  0.85118198921E+02  0.77305721387E+03  0.13356601439E+04  0.15455906909E+04  0.25500000920E-02 0. -1.
</event>
<event>
 5   0  0.1187925E-07  0.2877211E+04  0.7818609E-02  0.8279690E-01
       -1   -1    0    0    0  501  0.00000000000E+00  0.00000000000E+00  0.16189365882E+04  0.16189365882E+04  0.50400001928E-02 0. -1.
        1   -1    0    0  501    0  0.00000000000E+00  0.00000000000E+00 -0.12783614050E+04  0.12783614050E+04  0.50400001928E-02 0.  1.
    10030    2    1    2    0    0  0.00000000000E+00  0.00000000000E+00  0.34057518313E+03  0.28972979932E+04  0.28772111855E+04 0.  0.
        3    1    3    3  502    0  0.20002808360E+03 -0.11024353711E+04 -0.73834837652E+03  0.13418395273E+04  0.10100000352E+00 0. -1.
       -3    1    3    3    0  502 -0.20002808360E+03  0.11024353711E+04  0.10789235597E+04  0.15554584660E+04  0.10100000352E+00 0.  1.
</event>
<event>
 5   0  0.1187925E-07  0.3906390E+04  0.7818609E-02  0.8023702E-01
       -1   -1    0    0    0  501  0.00000000000E+00  0.00000000000E+00  0.25993123279E+04  0.25993123279E+04  0.50400001928E-02 0.  1.
        1   -1    0    0  501    0  0.00000000000E+00  0.00000000000E+00 -0.14676844623E+04  0.14676844623E+04  0.50400001928E-02 0. -1.
    10030    2    1    2    0    0  0.00000000000E+00  0.00000000000E+00  0.11316278656E+04  0.40669967902E+04  0.39063897994E+04 0.  0.
        1    1    3    3  502    0 -0.17165520306E+04 -0.91804710714E+03  0.73242128091E+03  0.20798563165E+04  0.50400001928E-02 0.  1.
       -1    1    3    3    0  502  0.17165520306E+04  0.91804710714E+03  0.39920658473E+03  0.19871404736E+04  0.50400001928E-02 0. -1.
</event>
<event>
 5   0  0.3680814E-07  0.3828620E+04  0.7818609E-02  0.8040041E-01
        2   -1    0    0  501    0  0.00000000000E+00  0.00000000000E+00  0.19426034363E+04  0.19426034363E+04  0.25500000920E-02 0. -1.
       -2   -1    0    0    0  501  0.00000000000E+00  0.00000000000E+00 -0.18864284681E+04  0.18864284681E+04  0.25500000920E-02 0.  1.
    10030    2    1    2    0    0  0.00000000000E+00  0.00000000000E+00  0.56174968204E+02  0.38290319044E+04  0.38286198163E+04 0.  0.
        1    1    3    3  502    0 -0.60698720406E+03  0.63661717559E+03  0.17285256255E+04  0.19394627432E+04  0.50400001928E-02 0. -1.
       -1    1    3    3    0  502  0.60698720406E+03 -0.63661717559E+03 -0.16723506573E+04  0.18895691612E+04  0.50400001928E-02 0.  1.
</event>
<event>
 5   0  0.3810833E-07  0.3909438E+04  0.7818609E-02  0.8023069E-01
       -2   -1    0    0    0  501  0.00000000000E+00  0.00000000000E+00  0.10829141795E+04  0.10829141795E+04  0.25500000920E-02 0. -1.
        2   -1    0    0  501    0  0.00000000000E+00  0.00000000000E+00 -0.35283746488E+04  0.35283746488E+04  0.25500000920E-02 0.  1.
    10030    2    1    2    0    0  0.00000000000E+00  0.00000000000E+00 -0.24454604693E+04  0.46112888284E+04  0.39094382910E+04 0.  0.
        3    1    3    3  502    0 -0.11213694338E+04 -0.52173447263E+03 -0.30081661406E+04  0.32524974722E+04  0.10100000352E+00 0.  1.
       -3    1    3    3    0  502  0.11213694338E+04  0.52173447263E+03  0.56270567124E+03  0.13587913562E+04  0.10100000352E+00 0. -1.
</event>
<event>
 5   0  0.3832389E-07  0.3892534E+04  0.7818609E-02  0.8026584E-01
        2   -1    0    0  501    0  0.00000000000E+00  0.00000000000E+00  0.26144341719E+04  0.26144341719E+04  0.25500000920E-02 0. -1.
       -2   -1    0    0    0  501  0.00000000000E+00  0.00000000000E+00 -0.14488620253E+04  0.14488620253E+04  0.25500000920E-02 0.  1.
    10030    2    1    2    0    0  0.00000000000E+00  0.00000000000E+00  0.11655721466E+04  0.40632961972E+04  0.38925335653E+04 0.  0.
        5    1    3    3  502    0 -0.33855031448E+02 -0.17223469583E+04  0.15282268917E+04  0.23028514347E+04  0.46999998093E+01 0. -1.
       -5    1    3    3    0  502  0.33855031448E+02  0.17223469583E+04 -0.36265474507E+03  0.17604447625E+04  0.46999998093E+01 0.  1.
</event>
<event>
 5   0  0.3610483E-07  0.3814434E+04  0.7818609E-02  0.8043065E-01
       -2   -1    0    0    0  501  0.00000000000E+00  0.00000000000E+00  0.21705449613E+04  0.21705449613E+04  0.25500000920E-02 0.  1.
        2   -1    0    0  501    0  0.00000000000E+00  0.00000000000E+00 -0.16758353354E+04  0.16758353354E+04  0.25500000920E-02 0. -1.
    10030    2    1    2    0    0  0.00000000000E+00  0.00000000000E+00  0.49470962583E+03  0.38463802967E+04  0.38144336110E+04 0.  0.
        4    1    3    3  502    0  0.13625363159E+04  0.97107837707E+03 -0.67572217877E+03  0.18044668194E+04  0.12699999809E+01 0. -1.
       -4    1    3    3    0  502 -0.13625363159E+04 -0.97107837707E+03  0.11704318046E+04  0.20419134773E+04  0.12699999809E+01 0.  1.
</event>
<event>
 5   0  0.3680814E-07  0.3778690E+04  0.7818609E-02  0.8050743E-01
        2   -1    0    0  501    0  0.00000000000E+00  0.00000000000E+00  0.16251641192E+04  0.16251641193E+04  0.25500000920E-02 0. -1.
       -2   -1    0    0    0  501  0.00000000000E+00  0.00000000000E+00 -0.21964705653E+04  0.21964705653E+04  0.25500000920E-02 0.  1.
    10030    2    1    2    0    0  0.00000000000E+00  0.00000000000E+00 -0.57130644608E+03  0.38216346846E+04  0.37786903296E+04 0.  0.
        1    1    3    3  502    0 -0.18500400066E+04 -0.38064877777E+03 -0.23948761455E+03  0.19039159213E+04  0.50400001928E-02 0.  1.
       -1    1    3    3    0  502  0.18500400066E+04  0.38064877777E+03 -0.33181883154E+03  0.19177187633E+04  0.50400001928E-02 0. -1.
</event>
<event>
 5   0  0.1187925E-07  0.3767736E+04  0.7818609E-02  0.8053114E-01
        1   -1    0    0  501    0  0.00000000000E+00  0.00000000000E+00  0.17972651528E+04  0.17972651528E+04  0.50400001928E-02 0. -1.
       -1   -1    0    0    0  501  0.00000000000E+00  0.00000000000E+00 -0.19746442185E+04  0.19746442185E+04  0.50400001928E-02 0.  1.
    10030    2    1    2    0    0  0.00000000000E+00  0.00000000000E+00 -0.17737906569E+03  0.37719093712E+04  0.37677363193E+04 0.  0.
        2    1    3    3  502    0 -0.70924065997E+03  0.95888478553E+03 -0.15485491058E+04  0.19546065279E+04  0.25500000920E-02 0.  1.
       -2    1    3    3    0  502  0.70924065997E+03 -0.95888478553E+03  0.13711700401E+04  0.18173028434E+04  0.25500000920E-02 0. -1.
</event>
<event>
 5   0  0.1187925E-07  0.3883803E+04  0.7818609E-02  0.8028406E-01
        1   -1    0    0  501    0  0.00000000000E+00  0.00000000000E+00  0.22642867294E+04  0.22642867294E+04  0.50400001928E-02 0. -1.
       -1   -1    0    0    0  501  0.00000000000E+00  0.00000000000E+00 -0.16654169762E+04  0.16654169762E+04  0.50400001928E-02 0.  1.
    10030    2    1    2    0    0  0.00000000000E+00  0.00000000000E+00  0.59886975317E+03  0.39297037057E+04  0.38838030631E+04 0.  0.
        3    1    3    3  502    0 -0.14371424907E+04 -0.13059327860E+04  0.31151617213E+03  0.19666929897E+04  0.10100000352E+00 0.  1.
       -3    1    3    3    0  502  0.14371424907E+04  0.13059327860E+04  0.28735358104E+03  0.19630107159E+04  0.10100000352E+00 0. -1.
</event>
<event>
 5   0  0.3810833E-07  0.3940125E+04  0.7818609E-02  0.8016735E-01
        2   -1    0    0  501    0  0.00000000000E+00  0.00000000000E+00  0.18333667151E+04  0.18333667151E+04  0.25500000920E-02 0. -1.
       -2   -1    0    0    0  501  0.00000000000E+00  0.00000000000E+00 -0.21169498522E+04  0.21169498522E+04  0.25500000920E-02 0.  1.
    10030    2    1    2    0    0  0.00000000000E+00  0.00000000000E+00 -0.28358313706E+03  0.39503165673E+04  0.39401245648E+04 0.  0.
        3    1    3    3  502    0  0.12737807199E+04 -0.13294678689E+04  0.56083737822E+03  0.19247183461E+04  0.10100000352E+00 0.  1.
       -3    1    3    3    0  502 -0.12737807199E+04  0.13294678689E+04 -0.84442051528E+03  0.20255982212E+04  0.10100000352E+00 0. -1.
</event>
<event>
 5   0  0.3810833E-07  0.3888437E+04  0.7818609E-02  0.8027438E-01
       -2   -1    0    0    0  501  0.00000000000E+00  0.00000000000E+00  0.14189566606E+04  0.14189566606E+04  0.25500000920E-02 0.  1.
        2   -1    0    0  501    0  0.00000000000E+00  0.00000000000E+00 -0.26639195915E+04  0.26639195915E+04  0.25500000920E-02 0. -1.
    10030    2    1    2    0    0  0.00000000000E+00  0.00000000000E+00 -0.12449629310E+04  0.40828762521E+04  0.38884374485E+04 0.  0.
        3    1    3    3  502    0 -0.96563738450E+03 -0.15559224924E+04  0.63353919915E+02  0.18323111335E+04  0.10100000352E+00 0.  1.
       -3    1    3    3    0  502  0.96563738450E+03  0.15559224924E+04 -0.13083168509E+04  0.22505651186E+04  0.10100000352E+00 0. -1.
</event>
<event>
 5   0  0.1187925E-07  0.3860579E+04  0.7818609E-02  0.8033278E-01
        1   -1    0    0  501    0  0.00000000000E+00  0.00000000000E+00  0.16043228003E+04  0.16043228003E+04  0.50400001928E-02 0. -1.
       -1   -1    0    0    0  501  0.00000000000E+00  0.00000000000E+00 -0.23224860882E+04  0.23224860882E+04  0.50400001928E-02 0.  1.
    10030    2    1    2    0    0  0.00000000000E+00  0.00000000000E+00 -0.71816328783E+03  0.39268088885E+04  0.38605789124E+04 0.  0.
        2    1    3    3  502    0  0.11262902101E+04 -0.29155539616E+03  0.12076293970E+04  0.16768729669E+04  0.25500000920E-02 0. -1.
       -2    1    3    3    0  502 -0.11262902101E+04  0.29155539616E+03 -0.19257926849E+04  0.22499359217E+04  0.25500000920E-02 0.  1.
</event>
<event>
 5   0  0.1187925E-07  0.3828740E+04  0.7818609E-02  0.8040015E-01
        1   -1    0    0  501    0  0.00000000000E+00  0.00000000000E+00  0.20496419211E+04  0.20496419211E+04  0.50400001928E-02 0.  1.
       -1   -1    0    0    0  501  0.00000000000E+00  0.00000000000E+00 -0.17880253491E+04  0.17880253491E+04  0.50400001928E-02 0. -1.
    10030    2    1    2    0    0  0.00000000000E+00  0.00000000000E+00  0.26161657203E+03  0.38376672702E+04  0.38287395897E+04 0.  0.
        1    1    3    3  502    0 -0.15329510644E+04 -0.56873075790E+03  0.11288298029E+04  0.19868694886E+04  0.50400001928E-02 0.  1.
       -1    1    3    3    0  502  0.15329510644E+04  0.56873075790E+03 -0.86721323083E+03  0.18507977816E+04  0.50400001928E-02 0. -1.
</event>
<event>
 5   0  0.3832389E-07  0.3888248E+04  0.7818609E-02  0.8027478E-01
       -2   -1    0    0    0  501  0.00000000000E+00  0.00000000000E+00  0.30480181515E+04  0.30480181515E+04  0.25500000920E-02 0. -1.
        2   -1    0    0  501    0  0.00000000000E+00  0.00000000000E+00 -0.12400245886E+04  0.12400245886E+04  0.25500000920E-02 0.  1.
    10030    2    1    2    0    0  0.00000000000E+00  0.00000000000E+00  0.18079935629E+04  0.42880427400E+04  0.38882476537E+04 0.  0.
        5    1    3    3  502    0 -0.54188097382E+03 -0.80569812531E+03  0.27614606761E+04  0.29271951788E+04  0.46999998093E+01 0. -1.
       -5    1    3    3    0  502  0.54188097382E+03  0.80569812531E+03 -0.95346711322E+03  0.13608475612E+04  0.46999998093E+01 0.  1.
</event>
<event>
 5   0  0.1187925E-07  0.3841941E+04  0.7818609E-02  0.8037214E-01
        1   -1    0    0  501    0  0.00000000000E+00  0.00000000000E+00  0.21485213200E+04  0.21485213200E+04  0.50400001928E-02 0.  1.
       -1   -1    0    0    0  501  0.00000000000E+00  0.00000000000E+00 -0.17175193966E+04  0.17175193966E+04  0.50400001928E-02 0. -1.
    10030    2    1    2    0    0  0.00000000000E+00  0.00000000000E+00  0.43100192340E+03  0.38660407166E+04  0.38419406768E+04 0.  0.
        4    1    3    3  502    0 -0.84132666216E+03 -0.13945797823E+04 -0.80943729603E+03  0.18187560779E+04  0.12699999809E+01 0. -1.
       -4    1    3    3    0  502  0.84132666216E+03  0.13945797823E+04  0.12404392194E+04  0.20472846387E+04  0.12699999809E+01 0.  1.
</event>
<event>
 5   0  0.1187925E-07  0.3839528E+04  0.7818609E-02  0.8037725E-01
       -1   -1    0    0    0  501  0.00000000000E+00  0.00000000000E+00  0.14767676630E+04  0.14767676630E+04  0.50400001928E-02 0.  1.
        1   -1    0    0  501    0  0.00000000000E+00  0.00000000000E+00 -0.24956485724E+04  0.24956485724E+04  0.50400001928E-02 0. -1.
    10030    2    1    2    0    0  0.00000000000E+00  0.00000000000E+00 -0.10188809094E+04  0.39724162354E+04  0.38395276324E+04 0.  0.
        1    1    3    3  502    0 -0.13319335551E+04 -0.90690293471E+03 -0.15890968036E+04  0.22631280519E+04  0.50400001928E-02 0. -1.
       -1    1    3    3    0  502  0.13319335551E+04  0.90690293471E+03  0.57021589416E+03  0.17092881835E+04  0.50400001928E-02 0.  1.
</event>
<event>
 5   0  0.3610483E-07  0.3517381E+04  0.7818609E-02  0.8109683E-01
       -2   -1    0    0    0  501  0.00000000000E+00  0.00000000000E+00  0.16450009137E+04  0.16450009137E+04  0.25500000920E-02 0. -1.
        2   -1    0    0  501    0  0.00000000000E+00  0.00000000000E+00 -0.18802369350E+04  0.18802369350E+04  0.25500000920E-02 0.  1.
    10030    2    1    2    0    0  0.00000000000E+00  0.00000000000E+00 -0.23523602129E+03  0.35252378487E+04  0.35173805458E+04 0.  0.
        4    1    3    3  502    0 -0.12819026042E+04  0.87719867254E+03 -0.94422587443E+03  0.18177777401E+04  0.12699999809E+01 0.  1.
       -4    1    3    3    0  502  0.12819026042E+04 -0.87719867254E+03  0.70898985313E+03  0.17074601086E+04  0.12699999809E+01 0. -1.
</event>
<event>
 5   0  0.1187925E-07  0.3932368E+04  0.7818609E-02  0.8018331E-01
        1   -1    0    0  501    0  0.00000000000E+00  0.00000000000E+00  0.17617239251E+04  0.17617239251E+04  0.50400001928E-02 0. -1.
       -1   -1    0    0    0  501  0.00000000000E+00  0.00000000000E+00 -0.21943735479E+04  0.21943735479E+04  0.50400001928E-02 0.  1.
    10030    2    1    2    0    0  0.00000000000E+00  0.00000000000E+00 -0.43264962284E+03  0.39560974730E+04  0.39323684365E+04 0.  0.
        3    1    3    3  502    0 -0.19613854320E+04  0.13138011921E+03 -0.17624950939E+03  0.19736659921E+04  0.10100000352E+00 0.  1.
       -3    1    3    3    0  502  0.19613854320E+04 -0.13138011921E+03 -0.25640011345E+03  0.19824314810E+04  0.10100000352E+00 0. -1.
</event>
<event>
 5   0  0.1187925E-07  0.3849734E+04  0.7818609E-02  0.8035566E-01
       -1   -1    0    0    0  501  0.00000000000E+00  0.00000000000E+00  0.26515187862E+04  0.26515187862E+04  0.50400001928E-02 0.  1.
        1   -1    0    0  501    0  0.00000000000E+00  0.00000000000E+00 -0.13973548059E+04  0.13973548059E+04  0.50400001928E-02 0. -1.
    10030    2    1    2    0    0  0.00000000000E+00  0.00000000000E+00  0.12541639802E+04  0.40488735921E+04  0.38497337668E+04 0.  0.
        3    1    3    3  502    0  0.16913345717E+04 -0.87961313406E+03  0.34727363973E+03  0.19377644052E+04  0.10100000352E+00 0. -1.
       -3    1    3    3    0  502 -0.16913345717E+04  0.87961313406E+03  0.90689034052E+03  0.21111091869E+04  0.10100000352E+00 0.  1.
</event>
<event>
 5   0  0.1187925E-07  0.3736415E+04  0.7818609E-02  0.8059939E-01
        1   -1    0    0  501    0  0.00000000000E+00  0.00000000000E+00  0.14002465162E+04  0.14002465162E+04  0.50400001928E-02 0. -1.
       -1   -1    0    0    0  501  0.00000000000E+00  0.00000000000E+00 -0.24925607658E+04  0.24925607658E+04  0.50400001928E-02 0.  1.
    10030    2    1    2    0    0  0.00000000000E+00  0.00000000000E+00 -0.10923142496E+04  0.38928072820E+04  0.37364151423E+04 0.  0.
        1    1    3    3  502    0  0.15759785597E+04 -0.87824550620E+02 -0.15873765334E+04  0.22385678080E+04  0.50400001928E-02 0.  1.
       -1    1    3    3    0  502 -0.15759785597E+04  0.87824550620E+02  0.49506228381E+03  0.16542394740E+04  0.50400001928E-02 0. -1.
</event>
<event>
 5   0  0.1187925E-07  0.3924675E+04  0.7818609E-02  0.8019917E-01
        1   -1    0    0  501    0  0.00000000000E+00  0.00000000000E+00  0.19195802457E+04  0.19195802457E+04  0.50400001928E-02 0.  1.
       -1   -1    0    0    0  501  0.00000000000E+00  0.00000000000E+00 -0.20060469330E+04  0.20060469330E+04  0.50400001928E-02 0. -1.
    10030    2    1    2    0    0  0.00000000000E+00  0.00000000000E+00 -0.86466687288E+02  0.39256271788E+04  0.39246747966E+04 0.  0.
        5    1    3    3  502    0 -0.20729436818E+03 -0.64053183685E+03 -0.18869098590E+04  0.20034227949E+04  0.46999998093E+01 0. -1.
       -5    1    3    3    0  502  0.20729436818E+03  0.64053183685E+03  0.18004431717E+04  0.19222043839E+04  0.46999998093E+01 0.  1.
</event>
<event>
 5   0  0.1187925E-07  0.2816079E+04  0.7818609E-02  0.8298294E-01
        1   -1    0    0  501    0  0.00000000000E+00  0.00000000000E+00  0.19238111348E+04  0.19238111348E+04  0.50400001928E-02 0. -1.
       -1   -1    0    0    0  501  0.00000000000E+00  0.00000000000E+00 -0.10305455365E+04  0.10305455365E+04  0.50400001928E-02 0.  1.
    10030    2    1    2    0    0  0.00000000000E+00  0.00000000000E+00  0.89326559837E+03  0.29543566713E+04  0.28160788185E+04 0.  0.
        5    1    3    3  502    0  0.99756546306E+03  0.85374072931E+03 -0.86805686137E+02  0.13158903462E+04  0.46999998093E+01 0.  1.
       -5    1    3    3    0  502 -0.99756546306E+03 -0.85374072931E+03  0.98007128451E+03  0.16384663252E+04  0.46999998093E+01 0. -1.
</event>
<event>
 5   0  0.1187925E-07  0.3829283E+04  0.7818609E-02  0.8039900E-01
        1   -1    0    0  501    0  0.00000000000E+00  0.00000000000E+00  0.21522240601E+04  0.21522240601E+04  0.50400001928E-02 0. -1.
       -1   -1    0    0    0  501  0.00000000000E+00  0.00000000000E+00 -0.17032854703E+04  0.17032854703E+04  0.50400001928E-02 0.  1.
    10030    2    1    2    0    0  0.00000000000E+00  0.00000000000E+00  0.44893858978E+03  0.38555095305E+04  0.38292829462E+04 0.  0.
        2    1    3    3  502    0  0.12321981228E+04 -0.86039208168E+03  0.14188761876E+04  0.20668324518E+04  0.25500000920E-02 0. -1.
       -2    1    3    3    0  502 -0.12321981228E+04  0.86039208168E+03 -0.96993759787E+03  0.17886770787E+04  0.25500000920E-02 0.  1.
</event>
<event>
 5   0  0.1187925E-07  0.3929242E+04  0.7818609E-02  0.8018975E-01
        1   -1    0    0  501    0  0.00000000000E+00  0.00000000000E+00  0.12773970666E+04  0.12773970667E+04  0.50400001928E-02 0.  1.
       -1   -1    0    0    0  501  0.00000000000E+00  0.00000000000E+00 -0.30215622616E+04  0.30215622616E+04  0.50400001928E-02 0. -1.
    10030    2    1    2    0    0  0.00000000000E+00  0.00000000000E+00 -0.17441651949E+04  0.42989593282E+04  0.39292415398E+04 0.  0.
        2    1    3    3  502    0 -0.15293134472E+04  0.41492850465E+03  0.39856018997E+03  0.16339570095E+04  0.25500000920E-02 0.  1.
       -2    1    3    3    0  502  0.15293134472E+04 -0.41492850465E+03 -0.21427253849E+04  0.26650023187E+04  0.25500000920E-02 0. -1.
</event>
<event>
 5   0  0.1187925E-07  0.3907719E+04  0.7818609E-02  0.8023426E-01
        1   -1    0    0  501    0  0.00000000000E+00  0.00000000000E+00  0.15808354886E+04  0.15808354886E+04  0.50400001928E-02 0.  1.
       -1   -1    0    0    0  501  0.00000000000E+00  0.00000000000E+00 -0.24149043390E+04  0.24149043390E+04  0.50400001928E-02 0. -1.
    10030    2    1    2    0    0  0.00000000000E+00  0.00000000000E+00 -0.83406885045E+03  0.39957398276E+04  0.39077187619E+04 0.  0.
        2    1    3    3  502    0 -0.37777736049E+03  0.18180838771E+04 -0.10385258494E+04  0.21275997411E+04  0.25500000920E-02 0. -1.
       -2    1    3    3    0  502  0.37777736049E+03 -0.18180838771E+04  0.20445699894E+03  0.18681400865E+04  0.25500000920E-02 0.  1.
</event>
<event>
 5   0  0.3810833E-07  0.3663905E+04  0.7818609E-02  0.8076008E-01
       -2   -1    0    0    0  501  0.00000000000E+00  0.00000000000E+00  0.13262889786E+04  0.13262889786E+04  0.25500000920E-02 0.  1.
        2   -1    0    0  501    0  0.00000000000E+00  0.00000000000E+00 -0.25304062112E+04  0.25304062112E+04  0.25500000920E-02 0. -1.
    10030    2    1    2    0    0  0.00000000000E+00  0.00000000000E+00 -0.12041172326E+04  0.38566951898E+04  0.36639049492E+04 0.  0.
        3    1    3    3  502    0  0.64155483092E+03 -0.89159819891E+03  0.94120758009E+03  0.14465170820E+04  0.10100000352E+00 0.  1.
       -3    1    3    3    0  502 -0.64155483092E+03  0.89159819891E+03 -0.21453248127E+04  0.24101781078E+04  0.10100000352E+00 0. -1.
</event>
<event>
 5   0  0.1187925E-07  0.3910514E+04  0.7818609E-02  0.8022846E-01
        1   -1    0    0  501    0  0.00000000000E+00  0.00000000000E+00  0.15998455545E+04  0.15998455545E+04  0.50400001928E-02 0. -1.
       -1   -1    0    0    0  501  0.00000000000E+00  0.00000000000E+00 -0.23896243854E+04  0.23896243854E+04  0.50400001928E-02 0.  1.
    10030    2    1    2    0    0  0.00000000000E+00  0.00000000000E+00 -0.78977883088E+03  0.39894699399E+04  0.39105140071E+04 0.  0.
        1    1    3    3  502    0 -0.15613536175E+04 -0.64346103010E+03  0.61048390396E+03  0.17957053804E+04  0.50400001928E-02 0.  1.
       -1    1    3    3    0  502  0.15613536175E+04  0.64346103010E+03 -0.14002627348E+04  0.21937645595E+04  0.50400001928E-02 0. -1.
</event>
<event>
 5   0  0.3810833E-07  0.4041005E+04  0.7818609E-02  0.7996325E-01
       -2   -1    0    0    0  501  0.00000000000E+00  0.00000000000E+00  0.14930092145E+04  0.14930092145E+04  0.25500000920E-02 0.  1.
        2   -1    0    0  501    0  0.00000000000E+00  0.00000000000E+00 -0.27343639498E+04  0.27343639498E+04  0.25500000920E-02 0. -1.
    10030    2    1    2    0    0  0.00000000000E+00  0.00000000000E+00 -0.12413547353E+04  0.42273731644E+04  0.40410051091E+04 0.  0.
        3    1    3    3  502    0 -0.12790397329E+04 -0.14230213778E+04  0.58493405364E+02  0.19142502366E+04  0.10100000352E+00 0.  1.
       -3    1    3    3    0  502  0.12790397329E+04  0.14230213778E+04 -0.12998481406E+04  0.23131229277E+04  0.10100000352E+00 0. -1.
</event>
<event>
 5   0  0.1187925E-07  0.3884568E+04  0.7818609E-02  0.8028246E-01
        1   -1    0    0  501    0  0.00000000000E+00  0.00000000000E+00  0.24230106181E+04  0.24230106181E+04  0.50400001928E-02 0. -1.
       -1   -1    0    0    0  501  0.00000000000E+00  0.00000000000E+00 -0.15569341688E+04  0.15569341688E+04  0.50400001928E-02 0.  1.
    10030    2    1    2    0    0  0.00000000000E+00  0.00000000000E+00  0.86607644931E+03  0.39799447869E+04  0.38845684562E+04 0.  0.
        4    1    3    3  502    0 -0.20768250975E+03 -0.19301945953E+04  0.49521775924E+03  0.20035032924E+04  0.12699999809E+01 0. -1.
       -4    1    3    3    0  502  0.20768250975E+03  0.19301945953E+04  0.37085869007E+03  0.19764414946E+04  0.12699999809E+01 0.  1.
</event>
<event>
 5   0  0.3610483E-07  0.2885522E+04  0.7818609E-02  0.8277198E-01
        2   -1    0    0  501    0  0.00000000000E+00  0.00000000000E+00  0.19805464825E+04  0.19805464825E+04  0.25500000920E-02 0. -1.
       -2   -1    0    0    0  501  0.00000000000E+00  0.00000000000E+00 -0.10510025688E+04  0.10510025688E+04  0.25500000920E-02 0.  1.
    10030    2    1    2    0    0  0.00000000000E+00  0.00000000000E+00  0.92954391372E+03  0.30315490514E+04  0.28855220954E+04 0.  0.
        4    1    3    3  502    0 -0.87037640271E+03  0.57120175431E+03  0.15141862961E+04  0.18375495310E+04  0.12699999809E+01 0. -1.
       -4    1    3    3    0  502  0.87037640271E+03 -0.57120175431E+03 -0.58464238240E+03  0.11939995204E+04  0.12699999809E+01 0.  1.
</event>
<event>
 5   0  0.3680814E-07  0.4071630E+04  0.7818609E-02  0.7990250E-01
        2   -1    0    0  501    0  0.00000000000E+00  0.00000000000E+00  0.17453597812E+04  0.17453597812E+04  0.25500000920E-02 0. -1.
       -2   -1    0    0    0  501  0.00000000000E+00  0.00000000000E+00 -0.23746063614E+04  0.23746063614E+04  0.25500000920E-02 0.  1.
    10030    2    1    2    0    0  0.00000000000E+00  0.00000000000E+00 -0.62924658019E+03  0.41199661426E+04  0.40716298650E+04 0.  0.
        1    1    3    3  502    0 -0.16385274545E+04  0.96040960995E+03 -0.10563903794E+04  0.21732739063E+04  0.50400001928E-02 0.  1.
       -1    1    3    3    0  502  0.16385274545E+04 -0.96040960995E+03  0.42714379920E+03  0.19466922364E+04  0.50400001928E-02 0. -1.
</event>
<event>
 5   0  0.1187925E-07  0.3863916E+04  0.7818609E-02  0.8032576E-01
        1   -1    0    0  501    0  0.00000000000E+00  0.00000000000E+00  0.25348206408E+04  0.25348206408E+04  0.50400001928E-02 0. -1.
       -1   -1    0    0    0  501  0.00000000000E+00  0.00000000000E+00 -0.14724760351E+04  0.14724760351E+04  0.50400001928E-02 0.  1.
    10030    2    1    2    0    0  0.00000000000E+00  0.00000000000E+00  0.10623446057E+04  0.40072966759E+04  0.38639164830E+04 0.  0.
        3    1    3    3  502    0  0.76981220040E+03  0.17433893728E+04  0.85986389258E+03  0.20907853197E+04  0.10100000352E+00 0.  1.
       -3    1    3    3    0  502 -0.76981220040E+03 -0.17433893728E+04  0.20248071312E+03  0.19165113562E+04  0.10100000352E+00 0. -1.
</event>
<event>
 5   0  0.3810833E-07  0.3903411E+04  0.7818609E-02  0.8024320E-01
       -2   -1    0    0    0  501  0.00000000000E+00  0.00000000000E+00  0.15430327856E+04  0.15430327856E+04  0.25500000920E-02 0.  1.
        2   -1    0    0  501    0  0.00000000000E+00  0.00000000000E+00 -0.24686158860E+04  0.24686158860E+04  0.25500000920E-02 0. -1.
    10030    2    1    2    0    0  0.00000000000E+00  0.00000000000E+00 -0.92558310033E+03  0.40116486716E+04  0.39034114552E+04 0.  0.
        3    1    3    3  502    0 -0.10963813552E+04 -0.46263608829E+03 -0.20526422867E+04  0.23726408480E+04  0.10100000352E+00 0. -1.
       -3    1    3    3    0  502  0.10963813552E+04  0.46263608829E+03  0.11270591864E+04  0.16390078236E+04  0.10100000352E+00 0.  1.
</event>
<event>
 5   0  0.1187925E-07  0.3908443E+04  0.7818609E-02  0.8023275E-01
        1   -1    0    0  501    0  0.00000000000E+00  0.00000000000E+00  0.15950151697E+04  0.15950151697E+04  0.50400001928E-02 0.  1.
       -1   -1    0    0    0  501  0.00000000000E+00  0.00000000000E+00 -0.23943234304E+04  0.23943234304E+04  0.50400001928E-02 0. -1.
    10030    2    1    2    0    0  0.00000000000E+00  0.00000000000E+00 -0.79930826069E+03  0.39893386001E+04  0.39084432669E+04 0.  0.
        4    1    3    3  502    0 -0.19083569369E+04 -0.12262707363E+03  0.11317025419E+02  0.19123266682E+04  0.12699999809E+01 0. -1.
       -4    1    3    3    0  502  0.19083569369E+04  0.12262707363E+03 -0.81062528611E+03  0.20770119319E+04  0.12699999809E+01 0.  1.
</event>
<event>
 5   0  0.3665303E-07  0.3877238E+04  0.7818609E-02  0.8029780E-01
       -2   -1    0    0    0  501  0.00000000000E+00  0.00000000000E+00  0.24784717423E+04  0.24784717423E+04  0.25500000920E-02 0. -1.
        2   -1    0    0  501    0  0.00000000000E+00  0.00000000000E+00 -0.15163550231E+04  0.15163550231E+04  0.25500000920E-02 0.  1.
    10030    2    1    2    0    0  0.00000000000E+00  0.00000000000E+00  0.96211671919E+03  0.39948267655E+04  0.38772377158E+04 0.  0.
        2    1    3    3  502    0  0.10597296694E+04  0.10916643869E+04  0.17189472220E+04  0.22955473547E+04  0.25500000920E-02 0. -1.
       -2    1    3    3    0  502 -0.10597296694E+04 -0.10916643869E+04 -0.75683050279E+03  0.16992794107E+04  0.25500000920E-02 0.  1.
</event>
<event>
 5   0  0.1187925E-07  0.3902698E+04  0.7818609E-02  0.8024468E-01
        1   -1    0    0  501    0  0.00000000000E+00  0.00000000000E+00  0.18871768488E+04  0.18871768488E+04  0.50400001928E-02 0.  1.
       -1   -1    0    0    0  501  0.00000000000E+00  0.00000000000E+00 -0.20177034057E+04  0.20177034057E+04  0.50400001928E-02 0. -1.
    10030    2    1    2    0    0  0.00000000000E+00  0.00000000000E+00 -0.13052655684E+03  0.39048802545E+04  0.39026981205E+04 0.  0.
        4    1    3    3  502    0 -0.15859149194E+03  0.97462307552E+03  0.16187464518E+04  0.18961495428E+04  0.12699999809E+01 0.  1.
       -4    1    3    3    0  502  0.15859149194E+03 -0.97462307552E+03 -0.17492730086E+04  0.20087307117E+04  0.12699999809E+01 0. -1.
</event>
<event>
 5   0  0.1187925E-07  0.3831543E+04  0.7818609E-02  0.8039420E-01
       -1   -1    0    0    0  501  0.00000000000E+00  0.00000000000E+00  0.17671692465E+04  0.17671692465E+04  0.50400001928E-02 0.  1.
        1   -1    0    0  501    0  0.00000000000E+00  0.00000000000E+00 -0.20768693786E+04  0.20768693787E+04  0.50400001928E-02 0. -1.
    10030    2    1    2    0    0  0.00000000000E+00  0.00000000000E+00 -0.30970013211E+03  0.38440386252E+04  0.38315426110E+04 0.  0.
        4    1    3    3  502    0 -0.11540725041E+04  0.20196715616E+03  0.13658452970E+04  0.17995024493E+04  0.12699999809E+01 0.  1.
       -4    1    3    3    0  502  0.11540725041E+04 -0.20196715616E+03 -0.16755454291E+04  0.20445361759E+04  0.12699999809E+01 0. -1.
</event>
<event>
 5   0  0.1187925E-07  0.3832128E+04  0.7818609E-02  0.8039295E-01
        1   -1    0    0  501    0  0.00000000000E+00  0.00000000000E+00  0.15188496673E+04  0.15188496673E+04  0.50400001928E-02 0. -1.
       -1   -1    0    0    0  501  0.00000000000E+00  0.00000000000E+00 -0.24171586117E+04  0.24171586117E+04  0.50400001928E-02 0.  1.
    10030    2    1    2    0    0  0.00000000000E+00  0.00000000000E+00 -0.89830894444E+03  0.39360082791E+04  0.38321276353E+04 0.  0.
        2    1    3    3  502    0  0.45084337968E+03 -0.10517024705E+04 -0.20276834414E+04  0.23282693096E+04  0.25500000920E-02 0.  1.
       -2    1    3    3    0  502 -0.45084337968E+03  0.10517024705E+04  0.11293744970E+04  0.16077389694E+04  0.25500000920E-02 0. -1.
</event>
<event>
 5   0  0.3665303E-07  0.2964301E+04  0.7818609E-02  0.8253999E-01
        2   -1    0    0  501    0  0.00000000000E+00  0.00000000000E+00  0.21442699763E+04  0.21442699763E+04  0.25500000920E-02 0. -1.
       -2   -1    0    0    0  501  0.00000000000E+00  0.00000000000E+00 -0.10244839942E+04  0.10244839942E+04  0.25500000920E-02 0.  1.
    10030    2    1    2    0    0  0.00000000000E+00  0.00000000000E+00  0.11197859821E+04  0.31687539705E+04  0.29643011116E+04 0.  0.
        2    1    3    3  502    0  0.84487042466E+02 -0.10821094460E+04 -0.51901212214E+03  0.12031095113E+04  0.25500000920E-02 0.  1.
       -2    1    3    3    0  502 -0.84487042466E+02  0.10821094460E+04  0.16387981043E+04  0.19656444592E+04  0.25500000920E-02 0. -1.
</event>
<event>
 5   0  0.3680814E-07  0.3834706E+04  0.7818609E-02  0.8038748E-01
        2   -1    0    0  501    0  0.00000000000E+00  0.00000000000E+00  0.29334872667E+04  0.29334872667E+04  0.25500000920E-02 0. -1.
       -2   -1    0    0    0  501  0.00000000000E+00  0.00000000000E+00 -0.12531985724E+04  0.12531985724E+04  0.25500000920E-02 0.  1.
    10030    2    1    2    0    0  0.00000000000E+00  0.00000000000E+00  0.16802886943E+04  0.41866858391E+04  0.38347057540E+04 0.  0.
        1    1    3    3  502    0  0.12872811930E+04 -0.96520659153E+03  0.19787098918E+04  0.25502959573E+04  0.50400001928E-02 0. -1.
       -1    1    3    3    0  502 -0.12872811930E+04  0.96520659153E+03 -0.29842119749E+03  0.16363898818E+04  0.50400001928E-02 0.  1.
</event>
<event>
 5   0  0.3832389E-07  0.3459319E+04  0.7818609E-02  0.8123499E-01
       -2   -1    0    0    0  501  0.00000000000E+00  0.00000000000E+00  0.14567051070E+04  0.14567051070E+04  0.25500000920E-02 0. -1.
        2   -1    0    0  501    0  0.00000000000E+00  0.00000000000E+00 -0.20537590471E+04  0.20537590471E+04  0.25500000920E-02 0.  1.
    10030    2    1    2    0    0  0.00000000000E+00  0.00000000000E+00 -0.59705394011E+03  0.35104641540E+04  0.34593185990E+04 0.  0.
        5    1    3    3  502    0 -0.11322714481E+04 -0.12298148174E+04 -0.74918295948E+03  0.18318789027E+04  0.46999998093E+01 0.  1.
       -5    1    3    3    0  502  0.11322714481E+04  0.12298148174E+04  0.15212901937E+03  0.16785852513E+04  0.46999998093E+01 0. -1.
</event>
<event>
 5   0  0.3680814E-07  0.3907879E+04  0.7818609E-02  0.8023392E-01
        2   -1    0    0  501    0  0.00000000000E+00  0.00000000000E+00  0.23899362075E+04  0.23899362075E+04  0.25500000920E-02 0. -1.
       -2   -1    0    0    0  501  0.00000000000E+00  0.00000000000E+00 -0.15974818988E+04  0.15974818988E+04  0.25500000920E-02 0.  1.
    10030    2    1    2    0    0  0.00000000000E+00  0.00000000000E+00  0.79245430871E+03  0.39874181064E+04  0.39078791337E+04 0.  0.
        1    1    3    3  502    0 -0.69523343299E+03  0.10087594856E+04  0.19493561997E+04  0.23023759076E+04  0.50400001928E-02 0. -1.
       -1    1    3    3    0  502  0.69523343299E+03 -0.10087594856E+04 -0.11569018910E+04  0.16850421988E+04  0.50400001928E-02 0.  1.
</event>
<event>
 5   0  0.1187925E-07  0.2939165E+04  0.7818609E-02  0.8261319E-01
       -1   -1    0    0    0  501  0.00000000000E+00  0.00000000000E+00  0.17192940934E+04  0.17192940934E+04  0.50400001928E-02 0. -1.
        1   -1    0    0  501    0  0.00000000000E+00  0.00000000000E+00 -0.12561395449E+04  0.12561395449E+04  0.50400001928E-02 0.  1.
    10030    2    1    2    0    0  0.00000000000E+00  0.00000000000E+00  0.46315454850E+03  0.29754336384E+04  0.29391653918E+04 0.  0.
        1    1    3    3  502    0 -0.14337818594E+04  0.19419097860E+03  0.49211019944E+03  0.15282712472E+04  0.50400001928E-02 0. -1.
       -1    1    3    3    0  502  0.14337818594E+04 -0.19419097860E+03 -0.28955650940E+02  0.14471623912E+04  0.50400001928E-02 0.  1.
</event>
<event>
 5   0  0.3832389E-07  0.3930633E+04  0.7818609E-02  0.8018688E-01
       -2   -1    0    0    0  501  0.00000000000E+00  0.00000000000E+00  0.17477720598E+04  0.17477720598E+04  0.25500000920E-02 0. -1.
        2   -1    0    0  501    0  0.00000000000E+00  0.00000000000E+00 -0.22099381489E+04  0.22099381489E+04  0.25500000920E-02 0.  1.
    10030    2    1    2    0    0  0.00000000000E+00  0.00000000000E+00 -0.46216608907E+03  0.39577102087E+04  0.39306325957E+04 0.  0.
        5    1    3    3  502    0  0.11632963022E+04 -0.10738750375E+03 -0.18223675174E+04  0.21646791498E+04  0.46999998093E+01 0.  1.
       -5    1    3    3    0  502 -0.11632963022E+04  0.10738750375E+03  0.13602014284E+04  0.17930310590E+04  0.46999998093E+01 0. -1.
</event>
<event>
 5   0  0.3610483E-07  0.2845916E+04  0.7818609E-02  0.8289153E-01
       -2   -1    0    0    0  501  0.00000000000E+00  0.00000000000E+00  0.85399263482E+03  0.85399263482E+03  0.25500000920E-02 0.  1.
        2   -1    0    0  501    0  0.00000000000E+00  0.00000000000E+00 -0.23709917201E+04  0.23709917201E+04  0.25500000920E-02 0. -1.
    10030    2    1    2    0    0  0.00000000000E+00  0.00000000000E+00 -0.15169990853E+04  0.32249843549E+04  0.28459159975E+04 0.  0.
        4    1    3    3  502    0 -0.39271841343E+03  0.91381640315E+03 -0.19116466508E+04  0.21549205789E+04  0.12699999809E+01 0. -1.
       -4    1    3    3    0  502  0.39271841343E+03 -0.91381640315E+03  0.39464756551E+03  0.10700637760E+04  0.12699999809E+01 0.  1.
</event>
<event>
 5   0  0.3610483E-07  0.3922323E+04  0.7818609E-02  0.8020402E-01
        2   -1    0    0  501    0  0.00000000000E+00  0.00000000000E+00  0.23023019081E+04  0.23023019081E+04  0.25500000920E-02 0. -1.
       -2   -1    0    0    0  501  0.00000000000E+00  0.00000000000E+00 -0.16705687781E+04  0.16705687781E+04  0.25500000920E-02 0.  1.
    10030    2    1    2    0    0  0.00000000000E+00  0.00000000000E+00  0.63173313000E+03  0.39728706863E+04  0.39223226209E+04 0.  0.
        4    1    3    3  502    0 -0.37999749572E+03  0.70753793113E+03 -0.14963651465E+04  0.16982692029E+04  0.12699999809E+01 0.  1.
       -4    1    3    3    0  502  0.37999749572E+03 -0.70753793113E+03  0.21280982765E+04  0.22746014834E+04  0.12699999809E+01 0. -1.
</event>
<event>
 5   0  0.1187925E-07  0.3929006E+04  0.7818609E-02  0.8019023E-01
       -1   -1    0    0    0  501  0.00000000000E+00  0.00000000000E+00  0.14178063721E+04  0.14178063721E+04  0.50400001928E-02 0. -1.
        1   -1    0    0  501    0  0.00000000000E+00  0.00000000000E+00 -0.27220025208E+04  0.27220025208E+04  0.50400001928E-02 0.  1.
    10030    2    1    2    0    0  0.00000000000E+00  0.00000000000E+00 -0.13041961487E+04  0.41398088929E+04  0.39290062453E+04 0.  0.
        2    1    3    3  502    0  0.12147855784E+04 -0.28298397742E+03 -0.22512532437E+04  0.25736987198E+04  0.25500000920E-02 0.  1.
       -2    1    3    3    0  502 -0.12147855784E+04  0.28298397742E+03  0.94705709506E+03  0.15661101731E+04  0.25500000920E-02 0. -1.
</event>
<event>
 5   0  0.1187925E-07  0.3394292E+04  0.7818609E-02  0.8139309E-01
       -1   -1    0    0    0  501  0.00000000000E+00  0.00000000000E+00  0.95085097465E+03  0.95085097466E+03  0.50400001928E-02 0. -1.
        1   -1    0    0  501    0  0.00000000000E+00  0.00000000000E+00 -0.30291853626E+04  0.30291853626E+04  0.50400001928E-02 0.  1.
    10030    2    1    2    0    0  0.00000000000E+00  0.00000000000E+00 -0.20783343879E+04  0.39800363372E+04  0.33942915929E+04 0.  0.
        3    1    3    3  502    0  0.38804982234E+03  0.17753387032E+03  0.88691666344E+03  0.98423681999E+03  0.10100000352E+00 0. -1.
       -3    1    3    3    0  502 -0.38804982234E+03 -0.17753387032E+03 -0.29652510514E+04  0.29957995172E+04  0.10100000352E+00 0.  1.
</event>
<event>
 5   0  0.1187925E-07  0.3892577E+04  0.7818609E-02  0.8026575E-01
       -1   -1    0    0    0  501  0.00000000000E+00  0.00000000000E+00  0.13397165459E+04  0.13397165459E+04  0.50400001928E-02 0.  1.
        1   -1    0    0  501    0  0.00000000000E+00  0.00000000000E+00 -0.28274932165E+04  0.28274932165E+04  0.50400001928E-02 0. -1.
    10030    2    1    2    0    0  0.00000000000E+00  0.00000000000E+00 -0.14877766707E+04  0.41672097624E+04  0.38925772673E+04 0.  0.
        5    1    3    3  502    0  0.87086555831E+03 -0.16979691292E+04 -0.33411491369E+03  0.19373076292E+04  0.46999998093E+01 0. -1.
       -5    1    3    3    0  502 -0.87086555831E+03  0.16979691292E+04 -0.11536617570E+04  0.22299021333E+04  0.46999998093E+01 0.  1.
</event>
<event>
 5   0  0.3610483E-07  0.3789431E+04  0.7818609E-02  0.8048427E-01
       -2   -1    0    0    0  501  0.00000000000E+00  0.00000000000E+00  0.20201208302E+04  0.20201208302E+04  0.25500000920E-02 0.  1.
        2   -1    0    0  501    0  0.00000000000E+00  0.00000000000E+00 -0.17770948437E+04  0.17770948437E+04  0.25500000920E-02 0. -1.
    10030    2    1    2    0    0  0.00000000000E+00  0.00000000000E+00  0.24302598655E+03  0.37972156739E+04  0.37894307283E+04 0.  0.
        4    1    3    3  502    0  0.15575779615E+04  0.10787981139E+04  0.13103101533E+03  0.18992170009E+04  0.12699999809E+01 0.  1.
       -4    1    3    3    0  502 -0.15575779615E+04 -0.10787981139E+04  0.11199497121E+03  0.18979986731E+04  0.12699999809E+01 0. -1.
</event>
<event>
 5   0  0.3832389E-07  0.4001514E+04  0.7818609E-02  0.8004241E-01
        2   -1    0    0  501    0  0.00000000000E+00  0.00000000000E+00  0.25038801852E+04  0.25038801852E+04  0.25500000920E-02 0. -1.
       -2   -1    0    0    0  501  0.00000000000E+00  0.00000000000E+00 -0.15987301580E+04  0.15987301580E+04  0.25500000920E-02 0.  1.
    10030    2    1    2    0    0  0.00000000000E+00  0.00000000000E+00  0.90515002723E+03  0.41026103431E+04  0.40015140954E+04 0.  0.
        5    1    3    3  502    0 -0.32292579416E+03  0.16880049358E+04 -0.59769071692E+03  0.18195873200E+04  0.46999998093E+01 0.  1.
       -5    1    3    3    0  502  0.32292579416E+03 -0.16880049358E+04  0.15028407441E+04  0.22830230231E+04  0.46999998093E+01 0. -1.
</event>
<event>
 5   0  0.3680814E-07  0.3884081E+04  0.7818609E-02  0.8028348E-01
       -2   -1    0    0    0  501  0.00000000000E+00  0.00000000000E+00  0.16648956839E+04  0.16648956839E+04  0.25500000920E-02 0.  1.
        2   -1    0    0  501    0  0.00000000000E+00  0.00000000000E+00 -0.22653203962E+04  0.22653203962E+04  0.25500000920E-02 0. -1.
    10030    2    1    2    0    0  0.00000000000E+00  0.00000000000E+00 -0.60042471230E+03  0.39302160802E+04  0.38840814361E+04 0.  0.
        1    1    3    3  502    0  0.40861506328E+02  0.15829626797E+04 -0.14378806726E+04  0.21389112503E+04  0.50400001928E-02 0. -1.
       -1    1    3    3    0  502 -0.40861506328E+02 -0.15829626797E+04  0.83745596025E+03  0.17913048299E+04  0.50400001928E-02 0.  1.
</event>
<event>
 5   0  0.3680814E-07  0.3895946E+04  0.7818609E-02  0.8025873E-01
       -2   -1    0    0    0  501  0.00000000000E+00  0.00000000000E+00  0.16084848893E+04  0.16084848893E+04  0.25500000920E-02 0. -1.
        2   -1    0    0  501    0  0.00000000000E+00  0.00000000000E+00 -0.23591138551E+04  0.23591138551E+04  0.25500000920E-02 0.  1.
    10030    2    1    2    0    0  0.00000000000E+00  0.00000000000E+00 -0.75062896580E+03  0.39675987444E+04  0.38959460921E+04 0.  0.
        1    1    3    3  502    0  0.19349119855E+04  0.74998885169E+02 -0.15906564367E+03  0.19428873110E+04  0.50400001928E-02 0. -1.
       -1    1    3    3    0  502 -0.19349119855E+04 -0.74998885169E+02 -0.59156332213E+03  0.20247114334E+04  0.50400001928E-02 0.  1.
</event>
<event>
 5   0  0.1187925E-07  0.3814792E+04  0.7818609E-02  0.8042988E-01
        3   -1    0    0  501    0  0.00000000000E+00  0.00000000000E+00  0.17858742851E+04  0.17858742880E+04  0.10100000352E+00 0.  1.
       -3   -1    0    0    0  501  0.00000000000E+00  0.00000000000E+00 -0.20371873095E+04  0.20371873120E+04  0.10100000352E+00 0. -1.
    10030    2    1    2    0    0  0.00000000000E+00  0.00000000000E+00 -0.25131302433E+03  0.38230616000E+04  0.38147924925E+04 0.  0.
        3    1    3    3  502    0 -0.82481699021E+02 -0.86143851015E+03 -0.18291295311E+04  0.20235104124E+04  0.10100000352E+00 0. -1.
       -3    1    3    3    0  502  0.82481699021E+02  0.86143851015E+03  0.15778165068E+04  0.17995511876E+04  0.10100000352E+00 0.  1.
</event>
<event>
 5   0  0.1187925E-07  0.3400795E+04  0.7818609E-02  0.8137711E-01
        3   -1    0    0  501    0  0.00000000000E+00  0.00000000000E+00  0.96853949763E+03  0.96853950289E+03  0.10100000352E+00 0.  1.
       -3   -1    0    0    0  501  0.00000000000E+00  0.00000000000E+00 -0.29852690006E+04  0.29852690023E+04  0.10100000352E+00 0. -1.
    10030    2    1    2    0    0  0.00000000000E+00  0.00000000000E+00 -0.20167295029E+04  0.39538085052E+04  0.34007945847E+04 0.  0.
        3    1    3    3  502    0  0.12362858683E+04 -0.83149950312E+03 -0.19611095723E+04  0.24628733091E+04  0.10100000352E+00 0.  1.
       -3    1    3    3    0  502 -0.12362858683E+04  0.83149950312E+03 -0.55619930640E+02  0.14909351961E+04  0.10100000352E+00 0. -1.
</event>
<event>
 5   0  0.3610483E-07  0.3376659E+04  0.7818609E-02  0.8143659E-01
        2   -1    0    0  501    0  0.00000000000E+00  0.00000000000E+00  0.29829311454E+04  0.29829311454E+04  0.25500000920E-02 0.  1.
       -2   -1    0    0    0  501  0.00000000000E+00  0.00000000000E+00 -0.95558909802E+03  0.95558909802E+03  0.25500000920E-02 0. -1.
    10030    2    1    2    0    0  0.00000000000E+00  0.00000000000E+00  0.20273420474E+04  0.39385202434E+04  0.33766589894E+04 0.  0.
        4    1    3    3  502    0  0.12655975988E+04 -0.10934867959E+04  0.74513591000E+03  0.18310324388E+04  0.12699999809E+01 0. -1.
       -4    1    3    3    0  502 -0.12655975988E+04  0.10934867959E+04  0.12822061374E+04  0.21074878046E+04  0.12699999809E+01 0.  1.
</event>
<event>
 5   0  0.1187925E-07  0.3894572E+04  0.7818609E-02  0.8026159E-01
       -1   -1    0    0    0  501  0.00000000000E+00  0.00000000000E+00  0.20080924356E+04  0.20080924356E+04  0.50400001928E-02 0.  1.
        1   -1    0    0  501    0  0.00000000000E+00  0.00000000000E+00 -0.18883206795E+04  0.18883206795E+04  0.50400001928E-02 0. -1.
    10030    2    1    2    0    0  0.00000000000E+00  0.00000000000E+00  0.11977175612E+03  0.38964131151E+04  0.38945718493E+04 0.  0.
        4    1    3    3  502    0 -0.15650742881E+03  0.19037516920E+04 -0.31865232761E+03  0.19365706800E+04  0.12699999809E+01 0. -1.
       -4    1    3    3    0  502  0.15650742881E+03 -0.19037516920E+04  0.43842408372E+03  0.19598424350E+04  0.12699999809E+01 0.  1.
</event>
<event>
 5   0  0.3610483E-07  0.3959875E+04  0.7818609E-02  0.8012690E-01
        2   -1    0    0  501    0  0.00000000000E+00  0.00000000000E+00  0.21438997024E+04  0.21438997024E+04  0.25500000920E-02 0. -1.
       -2   -1    0    0    0  501  0.00000000000E+00  0.00000000000E+00 -0.18285146290E+04  0.18285146290E+04  0.25500000920E-02 0.  1.
    10030    2    1    2    0    0  0.00000000000E+00  0.00000000000E+00  0.31538507336E+03  0.39724143314E+04  0.39598747298E+04 0.  0.
        4    1    3    3  502    0  0.12624796348E+04 -0.30799713788E+03 -0.13408361003E+04  0.18672332811E+04  0.12699999809E+01 0.  1.
       -4    1    3    3    0  502 -0.12624796348E+04  0.30799713788E+03  0.16562211737E+04  0.21051810502E+04  0.12699999809E+01 0. -1.
</event>
<event>
 5   0  0.1187925E-07  0.3837884E+04  0.7818609E-02  0.8038074E-01
        1   -1    0    0  501    0  0.00000000000E+00  0.00000000000E+00  0.28962003536E+04  0.28962003536E+04  0.50400001928E-02 0.  1.
       -1   -1    0    0    0  501  0.00000000000E+00  0.00000000000E+00 -0.12714380211E+04  0.12714380211E+04  0.50400001928E-02 0. -1.
    10030    2    1    2    0    0  0.00000000000E+00  0.00000000000E+00  0.16247623325E+04  0.41676383747E+04  0.38378844414E+04 0.  0.
        3    1    3    3  502    0 -0.17979035040E+04 -0.45413197963E+03  0.27636472850E+03  0.18748520843E+04  0.10100000352E+00 0. -1.
       -3    1    3    3    0  502  0.17979035040E+04  0.45413197963E+03  0.13483976040E+04  0.22927862904E+04  0.10100000352E+00 0.  1.
</event>
<event>
 5   0  0.1187925E-07  0.3403855E+04  0.7818609E-02  0.8136961E-01
       -1   -1    0    0    0  501  0.00000000000E+00  0.00000000000E+00  0.15971211761E+04  0.15971211761E+04  0.50400001928E-02 0.  1.
        1   -1    0    0  501    0  0.00000000000E+00  0.00000000000E+00 -0.18136118838E+04  0.18136118838E+04  0.50400001928E-02 0. -1.
    10030    2    1    2    0    0  0.00000000000E+00  0.00000000000E+00 -0.21649070774E+03  0.34107330599E+04  0.34038554287E+04 0.  0.
        4    1    3    3  502    0 -0.10848976275E+03 -0.10441713524E+04  0.12340480230E+04  0.16201666512E+04  0.12699999809E+01 0.  1.
       -4    1    3    3    0  502  0.10848976275E+03  0.10441713524E+04 -0.14505387308E+04  0.17905664087E+04  0.12699999809E+01 0. -1.
</event>
<event>
 5   0  0.1187925E-07  0.3841811E+04  0.7818609E-02  0.8037241E-01
       -1   -1    0    0    0  501  0.00000000000E+00  0.00000000000E+00  0.15467531371E+04  0.15467531371E+04  0.50400001928E-02 0. -1.
        1   -1    0    0  501    0  0.00000000000E+00  0.00000000000E+00 -0.23855633573E+04  0.23855633573E+04  0.50400001928E-02 0.  1.
    10030    2    1    2    0    0  0.00000000000E+00  0.00000000000E+00 -0.83881022027E+03  0.39323164944E+04  0.38418108265E+04 0.  0.
        2    1    3    3  502    0  0.13852542786E+04  0.44344299205E+03  0.86486724336E+03  0.16922075677E+04  0.25500000920E-02 0. -1.
       -2    1    3    3    0  502 -0.13852542786E+04 -0.44344299205E+03 -0.17036774636E+04  0.22401089267E+04  0.25500000920E-02 0.  1.
</event>
<event>
 5   0  0.3680814E-07  0.3919733E+04  0.7818609E-02  0.8020938E-01
        2   -1    0    0  501    0  0.00000000000E+00  0.00000000000E+00  0.15032421700E+04  0.15032421700E+04  0.25500000920E-02 0. -1.
       -2   -1    0    0    0  501  0.00000000000E+00  0.00000000000E+00 -0.25551943987E+04  0.25551943987E+04  0.25500000920E-02 0.  1.
    10030    2    1    2    0    0  0.00000000000E+00  0.00000000000E+00 -0.10519522287E+04  0.40584365687E+04  0.39197326300E+04 0.  0.
        1    1    3    3  502    0  0.14417715152E+04 -0.13259080177E+04 -0.45777568822E+03  0.20115406420E+04  0.50400001928E-02 0.  1.
       -1    1    3    3    0  502 -0.14417715152E+04  0.13259080177E+04 -0.59417654044E+03  0.20468959267E+04  0.50400001928E-02 0. -1.
</event>
<event>
 5   0  0.1187925E-07  0.3522233E+04  0.7818609E-02  0.8108541E-01
       -1   -1    0    0    0  501  0.00000000000E+00  0.00000000000E+00  0.97946591611E+03  0.97946591612E+03  0.50400001928E-02 0. -1.
        1   -1    0    0  501    0  0.00000000000E+00  0.00000000000E+00 -0.31665527823E+04  0.31665527823E+04  0.50400001928E-02 0.  1.
    10030    2    1    2    0    0  0.00000000000E+00  0.00000000000E+00 -0.21870868662E+04  0.41460186984E+04  0.35222325431E+04 0.  0.
        3    1    3    3  502    0  0.15499975567E+04 -0.40742945194E+03 -0.23414836458E+03  0.16196655985E+04  0.10100000352E+00 0. -1.
       -3    1    3    3    0  502 -0.15499975567E+04  0.40742945194E+03 -0.19529385016E+04  0.25263530999E+04  0.10100000352E+00 0.  1.
</event>
<event>
 5   0  0.3680814E-07  0.3935371E+04  0.7818609E-02  0.8017713E-01
        2   -1    0    0  501    0  0.00000000000E+00  0.00000000000E+00  0.30581007680E+04  0.30581007680E+04  0.25500000920E-02 0.  1.
       -2   -1    0    0    0  501  0.00000000000E+00  0.00000000000E+00 -0.12660752805E+04  0.12660752805E+04  0.25500000920E-02 0. -1.
    10030    2    1    2    0    0  0.00000000000E+00  0.00000000000E+00  0.17920254875E+04  0.43241760484E+04  0.39353707767E+04 0.  0.
        1    1    3    3  502    0  0.19004050242E+04  0.27257231256E+03  0.13698364802E+04  0.23584501063E+04  0.50400001928E-02 0. -1.
       -1    1    3    3    0  502 -0.19004050242E+04 -0.27257231256E+03  0.42218900736E+03  0.19657259421E+04  0.50400001928E-02 0.  1.
</event>
<event>
 5   0  0.3665303E-07  0.3649972E+04  0.7818609E-02  0.8079140E-01
        2   -1    0    0  501    0  0.00000000000E+00  0.00000000000E+00  0.22377288285E+04  0.22377288285E+04  0.25500000920E-02 0.  1.
       -2   -1    0    0    0  501  0.00000000000E+00  0.00000000000E+00 -0.14883724362E+04  0.14883724362E+04  0.25500000920E-02 0. -1.
    10030    2    1    2    0    0  0.00000000000E+00  0.00000000000E+00  0.74935639234E+03  0.37261012647E+04  0.36499720043E+04 0.  0.
        2    1    3    3  502    0 -0.11433275837E+04  0.11085885532E+04 -0.53520731813E+03  0.16800635158E+04  0.25500000920E-02 0.  1.
       -2    1    3    3    0  502  0.11433275837E+04 -0.11085885532E+04  0.12845637105E+04  0.20460377489E+04  0.25500000920E-02 0. -1.
</event>
<event>
 5   0  0.3610483E-07  0.3800823E+04  0.7818609E-02  0.8045978E-01
        2   -1    0    0  501    0  0.00000000000E+00  0.00000000000E+00  0.21791838963E+04  0.21791838963E+04  0.25500000920E-02 0. -1.
       -2   -1    0    0    0  501  0.00000000000E+00  0.00000000000E+00 -0.16573012441E+04  0.16573012441E+04  0.25500000920E-02 0.  1.
    10030    2    1    2    0    0  0.00000000000E+00  0.00000000000E+00  0.52188265221E+03  0.38364851404E+04  0.38008231648E+04 0.  0.
        4    1    3    3  502    0 -0.15691221888E+04 -0.10254772939E+04 -0.54746151917E+02  0.18752991435E+04  0.12699999809E+01 0. -1.
       -4    1    3    3    0  502  0.15691221888E+04  0.10254772939E+04  0.57662880413E+03  0.19611859969E+04  0.12699999809E+01 0.  1.
</event>
<event>
 5   0  0.1187925E-07  0.3924248E+04  0.7818609E-02  0.8020005E-01
        1   -1    0    0  501    0  0.00000000000E+00  0.00000000000E+00  0.14569594004E+04  0.14569594004E+04  0.50400001928E-02 0.  1.
       -1   -1    0    0    0  501  0.00000000000E+00  0.00000000000E+00 -0.26424413490E+04  0.26424413490E+04  0.50400001928E-02 0. -1.
    10030    2    1    2    0    0  0.00000000000E+00  0.00000000000E+00 -0.11854819486E+04  0.40994007495E+04  0.39242475781E+04 0.  0.
        4    1    3    3  502    0  0.81296364571E+03  0.53093814840E+03 -0.23738712122E+04  0.25647751074E+04  0.12699999809E+01 0. -1.
       -4    1    3    3    0  502 -0.81296364571E+03 -0.53093814840E+03  0.11883892636E+04  0.15346256421E+04  0.12699999809E+01 0.  1.
</event>
<event>
 5   0  0.1187925E-07  0.4147980E+04  0.7818609E-02  0.7975342E-01
       -1   -1    0    0    0  501  0.00000000000E+00  0.00000000000E+00  0.26265473094E+04  0.26265473094E+04  0.50400001928E-02 0.  1.
        1   -1    0    0  501    0  0.00000000000E+00  0.00000000000E+00 -0.16376764714E+04  0.16376764714E+04  0.50400001928E-02 0. -1.
    10030    2    1    2    0    0  0.00000000000E+00  0.00000000000E+00  0.98887083797E+03  0.42642237809E+04  0.41479801011E+04 0.  0.
        1    1    3    3  502    0  0.14268423103E+04 -0.94215087141E+01  0.20417627347E+04  0.24909361309E+04  0.50400001928E-02 0.  1.
       -1    1    3    3    0  502 -0.14268423103E+04  0.94215087141E+01 -0.10528918968E+04  0.17732876500E+04  0.50400001928E-02 0. -1.
</event>
<event>
 5   0  0.3610483E-07  0.3917194E+04  0.7818609E-02  0.8021463E-01
       -2   -1    0    0    0  501  0.00000000000E+00  0.00000000000E+00  0.30125495075E+04  0.30125495075E+04  0.25500000920E-02 0. -1.
        2   -1    0    0  501    0  0.00000000000E+00  0.00000000000E+00 -0.12733739052E+04  0.12733739052E+04  0.25500000920E-02 0.  1.
    10030    2    1    2    0    0  0.00000000000E+00  0.00000000000E+00  0.17391756023E+04  0.42859234127E+04  0.39171938584E+04 0.  0.
        4    1    3    3  502    0  0.30671997064E+03  0.24348194030E+03  0.29692762273E+04  0.29949897366E+04  0.12699999809E+01 0. -1.
       -4    1    3    3    0  502 -0.30671997064E+03 -0.24348194030E+03 -0.12301006250E+04  0.12909336761E+04  0.12699999809E+01 0.  1.
</event>
<event>
 5   0  0.3810833E-07  0.3861207E+04  0.7818609E-02  0.8033146E-01
       -2   -1    0    0    0  501  0.00000000000E+00  0.00000000000E+00  0.17071972321E+04  0.17071972321E+04  0.25500000920E-02 0.  1.
        2   -1    0    0  501    0  0.00000000000E+00  0.00000000000E+00 -0.21832455775E+04  0.21832455775E+04  0.25500000920E-02 0. -1.
    10030    2    1    2    0    0  0.00000000000E+00  0.00000000000E+00 -0.47604834539E+03  0.38904428095E+04  0.38612074830E+04 0.  0.
        3    1    3    3  502    0 -0.12427494118E+04 -0.14542360102E+04  0.24722829602E+02  0.19130707520E+04  0.10100000352E+00 0. -1.
       -3    1    3    3    0  502  0.12427494118E+04  0.14542360102E+04 -0.50077117500E+03  0.19773720575E+04  0.10100000352E+00 0.  1.
</event>
<event>
 5   0  0.1187925E-07  0.3888526E+04  0.7818609E-02  0.8027420E-01
       -1   -1    0    0    0  501  0.00000000000E+00  0.00000000000E+00  0.14649150577E+04  0.14649150577E+04  0.50400001928E-02 0. -1.
        1   -1    0    0  501    0  0.00000000000E+00  0.00000000000E+00 -0.25804623017E+04  0.25804623017E+04  0.50400001928E-02 0.  1.
    10030    2    1    2    0    0  0.00000000000E+00  0.00000000000E+00 -0.11155472440E+04  0.40453773594E+04  0.38885257266E+04 0.  0.
        2    1    3    3  502    0  0.13662631053E+04  0.57300594217E+03  0.75203814934E+03  0.16614969337E+04  0.25500000920E-02 0. -1.
       -2    1    3    3    0  502 -0.13662631053E+04 -0.57300594217E+03 -0.18675853933E+04  0.23838804257E+04  0.25500000920E-02 0.  1.
</event>
<event>
 5   0  0.1187925E-07  0.3944999E+04  0.7818609E-02  0.8015735E-01
        1   -1    0    0  501    0  0.00000000000E+00  0.00000000000E+00  0.10777591444E+04  0.10777591444E+04  0.50400001928E-02 0.  1.
       -1   -1    0    0    0  501  0.00000000000E+00  0.00000000000E+00 -0.36100409776E+04  0.36100409776E+04  0.50400001928E-02 0. -1.
    10030    2    1    2    0    0  0.00000000000E+00  0.00000000000E+00 -0.25322818332E+04  0.46878001220E+04  0.39449992017E+04 0.  0.
        3    1    3    3  502    0 -0.19053971238E+03  0.65127909104E+03 -0.34669747691E+04  0.35327586807E+04  0.10100000352E+00 0. -1.
       -3    1    3    3    0  502  0.19053971238E+03 -0.65127909104E+03  0.93469293591E+03  0.11550414413E+04  0.10100000352E+00 0.  1.
</event>
<event>
 5   0  0.3665303E-07  0.3878137E+04  0.7818609E-02  0.8029592E-01
        2   -1    0    0  501    0  0.00000000000E+00  0.00000000000E+00  0.16020430314E+04  0.16020430314E+04  0.25500000920E-02 0.  1.
       -2   -1    0    0    0  501  0.00000000000E+00  0.00000000000E+00 -0.23469946873E+04  0.23469946873E+04  0.25500000920E-02 0. -1.
    10030    2    1    2    0    0  0.00000000000E+00  0.00000000000E+00 -0.74495165596E+03  0.39490377187E+04  0.38781369153E+04 0.  0.
        2    1    3    3  502    0 -0.14331471071E+03 -0.16945117517E+04 -0.13212161184E+04  0.21534904724E+04  0.25500000920E-02 0. -1.
       -2    1    3    3    0  502  0.14331471071E+03  0.16945117517E+04  0.57626446244E+03  0.17955472463E+04  0.25500000920E-02 0.  1.
</event>
<event>
 5   0  0.3610483E-07  0.4040925E+04  0.7818609E-02  0.7996341E-01
       -2   -1    0    0    0  501  0.00000000000E+00  0.00000000000E+00  0.24985870360E+04  0.24985870360E+04  0.25500000920E-02 0. -1.
        2   -1    0    0  501    0  0.00000000000E+00  0.00000000000E+00 -0.16338311826E+04  0.16338311826E+04  0.25500000920E-02 0.  1.
    10030    2    1    2    0    0  0.00000000000E+00  0.00000000000E+00  0.86475585336E+03  0.41324182186E+04  0.40409253454E+04 0.  0.
        4    1    3    3  502    0  0.74135001445E+03 -0.15556640371E+04  0.15110478001E+04  0.22919331376E+04  0.12699999809E+01 0. -1.
       -4    1    3    3    0  502 -0.74135001445E+03  0.15556640371E+04 -0.64629194670E+03  0.18404850810E+04  0.12699999809E+01 0.  1.
</event>
<event>
 5   0  0.1187925E-07  0.3925908E+04  0.7818609E-02  0.8019662E-01
       -1   -1    0    0    0  501  0.00000000000E+00  0.00000000000E+00  0.22831542680E+04  0.22831542680E+04  0.50400001928E-02 0. -1.
        1   -1    0    0  501    0  0.00000000000E+00  0.00000000000E+00 -0.16876601084E+04  0.16876601084E+04  0.50400001928E-02 0.  1.
    10030    2    1    2    0    0  0.00000000000E+00  0.00000000000E+00  0.59549415960E+03  0.39708143763E+04  0.39259079863E+04 0.  0.
        1    1    3    3  502    0  0.92779655030E+03 -0.76346983874E+03  0.18677575581E+04  0.22208581516E+04  0.50400001928E-02 0. -1.
       -1    1    3    3    0  502 -0.92779655030E+03  0.76346983874E+03 -0.12722633985E+04  0.17499562248E+04  0.50400001928E-02 0.  1.
</event>
<event>
 5   0  0.1187925E-07  0.3985142E+04  0.7818609E-02  0.8007551E-01
        1   -1    0    0  501    0  0.00000000000E+00  0.00000000000E+00  0.26358174407E+04  0.26358174407E+04  0.50400001928E-02 0.  1.
       -1   -1    0    0    0  501  0.00000000000E+00  0.00000000000E+00 -0.15063029914E+04  0.15063029914E+04  0.50400001928E-02 0. -1.
    10030    2    1    2    0    0  0.00000000000E+00  0.00000000000E+00  0.11295144492E+04  0.41421204321E+04  0.39851422538E+04 0.  0.
        1    1    3    3  502    0 -0.15171348509E+04 -0.21187522684E+03 -0.75970181726E+03  0.17098935987E+04  0.50400001928E-02 0. -1.
       -1    1    3    3    0  502  0.15171348509E+04  0.21187522684E+03  0.18892162665E+04  0.24322268334E+04  0.50400001928E-02 0.  1.
</event>
<event>
 5   0  0.3810833E-07  0.3861573E+04  0.7818609E-02  0.8033069E-01
       -2   -1    0    0    0  501  0.00000000000E+00  0.00000000000E+00  0.15097722178E+04  0.15097722178E+04  0.25500000920E-02 0.  1.
        2   -1    0    0  501    0  0.00000000000E+00  0.00000000000E+00 -0.24692043663E+04  0.24692043663E+04  0.25500000920E-02 0. -1.
    10030    2    1    2    0    0  0.00000000000E+00  0.00000000000E+00 -0.95943214845E+03  0.39789765841E+04  0.38615728154E+04 0.  0.
        3    1    3    3  502    0 -0.92772989506E+03 -0.13196321394E+04  0.61359181865E+03  0.17258640363E+04  0.10100000352E+00 0.  1.
       -3    1    3    3    0  502  0.92772989506E+03  0.13196321394E+04 -0.15730239671E+04  0.22531125478E+04  0.10100000352E+00 0. -1.
</event>
<event>
 5   0  0.1187925E-07  0.3866473E+04  0.7818609E-02  0.8032039E-01
       -1   -1    0    0    0  501  0.00000000000E+00  0.00000000000E+00  0.18307480467E+04  0.18307480467E+04  0.50400001928E-02 0.  1.
        1   -1    0    0  501    0  0.00000000000E+00  0.00000000000E+00 -0.20414622157E+04  0.20414622157E+04  0.50400001928E-02 0. -1.
    10030    2    1    2    0    0  0.00000000000E+00  0.00000000000E+00 -0.21071416899E+03  0.38722102624E+04  0.38664727925E+04 0.  0.
        4    1    3    3  502    0  0.64195058764E+03 -0.55262466537E+02 -0.19307649710E+04  0.20354384008E+04  0.12699999809E+01 0. -1.
       -4    1    3    3    0  502 -0.64195058764E+03  0.55262466537E+02  0.17200508020E+04  0.18367718616E+04  0.12699999809E+01 0.  1.
</event>
<event>
 5   0  0.1187925E-07  0.3832408E+04  0.7818609E-02  0.8039236E-01
        1   -1    0    0  501    0  0.00000000000E+00  0.00000000000E+00  0.15835052474E+04  0.15835052474E+04  0.50400001928E-02 0. -1.
       -1   -1    0    0    0  501  0.00000000000E+00  0.00000000000E+00 -0.23188032918E+04  0.23188032918E+04  0.50400001928E-02 0.  1.
    10030    2    1    2    0    0  0.00000000000E+00  0.00000000000E+00 -0.73529804447E+03  0.39023085392E+04  0.38324076924E+04 0.  0.
        3    1    3    3  502    0 -0.80130417985E+03 -0.14073397520E+04  0.67531029854E+03  0.17546331741E+04  0.10100000352E+00 0. -1.
       -3    1    3    3    0  502  0.80130417985E+03  0.14073397520E+04 -0.14106083430E+04  0.21476753651E+04  0.10100000352E+00 0.  1.
</event>
<event>
 5   0  0.1187925E-07  0.3882597E+04  0.7818609E-02  0.8028658E-01
        1   -1    0    0  501    0  0.00000000000E+00  0.00000000000E+00  0.17033095486E+04  0.17033095486E+04  0.50400001928E-02 0. -1.
       -1   -1    0    0    0  501  0.00000000000E+00  0.00000000000E+00 -0.22125397679E+04  0.22125397679E+04  0.50400001928E-02 0.  1.
    10030    2    1    2    0    0  0.00000000000E+00  0.00000000000E+00 -0.50923021929E+03  0.39158493166E+04  0.38825971274E+04 0.  0.
        1    1    3    3  502    0  0.34521879697E+03 -0.87274189423E+03 -0.19685176485E+04  0.21808063105E+04  0.50400001928E-02 0.  1.
       -1    1    3    3    0  502 -0.34521879697E+03  0.87274189423E+03  0.14592874292E+04  0.17350430060E+04  0.50400001928E-02 0. -1.
</event>
<event>
 5   0  0.1187925E-07  0.3672509E+04  0.7818609E-02  0.8074082E-01
       -1   -1    0    0    0  501  0.00000000000E+00  0.00000000000E+00  0.19156650121E+04  0.19156650121E+04  0.50400001928E-02 0.  1.
        1   -1    0    0  501    0  0.00000000000E+00  0.00000000000E+00 -0.17601361832E+04  0.17601361832E+04  0.50400001928E-02 0. -1.
    10030    2    1    2    0    0  0.00000000000E+00  0.00000000000E+00  0.15552882884E+03  0.36758011953E+04  0.36725093888E+04 0.  0.
        3    1    3    3  502    0  0.38467373687E+03 -0.12049586627E+04  0.14100969369E+04  0.18942736455E+04  0.10100000352E+00 0.  1.
       -3    1    3    3    0  502 -0.38467373687E+03  0.12049586627E+04 -0.12545681080E+04  0.17815275497E+04  0.10100000352E+00 0. -1.
</event>
<event>
 5   0  0.3832389E-07  0.3808138E+04  0.7818609E-02  0.8044411E-01
        2   -1    0    0  501    0  0.00000000000E+00  0.00000000000E+00  0.23353844915E+04  0.23353844915E+04  0.25500000920E-02 0. -1.
       -2   -1    0    0    0  501  0.00000000000E+00  0.00000000000E+00 -0.15524117995E+04  0.15524117995E+04  0.25500000920E-02 0.  1.
    10030    2    1    2    0    0  0.00000000000E+00  0.00000000000E+00  0.78297269195E+03  0.38877962910E+04  0.38081378342E+04 0.  0.
        5    1    3    3  502    0  0.14214162973E+04  0.96934514542E+02  0.16810943575E+04  0.22036154200E+04  0.46999998093E+01 0. -1.
       -5    1    3    3    0  502 -0.14214162973E+04 -0.96934514542E+02 -0.89812166555E+03  0.16841808711E+04  0.46999998093E+01 0.  1.
</event>
<event>
 5   0  0.1187925E-07  0.3854361E+04  0.7818609E-02  0.8034589E-01
        1   -1    0    0  501    0  0.00000000000E+00  0.00000000000E+00  0.22966980095E+04  0.22966980095E+04  0.50400001928E-02 0. -1.
       -1   -1    0    0    0  501  0.00000000000E+00  0.00000000000E+00 -0.16171151538E+04  0.16171151538E+04  0.50400001928E-02 0.  1.
    10030    2    1    2    0    0  0.00000000000E+00  0.00000000000E+00  0.67958285572E+03  0.39138131632E+04  0.38543612466E+04 0.  0.
        4    1    3    3  502    0  0.48472404673E+03  0.25407278184E+03 -0.15365508708E+04  0.16311040958E+04  0.12699999809E+01 0.  1.
       -4    1    3    3    0  502 -0.48472404673E+03 -0.25407278184E+03  0.22161337265E+04  0.22827090674E+04  0.12699999809E+01 0. -1.
</event>
<event>
 5   0  0.1187925E-07  0.3868631E+04  0.7818609E-02  0.8031585E-01
       -1   -1    0    0    0  501  0.00000000000E+00  0.00000000000E+00  0.16524381977E+04  0.16524381977E+04  0.50400001928E-02 0. -1.
        1   -1    0    0  501    0  0.00000000000E+00  0.00000000000E+00 -0.22642767634E+04  0.22642767634E+04  0.50400001928E-02 0.  1.
    10030    2    1    2    0    0  0.00000000000E+00  0.00000000000E+00 -0.61183856574E+03  0.39167149611E+04  0.38686314965E+04 0.  0.
        1    1    3    3  502    0  0.18597449402E+04  0.32733066966E+02  0.23157921876E+03  0.18743936702E+04  0.50400001928E-02 0.  1.
       -1    1    3    3    0  502 -0.18597449402E+04 -0.32733066966E+02 -0.84341778450E+03  0.20423212909E+04  0.50400001928E-02 0. -1.
</event>
<event>
 5   0  0.1187925E-07  0.3959914E+04  0.7818609E-02  0.8012682E-01
       -1   -1    0    0    0  501  0.00000000000E+00  0.00000000000E+00  0.15999243284E+04  0.15999243284E+04  0.50400001928E-02 0.  1.
        1   -1    0    0  501    0  0.00000000000E+00  0.00000000000E+00 -0.24502592647E+04  0.24502592648E+04  0.50400001928E-02 0. -1.
    10030    2    1    2    0    0  0.00000000000E+00  0.00000000000E+00 -0.85033493634E+03  0.40501835932E+04  0.39599138418E+04 0.  0.
        3    1    3    3  502    0 -0.69917682280E+03  0.12171777900E+04 -0.18533727047E+04  0.23249430949E+04  0.10100000352E+00 0. -1.
       -3    1    3    3    0  502  0.69917682280E+03 -0.12171777900E+04  0.10030377683E+04  0.17252404983E+04  0.10100000352E+00 0.  1.
</event>
<event>
 5   0  0.3832389E-07  0.3877005E+04  0.7818609E-02  0.8029829E-01
       -2   -1    0    0    0  501  0.00000000000E+00  0.00000000000E+00  0.17038721348E+04  0.17038721348E+04  0.25500000920E-02 0.  1.
        2   -1    0    0  501    0  0.00000000000E+00  0.00000000000E+00 -0.22054425034E+04  0.22054425034E+04  0.25500000920E-02 0. -1.
    10030    2    1    2    0    0  0.00000000000E+00  0.00000000000E+00 -0.50157036858E+03  0.39093146382E+04  0.38770050433E+04 0.  0.
        5    1    3    3  502    0 -0.12058814492E+02  0.19103364389E+04  0.80953845465E+02  0.19120947518E+04  0.46999998093E+01 0.  1.
       -5    1    3    3    0  502  0.12058814492E+02 -0.19103364389E+04 -0.58252421404E+03  0.19972198864E+04  0.46999998093E+01 0. -1.
</event>
<event>
 5   0  0.3610483E-07  0.3934415E+04  0.7818609E-02  0.8017909E-01
       -2   -1    0    0    0  501  0.00000000000E+00  0.00000000000E+00  0.22966770953E+04  0.22966770953E+04  0.25500000920E-02 0. -1.
        2   -1    0    0  501    0  0.00000000000E+00  0.00000000000E+00 -0.16850019558E+04  0.16850019558E+04  0.25500000920E-02 0.  1.
    10030    2    1    2    0    0  0.00000000000E+00  0.00000000000E+00  0.61167513952E+03  0.39816790511E+04  0.39344150251E+04 0.  0.
        4    1    3    3  502    0  0.97923461329E+03  0.11668554461E+04  0.15655607042E+04  0.21843612319E+04  0.12699999809E+01 0. -1.
       -4    1    3    3    0  502 -0.97923461329E+03 -0.11668554461E+04 -0.95388556465E+03  0.17973178192E+04  0.12699999809E+01 0.  1.
</event>
<event>
 5   0  0.1187925E-07  0.3928494E+04  0.7818609E-02  0.8019129E-01
       -1   -1    0    0    0  501  0.00000000000E+00  0.00000000000E+00  0.28976914313E+04  0.28976914313E+04  0.50400001928E-02 0.  1.
        1   -1    0    0  501    0  0.00000000000E+00  0.00000000000E+00 -0.13314964707E+04  0.13314964707E+04  0.50400001928E-02 0. -1.
    10030    2    1    2    0    0  0.00000000000E+00  0.00000000000E+00  0.15661949606E+04  0.42291879020E+04  0.39284938151E+04 0.  0.
        5    1    3    3  502    0 -0.93277360938E+01  0.17697481682E+03  0.28890611477E+04  0.28944953788E+04  0.46999998093E+01 0.  1.
       -5    1    3    3    0  502  0.93277360938E+01 -0.17697481682E+03 -0.13228661871E+04  0.13346925232E+04  0.46999998093E+01 0. -1.
</event>
<event>
 5   0  0.3610483E-07  0.3814409E+04  0.7818609E-02  0.8043070E-01
        2   -1    0    0  501    0  0.00000000000E+00  0.00000000000E+00  0.25392356609E+04  0.25392356609E+04  0.25500000920E-02 0.  1.
       -2   -1    0    0    0  501  0.00000000000E+00  0.00000000000E+00 -0.14324895500E+04  0.14324895500E+04  0.25500000920E-02 0. -1.
    10030    2    1    2    0    0  0.00000000000E+00  0.00000000000E+00  0.11067461109E+04  0.39717252109E+04  0.38144087611E+04 0.  0.
        4    1    3    3  502    0 -0.48605606052E+03  0.75805109174E+03 -0.11971955878E+04  0.14980556866E+04  0.12699999809E+01 0. -1.
       -4    1    3    3    0  502  0.48605606052E+03 -0.75805109174E+03  0.23039416987E+04  0.24736695243E+04  0.12699999809E+01 0.  1.
</event>
<event>
 5   0  0.1187925E-07  0.3920063E+04  0.7818609E-02  0.8020869E-01
       -1   -1    0    0    0  501  0.00000000000E+00  0.00000000000E+00  0.26828536062E+04  0.26828536062E+04  0.50400001928E-02 0.  1.
        1   -1    0    0  501    0  0.00000000000E+00  0.00000000000E+00 -0.14319543130E+04  0.14319543130E+04  0.50400001928E-02 0. -1.
    10030    2    1    2    0    0  0.00000000000E+00  0.00000000000E+00  0.12508992931E+04  0.41148079192E+04  0.39200631590E+04 0.  0.
        3    1    3    3  502    0  0.11717060492E+04  0.53936043582E+03  0.21745422069E+04  0.25283272267E+04  0.10100000352E+00 0.  1.
       -3    1    3    3    0  502 -0.11717060492E+04 -0.53936043582E+03 -0.92364291372E+03  0.15864806925E+04  0.10100000352E+00 0. -1.
</event>
<event>
 5   0  0.3665303E-07  0.3879724E+04  0.7818609E-02  0.8029260E-01
        2   -1    0    0  501    0  0.00000000000E+00  0.00000000000E+00  0.18305243324E+04  0.18305243324E+04  0.25500000920E-02 0. -1.
       -2   -1    0    0    0  501  0.00000000000E+00  0.00000000000E+00 -0.20557300782E+04  0.20557300782E+04  0.25500000920E-02 0.  1.
    10030    2    1    2    0    0  0.00000000000E+00  0.00000000000E+00 -0.22520574579E+03  0.38862544105E+04  0.38797236648E+04 0.  0.
        2    1    3    3  502    0 -0.14026154742E+04 -0.11795132152E+04 -0.74966269229E+03  0.19800443796E+04  0.25500000920E-02 0.  1.
       -2    1    3    3    0  502  0.14026154742E+04  0.11795132152E+04  0.52445694650E+03  0.19062100309E+04  0.25500000920E-02 0. -1.
</event>
<event>
 5   0  0.3680814E-07  0.3858200E+04  0.7818609E-02  0.8033779E-01
       -2   -1    0    0    0  501  0.00000000000E+00  0.00000000000E+00  0.15338985540E+04  0.15338985540E+04  0.25500000920E-02 0.  1.
        2   -1    0    0  501    0  0.00000000000E+00  0.00000000000E+00 -0.24261235251E+04  0.24261235251E+04  0.25500000920E-02 0. -1.
    10030    2    1    2    0    0  0.00000000000E+00  0.00000000000E+00 -0.89222497119E+03  0.39600220791E+04  0.38582002887E+04 0.  0.
        1    1    3    3  502    0 -0.13653769090E+04 -0.34765107898E+02  0.95217891980E+03  0.16649646878E+04  0.50400001928E-02 0.  1.
       -1    1    3    3    0  502  0.13653769090E+04  0.34765107898E+02 -0.18444038910E+04  0.22950573913E+04  0.50400001928E-02 0. -1.
</event>
<event>
 5   0  0.1187925E-07  0.3946365E+04  0.7818609E-02  0.8015455E-01
        1   -1    0    0  501    0  0.00000000000E+00  0.00000000000E+00  0.22328446085E+04  0.22328446085E+04  0.50400001928E-02 0. -1.
       -1   -1    0    0    0  501  0.00000000000E+00  0.00000000000E+00 -0.17437168295E+04  0.17437168295E+04  0.50400001928E-02 0.  1.
    10030    2    1    2    0    0  0.00000000000E+00  0.00000000000E+00  0.48912777897E+03  0.39765614380E+04  0.39463647685E+04 0.  0.
        4    1    3    3  502    0 -0.11674133364E+04 -0.97352103597E+03  0.15123043526E+04  0.21442162142E+04  0.12699999809E+01 0. -1.
       -4    1    3    3    0  502  0.11674133364E+04  0.97352103597E+03 -0.10231765737E+04  0.18323452238E+04  0.12699999809E+01 0.  1.
</event>
<event>
 5   0  0.3680814E-07  0.3631696E+04  0.7818609E-02  0.8083270E-01
        2   -1    0    0  501    0  0.00000000000E+00  0.00000000000E+00  0.23024771881E+04  0.23024771881E+04  0.25500000920E-02 0. -1.
       -2   -1    0    0    0  501  0.00000000000E+00  0.00000000000E+00 -0.14320678640E+04  0.14320678640E+04  0.25500000920E-02 0.  1.
    10030    2    1    2    0    0  0.00000000000E+00  0.00000000000E+00  0.87040932411E+03  0.37345450520E+04  0.36316957959E+04 0.  0.
        1    1    3    3  502    0  0.38699787608E+03 -0.60748792777E+03  0.21492922974E+04  0.22667744304E+04  0.50400001928E-02 0. -1.
       -1    1    3    3    0  502 -0.38699787608E+03  0.60748792777E+03 -0.12788829733E+04  0.14677706217E+04  0.50400001928E-02 0.  1.
</event>
<event>
 5   0  0.1187925E-07  0.3808035E+04  0.7818609E-02  0.8044433E-01
        1   -1    0    0  501    0  0.00000000000E+00  0.00000000000E+00  0.15574592526E+04  0.15574592526E+04  0.50400001928E-02 0. -1.
       -1   -1    0    0    0  501  0.00000000000E+00  0.00000000000E+00 -0.23276897815E+04  0.23276897815E+04  0.50400001928E-02 0.  1.
    10030    2    1    2    0    0  0.00000000000E+00  0.00000000000E+00 -0.77023052889E+03  0.38851490341E+04  0.38080346571E+04 0.  0.
        2    1    3    3  502    0  0.17047003081E+03  0.12146840440E+04  0.11006596669E+04  0.16480197391E+04  0.25500000920E-02 0. -1.
       -2    1    3    3    0  502 -0.17047003081E+03 -0.12146840440E+04 -0.18708901958E+04  0.22371292950E+04  0.25500000920E-02 0.  1.
</event>
<event>
 5   0  0.3610483E-07  0.3816048E+04  0.7818609E-02  0.8042720E-01
        2   -1    0    0  501    0  0.00000000000E+00  0.00000000000E+00  0.19389079570E+04  0.19389079570E+04  0.25500000920E-02 0.  1.
       -2   -1    0    0    0  501  0.00000000000E+00  0.00000000000E+00 -0.18776315364E+04  0.18776315364E+04  0.25500000920E-02 0. -1.
    10030    2    1    2    0    0  0.00000000000E+00  0.00000000000E+00  0.61276420545E+02  0.38165394934E+04  0.38160475501E+04 0.  0.
        4    1    3    3  502    0  0.10582243770E+04 -0.13486675849E+04 -0.80721081255E+03  0.18948176681E+04  0.12699999809E+01 0. -1.
       -4    1    3    3    0  502 -0.10582243770E+04  0.13486675849E+04  0.86848723309E+03  0.19217218252E+04  0.12699999809E+01 0.  1.
</event>
<event>
 5   0  0.3810833E-07  0.3914429E+04  0.7818609E-02  0.8022035E-01
        2   -1    0    0  501    0  0.00000000000E+00  0.00000000000E+00  0.17874722097E+04  0.17874722097E+04  0.25500000920E-02 0.  1.
       -2   -1    0    0    0  501  0.00000000000E+00  0.00000000000E+00 -0.21430757735E+04  0.21430757735E+04  0.25500000920E-02 0. -1.
    10030    2    1    2    0    0  0.00000000000E+00  0.00000000000E+00 -0.35560356382E+03  0.39305479832E+04  0.39144288924E+04 0.  0.
        3    1    3    3  502    0  0.15189420508E+04  0.28923666440E+03 -0.13826786104E+04  0.20742813097E+04  0.10100000352E+00 0. -1.
       -3    1    3    3    0  502 -0.15189420508E+04 -0.28923666440E+03  0.10270750465E+04  0.18562666735E+04  0.10100000352E+00 0.  1.
</event>
<event>
 5   0  0.1187925E-07  0.3275599E+04  0.7818609E-02  0.8169132E-01
        1   -1    0    0  501    0  0.00000000000E+00  0.00000000000E+00  0.11257857409E+04  0.11257857409E+04  0.50400001928E-02 0. -1.
       -1   -1    0    0    0  501  0.00000000000E+00  0.00000000000E+00 -0.23826800262E+04  0.23826800262E+04  0.50400001928E-02 0.  1.
    10030    2    1    2    0    0  0.00000000000E+00  0.00000000000E+00 -0.12568942853E+04  0.35084657671E+04  0.32755989978E+04 0.  0.
        2    1    3    3  502    0 -0.15189180475E+04  0.28698540481E+03 -0.12081387059E+04  0.19619051430E+04  0.25500000920E-02 0. -1.
       -2    1    3    3    0  502  0.15189180475E+04 -0.28698540481E+03 -0.48755579446E+02  0.15465606241E+04  0.25500000920E-02 0.  1.
</event>
<event>
 5   0  0.1187925E-07  0.3866459E+04  0.7818609E-02  0.8032042E-01
        1   -1    0    0  501    0  0.00000000000E+00  0.00000000000E+00  0.15136863716E+04  0.15136863716E+04  0.50400001928E-02 0. -1.
       -1   -1    0    0    0  501  0.00000000000E+00  0.00000000000E+00 -0.24690557239E+04  0.24690557239E+04  0.50400001928E-02 0.  1.
    10030    2    1    2    0    0  0.00000000000E+00  0.00000000000E+00 -0.95536935230E+03  0.39827420955E+04  0.38664588450E+04 0.  0.
        4    1    3    3  502    0  0.68352624335E+03 -0.52789284099E+03  0.13039266417E+04  0.15640029657E+04  0.12699999809E+01 0. -1.
       -4    1    3    3    0  502 -0.68352624335E+03  0.52789284099E+03 -0.22592959940E+04  0.24187391298E+04  0.12699999809E+01 0.  1.
</event>
<event>
 5   0  0.1187925E-07  0.3894506E+04  0.7818609E-02  0.8026173E-01
        1   -1    0    0  501    0  0.00000000000E+00  0.00000000000E+00  0.27665821897E+04  0.27665821897E+04  0.50400001928E-02 0. -1.
       -1   -1    0    0    0  501  0.00000000000E+00  0.00000000000E+00 -0.13705699474E+04  0.13705699474E+04  0.50400001928E-02 0.  1.
    10030    2    1    2    0    0  0.00000000000E+00  0.00000000000E+00  0.13960122423E+04  0.41371521371E+04  0.38945060823E+04 0.  0.
        3    1    3    3  502    0 -0.28889159760E+03  0.50767770970E+03 -0.12753086894E+04  0.14027142529E+04  0.10100000352E+00 0.  1.
       -3    1    3    3    0  502  0.28889159760E+03 -0.50767770970E+03  0.26713209317E+04  0.27344378841E+04  0.10100000352E+00 0. -1.
</event>
<event>
 5   0  0.1187925E-07  0.3693749E+04  0.7818609E-02  0.8069348E-01
        1   -1    0    0  501    0  0.00000000000E+00  0.00000000000E+00  0.17831976552E+04  0.17831976552E+04  0.50400001928E-02 0. -1.
       -1   -1    0    0    0  501  0.00000000000E+00  0.00000000000E+00 -0.19128256352E+04  0.19128256352E+04  0.50400001928E-02 0.  1.
    10030    2    1    2    0    0  0.00000000000E+00  0.00000000000E+00 -0.12962797998E+03  0.36960232904E+04  0.36937494162E+04 0.  0.
        3    1    3    3  502    0  0.17856890146E+04  0.46077068098E+03  0.35003622655E+02  0.18445108135E+04  0.10100000352E+00 0. -1.
       -3    1    3    3    0  502 -0.17856890146E+04 -0.46077068098E+03 -0.16463160263E+03  0.18515124769E+04  0.10100000352E+00 0.  1.
</event>
<event>
 5   0  0.3680814E-07  0.3343396E+04  0.7818609E-02  0.8151940E-01
        2   -1    0    0  501    0  0.00000000000E+00  0.00000000000E+00  0.14014448774E+04  0.14014448774E+04  0.25500000920E-02 0.  1.
       -2   -1    0    0    0  501  0.00000000000E+00  0.00000000000E+00 -0.19940669472E+04  0.19940669472E+04  0.25500000920E-02 0. -1.
    10030    2    1    2    0    0  0.00000000000E+00  0.00000000000E+00 -0.59262206984E+03  0.33955118246E+04  0.33433964218E+04 0.  0.
        1    1    3    3  502    0 -0.10344882997E+04 -0.13101554118E+04 -0.38658793304E+03  0.17135120295E+04  0.50400001928E-02 0.  1.
       -1    1    3    3    0  502  0.10344882997E+04  0.13101554118E+04 -0.20603413680E+03  0.16819997951E+04  0.50400001928E-02 0. -1.
</event>
<event>
 5   0  0.3810833E-07  0.3916313E+04  0.7818609E-02  0.8021645E-01
       -2   -1    0    0    0  501  0.00000000000E+00  0.00000000000E+00  0.32786864003E+04  0.32786864003E+04  0.25500000920E-02 0.  1.
        2   -1    0    0  501    0  0.00000000000E+00  0.00000000000E+00 -0.11694854426E+04  0.11694854426E+04  0.25500000920E-02 0. -1.
    10030    2    1    2    0    0  0.00000000000E+00  0.00000000000E+00  0.21092009577E+04  0.44481718430E+04  0.39163125596E+04 0.  0.
        3    1    3    3  502    0 -0.42116654716E+03 -0.19074871905E+04  0.12090340457E+04  0.22973140787E+04  0.10100000352E+00 0.  1.
       -3    1    3    3    0  502  0.42116654716E+03  0.19074871905E+04  0.90016691199E+03  0.21508577643E+04  0.10100000352E+00 0. -1.
</event>
<event>
 5   0  0.3665303E-07  0.3683411E+04  0.7818609E-02  0.8071648E-01
        2   -1    0    0  501    0  0.00000000000E+00  0.00000000000E+00  0.19821724420E+04  0.19821724420E+04  0.25500000920E-02 0.  1.
       -2   -1    0    0    0  501  0.00000000000E+00  0.00000000000E+00 -0.17111930536E+04  0.17111930536E+04  0.25500000920E-02 0. -1.
    10030    2    1    2    0    0  0.00000000000E+00  0.00000000000E+00  0.27097938843E+03  0.36933654956E+04  0.36834113068E+04 0.  0.
        2    1    3    3  502    0 -0.58772322477E+03  0.14811716038E+04 -0.79036460520E+03  0.17787535293E+04  0.25500000920E-02 0. -1.
       -2    1    3    3    0  502  0.58772322477E+03 -0.14811716038E+04  0.10613439936E+04  0.19146119663E+04  0.25500000920E-02 0.  1.
</event>
<event>
 5   0  0.1187925E-07  0.3210653E+04  0.7818609E-02  0.8186009E-01
        1   -1    0    0  501    0  0.00000000000E+00  0.00000000000E+00  0.19673049716E+04  0.19673049716E+04  0.50400001928E-02 0.  1.
       -1   -1    0    0    0  501  0.00000000000E+00  0.00000000000E+00 -0.13099511806E+04  0.13099511807E+04  0.50400001928E-02 0. -1.
    10030    2    1    2    0    0  0.00000000000E+00  0.00000000000E+00  0.65735379097E+03  0.32772561523E+04  0.32106531861E+04 0.  0.
        1    1    3    3  502    0  0.24445886741E+03 -0.54679346995E+02  0.19472322956E+04  0.19632787835E+04  0.50400001928E-02 0.  1.
       -1    1    3    3    0  502 -0.24445886741E+03  0.54679346995E+02 -0.12898785046E+04  0.13139773687E+04  0.50400001928E-02 0. -1.
</event>
<event>
 5   0  0.3665303E-07  0.3796628E+04  0.7818609E-02  0.8046879E-01
        2   -1    0    0  501    0  0.00000000000E+00  0.00000000000E+00  0.17128352352E+04  0.17128352352E+04  0.25500000920E-02 0.  1.
       -2   -1    0    0    0  501  0.00000000000E+00  0.00000000000E+00 -0.21038781706E+04  0.21038781706E+04  0.25500000920E-02 0. -1.
    10030    2    1    2    0    0  0.00000000000E+00  0.00000000000E+00 -0.39104293540E+03  0.38167134058E+04  0.37966283259E+04 0.  0.
        2    1    3    3  502    0 -0.56719436228E+03 -0.16899023880E+04  0.46070835958E+03  0.18411224071E+04  0.25500000920E-02 0.  1.
       -2    1    3    3    0  502  0.56719436228E+03  0.16899023880E+04 -0.85175129498E+03  0.19755909987E+04  0.25500000920E-02 0. -1.
</event>
<event>
 5   0  0.1187925E-07  0.3894765E+04  0.7818609E-02  0.8026119E-01
       -1   -1    0    0    0  501  0.00000000000E+00  0.00000000000E+00  0.16166756251E+04  0.16166756252E+04  0.50400001928E-02 0.  1.
        1   -1    0    0  501    0  0.00000000000E+00  0.00000000000E+00 -0.23457388740E+04  0.23457388740E+04  0.50400001928E-02 0. -1.
    10030    2    1    2    0    0  0.00000000000E+00  0.00000000000E+00 -0.72906324883E+03  0.39624144991E+04  0.38947651331E+04 0.  0.
        1    1    3    3  502    0  0.10280881985E+04 -0.12318576708E+04 -0.14872668501E+04  0.21877845754E+04  0.50400001928E-02 0. -1.
       -1    1    3    3    0  502 -0.10280881985E+04  0.12318576708E+04  0.75820360128E+03  0.17746299237E+04  0.50400001928E-02 0.  1.
</event>
<event>
 5   0  0.1187925E-07  0.3893238E+04  0.7818609E-02  0.8026437E-01
       -1   -1    0    0    0  501  0.00000000000E+00  0.00000000000E+00  0.18621374452E+04  0.18621374453E+04  0.50400001928E-02 0. -1.
        1   -1    0    0  501    0  0.00000000000E+00  0.00000000000E+00 -0.20349338010E+04  0.20349338010E+04  0.50400001928E-02 0.  1.
    10030    2    1    2    0    0  0.00000000000E+00  0.00000000000E+00 -0.17279635572E+03  0.38970712462E+04  0.38932384614E+04 0.  0.
        5    1    3    3  502    0  0.81641429007E+03 -0.13308884693E+04  0.10772900460E+04  0.18969376226E+04  0.46999998093E+01 0. -1.
       -5    1    3    3    0  502 -0.81641429007E+03  0.13308884693E+04 -0.12500864018E+04  0.20001336237E+04  0.46999998093E+01 0.  1.
</event>
<event>
 5   0  0.3610483E-07  0.3891715E+04  0.7818609E-02  0.8026755E-01
       -2   -1    0    0    0  501  0.00000000000E+00  0.00000000000E+00  0.15631157746E+04  0.15631157746E+04  0.25500000920E-02 0.  1.
        2   -1    0    0  501    0  0.00000000000E+00  0.00000000000E+00 -0.24223161550E+04  0.24223161551E+04  0.25500000920E-02 0. -1.
    10030    2    1    2    0    0  0.00000000000E+00  0.00000000000E+00 -0.85920038049E+03  0.39854319296E+04  0.38917145799E+04 0.  0.
        4    1    3    3  502    0 -0.15385508465E+04  0.15414492143E+03  0.78014262316E+03  0.17319132453E+04  0.12699999809E+01 0.  1.
       -4    1    3    3    0  502  0.15385508465E+04 -0.15414492143E+03 -0.16393430036E+04  0.22535186843E+04  0.12699999809E+01 0. -1.
</event>
<event>
 5   0  0.1187925E-07  0.3870032E+04  0.7818609E-02  0.8031291E-01
       -1   -1    0    0    0  501  0.00000000000E+00  0.00000000000E+00  0.22334742735E+04  0.22334742735E+04  0.50400001928E-02 0. -1.
        1   -1    0    0  501    0  0.00000000000E+00  0.00000000000E+00 -0.16764401719E+04  0.16764401719E+04  0.50400001928E-02 0.  1.
    10030    2    1    2    0    0  0.00000000000E+00  0.00000000000E+00  0.55703410161E+03  0.39099144454E+04  0.38700315219E+04 0.  0.
        3    1    3    3  502    0  0.55285871866E+03  0.21198766335E+03 -0.15826661391E+04  0.16897998847E+04  0.10100000352E+00 0.  1.
       -3    1    3    3    0  502 -0.55285871866E+03 -0.21198766335E+03  0.21397002407E+04  0.22201145607E+04  0.10100000352E+00 0. -1.
</event>
<event>
 5   0  0.1187925E-07  0.3958629E+04  0.7818609E-02  0.8012945E-01
        1   -1    0    0  501    0  0.00000000000E+00  0.00000000000E+00  0.13225304708E+04  0.13225304708E+04  0.50400001928E-02 0.  1.
       -1   -1    0    0    0  501  0.00000000000E+00  0.00000000000E+00 -0.29622656119E+04  0.29622656119E+04  0.50400001928E-02 0. -1.
    10030    2    1    2    0    0  0.00000000000E+00  0.00000000000E+00 -0.16397351411E+04  0.42847960827E+04  0.39586293256E+04 0.  0.
        1    1    3    3  502    0 -0.47748972211E+03 -0.15275419725E+04 -0.20804292529E+04  0.26247984283E+04  0.50400001928E-02 0. -1.
       -1    1    3    3    0  502  0.47748972211E+03  0.15275419725E+04  0.44069411181E+03  0.16599976545E+04  0.50400001928E-02 0.  1.
</event>
<event>
 5   0  0.1187925E-07  0.3860006E+04  0.7818609E-02  0.8033399E-01
       -1   -1    0    0    0  501  0.00000000000E+00  0.00000000000E+00  0.14541660173E+04  0.14541660173E+04  0.50400001928E-02 0.  1.
        1   -1    0    0  501    0  0.00000000000E+00  0.00000000000E+00 -0.25615454726E+04  0.25615454726E+04  0.50400001928E-02 0. -1.
    10030    2    1    2    0    0  0.00000000000E+00  0.00000000000E+00 -0.11073794553E+04  0.40157114899E+04  0.38600064134E+04 0.  0.
        2    1    3    3  502    0 -0.15609973652E+04  0.98517539476E+03 -0.11400095562E+04  0.21695403017E+04  0.25500000920E-02 0. -1.
       -2    1    3    3    0  502  0.15609973652E+04 -0.98517539476E+03  0.32630100836E+02  0.18461711882E+04  0.25500000920E-02 0.  1.
</event>
<event>
 5   0  0.1187925E-07  0.4115899E+04  0.7818609E-02  0.7981566E-01
       -1   -1    0    0    0  501  0.00000000000E+00  0.00000000000E+00  0.15247004345E+04  0.15247004345E+04  0.50400001928E-02 0. -1.
        1   -1    0    0  501    0  0.00000000000E+00  0.00000000000E+00 -0.27776973246E+04  0.27776973246E+04  0.50400001928E-02 0.  1.
    10030    2    1    2    0    0  0.00000000000E+00  0.00000000000E+00 -0.12529968901E+04  0.43023977590E+04  0.41158990841E+04 0.  0.
        4    1    3    3  502    0  0.12363445779E+03 -0.27468076050E+03 -0.27545282469E+04  0.27709497424E+04  0.12699999809E+01 0.  1.
       -4    1    3    3    0  502 -0.12363445779E+03  0.27468076050E+03  0.15015313568E+04  0.15314480166E+04  0.12699999809E+01 0. -1.
</event>
<event>
 5   0  0.1187925E-07  0.3887377E+04  0.7818609E-02  0.8027660E-01
       -3   -1    0    0    0  501  0.00000000000E+00  0.00000000000E+00  0.19082262615E+04  0.19082262642E+04  0.10100000352E+00 0. -1.
        3   -1    0    0  501    0  0.00000000000E+00  0.00000000000E+00 -0.19798101034E+04  0.19798101060E+04  0.10100000352E+00 0.  1.
    10030    2    1    2    0    0  0.00000000000E+00  0.00000000000E+00 -0.71583841909E+02  0.38880363702E+04  0.38873773382E+04 0.  0.
        1    1    3    3  502    0  0.68352611643E+03  0.12811894897E+04  0.12564298933E+04  0.19202266890E+04  0.50400001928E-02 0. -1.
       -1    1    3    3    0  502 -0.68352611643E+03 -0.12811894897E+04 -0.13280137353E+04  0.19678096812E+04  0.50400001928E-02 0.  1.
</event>
<event>
 5   0  0.3680814E-07  0.3880943E+04  0.7818609E-02  0.8029004E-01
        2   -1    0    0  501    0  0.00000000000E+00  0.00000000000E+00  0.22175383723E+04  0.22175383723E+04  0.25500000920E-02 0.  1.
       -2   -1    0    0    0  501  0.00000000000E+00  0.00000000000E+00 -0.16980227242E+04  0.16980227242E+04  0.25500000920E-02 0. -1.
    10030    2    1    2    0    0  0.00000000000E+00  0.00000000000E+00  0.51951564811E+03  0.39155610965E+04  0.38809434667E+04 0.  0.
        1    1    3    3  502    0  0.58257932449E+03  0.11823793140E+04 -0.11770273749E+04  0.17671482543E+04  0.50400001928E-02 0. -1.
       -1    1    3    3    0  502 -0.58257932449E+03 -0.11823793140E+04  0.16965430230E+04  0.21484128422E+04  0.50400001928E-02 0.  1.
</event>
<event>
 5   0  0.1187925E-07  0.3894510E+04  0.7818609E-02  0.8026172E-01
        1   -1    0    0  501    0  0.00000000000E+00  0.00000000000E+00  0.21672981145E+04  0.21672981145E+04  0.50400001928E-02 0. -1.
       -1   -1    0    0    0  501  0.00000000000E+00  0.00000000000E+00 -0.17495528257E+04  0.17495528257E+04  0.50400001928E-02 0.  1.
    10030    2    1    2    0    0  0.00000000000E+00  0.00000000000E+00  0.41774528872E+03  0.39168509402E+04  0.38945102595E+04 0.  0.
        2    1    3    3  502    0  0.54107108465E+03  0.15542183153E+04 -0.83798743556E+03  0.18467743317E+04  0.25500000920E-02 0.  1.
       -2    1    3    3    0  502 -0.54107108465E+03 -0.15542183153E+04  0.12557327243E+04  0.20700766085E+04  0.25500000920E-02 0. -1.
</event>
<event>
 5   0  0.3810833E-07  0.3741229E+04  0.7818609E-02  0.8058886E-01
       -2   -1    0    0    0  501  0.00000000000E+00  0.00000000000E+00  0.19287425292E+04  0.19287425292E+04  0.25500000920E-02 0.  1.
        2   -1    0    0  501    0  0.00000000000E+00  0.00000000000E+00 -0.18142385424E+04  0.18142385424E+04  0.25500000920E-02 0. -1.
    10030    2    1    2    0    0  0.00000000000E+00  0.00000000000E+00  0.11450398683E+03  0.37429810715E+04  0.37412292283E+04 0.  0.
        3    1    3    3  502    0  0.17906248178E+04 -0.23374833282E+02  0.59816716518E+03  0.18880380263E+04  0.10100000352E+00 0. -1.
       -3    1    3    3    0  502 -0.17906248178E+04  0.23374833282E+02 -0.48366317835E+03  0.18549430453E+04  0.10100000352E+00 0.  1.
</event>
<event>
 5   0  0.1187925E-07  0.3768076E+04  0.7818609E-02  0.8053041E-01
       -1   -1    0    0    0  501  0.00000000000E+00  0.00000000000E+00  0.17427765561E+04  0.17427765561E+04  0.50400001928E-02 0. -1.
        1   -1    0    0  501    0  0.00000000000E+00  0.00000000000E+00 -0.20367497454E+04  0.20367497454E+04  0.50400001928E-02 0.  1.
    10030    2    1    2    0    0  0.00000000000E+00  0.00000000000E+00 -0.29397318933E+03  0.37795263016E+04  0.37680762768E+04 0.  0.
        4    1    3    3  502    0  0.14196122826E+04  0.10720939769E+04 -0.76928586999E+03  0.19381658574E+04  0.12699999809E+01 0.  1.
       -4    1    3    3    0  502 -0.14196122826E+04 -0.10720939769E+04  0.47531268066E+03  0.18413604442E+04  0.12699999809E+01 0. -1.
</event>
<event>
 5   0  0.3680814E-07  0.3450817E+04  0.7818609E-02  0.8125546E-01
        2   -1    0    0  501    0  0.00000000000E+00  0.00000000000E+00  0.16313732372E+04  0.16313732372E+04  0.25500000920E-02 0.  1.
       -2   -1    0    0    0  501  0.00000000000E+00  0.00000000000E+00 -0.18248640251E+04  0.18248640251E+04  0.25500000920E-02 0. -1.
    10030    2    1    2    0    0  0.00000000000E+00  0.00000000000E+00 -0.19349078786E+03  0.34562372623E+04  0.34508169074E+04 0.  0.
        1    1    3    3  502    0  0.34249941190E+03 -0.15117811630E+04  0.66223524229E+03  0.16856285617E+04  0.50400001928E-02 0. -1.
       -1    1    3    3    0  502 -0.34249941190E+03  0.15117811630E+04 -0.85572603015E+03  0.17706087006E+04  0.50400001928E-02 0.  1.
</event>
<event>
 5   0  0.1187925E-07  0.3899850E+04  0.7818609E-02  0.8025060E-01
        1   -1    0    0  501    0  0.00000000000E+00  0.00000000000E+00  0.11919397191E+04  0.11919397191E+04  0.50400001928E-02 0. -1.
       -1   -1    0    0    0  501  0.00000000000E+00  0.00000000000E+00 -0.31899326930E+04  0.31899326930E+04  0.50400001928E-02 0.  1.
    10030    2    1    2    0    0  0.00000000000E+00  0.00000000000E+00 -0.19979929739E+04  0.43818724121E+04  0.38998499858E+04 0.  0.
        3    1    3    3  502    0  0.18756047270E+04 -0.47443121452E+03 -0.72554487495E+03  0.20662510605E+04  0.10100000352E+00 0. -1.
       -3    1    3    3    0  502 -0.18756047270E+04  0.47443121452E+03 -0.12724480990E+04  0.23156213516E+04  0.10100000352E+00 0.  1.
</event>
<event>
 5   0  0.3610483E-07  0.3426648E+04  0.7818609E-02  0.8131397E-01
       -2   -1    0    0    0  501  0.00000000000E+00  0.00000000000E+00  0.25281720990E+04  0.25281720990E+04  0.25500000920E-02 0.  1.
        2   -1    0    0  501    0  0.00000000000E+00  0.00000000000E+00 -0.11611070896E+04  0.11611070896E+04  0.25500000920E-02 0. -1.
    10030    2    1    2    0    0  0.00000000000E+00  0.00000000000E+00  0.13670650094E+04  0.36892791886E+04  0.34266476609E+04 0.  0.
        4    1    3    3  502    0  0.21123236154E+03 -0.10405608490E+04  0.21312446116E+04  0.23810903382E+04  0.12699999809E+01 0.  1.
       -4    1    3    3    0  502 -0.21123236154E+03  0.10405608490E+04 -0.76417960227E+03  0.13081888504E+04  0.12699999809E+01 0. -1.
</event>
<event>
 5   0  0.3665303E-07  0.3991040E+04  0.7818609E-02  0.8006357E-01
       -2   -1    0    0    0  501  0.00000000000E+00  0.00000000000E+00  0.14862344981E+04  0.14862344981E+04  0.25500000920E-02 0. -1.
        2   -1    0    0  501    0  0.00000000000E+00  0.00000000000E+00 -0.26793211218E+04  0.26793211218E+04  0.25500000920E-02 0.  1.
    10030    2    1    2    0    0  0.00000000000E+00  0.00000000000E+00 -0.11930866237E+04  0.41655556198E+04  0.39910397054E+04 0.  0.
        2    1    3    3  502    0  0.16000906018E+04 -0.11898889787E+04 -0.51587350240E+03  0.20596725919E+04  0.25500000920E-02 0.  1.
       -2    1    3    3    0  502 -0.16000906018E+04  0.11898889787E+04 -0.67721312130E+03  0.21058830279E+04  0.25500000920E-02 0. -1.
</event>
<event>
 5   0  0.3832389E-07  0.3895406E+04  0.7818609E-02  0.8025985E-01
        2   -1    0    0  501    0  0.00000000000E+00  0.00000000000E+00  0.16559469094E+04  0.16559469094E+04  0.25500000920E-02 0. -1.
       -2   -1    0    0    0  501  0.00000000000E+00  0.00000000000E+00 -0.22908622480E+04  0.22908622480E+04  0.25500000920E-02 0.  1.
    10030    2    1    2    0    0  0.00000000000E+00  0.00000000000E+00 -0.63491533867E+03  0.39468091574E+04  0.38954056320E+04 0.  0.
        5    1    3    3  502    0  0.19344674143E+04 -0.16662276761E+03 -0.47309738094E+03  0.19984420295E+04  0.46999998093E+01 0.  1.
       -5    1    3    3    0  502 -0.19344674143E+04  0.16662276761E+03 -0.16181795772E+03  0.19483671279E+04  0.46999998093E+01 0. -1.
</event>
<event>
 5   0  0.3665303E-07  0.3922809E+04  0.7818609E-02  0.8020302E-01
       -2   -1    0    0    0  501  0.00000000000E+00  0.00000000000E+00  0.15885297759E+04  0.15885297759E+04  0.25500000920E-02 0.  1.
        2   -1    0    0  501    0  0.00000000000E+00  0.00000000000E+00 -0.24218035572E+04  0.24218035572E+04  0.25500000920E-02 0. -1.
    10030    2    1    2    0    0  0.00000000000E+00  0.00000000000E+00 -0.83327378135E+03  0.40103333331E+04  0.39228087193E+04 0.  0.
        2    1    3    3  502    0 -0.18847263795E+03  0.18088622640E+04  0.33432913779E+03  0.18491296865E+04  0.25500000920E-02 0.  1.
       -2    1    3    3    0  502  0.18847263795E+03 -0.18088622640E+04 -0.11676029191E+04  0.21612036466E+04  0.25500000920E-02 0. -1.
</event>
<event>
 5   0  0.3810833E-07  0.2855402E+04  0.7818609E-02  0.8286272E-01
       -2   -1    0    0    0  501  0.00000000000E+00  0.00000000000E+00  0.13212178551E+04  0.13212178551E+04  0.25500000920E-02 0. -1.
        2   -1    0    0  501    0  0.00000000000E+00  0.00000000000E+00 -0.15427659701E+04  0.15427659701E+04  0.25500000920E-02 0.  1.
    10030    2    1    2    0    0  0.00000000000E+00  0.00000000000E+00 -0.22154811499E+03  0.28639838253E+04  0.28554018604E+04 0.  0.
        3    1    3    3  502    0 -0.33253817367E+03 -0.13635276725E+04  0.15181536454E+03  0.14116788819E+04  0.10100000352E+00 0. -1.
       -3    1    3    3    0  502  0.33253817367E+03  0.13635276725E+04 -0.37336347953E+03  0.14523049434E+04  0.10100000352E+00 0.  1.
</event>
<event>
 5   0  0.3810833E-07  0.3044013E+04  0.7818609E-02  0.8231273E-01
       -2   -1    0    0    0  501  0.00000000000E+00  0.00000000000E+00  0.17960411113E+04  0.17960411113E+04  0.25500000920E-02 0. -1.
        2   -1    0    0  501    0  0.00000000000E+00  0.00000000000E+00 -0.12897835465E+04  0.12897835465E+04  0.25500000920E-02 0.  1.
    10030    2    1    2    0    0  0.00000000000E+00  0.00000000000E+00  0.50625756479E+03  0.30858246579E+04  0.30440133208E+04 0.  0.
        3    1    3    3  502    0 -0.80546879818E+03  0.46628441386E+03  0.14739556759E+04  0.17432000700E+04  0.10100000352E+00 0. -1.
       -3    1    3    3    0  502  0.80546879818E+03 -0.46628441386E+03 -0.96769811109E+03  0.13426245878E+04  0.10100000352E+00 0.  1.
</event>
<event>
 5   0  0.3665303E-07  0.3402190E+04  0.7818609E-02  0.8137369E-01
       -2   -1    0    0    0  501  0.00000000000E+00  0.00000000000E+00  0.24772942908E+04  0.24772942908E+04  0.25500000920E-02 0.  1.
        2   -1    0    0  501    0  0.00000000000E+00  0.00000000000E+00 -0.11680983572E+04  0.11680983572E+04  0.25500000920E-02 0. -1.
    10030    2    1    2    0    0  0.00000000000E+00  0.00000000000E+00  0.13091959336E+04  0.36453926479E+04  0.34021895252E+04 0.  0.
        2    1    3    3  502    0  0.99098359779E+03 -0.10775917991E+04  0.15828217974E+04  0.21560559869E+04  0.25500000920E-02 0.  1.
       -2    1    3    3    0  502 -0.99098359779E+03  0.10775917991E+04 -0.27362586376E+03  0.14893366610E+04  0.25500000920E-02 0. -1.
</event>
<event>
 5   0  0.3832389E-07  0.4145212E+04  0.7818609E-02  0.7975877E-01
       -2   -1    0    0    0  501  0.00000000000E+00  0.00000000000E+00  0.21561902911E+04  0.21561902911E+04  0.25500000920E-02 0. -1.
        2   -1    0    0  501    0  0.00000000000E+00  0.00000000000E+00 -0.19922621338E+04  0.19922621338E+04  0.25500000920E-02 0.  1.
    10030    2    1    2    0    0  0.00000000000E+00  0.00000000000E+00  0.16392815724E+03  0.41484524249E+04  0.41452123083E+04 0.  0.
        5    1    3    3  502    0 -0.27536398052E+03  0.83017724932E+03  0.19624364241E+04  0.21485340108E+04  0.46999998093E+01 0. -1.
       -5    1    3    3    0  502  0.27536398052E+03 -0.83017724932E+03 -0.17985082668E+04  0.19999184141E+04  0.46999998093E+01 0.  1.
</event>
<event>
 5   0  0.3810833E-07  0.3891470E+04  0.7818609E-02  0.8026806E-01
       -2   -1    0    0    0  501  0.00000000000E+00  0.00000000000E+00  0.17735224458E+04  0.17735224458E+04  0.25500000920E-02 0. -1.
        2   -1    0    0  501    0  0.00000000000E+00  0.00000000000E+00 -0.21346697331E+04  0.21346697331E+04  0.25500000920E-02 0.  1.
    10030    2    1    2    0    0  0.00000000000E+00  0.00000000000E+00 -0.36114728724E+03  0.39081921789E+04  0.38914699979E+04 0.  0.
        3    1    3    3  502    0 -0.56535535773E+03 -0.11773228984E+04 -0.16290503405E+04  0.20879465773E+04  0.10100000352E+00 0.  1.
       -3    1    3    3    0  502  0.56535535773E+03  0.11773228984E+04  0.12679030533E+04  0.18202456016E+04  0.10100000352E+00 0. -1.
</event>
<event>
 5   0  0.1187925E-07  0.3894468E+04  0.7818609E-02  0.8026181E-01
       -1   -1    0    0    0  501  0.00000000000E+00  0.00000000000E+00  0.13195523331E+04  0.13195523331E+04  0.50400001928E-02 0. -1.
        1   -1    0    0  501    0  0.00000000000E+00  0.00000000000E+00 -0.28734899422E+04  0.28734899422E+04  0.50400001928E-02 0.  1.
    10030    2    1    2    0    0  0.00000000000E+00  0.00000000000E+00 -0.15539376091E+04  0.41930422753E+04  0.38944680548E+04 0.  0.
        4    1    3    3  502    0 -0.74178911719E+03 -0.28055912782E+03  0.11377888645E+04  0.13869137073E+04  0.12699999809E+01 0. -1.
       -4    1    3    3    0  502  0.74178911719E+03  0.28055912782E+03 -0.26917264736E+04  0.28061285680E+04  0.12699999809E+01 0.  1.
</event>
<event>
 5   0  0.3680814E-07  0.2800442E+04  0.7818609E-02  0.8303131E-01
        2   -1    0    0  501    0  0.00000000000E+00  0.00000000000E+00  0.19527138632E+04  0.19527138632E+04  0.25500000920E-02 0.  1.
       -2   -1    0    0    0  501  0.00000000000E+00  0.00000000000E+00 -0.10040485272E+04  0.10040485272E+04  0.25500000920E-02 0. -1.
    10030    2    1    2    0    0  0.00000000000E+00  0.00000000000E+00  0.94866533597E+03  0.29567623905E+04  0.28004424497E+04 0.  0.
        1    1    3    3  502    0 -0.13740861868E+04  0.75742692399E+02  0.74715467658E+03  0.15659150408E+04  0.50400001928E-02 0.  1.
       -1    1    3    3    0  502  0.13740861868E+04 -0.75742692399E+02  0.20151065939E+03  0.13908473497E+04  0.50400001928E-02 0. -1.
</event>
<event>
 5   0  0.3665303E-07  0.3239109E+04  0.7818609E-02  0.8178564E-01
       -2   -1    0    0    0  501  0.00000000000E+00  0.00000000000E+00  0.15569850526E+04  0.15569850526E+04  0.25500000920E-02 0.  1.
        2   -1    0    0  501    0  0.00000000000E+00  0.00000000000E+00 -0.16846383740E+04  0.16846383740E+04  0.25500000920E-02 0. -1.
    10030    2    1    2    0    0  0.00000000000E+00  0.00000000000E+00 -0.12765332136E+03  0.32416234266E+04  0.32391089931E+04 0.  0.
        2    1    3    3  502    0  0.11665481134E+04 -0.70991542958E+03 -0.93521627344E+03  0.16551265499E+04  0.25500000920E-02 0. -1.
       -2    1    3    3    0  502 -0.11665481134E+04  0.70991542958E+03  0.80756295208E+03  0.15864968767E+04  0.25500000920E-02 0.  1.
</event>
<event>
 5   0  0.1187925E-07  0.3858944E+04  0.7818609E-02  0.8033623E-01
        1   -1    0    0  501    0  0.00000000000E+00  0.00000000000E+00  0.18780666968E+04  0.18780666968E+04  0.50400001928E-02 0.  1.
       -1   -1    0    0    0  501  0.00000000000E+00  0.00000000000E+00 -0.19822846257E+04  0.19822846257E+04  0.50400001928E-02 0. -1.
    10030    2    1    2    0    0  0.00000000000E+00  0.00000000000E+00 -0.10421792898E+03  0.38603513225E+04  0.38589442800E+04 0.  0.
        2    1    3    3  502    0 -0.16639974455E+04  0.44020233982E+03 -0.92431972199E+03  0.19537227406E+04  0.25500000920E-02 0. -1.
       -2    1    3    3    0  502  0.16639974455E+04 -0.44020233982E+03  0.82010179301E+03  0.19066285819E+04  0.25500000920E-02 0.  1.
</event>
<event>
 5   0  0.3832389E-07  0.3966467E+04  0.7818609E-02  0.8011346E-01
        2   -1    0    0  501    0  0.00000000000E+00  0.00000000000E+00  0.19195081227E+04  0.19195081227E+04  0.25500000920E-02 0. -1.
       -2   -1    0    0    0  501  0.00000000000E+00  0.00000000000E+00 -0.20490739748E+04  0.20490739748E+04  0.25500000920E-02 0.  1.
    10030    2    1    2    0    0  0.00000000000E+00  0.00000000000E+00 -0.12956585207E+03  0.39685820975E+04  0.39664665075E+04 0.  0.
        5    1    3    3  502    0  0.13022354829E+04 -0.10179798997E+04 -0.11613107694E+04  0.20200903748E+04  0.46999998093E+01 0.  1.
       -5    1    3    3    0  502 -0.13022354829E+04  0.10179798997E+04  0.10317449174E+04  0.19484917227E+04  0.46999998093E+01 0. -1.
</event>
<event>
 5   0  0.1187925E-07  0.3693866E+04  0.7818609E-02  0.8069323E-01
        1   -1    0    0  501    0  0.00000000000E+00  0.00000000000E+00  0.19891355459E+04  0.19891355459E+04  0.50400001928E-02 0.  1.
       -1   -1    0    0    0  501  0.00000000000E+00  0.00000000000E+00 -0.17148960536E+04  0.17148960536E+04  0.50400001928E-02 0. -1.
    10030    2    1    2    0    0  0.00000000000E+00  0.00000000000E+00  0.27423949229E+03  0.37040315995E+04  0.36938655621E+04 0.  0.
        3    1    3    3  502    0  0.92180069740E+03  0.19580981106E+03 -0.14556795686E+04  0.17340879518E+04  0.10100000352E+00 0. -1.
       -3    1    3    3    0  502 -0.92180069740E+03 -0.19580981106E+03  0.17299190609E+04  0.19699436477E+04  0.10100000352E+00 0.  1.
</event>
<event>
 5   0  0.1187925E-07  0.3867905E+04  0.7818609E-02  0.8031738E-01
        1   -1    0    0  501    0  0.00000000000E+00  0.00000000000E+00  0.28165380502E+04  0.28165380503E+04  0.50400001928E-02 0. -1.
       -1   -1    0    0    0  501  0.00000000000E+00  0.00000000000E+00 -0.13279325446E+04  0.13279325446E+04  0.50400001928E-02 0.  1.
    10030    2    1    2    0    0  0.00000000000E+00  0.00000000000E+00  0.14886055057E+04  0.41444705948E+04  0.38679051384E+04 0.  0.
        3    1    3    3  502    0  0.71838872427E+03  0.76263200395E+03  0.24861068838E+04  0.26978542178E+04  0.10100000352E+00 0. -1.
       -3    1    3    3    0  502 -0.71838872427E+03 -0.76263200395E+03 -0.99750137817E+03  0.14466163770E+04  0.10100000352E+00 0.  1.
</event>
<event>
 5   0  0.1187925E-07  0.3778717E+04  0.7818609E-02  0.8050738E-01
        1   -1    0    0  501    0  0.00000000000E+00  0.00000000000E+00  0.17236869835E+04  0.17236869835E+04  0.50400001928E-02 0. -1.
       -1   -1    0    0    0  501  0.00000000000E+00  0.00000000000E+00 -0.20709536724E+04  0.20709536724E+04  0.50400001928E-02 0.  1.
    10030    2    1    2    0    0  0.00000000000E+00  0.00000000000E+00 -0.34726668884E+03  0.37946406559E+04  0.37787171837E+04 0.  0.
        4    1    3    3  502    0  0.14740834963E+04 -0.11585451481E+04 -0.40812378626E+03  0.19187797300E+04  0.12699999809E+01 0.  1.
       -4    1    3    3    0  502 -0.14740834963E+04  0.11585451481E+04  0.60857097417E+02  0.18758609259E+04  0.12699999809E+01 0. -1.
</event>
<event>
 5   0  0.3610483E-07  0.3680674E+04  0.7818609E-02  0.8072258E-01
       -2   -1    0    0    0  501  0.00000000000E+00  0.00000000000E+00  0.15795976865E+04  0.15795976865E+04  0.25500000920E-02 0.  1.
        2   -1    0    0  501    0  0.00000000000E+00  0.00000000000E+00 -0.21441160385E+04  0.21441160385E+04  0.25500000920E-02 0. -1.
    10030    2    1    2    0    0  0.00000000000E+00  0.00000000000E+00 -0.56451835205E+03  0.37237137251E+04  0.36806742502E+04 0.  0.
        4    1    3    3  502    0 -0.74308405161E+03 -0.96253499389E+03 -0.16797851631E+04  0.20737230599E+04  0.12699999809E+01 0. -1.
       -4    1    3    3    0  502  0.74308405161E+03  0.96253499389E+03  0.11152668111E+04  0.16499906651E+04  0.12699999809E+01 0.  1.
</event>
<event>
 5   0  0.3665303E-07  0.3783809E+04  0.7818609E-02  0.8049638E-01
       -2   -1    0    0    0  501  0.00000000000E+00  0.00000000000E+00  0.30179431721E+04  0.30179431721E+04  0.25500000920E-02 0. -1.
        2   -1    0    0  501    0  0.00000000000E+00  0.00000000000E+00 -0.11860072269E+04  0.11860072269E+04  0.25500000920E-02 0.  1.
    10030    2    1    2    0    0  0.00000000000E+00  0.00000000000E+00  0.18319359452E+04  0.42039503990E+04  0.37838088812E+04 0.  0.
        2    1    3    3  502    0 -0.37703352287E+03  0.85089845034E+03 -0.91408174890E+03  0.13045029298E+04  0.25500000920E-02 0.  1.
       -2    1    3    3    0  502  0.37703352287E+03 -0.85089845034E+03  0.27460176941E+04  0.28994474692E+04  0.25500000920E-02 0. -1.
</event>
<event>
 5   0  0.3610483E-07  0.3895988E+04  0.7818609E-02  0.8025864E-01
       -2   -1    0    0    0  501  0.00000000000E+00  0.00000000000E+00  0.11293371893E+04  0.11293371893E+04  0.25500000920E-02 0. -1.
        2   -1    0    0  501    0  0.00000000000E+00  0.00000000000E+00 -0.33600951376E+04  0.33600951376E+04  0.25500000920E-02 0.  1.
    10030    2    1    2    0    0  0.00000000000E+00  0.00000000000E+00 -0.22307579483E+04  0.44894323268E+04  0.38959878841E+04 0.  0.
        4    1    3    3  502    0 -0.14740716971E+04  0.65386014111E+03 -0.23746609054E+04  0.28704418616E+04  0.12699999809E+01 0.  1.
       -4    1    3    3    0  502  0.14740716971E+04 -0.65386014111E+03  0.14390295714E+03  0.16189904652E+04  0.12699999809E+01 0. -1.
</event>
<event>
 5   0  0.3680814E-07  0.3879655E+04  0.7818609E-02  0.8029274E-01
       -2   -1    0    0    0  501  0.00000000000E+00  0.00000000000E+00  0.14130148472E+04  0.14130148472E+04  0.25500000920E-02 0. -1.
        2   -1    0    0  501    0  0.00000000000E+00  0.00000000000E+00 -0.26630507023E+04  0.26630507023E+04  0.25500000920E-02 0.  1.
    10030    2    1    2    0    0  0.00000000000E+00  0.00000000000E+00 -0.12500358550E+04  0.40760655495E+04  0.38796547172E+04 0.  0.
        1    1    3    3  502    0 -0.17011393756E+04 -0.87123770071E+03 -0.97347090425E+03  0.21448953140E+04  0.50400001928E-02 0.  1.
       -1    1    3    3    0  502  0.17011393756E+04  0.87123770071E+03 -0.27656495078E+03  0.19311702355E+04  0.50400001928E-02 0. -1.
</event>
<event>
 5   0  0.3810833E-07  0.3749134E+04  0.7818609E-02  0.8057159E-01
       -2   -1    0    0    0  501  0.00000000000E+00  0.00000000000E+00  0.27492439409E+04  0.27492439409E+04  0.25500000920E-02 0. -1.
        2   -1    0    0  501    0  0.00000000000E+00  0.00000000000E+00 -0.12781703044E+04  0.12781703044E+04  0.25500000920E-02 0.  1.
    10030    2    1    2    0    0  0.00000000000E+00  0.00000000000E+00  0.14710736365E+04  0.40274142453E+04  0.37491342812E+04 0.  0.
        3    1    3    3  502    0 -0.44464674233E+03  0.13119703316E+04  0.20922219456E+04  0.25092567737E+04  0.10100000352E+00 0. -1.
       -3    1    3    3    0  502  0.44464674233E+03 -0.13119703316E+04 -0.62114830903E+03  0.15181574716E+04  0.10100000352E+00 0.  1.
</event>
<event>
 5   0  0.1187925E-07  0.3894062E+04  0.7818609E-02  0.8026265E-01
        1   -1    0    0  501    0  0.00000000000E+00  0.00000000000E+00  0.13633932429E+04  0.13633932429E+04  0.50400001928E-02 0. -1.
       -1   -1    0    0    0  501  0.00000000000E+00  0.00000000000E+00 -0.27805109139E+04  0.27805109139E+04  0.50400001928E-02 0.  1.
    10030    2    1    2    0    0  0.00000000000E+00  0.00000000000E+00 -0.14171176710E+04  0.41439041569E+04  0.38940620395E+04 0.  0.
        1    1    3    3  502    0 -0.84486712664E+03 -0.56831234348E+03  0.10574816814E+04  0.14680077956E+04  0.50400001928E-02 0. -1.
       -1    1    3    3    0  502  0.84486712664E+03  0.56831234348E+03 -0.24745993524E+04  0.26758963613E+04  0.50400001928E-02 0.  1.
</event>
<event>
 5   0  0.3665303E-07  0.3785012E+04  0.7818609E-02  0.8049379E-01
       -2   -1    0    0    0  501  0.00000000000E+00  0.00000000000E+00  0.12464453648E+04  0.12464453648E+04  0.25500000920E-02 0.  1.
        2   -1    0    0  501    0  0.00000000000E+00  0.00000000000E+00 -0.28734337292E+04  0.28734337292E+04  0.25500000920E-02 0. -1.
    10030    2    1    2    0    0  0.00000000000E+00  0.00000000000E+00 -0.16269883644E+04  0.41198790940E+04  0.37850115734E+04 0.  0.
        2    1    3    3  502    0 -0.10551811717E+04 -0.92690371390E+03  0.56720169494E+03  0.15146866219E+04  0.25500000920E-02 0.  1.
       -2    1    3    3    0  502  0.10551811717E+04  0.92690371390E+03 -0.21941900593E+04  0.26051924720E+04  0.25500000920E-02 0. -1.
</event>
<event>
 5   0  0.1187925E-07  0.3131875E+04  0.7818609E-02  0.8207044E-01
       -1   -1    0    0    0  501  0.00000000000E+00  0.00000000000E+00  0.13486743565E+04  0.13486743565E+04  0.50400001928E-02 0. -1.
        1   -1    0    0  501    0  0.00000000000E+00  0.00000000000E+00 -0.18182005616E+04  0.18182005616E+04  0.50400001928E-02 0.  1.
    10030    2    1    2    0    0  0.00000000000E+00  0.00000000000E+00 -0.46952620507E+03  0.31668749181E+04  0.31318751396E+04 0.  0.
        2    1    3    3  502    0 -0.15545448257E+04 -0.15325180505E+03 -0.12369598934E+03  0.15669704619E+04  0.25500000920E-02 0. -1.
       -2    1    3    3    0  502  0.15545448257E+04  0.15325180505E+03 -0.34583021574E+03  0.15999044562E+04  0.25500000920E-02 0.  1.
</event>
<event>
 5   0  0.3665303E-07  0.3868220E+04  0.7818609E-02  0.8031672E-01
        2   -1    0    0  501    0  0.00000000000E+00  0.00000000000E+00  0.17707847417E+04  0.17707847417E+04  0.25500000920E-02 0.  1.
       -2   -1    0    0    0  501  0.00000000000E+00  0.00000000000E+00 -0.21124989305E+04  0.21124989305E+04  0.25500000920E-02 0. -1.
    10030    2    1    2    0    0  0.00000000000E+00  0.00000000000E+00 -0.34171418873E+03  0.38832836722E+04  0.38682196799E+04 0.  0.
        2    1    3    3  502    0  0.83322332164E+03 -0.62078987524E+03  0.14667956737E+04  0.17975346232E+04  0.25500000920E-02 0. -1.
       -2    1    3    3    0  502 -0.83322332164E+03  0.62078987524E+03 -0.18085098625E+04  0.20857490490E+04  0.25500000920E-02 0.  1.
</event>
<event>
 5   0  0.3610483E-07  0.3793881E+04  0.7818609E-02  0.8047469E-01
        2   -1    0    0  501    0  0.00000000000E+00  0.00000000000E+00  0.18251650445E+04  0.18251650445E+04  0.25500000920E-02 0.  1.
       -2   -1    0    0    0  501  0.00000000000E+00  0.00000000000E+00 -0.19715384469E+04  0.19715384469E+04  0.25500000920E-02 0. -1.
    10030    2    1    2    0    0  0.00000000000E+00  0.00000000000E+00 -0.14637340247E+03  0.37967034914E+04  0.37938808928E+04 0.  0.
        4    1    3    3  502    0  0.37899670408E+03  0.86570488049E+03  0.15728160065E+04  0.18348937966E+04  0.12699999809E+01 0.  1.
       -4    1    3    3    0  502 -0.37899670408E+03 -0.86570488049E+03 -0.17191894089E+04  0.19618096948E+04  0.12699999809E+01 0. -1.
</event>
<event>
 5   0  0.1187925E-07  0.3824413E+04  0.7818609E-02  0.8040936E-01
        1   -1    0    0  501    0  0.00000000000E+00  0.00000000000E+00  0.19573226863E+04  0.19573226863E+04  0.50400001928E-02 0. -1.
       -1   -1    0    0    0  501  0.00000000000E+00  0.00000000000E+00 -0.18681302083E+04  0.18681302083E+04  0.50400001928E-02 0.  1.
    10030    2    1    2    0    0  0.00000000000E+00  0.00000000000E+00  0.89192477999E+02  0.38254528947E+04  0.38244129682E+04 0.  0.
        1    1    3    3  502    0  0.18961967276E+04  0.22445821619E+03 -0.58340038389E+02  0.19103264330E+04  0.50400001928E-02 0. -1.
       -1    1    3    3    0  502 -0.18961967276E+04 -0.22445821619E+03  0.14753251639E+03  0.19151264616E+04  0.50400001928E-02 0.  1.
</event>
<event>
 5   0  0.1187925E-07  0.2870776E+04  0.7818609E-02  0.8281626E-01
        1   -1    0    0  501    0  0.00000000000E+00  0.00000000000E+00  0.13282773603E+04  0.13282773603E+04  0.50400001928E-02 0. -1.
       -1   -1    0    0    0  501  0.00000000000E+00  0.00000000000E+00 -0.15511364165E+04  0.15511364166E+04  0.50400001928E-02 0.  1.
    10030    2    1    2    0    0  0.00000000000E+00  0.00000000000E+00 -0.22285905624E+03  0.28794137769E+04  0.28707764698E+04 0.  0.
        3    1    3    3  502    0  0.10735755252E+04  0.75345101607E+02 -0.10640755979E+04  0.15134391897E+04  0.10100000352E+00 0.  1.
       -3    1    3    3    0  502 -0.10735755252E+04 -0.75345101607E+02  0.84121654168E+03  0.13659745872E+04  0.10100000352E+00 0. -1.
</event>
<event>
 5   0  0.3810833E-07  0.3955077E+04  0.7818609E-02  0.8013671E-01
        2   -1    0    0  501    0  0.00000000000E+00  0.00000000000E+00  0.28407949813E+04  0.28407949813E+04  0.25500000920E-02 0.  1.
       -2   -1    0    0    0  501  0.00000000000E+00  0.00000000000E+00 -0.13766069531E+04  0.13766069531E+04  0.25500000920E-02 0. -1.
    10030    2    1    2    0    0  0.00000000000E+00  0.00000000000E+00  0.14641880281E+04  0.42174019344E+04  0.39550768001E+04 0.  0.
        3    1    3    3  502    0  0.50576660893E+03  0.88639705607E+03 -0.10741122445E+04  0.14816263793E+04  0.10100000352E+00 0. -1.
       -3    1    3    3    0  502 -0.50576660893E+03 -0.88639705607E+03  0.25383002727E+04  0.27357755552E+04  0.10100000352E+00 0.  1.
</event>
<event>
 5   0  0.1187925E-07  0.3892351E+04  0.7818609E-02  0.8026622E-01
        1   -1    0    0  501    0  0.00000000000E+00  0.00000000000E+00  0.22406881859E+04  0.22406881860E+04  0.50400001928E-02 0. -1.
       -1   -1    0    0    0  501  0.00000000000E+00  0.00000000000E+00 -0.16903735121E+04  0.16903735121E+04  0.50400001928E-02 0.  1.
    10030    2    1    2    0    0  0.00000000000E+00  0.00000000000E+00  0.55031467383E+03  0.39310616981E+04  0.38923514530E+04 0.  0.
        5    1    3    3  502    0 -0.49550872049E+02  0.17131312222E+04  0.12064473006E+04  0.20959033977E+04  0.46999998093E+01 0. -1.
       -5    1    3    3    0  502  0.49550872049E+02 -0.17131312222E+04 -0.65613262680E+03  0.18351583004E+04  0.46999998093E+01 0.  1.
</event>
<event>
 5   0  0.1187925E-07  0.3888524E+04  0.7818609E-02  0.8027420E-01
        1   -1    0    0  501    0  0.00000000000E+00  0.00000000000E+00  0.24131924480E+04  0.24131924480E+04  0.50400001928E-02 0.  1.
       -1   -1    0    0    0  501  0.00000000000E+00  0.00000000000E+00 -0.15664540779E+04  0.15664540780E+04  0.50400001928E-02 0. -1.
    10030    2    1    2    0    0  0.00000000000E+00  0.00000000000E+00  0.84673837005E+03  0.39796465260E+04  0.38885242193E+04 0.  0.
        4    1    3    3  502    0  0.12130161158E+03  0.15968667204E+04 -0.70494315053E+03  0.17497553721E+04  0.12699999809E+01 0. -1.
       -4    1    3    3    0  502 -0.12130161158E+03 -0.15968667204E+04  0.15516815206E+04  0.22298911539E+04  0.12699999809E+01 0.  1.
</event>
<event>
 5   0  0.3610483E-07  0.3882114E+04  0.7818609E-02  0.8028760E-01
        2   -1    0    0  501    0  0.00000000000E+00  0.00000000000E+00  0.25217079375E+04  0.25217079375E+04  0.25500000920E-02 0.  1.
       -2   -1    0    0    0  501  0.00000000000E+00  0.00000000000E+00 -0.14941071246E+04  0.14941071246E+04  0.25500000920E-02 0. -1.
    10030    2    1    2    0    0  0.00000000000E+00  0.00000000000E+00  0.10276008129E+04  0.40158150621E+04  0.38821137519E+04 0.  0.
        4    1    3    3  502    0  0.17313549165E+04  0.87804881679E+02 -0.38942693027E+03  0.17767820606E+04  0.12699999809E+01 0. -1.
       -4    1    3    3    0  502 -0.17313549165E+04 -0.87804881679E+02  0.14170277432E+04  0.22390330015E+04  0.12699999809E+01 0.  1.
</event>
<event>
 5   0  0.3680814E-07  0.3918386E+04  0.7818609E-02  0.8021216E-01
       -2   -1    0    0    0  501  0.00000000000E+00  0.00000000000E+00  0.18136955764E+04  0.18136955764E+04  0.25500000920E-02 0. -1.
        2   -1    0    0  501    0  0.00000000000E+00  0.00000000000E+00 -0.21163627305E+04  0.21163627305E+04  0.25500000920E-02 0.  1.
    10030    2    1    2    0    0  0.00000000000E+00  0.00000000000E+00 -0.30266715412E+03  0.39300583069E+04  0.39183862608E+04 0.  0.
        1    1    3    3  502    0  0.21491013324E+03  0.77842975944E+03  0.16390042014E+04  0.18271491532E+04  0.50400001928E-02 0. -1.
       -1    1    3    3    0  502 -0.21491013324E+03 -0.77842975944E+03 -0.19416713555E+04  0.21029091537E+04  0.50400001928E-02 0.  1.
</event>
<event>
 5   0  0.1187925E-07  0.3818959E+04  0.7818609E-02  0.8042099E-01
       -1   -1    0    0    0  501  0.00000000000E+00  0.00000000000E+00  0.13375907935E+04  0.13375907935E+04  0.50400001928E-02 0.  1.
        1   -1    0    0  501    0  0.00000000000E+00  0.00000000000E+00 -0.27258802144E+04  0.27258802144E+04  0.50400001928E-02 0. -1.
    10030    2    1    2    0    0  0.00000000000E+00  0.00000000000E+00 -0.13882894209E+04  0.40634710079E+04  0.38189591665E+04 0.  0.
        2    1    3    3  502    0 -0.71304533360E+03  0.14520407363E+04  0.38533360911E+03  0.16629305271E+04  0.25500000920E-02 0.  1.
       -2    1    3    3    0  502  0.71304533360E+03 -0.14520407363E+04 -0.17736230300E+04  0.24005404808E+04  0.25500000920E-02 0. -1.
</event>
<event>
 5   0  0.3665303E-07  0.3938975E+04  0.7818609E-02  0.8016972E-01
        2   -1    0    0  501    0  0.00000000000E+00  0.00000000000E+00  0.17203003098E+04  0.17203003098E+04  0.25500000920E-02 0.  1.
       -2   -1    0    0    0  501  0.00000000000E+00  0.00000000000E+00 -0.22547701536E+04  0.22547701536E+04  0.25500000920E-02 0. -1.
    10030    2    1    2    0    0  0.00000000000E+00  0.00000000000E+00 -0.53446984380E+03  0.39750704634E+04  0.39389753966E+04 0.  0.
        2    1    3    3  502    0 -0.40851070640E+02  0.19544777984E+04 -0.50865401412E+03  0.20199953417E+04  0.25500000920E-02 0.  1.
       -2    1    3    3    0  502  0.40851070640E+02 -0.19544777984E+04 -0.25815829678E+02  0.19550751217E+04  0.25500000920E-02 0. -1.
</event>
<event>
 5   0  0.3680814E-07  0.3879266E+04  0.7818609E-02  0.8029355E-01
        2   -1    0    0  501    0  0.00000000000E+00  0.00000000000E+00  0.11047430858E+04  0.11047430858E+04  0.25500000920E-02 0.  1.
       -2   -1    0    0    0  501  0.00000000000E+00  0.00000000000E+00 -0.34054754257E+04  0.34054754257E+04  0.25500000920E-02 0. -1.
    10030    2    1    2    0    0  0.00000000000E+00  0.00000000000E+00 -0.23007323399E+04  0.45102185115E+04  0.38792656162E+04 0.  0.
        1    1    3    3  502    0  0.13933229037E+04  0.10927973403E+04 -0.23002164942E+03  0.17856272568E+04  0.50400001928E-02 0.  1.
       -1    1    3    3    0  502 -0.13933229037E+04 -0.10927973403E+04 -0.20707106905E+04  0.27245912547E+04  0.50400001928E-02 0. -1.
</event>
<event>
 5   0  0.3810833E-07  0.3873315E+04  0.7818609E-02  0.8030602E-01
       -2   -1    0    0    0  501  0.00000000000E+00  0.00000000000E+00  0.16066544200E+04  0.16066544200E+04  0.25500000920E-02 0.  1.
        2   -1    0    0  501    0  0.00000000000E+00  0.00000000000E+00 -0.23344421362E+04  0.23344421362E+04  0.25500000920E-02 0. -1.
    10030    2    1    2    0    0  0.00000000000E+00  0.00000000000E+00 -0.72778771623E+03  0.39410965562E+04  0.38733147439E+04 0.  0.
        3    1    3    3  502    0 -0.76580983597E+03 -0.10665542400E+04 -0.18124071886E+04  0.22380398743E+04  0.10100000352E+00 0. -1.
       -3    1    3    3    0  502  0.76580983597E+03  0.10665542400E+04  0.10846194723E+04  0.17030566819E+04  0.10100000352E+00 0.  1.
</event>
<event>
 5   0  0.3665303E-07  0.3893188E+04  0.7818609E-02  0.8026448E-01
        2   -1    0    0  501    0  0.00000000000E+00  0.00000000000E+00  0.30749915637E+04  0.30749915637E+04  0.25500000920E-02 0. -1.
       -2   -1    0    0    0  501  0.00000000000E+00  0.00000000000E+00 -0.12322725591E+04  0.12322725591E+04  0.25500000920E-02 0.  1.
    10030    2    1    2    0    0  0.00000000000E+00  0.00000000000E+00  0.18427190047E+04  0.43072641228E+04  0.38931877547E+04 0.  0.
        2    1    3    3  502    0 -0.12219821626E+04  0.12567282541E+04  0.18579312341E+04  0.25543129763E+04  0.25500000920E-02 0. -1.
       -2    1    3    3    0  502  0.12219821626E+04 -0.12567282541E+04 -0.15212229443E+02  0.17529511465E+04  0.25500000920E-02 0.  1.
</event>
<event>
 5   0  0.1187925E-07  0.3883102E+04  0.7818609E-02  0.8028553E-01
       -1   -1    0    0    0  501  0.00000000000E+00  0.00000000000E+00  0.17350461258E+04  0.17350461258E+04  0.50400001928E-02 0.  1.
        1   -1    0    0  501    0  0.00000000000E+00  0.00000000000E+00 -0.21726342275E+04  0.21726342275E+04  0.50400001928E-02 0. -1.
    10030    2    1    2    0    0  0.00000000000E+00  0.00000000000E+00 -0.43758810172E+03  0.39076803534E+04  0.38831021616E+04 0.  0.
        5    1    3    3  502    0 -0.20481379355E+03  0.14408833567E+04  0.10744490120E+04  0.18090208144E+04  0.46999998093E+01 0.  1.
       -5    1    3    3    0  502  0.20481379355E+03 -0.14408833567E+04 -0.15120371137E+04  0.20986595390E+04  0.46999998093E+01 0. -1.
</event>
<event>
 5   0  0.3610483E-07  0.3822151E+04  0.7818609E-02  0.8041418E-01
        2   -1    0    0  501    0  0.00000000000E+00  0.00000000000E+00  0.26153973526E+04  0.26153973526E+04  0.25500000920E-02 0. -1.
       -2   -1    0    0    0  501  0.00000000000E+00  0.00000000000E+00 -0.13964263102E+04  0.13964263102E+04  0.25500000920E-02 0.  1.
    10030    2    1    2    0    0  0.00000000000E+00  0.00000000000E+00  0.12189710424E+04  0.40118236628E+04  0.38221510566E+04 0.  0.
        4    1    3    3  502    0  0.12563848006E+04 -0.97314836677E+03 -0.50464414008E+03  0.16673895261E+04  0.12699999809E+01 0.  1.
       -4    1    3    3    0  502 -0.12563848006E+04  0.97314836677E+03  0.17236151825E+04  0.23444341366E+04  0.12699999809E+01 0. -1.
</event>
<event>
 5   0  0.1187925E-07  0.3973143E+04  0.7818609E-02  0.8009986E-01
       -1   -1    0    0    0  501  0.00000000000E+00  0.00000000000E+00  0.21998770183E+04  0.21998770183E+04  0.50400001928E-02 0. -1.
        1   -1    0    0  501    0  0.00000000000E+00  0.00000000000E+00 -0.17939488546E+04  0.17939488546E+04  0.50400001928E-02 0.  1.
    10030    2    1    2    0    0  0.00000000000E+00  0.00000000000E+00  0.40592816372E+03  0.39938258729E+04  0.39731432681E+04 0.  0.
        3    1    3    3  502    0 -0.49235401607E+03  0.18818273898E+04  0.60852442554E+03  0.20381336533E+04  0.10100000352E+00 0. -1.
       -3    1    3    3    0  502  0.49235401607E+03 -0.18818273898E+04 -0.20259626183E+03  0.19556922196E+04  0.10100000352E+00 0.  1.
</event>
<event>
 5   0  0.1187925E-07  0.3778232E+04  0.7818609E-02  0.8050842E-01
        1   -1    0    0  501    0  0.00000000000E+00  0.00000000000E+00  0.25015499728E+04  0.25015499728E+04  0.50400001928E-02 0. -1.
       -1   -1    0    0    0  501  0.00000000000E+00  0.00000000000E+00 -0.14266195154E+04  0.14266195154E+04  0.50400001928E-02 0.  1.
    10030    2    1    2    0    0  0.00000000000E+00  0.00000000000E+00  0.10749304574E+04  0.39281694882E+04  0.37782323962E+04 0.  0.
        3    1    3    3  502    0 -0.10033620186E+04 -0.99669689814E+03  0.18396134375E+04  0.23204132513E+04  0.10100000352E+00 0. -1.
       -3    1    3    3    0  502  0.10033620186E+04  0.99669689814E+03 -0.76468298007E+03  0.16077562369E+04  0.10100000352E+00 0.  1.
</event>
<event>
 5   0  0.3810833E-07  0.3885161E+04  0.7818609E-02  0.8028123E-01
       -2   -1    0    0    0  501  0.00000000000E+00  0.00000000000E+00  0.13936118775E+04  0.13936118775E+04  0.25500000920E-02 0. -1.
        2   -1    0    0  501    0  0.00000000000E+00  0.00000000000E+00 -0.27077970993E+04  0.27077970993E+04  0.25500000920E-02 0.  1.
    10030    2    1    2    0    0  0.00000000000E+00  0.00000000000E+00 -0.13141852217E+04  0.41014089768E+04  0.38851605884E+04 0.  0.
        3    1    3    3  502    0  0.28190892355E+03 -0.13006918365E+04  0.83671166181E+03  0.15720554411E+04  0.10100000352E+00 0. -1.
       -3    1    3    3    0  502 -0.28190892355E+03  0.13006918365E+04 -0.21508968835E+04  0.25293535357E+04  0.10100000352E+00 0.  1.
</event>
<event>
 5   0  0.1187925E-07  0.3860984E+04  0.7818609E-02  0.8033193E-01
        1   -1    0    0  501    0  0.00000000000E+00  0.00000000000E+00  0.21646495918E+04  0.21646495918E+04  0.50400001928E-02 0.  1.
       -1   -1    0    0    0  501  0.00000000000E+00  0.00000000000E+00 -0.17216643602E+04  0.17216643602E+04  0.50400001928E-02 0. -1.
    10030    2    1    2    0    0  0.00000000000E+00  0.00000000000E+00  0.44298523166E+03  0.38863139520E+04  0.38609843587E+04 0.  0.
        3    1    3    3  502    0  0.15467333948E+04  0.11246776071E+04  0.48688144088E+03  0.19734075763E+04  0.10100000352E+00 0.  1.
       -3    1    3    3    0  502 -0.15467333948E+04 -0.11246776071E+04 -0.43896209222E+02  0.19129063757E+04  0.10100000352E+00 0. -1.
</event>
<event>
 5   0  0.1187925E-07  0.4283097E+04  0.7818609E-02  0.7949751E-01
        1   -1    0    0  501    0  0.00000000000E+00  0.00000000000E+00  0.19170452483E+04  0.19170452483E+04  0.50400001928E-02 0.  1.
       -1   -1    0    0    0  501  0.00000000000E+00  0.00000000000E+00 -0.23923429884E+04  0.23923429884E+04  0.50400001928E-02 0. -1.
    10030    2    1    2    0    0  0.00000000000E+00  0.00000000000E+00 -0.47529774004E+03  0.43093882367E+04  0.42830968974E+04 0.  0.
        4    1    3    3  502    0  0.25175556403E+03 -0.16819709740E+04 -0.15471065553E+04  0.22991188590E+04  0.12699999809E+01 0. -1.
       -4    1    3    3    0  502 -0.25175556403E+03  0.16819709740E+04  0.10718088153E+04  0.20102693777E+04  0.12699999809E+01 0.  1.
</event>
<event>
 5   0  0.1187925E-07  0.3839372E+04  0.7818609E-02  0.8037758E-01
       -1   -1    0    0    0  501  0.00000000000E+00  0.00000000000E+00  0.15240098121E+04  0.15240098121E+04  0.50400001928E-02 0.  1.
        1   -1    0    0  501    0  0.00000000000E+00  0.00000000000E+00 -0.24180910544E+04  0.24180910544E+04  0.50400001928E-02 0. -1.
    10030    2    1    2    0    0  0.00000000000E+00  0.00000000000E+00 -0.89408124224E+03  0.39421008665E+04  0.38393720807E+04 0.  0.
        5    1    3    3  502    0 -0.29493248217E+03  0.64181974476E+03 -0.22798097925E+04  0.23867284164E+04  0.46999998093E+01 0. -1.
       -5    1    3    3    0  502  0.29493248217E+03 -0.64181974476E+03  0.13857285502E+04  0.15553724501E+04  0.46999998093E+01 0.  1.
</event>
<event>
 5   0  0.1187925E-07  0.3880196E+04  0.7818609E-02  0.8029161E-01
       -1   -1    0    0    0  501  0.00000000000E+00  0.00000000000E+00  0.15219498550E+04  0.15219498550E+04  0.50400001928E-02 0.  1.
        1   -1    0    0  501    0  0.00000000000E+00  0.00000000000E+00 -0.24731306123E+04  0.24731306124E+04  0.50400001928E-02 0. -1.
    10030    2    1    2    0    0  0.00000000000E+00  0.00000000000E+00 -0.95118075736E+03  0.39950804674E+04  0.38801962718E+04 0.  0.
        4    1    3    3  502    0  0.14390568247E+04  0.13906632156E+03 -0.18076320265E+04  0.23146833786E+04  0.12699999809E+01 0. -1.
       -4    1    3    3    0  502 -0.14390568247E+04 -0.13906632156E+03  0.85645126919E+03  0.16803970888E+04  0.12699999809E+01 0.  1.
</event>
<event>
 5   0  0.3680814E-07  0.3916383E+04  0.7818609E-02  0.8021630E-01
       -2   -1    0    0    0  501  0.00000000000E+00  0.00000000000E+00  0.12928754047E+04  0.12928754047E+04  0.25500000920E-02 0. -1.
        2   -1    0    0  501    0  0.00000000000E+00  0.00000000000E+00 -0.29658810430E+04  0.29658810430E+04  0.25500000920E-02 0.  1.
    10030    2    1    2    0    0  0.00000000000E+00  0.00000000000E+00 -0.16730056383E+04  0.42587564478E+04  0.39163833591E+04 0.  0.
        1    1    3    3  502    0 -0.25658543523E+03  0.17603412532E+04  0.53507862253E+02  0.17797473149E+04  0.50400001928E-02 0. -1.
       -1    1    3    3    0  502  0.25658543523E+03 -0.17603412532E+04 -0.17265135005E+04  0.24790091329E+04  0.50400001928E-02 0.  1.
</event>
<event>
 5   0  0.1187925E-07  0.3954476E+04  0.7818609E-02  0.8013794E-01
        1   -1    0    0  501    0  0.00000000000E+00  0.00000000000E+00  0.27690485892E+04  0.27690485892E+04  0.50400001928E-02 0.  1.
       -1   -1    0    0    0  501  0.00000000000E+00  0.00000000000E+00 -0.14118457097E+04  0.14118457097E+04  0.50400001928E-02 0. -1.
    10030    2    1    2    0    0  0.00000000000E+00  0.00000000000E+00  0.13572028795E+04  0.41808942990E+04  0.39544756268E+04 0.  0.
        1    1    3    3  502    0 -0.11427936703E+04  0.10803756610E+04  0.19456693908E+04  0.25017630424E+04  0.50400001928E-02 0.  1.
       -1    1    3    3    0  502  0.11427936703E+04 -0.10803756610E+04 -0.58846651131E+03  0.16791312566E+04  0.50400001928E-02 0. -1.
</event>
<event>
 5   0  0.3810833E-07  0.3918264E+04  0.7818609E-02  0.8021241E-01
       -2   -1    0    0    0  501  0.00000000000E+00  0.00000000000E+00  0.19558330075E+04  0.19558330075E+04  0.25500000920E-02 0. -1.
        2   -1    0    0  501    0  0.00000000000E+00  0.00000000000E+00 -0.19624368153E+04  0.19624368153E+04  0.25500000920E-02 0.  1.
    10030    2    1    2    0    0  0.00000000000E+00  0.00000000000E+00 -0.66038077869E+01  0.39182698227E+04  0.39182642577E+04 0.  0.
        3    1    3    3  502    0  0.13787819455E+04 -0.29065064733E+03  0.13578323653E+04  0.19568408710E+04  0.10100000352E+00 0. -1.
       -3    1    3    3    0  502 -0.13787819455E+04  0.29065064733E+03 -0.13644361731E+04  0.19614289517E+04  0.10100000352E+00 0.  1.
</event>
<event>
 5   0  0.3610483E-07  0.3889334E+04  0.7818609E-02  0.8027251E-01
        2   -1    0    0  501    0  0.00000000000E+00  0.00000000000E+00  0.18040202955E+04  0.18040202955E+04  0.25500000920E-02 0. -1.
       -2   -1    0    0    0  501  0.00000000000E+00  0.00000000000E+00 -0.20962792848E+04  0.20962792848E+04  0.25500000920E-02 0.  1.
    10030    2    1    2    0    0  0.00000000000E+00  0.00000000000E+00 -0.29225898933E+03  0.39002995803E+04  0.38893343260E+04 0.  0.
        4    1    3    3  502    0 -0.18015718508E+04  0.73143444068E+03 -0.17895230140E+03  0.19526092834E+04  0.12699999809E+01 0. -1.
       -4    1    3    3    0  502  0.18015718508E+04 -0.73143444068E+03 -0.11330668793E+03  0.19476902970E+04  0.12699999809E+01 0.  1.
</event>
<event>
 5   0  0.1187925E-07  0.3565519E+04  0.7818609E-02  0.8098436E-01
        1   -1    0    0  501    0  0.00000000000E+00  0.00000000000E+00  0.30799800611E+04  0.30799800611E+04  0.50400001928E-02 0. -1.
       -1   -1    0    0    0  501  0.00000000000E+00  0.00000000000E+00 -0.10319002508E+04  0.10319002509E+04  0.50400001928E-02 0.  1.
    10030    2    1    2    0    0  0.00000000000E+00  0.00000000000E+00  0.20480798103E+04  0.41118803120E+04  0.35655194279E+04 0.  0.
        4    1    3    3  502    0 -0.13919552891E+04  0.22894691022E+03 -0.23307803033E+03  0.14297843179E+04  0.12699999809E+01 0.  1.
       -4    1    3    3    0  502  0.13919552891E+04 -0.22894691022E+03  0.22811578406E+04  0.26820959940E+04  0.12699999809E+01 0. -1.
</event>
<event>
 5   0  0.1187925E-07  0.3830728E+04  0.7818609E-02  0.8039593E-01
       -1   -1    0    0    0  501  0.00000000000E+00  0.00000000000E+00  0.30835409464E+04  0.30835409464E+04  0.50400001928E-02 0. -1.
        1   -1    0    0  501    0  0.00000000000E+00  0.00000000000E+00 -0.11897424405E+04  0.11897424405E+04  0.50400001928E-02 0.  1.
    10030    2    1    2    0    0  0.00000000000E+00  0.00000000000E+00  0.18937985059E+04  0.42732833869E+04  0.38307281454E+04 0.  0.
        1    1    3    3  502    0  0.18378729822E+04 -0.34410397613E+03  0.48367325131E+03  0.19313530125E+04  0.50400001928E-02 0. -1.
       -1    1    3    3    0  502 -0.18378729822E+04  0.34410397613E+03  0.14101252546E+04  0.23419303744E+04  0.50400001928E-02 0.  1.
</event>
<event>
 5   0  0.3665303E-07  0.3808181E+04  0.7818609E-02  0.8044401E-01
        2   -1    0    0  501    0  0.00000000000E+00  0.00000000000E+00  0.18632684740E+04  0.18632684740E+04  0.25500000920E-02 0. -1.
       -2   -1    0    0    0  501  0.00000000000E+00  0.00000000000E+00 -0.19458071376E+04  0.19458071376E+04  0.25500000920E-02 0.  1.
    10030    2    1    2    0    0  0.00000000000E+00  0.00000000000E+00 -0.82538663606E+02  0.38090756116E+04  0.38081812436E+04 0.  0.
        2    1    3    3  502    0 -0.10889259669E+04  0.66700768533E+02 -0.16021973836E+04  0.19383614755E+04  0.25500000920E-02 0.  1.
       -2    1    3    3    0  502  0.10889259669E+04 -0.66700768533E+02  0.15196587200E+04  0.18707141361E+04  0.25500000920E-02 0. -1.
</event>
<event>
 5   0  0.3810833E-07  0.3827557E+04  0.7818609E-02  0.8040267E-01
       -2   -1    0    0    0  501  0.00000000000E+00  0.00000000000E+00  0.20308299810E+04  0.20308299810E+04  0.25500000920E-02 0. -1.
        2   -1    0    0  501    0  0.00000000000E+00  0.00000000000E+00 -0.18034739681E+04  0.18034739681E+04  0.25500000920E-02 0.  1.
    10030    2    1    2    0    0  0.00000000000E+00  0.00000000000E+00  0.22735601293E+03  0.38343039491E+04  0.38275574480E+04 0.  0.
        3    1    3    3  502    0 -0.87096220507E+03 -0.58591375089E+01 -0.15934205745E+04  0.18159291367E+04  0.10100000352E+00 0.  1.
       -3    1    3    3    0  502  0.87096220507E+03  0.58591375089E+01  0.18207765874E+04  0.20183748124E+04  0.10100000352E+00 0. -1.
</event>
<event>
 5   0  0.1187925E-07  0.3842123E+04  0.7818609E-02  0.8037175E-01
        1   -1    0    0  501    0  0.00000000000E+00  0.00000000000E+00  0.12372465326E+04  0.12372465326E+04  0.50400001928E-02 0. -1.
       -1   -1    0    0    0  501  0.00000000000E+00  0.00000000000E+00 -0.29828151861E+04  0.29828151861E+04  0.50400001928E-02 0.  1.
    10030    2    1    2    0    0  0.00000000000E+00  0.00000000000E+00 -0.17455686535E+04  0.42200617187E+04  0.38421232392E+04 0.  0.
        4    1    3    3  502    0 -0.28044734223E+03  0.18177065660E+04 -0.14821239605E+04  0.23620755532E+04  0.12699999809E+01 0.  1.
       -4    1    3    3    0  502  0.28044734223E+03 -0.18177065660E+04 -0.26344469303E+03  0.18579861655E+04  0.12699999809E+01 0. -1.
</event>
<event>
 5   0  0.1187925E-07  0.3837470E+04  0.7818609E-02  0.8038161E-01
        1   -1    0    0  501    0  0.00000000000E+00  0.00000000000E+00  0.21577097638E+04  0.21577097638E+04  0.50400001928E-02 0.  1.
       -1   -1    0    0    0  501  0.00000000000E+00  0.00000000000E+00 -0.17062272679E+04  0.17062272679E+04  0.50400001928E-02 0. -1.
    10030    2    1    2    0    0  0.00000000000E+00  0.00000000000E+00  0.45148249593E+03  0.38639370318E+04  0.38374696014E+04 0.  0.
        2    1    3    3  502    0 -0.35855081436E+03 -0.56194053990E+03 -0.15858922940E+04  0.17202878320E+04  0.25500000920E-02 0. -1.
       -2    1    3    3    0  502  0.35855081436E+03  0.56194053990E+03  0.20373747899E+04  0.21436491997E+04  0.25500000920E-02 0.  1.
</event>
<event>
 5   0  0.1187925E-07  0.3926949E+04  0.7818609E-02  0.8019448E-01
        1   -1    0    0  501    0  0.00000000000E+00  0.00000000000E+00  0.13271223229E+04  0.13271223229E+04  0.50400001928E-02 0. -1.
       -1   -1    0    0    0  501  0.00000000000E+00  0.00000000000E+00 -0.29049555590E+04  0.29049555590E+04  0.50400001928E-02 0.  1.
    10030    2    1    2    0    0  0.00000000000E+00  0.00000000000E+00 -0.15778332361E+04  0.42320778819E+04  0.39269486217E+04 0.  0.
        1    1    3    3  502    0 -0.17679946776E+04 -0.75321661068E+02  0.12792342220E+03  0.17742161466E+04  0.50400001928E-02 0. -1.
       -1    1    3    3    0  502  0.17679946776E+04  0.75321661068E+02 -0.17057566583E+04  0.24578617354E+04  0.50400001928E-02 0.  1.
</event>
<event>
 5   0  0.3665303E-07  0.3874069E+04  0.7818609E-02  0.8030444E-01
        2   -1    0    0  501    0  0.00000000000E+00  0.00000000000E+00  0.18879436887E+04  0.18879436887E+04  0.25500000920E-02 0.  1.
       -2   -1    0    0    0  501  0.00000000000E+00  0.00000000000E+00 -0.19874019901E+04  0.19874019901E+04  0.25500000920E-02 0. -1.
    10030    2    1    2    0    0  0.00000000000E+00  0.00000000000E+00 -0.99458301453E+02  0.38753456788E+04  0.38740692013E+04 0.  0.
        2    1    3    3  502    0 -0.80902352834E+03  0.13906323794E+04  0.10293874159E+04  0.19099779936E+04  0.25500000920E-02 0.  1.
       -2    1    3    3    0  502  0.80902352834E+03 -0.13906323794E+04 -0.11288457174E+04  0.19653676851E+04  0.25500000920E-02 0. -1.
</event>
<event>
 5   0  0.1187925E-07  0.3907919E+04  0.7818609E-02  0.8023384E-01
       -1   -1    0    0    0  501  0.00000000000E+00  0.00000000000E+00  0.17907887760E+04  0.17907887760E+04  0.50400001928E-02 0. -1.
        1   -1    0    0  501    0  0.00000000000E+00  0.00000000000E+00 -0.21319972729E+04  0.21319972729E+04  0.50400001928E-02 0.  1.
    10030    2    1    2    0    0  0.00000000000E+00  0.00000000000E+00 -0.34120849685E+03  0.39227860489E+04  0.39079185185E+04 0.  0.
        5    1    3    3  502    0  0.10546743942E+04 -0.22797693239E+03  0.14645877178E+04  0.18191621238E+04  0.46999998093E+01 0. -1.
       -5    1    3    3    0  502 -0.10546743942E+04  0.22797693239E+03 -0.18057962147E+04  0.21036239251E+04  0.46999998093E+01 0.  1.
</event>
<event>
 5   0  0.1187925E-07  0.3844507E+04  0.7818609E-02  0.8036671E-01
        1   -1    0    0  501    0  0.00000000000E+00  0.00000000000E+00  0.14736433946E+04  0.14736433946E+04  0.50400001928E-02 0.  1.
       -1   -1    0    0    0  501  0.00000000000E+00  0.00000000000E+00 -0.25074309321E+04  0.25074309321E+04  0.50400001928E-02 0. -1.
    10030    2    1    2    0    0  0.00000000000E+00  0.00000000000E+00 -0.10337875375E+04  0.39810743267E+04  0.38445072665E+04 0.  0.
        3    1    3    3  502    0  0.16015397316E+04  0.10533612472E+04 -0.66537338603E+03  0.20290936849E+04  0.10100000352E+00 0. -1.
       -3    1    3    3    0  502 -0.16015397316E+04 -0.10533612472E+04 -0.36841415149E+03  0.19519806418E+04  0.10100000352E+00 0.  1.
</event>
<event>
 5   0  0.3810833E-07  0.3803440E+04  0.7818609E-02  0.8045417E-01
        2   -1    0    0  501    0  0.00000000000E+00  0.00000000000E+00  0.31288159560E+04  0.31288159560E+04  0.25500000920E-02 0. -1.
       -2   -1    0    0    0  501  0.00000000000E+00  0.00000000000E+00 -0.11558812983E+04  0.11558812983E+04  0.25500000920E-02 0.  1.
    10030    2    1    2    0    0  0.00000000000E+00  0.00000000000E+00  0.19729346577E+04  0.42846972543E+04  0.38034404686E+04 0.  0.
        3    1    3    3  502    0  0.49457625628E+03 -0.18395406439E+03  0.30446924222E+04  0.30900803755E+04  0.10100000352E+00 0. -1.
       -3    1    3    3    0  502 -0.49457625628E+03  0.18395406439E+03 -0.10717577645E+04  0.11946168788E+04  0.10100000352E+00 0.  1.
</event>
<event>
 5   0  0.3810833E-07  0.3864064E+04  0.7818609E-02  0.8032545E-01
       -2   -1    0    0    0  501  0.00000000000E+00  0.00000000000E+00  0.16610875783E+04  0.16610875784E+04  0.25500000920E-02 0. -1.
        2   -1    0    0  501    0  0.00000000000E+00  0.00000000000E+00 -0.22471703237E+04  0.22471703237E+04  0.25500000920E-02 0.  1.
    10030    2    1    2    0    0  0.00000000000E+00  0.00000000000E+00 -0.58608274536E+03  0.39082579021E+04  0.38640635146E+04 0.  0.
        3    1    3    3  502    0  0.18771176626E+04  0.43888199038E+03 -0.16288947410E+03  0.19346113593E+04  0.10100000352E+00 0. -1.
       -3    1    3    3    0  502 -0.18771176626E+04 -0.43888199038E+03 -0.42319327126E+03  0.19736465427E+04  0.10100000352E+00 0.  1.
</event>
<event>
 5   0  0.1187925E-07  0.3927121E+04  0.7818609E-02  0.8019412E-01
       -1   -1    0    0    0  501  0.00000000000E+00  0.00000000000E+00  0.15570547812E+04  0.15570547812E+04  0.50400001928E-02 0.  1.
        1   -1    0    0  501    0  0.00000000000E+00  0.00000000000E+00 -0.24761937647E+04  0.24761937647E+04  0.50400001928E-02 0. -1.
    10030    2    1    2    0    0  0.00000000000E+00  0.00000000000E+00 -0.91913898349E+03  0.40332485459E+04  0.39271207471E+04 0.  0.
        1    1    3    3  502    0 -0.61341788330E+02 -0.19566901503E+04 -0.61590061490E+03  0.20522506491E+04  0.50400001928E-02 0. -1.
       -1    1    3    3    0  502  0.61341788330E+02  0.19566901503E+04 -0.30323836859E+03  0.19809978969E+04  0.50400001928E-02 0.  1.
</event>
<event>
 5   0  0.3680814E-07  0.3891211E+04  0.7818609E-02  0.8026860E-01
       -2   -1    0    0    0  501  0.00000000000E+00  0.00000000000E+00  0.23912642535E+04  0.23912642535E+04  0.25500000920E-02 0.  1.
        2   -1    0    0  501    0  0.00000000000E+00  0.00000000000E+00 -0.15830042647E+04  0.15830042647E+04  0.25500000920E-02 0. -1.
    10030    2    1    2    0    0  0.00000000000E+00  0.00000000000E+00  0.80825998881E+03  0.39742685183E+04  0.38912113854E+04 0.  0.
        1    1    3    3  502    0  0.17331351896E+04 -0.50680048155E+03 -0.33574757415E+03  0.18366629378E+04  0.50400001928E-02 0. -1.
       -1    1    3    3    0  502 -0.17331351896E+04  0.50680048155E+03  0.11440075630E+04  0.21376055805E+04  0.50400001928E-02 0.  1.
</event>
<event>
 5   0  0.1187925E-07  0.3904472E+04  0.7818609E-02  0.8024100E-01
        1   -1    0    0  501    0  0.00000000000E+00  0.00000000000E+00  0.26738640432E+04  0.26738640432E+04  0.50400001928E-02 0. -1.
       -1   -1    0    0    0  501  0.00000000000E+00  0.00000000000E+00 -0.14253627471E+04  0.14253627471E+04  0.50400001928E-02 0.  1.
    10030    2    1    2    0    0  0.00000000000E+00  0.00000000000E+00  0.12485012962E+04  0.40992267903E+04  0.39044724089E+04 0.  0.
        2    1    3    3  502    0 -0.86766655345E+03 -0.15548919139E+03  0.24530328264E+04  0.26066054907E+04  0.25500000920E-02 0. -1.
       -2    1    3    3    0  502  0.86766655345E+03  0.15548919139E+03 -0.12045315303E+04  0.14926212996E+04  0.25500000920E-02 0.  1.
</event>
<event>
 5   0  0.1187925E-07  0.3857921E+04  0.7818609E-02  0.8033838E-01
        1   -1    0    0  501    0  0.00000000000E+00  0.00000000000E+00  0.22881533155E+04  0.22881533155E+04  0.50400001928E-02 0. -1.
       -1   -1    0    0    0  501  0.00000000000E+00  0.00000000000E+00 -0.16261536615E+04  0.16261536615E+04  0.50400001928E-02 0.  1.
    10030    2    1    2    0    0  0.00000000000E+00  0.00000000000E+00  0.66199965406E+03  0.39143069770E+04  0.38579211459E+04 0.  0.
        1    1    3    3  502    0  0.45433279648E+02  0.10238084725E+04  0.19890943505E+04  0.22375755421E+04  0.50400001928E-02 0. -1.
       -1    1    3    3    0  502 -0.45433279648E+02 -0.10238084725E+04 -0.13270946965E+04  0.16767314349E+04  0.50400001928E-02 0.  1.
</event>
<event>
 5   0  0.3832389E-07  0.3901358E+04  0.7818609E-02  0.8024747E-01
        2   -1    0    0  501    0  0.00000000000E+00  0.00000000000E+00  0.23950566294E+04  0.23950566294E+04  0.25500000920E-02 0. -1.
       -2   -1    0    0    0  501  0.00000000000E+00  0.00000000000E+00 -0.15887508025E+04  0.15887508025E+04  0.25500000920E-02 0.  1.
    10030    2    1    2    0    0  0.00000000000E+00  0.00000000000E+00  0.80630582692E+03  0.39838074319E+04  0.39013577852E+04 0.  0.
        5    1    3    3  502    0 -0.16328132956E+04 -0.79846653120E+03 -0.31997838064E+03  0.18455449910E+04  0.46999998093E+01 0.  1.
       -5    1    3    3    0  502  0.16328132956E+04  0.79846653120E+03  0.11262842076E+04  0.21382624409E+04  0.46999998093E+01 0. -1.
</event>
<event>
 5   0  0.3680814E-07  0.3889512E+04  0.7818609E-02  0.8027214E-01
       -2   -1    0    0    0  501  0.00000000000E+00  0.00000000000E+00  0.17068152651E+04  0.17068152651E+04  0.25500000920E-02 0. -1.
        2   -1    0    0  501    0  0.00000000000E+00  0.00000000000E+00 -0.22158668120E+04  0.22158668120E+04  0.25500000920E-02 0.  1.
    10030    2    1    2    0    0  0.00000000000E+00  0.00000000000E+00 -0.50905154693E+03  0.39226820772E+04  0.38895116919E+04 0.  0.
        1    1    3    3  502    0  0.11012962637E+04  0.67872971362E+02 -0.18696246956E+04  0.21709345230E+04  0.50400001928E-02 0.  1.
       -1    1    3    3    0  502 -0.11012962637E+04 -0.67872971362E+02  0.13605731486E+04  0.17517475542E+04  0.50400001928E-02 0. -1.
</event>
<event>
 5   0  0.1187925E-07  0.4004298E+04  0.7818609E-02  0.8003680E-01
       -1   -1    0    0    0  501  0.00000000000E+00  0.00000000000E+00  0.17433397056E+04  0.17433397056E+04  0.50400001928E-02 0.  1.
        1   -1    0    0  501    0  0.00000000000E+00  0.00000000000E+00 -0.22993798384E+04  0.22993798384E+04  0.50400001928E-02 0. -1.
    10030    2    1    2    0    0  0.00000000000E+00  0.00000000000E+00 -0.55604013284E+03  0.40427195440E+04  0.40042977764E+04 0.  0.
        4    1    3    3  502    0 -0.10069076864E+04  0.28435866421E+03  0.14453666964E+04  0.17843232440E+04  0.12699999809E+01 0.  1.
       -4    1    3    3    0  502  0.10069076864E+04 -0.28435866421E+03 -0.20014068293E+04  0.22583963000E+04  0.12699999809E+01 0. -1.
</event>
<event>
 5   0  0.1187925E-07  0.3915011E+04  0.7818609E-02  0.8021914E-01
        1   -1    0    0  501    0  0.00000000000E+00  0.00000000000E+00  0.13890331510E+04  0.13890331510E+04  0.50400001928E-02 0. -1.
       -1   -1    0    0    0  501  0.00000000000E+00  0.00000000000E+00 -0.27586300647E+04  0.27586300647E+04  0.50400001928E-02 0.  1.
    10030    2    1    2    0    0  0.00000000000E+00  0.00000000000E+00 -0.13695969137E+04  0.41476632157E+04  0.39150114233E+04 0.  0.
        2    1    3    3  502    0 -0.19285024339E+04 -0.26032256763E+03 -0.46021239335E+03  0.19996712039E+04  0.25500000920E-02 0. -1.
       -2    1    3    3    0  502  0.19285024339E+04  0.26032256763E+03 -0.90938452039E+03  0.21479920118E+04  0.25500000920E-02 0.  1.
</event>
<event>
 5   0  0.3665303E-07  0.3837313E+04  0.7818609E-02  0.8038195E-01
        2   -1    0    0  501    0  0.00000000000E+00  0.00000000000E+00  0.14752176026E+04  0.14752176026E+04  0.25500000920E-02 0.  1.
       -2   -1    0    0    0  501  0.00000000000E+00  0.00000000000E+00 -0.24953891127E+04  0.24953891127E+04  0.25500000920E-02 0. -1.
    10030    2    1    2    0    0  0.00000000000E+00  0.00000000000E+00 -0.10201715101E+04  0.39706067154E+04  0.38373125724E+04 0.  0.
        2    1    3    3  502    0  0.13137587163E+04  0.33044142728E+03  0.89581915588E+03  0.16240829602E+04  0.25500000920E-02 0.  1.
       -2    1    3    3    0  502 -0.13137587163E+04 -0.33044142728E+03 -0.19159906660E+04  0.23465237552E+04  0.25500000920E-02 0. -1.
</event>
<event>
 5   0  0.1187925E-07  0.3871041E+04  0.7818609E-02  0.8031079E-01
        1   -1    0    0  501    0  0.00000000000E+00  0.00000000000E+00  0.24639277128E+04  0.24639277128E+04  0.50400001928E-02 0. -1.
       -1   -1    0    0    0  501  0.00000000000E+00  0.00000000000E+00 -0.15204337076E+04  0.15204337076E+04  0.50400001928E-02 0.  1.
    10030    2    1    2    0    0  0.00000000000E+00  0.00000000000E+00  0.94349400516E+03  0.39843614205E+04  0.38710405566E+04 0.  0.
        3    1    3    3  502    0 -0.56371019601E+03 -0.34704031394E+03  0.23437903191E+04  0.24354792618E+04  0.10100000352E+00 0. -1.
       -3    1    3    3    0  502  0.56371019601E+03  0.34704031394E+03 -0.14002963139E+04  0.15488821587E+04  0.10100000352E+00 0.  1.
</event>
<event>
 5   0  0.3832389E-07  0.3656070E+04  0.7818609E-02  0.8077767E-01
        2   -1    0    0  501    0  0.00000000000E+00  0.00000000000E+00  0.10869457126E+04  0.10869457126E+04  0.25500000920E-02 0.  1.
       -2   -1    0    0    0  501  0.00000000000E+00  0.00000000000E+00 -0.30744063872E+04  0.30744063872E+04  0.25500000920E-02 0. -1.
    10030    2    1    2    0    0  0.00000000000E+00  0.00000000000E+00 -0.19874606746E+04  0.41613520999E+04  0.36560704815E+04 0.  0.
        5    1    3    3  502    0 -0.39983775619E+03  0.63570363550E+03 -0.28907100392E+04  0.29866730594E+04  0.46999998093E+01 0. -1.
       -5    1    3    3    0  502  0.39983775619E+03 -0.63570363550E+03  0.90324936455E+03  0.11746790404E+04  0.46999998093E+01 0.  1.
</event>
<event>
 5   0  0.1187925E-07  0.4045294E+04  0.7818609E-02  0.7995471E-01
       -1   -1    0    0    0  501  0.00000000000E+00  0.00000000000E+00  0.30885982374E+04  0.30885982374E+04  0.50400001928E-02 0. -1.
        1   -1    0    0  501    0  0.00000000000E+00  0.00000000000E+00 -0.13245815863E+04  0.13245815863E+04  0.50400001928E-02 0.  1.
    10030    2    1    2    0    0  0.00000000000E+00  0.00000000000E+00  0.17640166512E+04  0.44131798237E+04  0.40452937360E+04 0.  0.
        3    1    3    3  502    0  0.63794653281E+03  0.24463550184E+03 -0.11948760326E+04  0.13764269145E+04  0.10100000352E+00 0.  1.
       -3    1    3    3    0  502 -0.63794653281E+03 -0.24463550184E+03  0.29588926837E+04  0.30367529092E+04  0.10100000352E+00 0. -1.
</event>
<event>
 5   0  0.3665303E-07  0.3696658E+04  0.7818609E-02  0.8068703E-01
        2   -1    0    0  501    0  0.00000000000E+00  0.00000000000E+00  0.18002622939E+04  0.18002622939E+04  0.25500000920E-02 0. -1.
       -2   -1    0    0    0  501  0.00000000000E+00  0.00000000000E+00 -0.18976789596E+04  0.18976789596E+04  0.25500000920E-02 0.  1.
    10030    2    1    2    0    0  0.00000000000E+00  0.00000000000E+00 -0.97416665672E+02  0.36979412535E+04  0.36966578835E+04 0.  0.
        2    1    3    3  502    0 -0.90949359879E+02 -0.84247104253E+03 -0.16919260578E+04  0.18922587108E+04  0.25500000920E-02 0.  1.
       -2    1    3    3    0  502  0.90949359879E+02  0.84247104253E+03  0.15945093921E+04  0.18056825427E+04  0.25500000920E-02 0. -1.
</event>
<event>
 5   0  0.3665303E-07  0.3860337E+04  0.7818609E-02  0.8033329E-01
        2   -1    0    0  501    0  0.00000000000E+00  0.00000000000E+00  0.21581586014E+04  0.21581586014E+04  0.25500000920E-02 0. -1.
       -2   -1    0    0    0  501  0.00000000000E+00  0.00000000000E+00 -0.17262635150E+04  0.17262635150E+04  0.25500000920E-02 0.  1.
    10030    2    1    2    0    0  0.00000000000E+00  0.00000000000E+00  0.43189508638E+03  0.38844221163E+04  0.38603370076E+04 0.  0.
        2    1    3    3  502    0  0.41374619232E+03 -0.14677547296E+04 -0.97467640627E+03  0.18098298138E+04  0.25500000920E-02 0.  1.
       -2    1    3    3    0  502 -0.41374619232E+03  0.14677547296E+04  0.14065714926E+04  0.20745923026E+04  0.25500000920E-02 0. -1.
</event>
<event>
 5   0  0.1187925E-07  0.3511744E+04  0.7818609E-02  0.8111012E-01
       -1   -1    0    0    0  501  0.00000000000E+00  0.00000000000E+00  0.15390365639E+04  0.15390365639E+04  0.50400001928E-02 0.  1.
        1   -1    0    0  501    0  0.00000000000E+00  0.00000000000E+00 -0.20032575431E+04  0.20032575431E+04  0.50400001928E-02 0. -1.
    10030    2    1    2    0    0  0.00000000000E+00  0.00000000000E+00 -0.46422097926E+03  0.35422941070E+04  0.35117440714E+04 0.  0.
        1    1    3    3  502    0 -0.43894864181E+03 -0.12668154305E+04  0.91159154457E+03  0.16212638247E+04  0.50400001928E-02 0.  1.
       -1    1    3    3    0  502  0.43894864181E+03  0.12668154305E+04 -0.13758125238E+04  0.19210302824E+04  0.50400001928E-02 0. -1.
</event>
<event>
 5   0  0.3810833E-07  0.3892266E+04  0.7818609E-02  0.8026640E-01
       -2   -1    0    0    0  501  0.00000000000E+00  0.00000000000E+00  0.18508243054E+04  0.18508243054E+04  0.25500000920E-02 0.  1.
        2   -1    0    0  501    0  0.00000000000E+00  0.00000000000E+00 -0.20463501035E+04  0.20463501035E+04  0.25500000920E-02 0. -1.
    10030    2    1    2    0    0  0.00000000000E+00  0.00000000000E+00 -0.19552579813E+03  0.38971744089E+04  0.38922664394E+04 0.  0.
        3    1    3    3  502    0 -0.62410148322E+03  0.71911767530E+03  0.16016697428E+04  0.18633246812E+04  0.10100000352E+00 0.  1.
       -3    1    3    3    0  502  0.62410148322E+03 -0.71911767530E+03 -0.17971955409E+04  0.20338497277E+04  0.10100000352E+00 0. -1.
</event>
<event>
 5   0  0.3665303E-07  0.3923135E+04  0.7818609E-02  0.8020235E-01
        2   -1    0    0  501    0  0.00000000000E+00  0.00000000000E+00  0.12039114096E+04  0.12039114096E+04  0.25500000920E-02 0. -1.
       -2   -1    0    0    0  501  0.00000000000E+00  0.00000000000E+00 -0.31960385009E+04  0.31960385009E+04  0.25500000920E-02 0.  1.
    10030    2    1    2    0    0  0.00000000000E+00  0.00000000000E+00 -0.19921270912E+04  0.43999499105E+04  0.39231350814E+04 0.  0.
        2    1    3    3  502    0 -0.11974900731E+04 -0.95726188912E+03 -0.23684786071E+04  0.28213513982E+04  0.25500000920E-02 0.  1.
       -2    1    3    3    0  502  0.11974900731E+04  0.95726188912E+03  0.37635151592E+03  0.15785985123E+04  0.25500000920E-02 0. -1.
</event>
<event>
 5   0  0.1187925E-07  0.3786505E+04  0.7818609E-02  0.8049057E-01
        1   -1    0    0  501    0  0.00000000000E+00  0.00000000000E+00  0.17935750953E+04  0.17935750954E+04  0.50400001928E-02 0.  1.
       -1   -1    0    0    0  501  0.00000000000E+00  0.00000000000E+00 -0.19984695394E+04  0.19984695394E+04  0.50400001928E-02 0. -1.
    10030    2    1    2    0    0  0.00000000000E+00  0.00000000000E+00 -0.20489444407E+03  0.37920446348E+04  0.37865050877E+04 0.  0.
        3    1    3    3  502    0  0.73565851256E+03  0.12773247158E+04  0.10874211508E+04  0.18317305059E+04  0.10100000352E+00 0.  1.
       -3    1    3    3    0  502 -0.73565851256E+03 -0.12773247158E+04 -0.12923155949E+04  0.19603141289E+04  0.10100000352E+00 0. -1.
</event>
<event>
 5   0  0.1187925E-07  0.4113563E+04  0.7818609E-02  0.7982021E-01
       -1   -1    0    0    0  501  0.00000000000E+00  0.00000000000E+00  0.22010675039E+04  0.22010675039E+04  0.50400001928E-02 0. -1.
        1   -1    0    0  501    0  0.00000000000E+00  0.00000000000E+00 -0.19219541902E+04  0.19219541902E+04  0.50400001928E-02 0.  1.
    10030    2    1    2    0    0  0.00000000000E+00  0.00000000000E+00  0.27911331371E+03  0.41230216941E+04  0.41135633760E+04 0.  0.
        3    1    3    3  502    0  0.20011875282E+04  0.38834428329E+03  0.41365958016E+03  0.20800666008E+04  0.10100000352E+00 0.  1.
       -3    1    3    3    0  502 -0.20011875282E+04 -0.38834428329E+03 -0.13454626645E+03  0.20429550933E+04  0.10100000352E+00 0. -1.
</event>
<event>
 5   0  0.1187925E-07  0.3569408E+04  0.7818609E-02  0.8097535E-01
       -1   -1    0    0    0  501  0.00000000000E+00  0.00000000000E+00  0.18162604905E+04  0.18162604905E+04  0.50400001928E-02 0.  1.
        1   -1    0    0  501    0  0.00000000000E+00  0.00000000000E+00 -0.17536957262E+04  0.17536957262E+04  0.50400001928E-02 0. -1.
    10030    2    1    2    0    0  0.00000000000E+00  0.00000000000E+00  0.62564764231E+02  0.35699562167E+04  0.35694079396E+04 0.  0.
        4    1    3    3  502    0 -0.14981511132E+04  0.75376420348E+02 -0.93583475418E+03  0.17680290334E+04  0.12699999809E+01 0. -1.
       -4    1    3    3    0  502  0.14981511132E+04 -0.75376420348E+02  0.99839951842E+03  0.18019271833E+04  0.12699999809E+01 0.  1.
</event>
<event>
 5   0  0.3810833E-07  0.3875745E+04  0.7818609E-02  0.8030093E-01
        2   -1    0    0  501    0  0.00000000000E+00  0.00000000000E+00  0.18139787075E+04  0.18139787075E+04  0.25500000920E-02 0.  1.
       -2   -1    0    0    0  501  0.00000000000E+00  0.00000000000E+00 -0.20702286434E+04  0.20702286434E+04  0.25500000920E-02 0. -1.
    10030    2    1    2    0    0  0.00000000000E+00  0.00000000000E+00 -0.25624993589E+03  0.38842073509E+04  0.38757454399E+04 0.  0.
        3    1    3    3  502    0 -0.15228994696E+04  0.13731589563E+03 -0.13212165959E+04  0.20208146261E+04  0.10100000352E+00 0. -1.
       -3    1    3    3    0  502  0.15228994696E+04 -0.13731589563E+03  0.10649666600E+04  0.18633927248E+04  0.10100000352E+00 0.  1.
</event>
<event>
 5   0  0.3665303E-07  0.3926952E+04  0.7818609E-02  0.8019447E-01
       -2   -1    0    0    0  501  0.00000000000E+00  0.00000000000E+00  0.24523480366E+04  0.24523480366E+04  0.25500000920E-02 0.  1.
        2   -1    0    0  501    0  0.00000000000E+00  0.00000000000E+00 -0.15720598327E+04  0.15720598327E+04  0.25500000920E-02 0. -1.
    10030    2    1    2    0    0  0.00000000000E+00  0.00000000000E+00  0.88028820380E+03  0.40244078693E+04  0.39269519193E+04 0.  0.
        2    1    3    3  502    0 -0.17002978583E+04  0.77845362779E+03 -0.17323701919E+03  0.18780345903E+04  0.25500000920E-02 0. -1.
       -2    1    3    3    0  502  0.17002978583E+04 -0.77845362779E+03  0.10535252230E+04  0.21463732790E+04  0.25500000920E-02 0.  1.
</event>
<event>
 5   0  0.3610483E-07  0.3927968E+04  0.7818609E-02  0.8019237E-01
        2   -1    0    0  501    0  0.00000000000E+00  0.00000000000E+00  0.28774511710E+04  0.28774511710E+04  0.25500000920E-02 0.  1.
       -2   -1    0    0    0  501  0.00000000000E+00  0.00000000000E+00 -0.13405035225E+04  0.13405035225E+04  0.25500000920E-02 0. -1.
    10030    2    1    2    0    0  0.00000000000E+00  0.00000000000E+00  0.15369476485E+04  0.42179546935E+04  0.39279681417E+04 0.  0.
        4    1    3    3  502    0  0.29662038998E+03 -0.21968998511E+03  0.28398686290E+04  0.28637567613E+04  0.12699999809E+01 0.  1.
       -4    1    3    3    0  502 -0.29662038998E+03  0.21968998511E+03 -0.13029209804E+04  0.13541979322E+04  0.12699999809E+01 0. -1.
</event>
<event>
 5   0  0.1187925E-07  0.2846668E+04  0.7818609E-02  0.8288924E-01
        1   -1    0    0  501    0  0.00000000000E+00  0.00000000000E+00  0.12653068377E+04  0.12653068377E+04  0.50400001928E-02 0.  1.
       -1   -1    0    0    0  501  0.00000000000E+00  0.00000000000E+00 -0.16010976750E+04  0.16010976750E+04  0.50400001928E-02 0. -1.
    10030    2    1    2    0    0  0.00000000000E+00  0.00000000000E+00 -0.33579083734E+03  0.28664045127E+04  0.28466681128E+04 0.  0.
        2    1    3    3  502    0  0.69351153951E+03  0.79892921529E+03 -0.11266701261E+04  0.15455198865E+04  0.25500000920E-02 0. -1.
       -2    1    3    3    0  502 -0.69351153951E+03 -0.79892921529E+03  0.79087928876E+03  0.13208846263E+04  0.25500000920E-02 0.  1.
</event>
<event>
 5   0  0.3680814E-07  0.4021341E+04  0.7818609E-02  0.8000255E-01
       -2   -1    0    0    0  501  0.00000000000E+00  0.00000000000E+00  0.22192722958E+04  0.22192722958E+04  0.25500000920E-02 0.  1.
        2   -1    0    0  501    0  0.00000000000E+00  0.00000000000E+00 -0.18216763638E+04  0.18216763638E+04  0.25500000920E-02 0. -1.
    10030    2    1    2    0    0  0.00000000000E+00  0.00000000000E+00  0.39759593194E+03  0.40409486596E+04  0.40213410132E+04 0.  0.
        1    1    3    3  502    0  0.11260480122E+04 -0.16584392364E+04  0.41860093422E+02  0.20050329409E+04  0.50400001928E-02 0.  1.
       -1    1    3    3    0  502 -0.11260480122E+04  0.16584392364E+04  0.35573583851E+03  0.20359157187E+04  0.50400001928E-02 0. -1.
</event>
<event>
 5   0  0.3665303E-07  0.3871622E+04  0.7818609E-02  0.8030957E-01
        2   -1    0    0  501    0  0.00000000000E+00  0.00000000000E+00  0.27005433512E+04  0.27005433512E+04  0.25500000920E-02 0. -1.
       -2   -1    0    0    0  501  0.00000000000E+00  0.00000000000E+00 -0.13876336386E+04  0.13876336386E+04  0.25500000920E-02 0.  1.
    10030    2    1    2    0    0  0.00000000000E+00  0.00000000000E+00  0.13129097126E+04  0.40881769898E+04  0.38716222939E+04 0.  0.
        2    1    3    3  502    0  0.19902342432E+03  0.99218888351E+03 -0.10860969629E+04  0.14844715278E+04  0.25500000920E-02 0.  1.
       -2    1    3    3    0  502 -0.19902342432E+03 -0.99218888351E+03  0.23990066754E+04  0.26037054620E+04  0.25500000920E-02 0. -1.
</event>
<event>
 5   0  0.1187925E-07  0.3865415E+04  0.7818609E-02  0.8032261E-01
        1   -1    0    0  501    0  0.00000000000E+00  0.00000000000E+00  0.28672407412E+04  0.28672407412E+04  0.50400001928E-02 0.  1.
       -1   -1    0    0    0  501  0.00000000000E+00  0.00000000000E+00 -0.13027712956E+04  0.13027712956E+04  0.50400001928E-02 0. -1.
    10030    2    1    2    0    0  0.00000000000E+00  0.00000000000E+00  0.15644694456E+04  0.41700120368E+04  0.38654153387E+04 0.  0.
        1    1    3    3  502    0 -0.31318824715E+03  0.89502020104E+03 -0.10345790082E+04  0.14033893839E+04  0.50400001928E-02 0. -1.
       -1    1    3    3    0  502  0.31318824715E+03 -0.89502020104E+03  0.25990484538E+04  0.27666226529E+04  0.50400001928E-02 0.  1.
</event>
<event>
 5   0  0.1187925E-07  0.3934328E+04  0.7818609E-02  0.8017927E-01
       -1   -1    0    0    0  501  0.00000000000E+00  0.00000000000E+00  0.21597053573E+04  0.21597053573E+04  0.50400001928E-02 0.  1.
        1   -1    0    0  501    0  0.00000000000E+00  0.00000000000E+00 -0.17917882352E+04  0.17917882352E+04  0.50400001928E-02 0. -1.
    10030    2    1    2    0    0  0.00000000000E+00  0.00000000000E+00  0.36791712217E+03  0.39514935925E+04  0.39343282276E+04 0.  0.
        5    1    3    3  502    0  0.99476253330E+03  0.79245457271E+03 -0.13233141567E+04  0.18354070924E+04  0.46999998093E+01 0. -1.
       -5    1    3    3    0  502 -0.99476253330E+03 -0.79245457271E+03  0.16912312788E+04  0.21160865001E+04  0.46999998093E+01 0.  1.
</event>
<event>
 5   0  0.1187925E-07  0.2824023E+04  0.7818609E-02  0.8295849E-01
        1   -1    0    0  501    0  0.00000000000E+00  0.00000000000E+00  0.19946753072E+04  0.19946753072E+04  0.50400001928E-02 0.  1.
       -1   -1    0    0    0  501  0.00000000000E+00  0.00000000000E+00 -0.99954905336E+03  0.99954905337E+03  0.50400001928E-02 0. -1.
    10030    2    1    2    0    0  0.00000000000E+00  0.00000000000E+00  0.99512625380E+03  0.29942243605E+04  0.28240225318E+04 0.  0.
        4    1    3    3  502    0  0.57827749644E+03 -0.28255966255E+03  0.18301024554E+04  0.19399797514E+04  0.12699999809E+01 0.  1.
       -4    1    3    3    0  502 -0.57827749644E+03  0.28255966255E+03 -0.83497620158E+03  0.10542446091E+04  0.12699999809E+01 0. -1.
</event>
<event>
 5   0  0.1187925E-07  0.3914322E+04  0.7818609E-02  0.8022057E-01
       -1   -1    0    0    0  501  0.00000000000E+00  0.00000000000E+00  0.23570399663E+04  0.23570399664E+04  0.50400001928E-02 0. -1.
        1   -1    0    0  501    0  0.00000000000E+00  0.00000000000E+00 -0.16251223370E+04  0.16251223370E+04  0.50400001928E-02 0.  1.
    10030    2    1    2    0    0  0.00000000000E+00  0.00000000000E+00  0.73191762935E+03  0.39821623034E+04  0.39143215497E+04 0.  0.
        3    1    3    3  502    0  0.65841990290E+02  0.17820641230E+04  0.11864040176E+04  0.21418781967E+04  0.10100000352E+00 0. -1.
       -3    1    3    3    0  502 -0.65841990290E+02 -0.17820641230E+04 -0.45448638827E+03  0.18402841067E+04  0.10100000352E+00 0.  1.
</event>
<event>
 5   0  0.3810833E-07  0.3888372E+04  0.7818609E-02  0.8027452E-01
        2   -1    0    0  501    0  0.00000000000E+00  0.00000000000E+00  0.30678306725E+04  0.30678306725E+04  0.25500000920E-02 0.  1.
       -2   -1    0    0    0  501  0.00000000000E+00  0.00000000000E+00 -0.12320949824E+04  0.12320949824E+04  0.25500000920E-02 0. -1.
    10030    2    1    2    0    0  0.00000000000E+00  0.00000000000E+00  0.18357356901E+04  0.42999256549E+04  0.38883717819E+04 0.  0.
        3    1    3    3  502    0 -0.15876114478E+04  0.10599956369E+04  0.13253191696E+04  0.23239130300E+04  0.10100000352E+00 0.  1.
       -3    1    3    3    0  502  0.15876114478E+04 -0.10599956369E+04  0.51041652048E+03  0.19760126249E+04  0.10100000352E+00 0. -1.
</event>
<event>
 5   0  0.1187925E-07  0.3911188E+04  0.7818609E-02  0.8022706E-01
        1   -1    0    0  501    0  0.00000000000E+00  0.00000000000E+00  0.20553839916E+04  0.20553839916E+04  0.50400001928E-02 0.  1.
       -1   -1    0    0    0  501  0.00000000000E+00  0.00000000000E+00 -0.18606487951E+04  0.18606487951E+04  0.50400001928E-02 0. -1.
    10030    2    1    2    0    0  0.00000000000E+00  0.00000000000E+00  0.19473519649E+03  0.39160327868E+04  0.39111879257E+04 0.  0.
        2    1    3    3  502    0  0.93776318508E+03 -0.92522986391E+03  0.15444598458E+04  0.20299769230E+04  0.25500000920E-02 0.  1.
       -2    1    3    3    0  502 -0.93776318508E+03  0.92522986391E+03 -0.13497246493E+04  0.18860558638E+04  0.25500000920E-02 0. -1.
</event>
<event>
 5   0  0.3680814E-07  0.2972770E+04  0.7818609E-02  0.8251549E-01
        2   -1    0    0  501    0  0.00000000000E+00  0.00000000000E+00  0.19228366288E+04  0.19228366288E+04  0.25500000920E-02 0. -1.
       -2   -1    0    0    0  501  0.00000000000E+00  0.00000000000E+00 -0.11490008143E+04  0.11490008143E+04  0.25500000920E-02 0.  1.
    10030    2    1    2    0    0  0.00000000000E+00  0.00000000000E+00  0.77383581447E+03  0.30718374431E+04  0.29727703256E+04 0.  0.
        1    1    3    3  502    0 -0.67617616352E+03  0.10998806732E+03  0.17499784615E+04  0.18792914077E+04  0.50400001928E-02 0. -1.
       -1    1    3    3    0  502  0.67617616352E+03 -0.10998806732E+03 -0.97614264706E+03  0.11925460354E+04  0.50400001928E-02 0.  1.
</event>
<event>
 5   0  0.1187925E-07  0.3932158E+04  0.7818609E-02  0.8018374E-01
       -1   -1    0    0    0  501  0.00000000000E+00  0.00000000000E+00  0.13736476456E+04  0.13736476456E+04  0.50400001928E-02 0. -1.
        1   -1    0    0  501    0  0.00000000000E+00  0.00000000000E+00 -0.28140158767E+04  0.28140158767E+04  0.50400001928E-02 0.  1.
    10030    2    1    2    0    0  0.00000000000E+00  0.00000000000E+00 -0.14403682311E+04  0.41876635224E+04  0.39321578218E+04 0.  0.
        2    1    3    3  502    0  0.97659261404E+03 -0.11151457821E+04  0.65532251623E+03  0.16207192383E+04  0.25500000920E-02 0. -1.
       -2    1    3    3    0  502 -0.97659261404E+03  0.11151457821E+04 -0.20956907473E+04  0.25669442841E+04  0.25500000920E-02 0.  1.
</event>
<event>
 5   0  0.1187925E-07  0.3482372E+04  0.7818609E-02  0.8117980E-01
        1   -1    0    0  501    0  0.00000000000E+00  0.00000000000E+00  0.15254572531E+04  0.15254572531E+04  0.50400001928E-02 0. -1.
       -1   -1    0    0    0  501  0.00000000000E+00  0.00000000000E+00 -0.19874231518E+04  0.19874231518E+04  0.50400001928E-02 0.  1.
    10030    2    1    2    0    0  0.00000000000E+00  0.00000000000E+00 -0.46196589874E+03  0.35128804049E+04  0.34823722156E+04 0.  0.
        3    1    3    3  502    0 -0.94897335202E+03  0.94328498501E+03 -0.13549217345E+04  0.19042452317E+04  0.10100000352E+00 0.  1.
       -3    1    3    3    0  502  0.94897335202E+03 -0.94328498501E+03  0.89295583573E+03  0.16086351732E+04  0.10100000352E+00 0. -1.
</event>
<event>
 5   0  0.3610483E-07  0.3900785E+04  0.7818609E-02  0.8024866E-01
        2   -1    0    0  501    0  0.00000000000E+00  0.00000000000E+00  0.20275570467E+04  0.20275570467E+04  0.25500000920E-02 0.  1.
       -2   -1    0    0    0  501  0.00000000000E+00  0.00000000000E+00 -0.18761644604E+04  0.18761644604E+04  0.25500000920E-02 0. -1.
    10030    2    1    2    0    0  0.00000000000E+00  0.00000000000E+00  0.15139258626E+03  0.39037215071E+04  0.39007847787E+04 0.  0.
        4    1    3    3  502    0  0.15382173254E+04 -0.92683810829E+03 -0.68572304334E+03  0.19223316894E+04  0.12699999809E+01 0.  1.
       -4    1    3    3    0  502 -0.15382173254E+04  0.92683810829E+03  0.83711562960E+03  0.19813898176E+04  0.12699999809E+01 0. -1.
</event>
<event>
 5   0  0.1187925E-07  0.3909466E+04  0.7818609E-02  0.8023063E-01
        1   -1    0    0  501    0  0.00000000000E+00  0.00000000000E+00  0.19367059502E+04  0.19367059502E+04  0.50400001928E-02 0.  1.
       -1   -1    0    0    0  501  0.00000000000E+00  0.00000000000E+00 -0.19729282994E+04  0.19729282994E+04  0.50400001928E-02 0. -1.
    10030    2    1    2    0    0  0.00000000000E+00  0.00000000000E+00 -0.36222349233E+02  0.39096342496E+04  0.39094664479E+04 0.  0.
        4    1    3    3  502    0  0.53315236675E+03  0.84100222335E+03  0.16640561992E+04  0.19392320214E+04  0.12699999809E+01 0.  1.
       -4    1    3    3    0  502 -0.53315236675E+03 -0.84100222335E+03 -0.17002785484E+04  0.19704022282E+04  0.12699999809E+01 0. -1.
</event>
<event>
 5   0  0.3665303E-07  0.3853015E+04  0.7818609E-02  0.8034873E-01
        2   -1    0    0  501    0  0.00000000000E+00  0.00000000000E+00  0.25367055317E+04  0.25367055317E+04  0.25500000920E-02 0.  1.
       -2   -1    0    0    0  501  0.00000000000E+00  0.00000000000E+00 -0.14630908418E+04  0.14630908418E+04  0.25500000920E-02 0. -1.
    10030    2    1    2    0    0  0.00000000000E+00  0.00000000000E+00  0.10736146899E+04  0.39997963735E+04  0.38530147323E+04 0.  0.
        2    1    3    3  502    0  0.54787765851E+03  0.41352646748E+03  0.24054528143E+04  0.25014750268E+04  0.25500000920E-02 0.  1.
       -2    1    3    3    0  502 -0.54787765851E+03 -0.41352646748E+03 -0.13318381245E+04  0.14983213466E+04  0.25500000920E-02 0. -1.
</event>
<event>
 5   0  0.1187925E-07  0.3900786E+04  0.7818609E-02  0.8024866E-01
       -1   -1    0    0    0  501  0.00000000000E+00  0.00000000000E+00  0.22461268748E+04  0.22461268748E+04  0.50400001928E-02 0. -1.
        1   -1    0    0  501    0  0.00000000000E+00  0.00000000000E+00 -0.16935969945E+04  0.16935969945E+04  0.50400001928E-02 0.  1.
    10030    2    1    2    0    0  0.00000000000E+00  0.00000000000E+00  0.55252988037E+03  0.39397238693E+04  0.39007864460E+04 0.  0.
        5    1    3    3  502    0  0.27902683535E+03 -0.12424151380E+04 -0.12158309456E+04  0.17606016949E+04  0.46999998093E+01 0.  1.
       -5    1    3    3    0  502 -0.27902683535E+03  0.12424151380E+04  0.17683608260E+04  0.21791221744E+04  0.46999998093E+01 0. -1.
</event>
<event>
 5   0  0.3810833E-07  0.3927540E+04  0.7818609E-02  0.8019326E-01
       -2   -1    0    0    0  501  0.00000000000E+00  0.00000000000E+00  0.13684436786E+04  0.13684436786E+04  0.25500000920E-02 0.  1.
        2   -1    0    0  501    0  0.00000000000E+00  0.00000000000E+00 -0.28180861546E+04  0.28180861546E+04  0.25500000920E-02 0. -1.
    10030    2    1    2    0    0  0.00000000000E+00  0.00000000000E+00 -0.14496424760E+04  0.41865298332E+04  0.39275397816E+04 0.  0.
        3    1    3    3  502    0 -0.15000717873E+04  0.84461792237E+03 -0.17320080935E+04  0.24420169631E+04  0.10100000352E+00 0. -1.
       -3    1    3    3    0  502  0.15000717873E+04 -0.84461792237E+03  0.28236561752E+03  0.17445128701E+04  0.10100000352E+00 0.  1.
</event>
<event>
 5   0  0.1187925E-07  0.3864052E+04  0.7818609E-02  0.8032548E-01
       -1   -1    0    0    0  501  0.00000000000E+00  0.00000000000E+00  0.25115103709E+04  0.25115103709E+04  0.50400001928E-02 0.  1.
        1   -1    0    0  501    0  0.00000000000E+00  0.00000000000E+00 -0.14862465647E+04  0.14862465647E+04  0.50400001928E-02 0. -1.
    10030    2    1    2    0    0  0.00000000000E+00  0.00000000000E+00  0.10252638062E+04  0.39977569357E+04  0.38640515841E+04 0.  0.
        2    1    3    3  502    0 -0.73758245539E+03 -0.74530276046E+02  0.23585031699E+04  0.24722701800E+04  0.25500000920E-02 0.  1.
       -2    1    3    3    0  502  0.73758245539E+03  0.74530276046E+02 -0.13332393637E+04  0.15254867556E+04  0.25500000920E-02 0. -1.
</event>
<event>
 5   0  0.3665303E-07  0.3803482E+04  0.7818609E-02  0.8045408E-01
       -2   -1    0    0    0  501  0.00000000000E+00  0.00000000000E+00  0.21341658960E+04  0.21341658960E+04  0.25500000920E-02 0.  1.
        2   -1    0    0  501    0  0.00000000000E+00  0.00000000000E+00 -0.16946290479E+04  0.16946290479E+04  0.25500000920E-02 0. -1.
    10030    2    1    2    0    0  0.00000000000E+00  0.00000000000E+00  0.43953684807E+03  0.38287949439E+04  0.38034823625E+04 0.  0.
        2    1    3    3  502    0 -0.37768706501E+03 -0.14727016918E+04 -0.93025374179E+03  0.17823775740E+04  0.25500000920E-02 0. -1.
       -2    1    3    3    0  502  0.37768706501E+03  0.14727016918E+04  0.13697905899E+04  0.20464173700E+04  0.25500000920E-02 0.  1.
</event>
<event>
 5   0  0.3680814E-07  0.4414712E+04  0.7818609E-02  0.7925741E-01
       -2   -1    0    0    0  501  0.00000000000E+00  0.00000000000E+00  0.16962863027E+04  0.16962863027E+04  0.25500000920E-02 0.  1.
        2   -1    0    0  501    0  0.00000000000E+00  0.00000000000E+00 -0.28724042444E+04  0.28724042444E+04  0.25500000920E-02 0. -1.
    10030    2    1    2    0    0  0.00000000000E+00  0.00000000000E+00 -0.11761179417E+04  0.45686905471E+04  0.44147117575E+04 0.  0.
        1    1    3    3  502    0  0.11981009196E+04 -0.15343045195E+04 -0.16649712246E+04  0.25615747795E+04  0.50400001928E-02 0. -1.
       -1    1    3    3    0  502 -0.11981009196E+04  0.15343045195E+04  0.48885328291E+03  0.20071157676E+04  0.50400001928E-02 0.  1.
</event>
<event>
 5   0  0.1187925E-07  0.3869699E+04  0.7818609E-02  0.8031361E-01
       -1   -1    0    0    0  501  0.00000000000E+00  0.00000000000E+00  0.21482277960E+04  0.21482277960E+04  0.50400001928E-02 0.  1.
        1   -1    0    0  501    0  0.00000000000E+00  0.00000000000E+00 -0.17426658803E+04  0.17426658803E+04  0.50400001928E-02 0. -1.
    10030    2    1    2    0    0  0.00000000000E+00  0.00000000000E+00  0.40556191565E+03  0.38908936763E+04  0.38696993595E+04 0.  0.
        3    1    3    3  502    0 -0.34223446075E+03 -0.58590973969E+03 -0.16191113424E+04  0.17555444166E+04  0.10100000352E+00 0. -1.
       -3    1    3    3    0  502  0.34223446075E+03  0.58590973969E+03  0.20246732581E+04  0.21353492598E+04  0.10100000352E+00 0.  1.
</event>
<event>
 5   0  0.1187925E-07  0.3911949E+04  0.7818609E-02  0.8022549E-01
       -1   -1    0    0    0  501  0.00000000000E+00  0.00000000000E+00  0.14406626543E+04  0.14406626544E+04  0.50400001928E-02 0. -1.
        1   -1    0    0  501    0  0.00000000000E+00  0.00000000000E+00 -0.26556081563E+04  0.26556081563E+04  0.50400001928E-02 0.  1.
    10030    2    1    2    0    0  0.00000000000E+00  0.00000000000E+00 -0.12149455020E+04  0.40962708107E+04  0.39119486170E+04 0.  0.
        4    1    3    3  502    0  0.13472571039E+04 -0.37911369751E+03 -0.20382375858E+04  0.24724973142E+04  0.12699999809E+01 0.  1.
       -4    1    3    3    0  502 -0.13472571039E+04  0.37911369751E+03  0.82329208379E+03  0.16237734965E+04  0.12699999809E+01 0. -1.
</event>
<event>
 5   0  0.3665303E-07  0.3931347E+04  0.7818609E-02  0.8018541E-01
        2   -1    0    0  501    0  0.00000000000E+00  0.00000000000E+00  0.29543396879E+04  0.29543396879E+04  0.25500000920E-02 0.  1.
       -2   -1    0    0    0  501  0.00000000000E+00  0.00000000000E+00 -0.13078630989E+04  0.13078630989E+04  0.25500000920E-02 0. -1.
    10030    2    1    2    0    0  0.00000000000E+00  0.00000000000E+00  0.16464765890E+04  0.42622027868E+04  0.39313467715E+04 0.  0.
        2    1    3    3  502    0 -0.29592371501E+03  0.95086934417E+03 -0.10141299290E+04  0.14213313715E+04  0.25500000920E-02 0. -1.
       -2    1    3    3    0  502  0.29592371501E+03 -0.95086934417E+03  0.26606065179E+04  0.28408714153E+04  0.25500000920E-02 0.  1.
</event>
<event>
 5   0  0.3610483E-07  0.3903435E+04  0.7818609E-02  0.8024315E-01
        2   -1    0    0  501    0  0.00000000000E+00  0.00000000000E+00  0.27504924713E+04  0.27504924713E+04  0.25500000920E-02 0. -1.
       -2   -1    0    0    0  501  0.00000000000E+00  0.00000000000E+00 -0.13849160440E+04  0.13849160440E+04  0.25500000920E-02 0.  1.
    10030    2    1    2    0    0  0.00000000000E+00  0.00000000000E+00  0.13655764273E+04  0.41354085153E+04  0.39034349757E+04 0.  0.
        4    1    3    3  502    0 -0.13084484597E+04  0.42007840764E+03 -0.78546452060E+03  0.15828642918E+04  0.12699999809E+01 0.  1.
       -4    1    3    3    0  502  0.13084484597E+04 -0.42007840764E+03  0.21510409479E+04  0.25525442234E+04  0.12699999809E+01 0. -1.
</event>
<event>
 5   0  0.3810833E-07  0.3863263E+04  0.7818609E-02  0.8032714E-01
       -2   -1    0    0    0  501  0.00000000000E+00  0.00000000000E+00  0.14662522741E+04  0.14662522741E+04  0.25500000920E-02 0.  1.
        2   -1    0    0  501    0  0.00000000000E+00  0.00000000000E+00 -0.25447186281E+04  0.25447186281E+04  0.25500000920E-02 0. -1.
    10030    2    1    2    0    0  0.00000000000E+00  0.00000000000E+00 -0.10784663540E+04  0.40109709022E+04  0.38632625981E+04 0.  0.
        3    1    3    3  502    0  0.12748821393E+04  0.77301262528E+03 -0.18143293998E+04  0.23483322101E+04  0.10100000352E+00 0. -1.
       -3    1    3    3    0  502 -0.12748821393E+04 -0.77301262528E+03  0.73586304584E+03  0.16626386921E+04  0.10100000352E+00 0.  1.
</event>
<event>
 5   0  0.3832389E-07  0.3936582E+04  0.7818609E-02  0.8017464E-01
        2   -1    0    0  501    0  0.00000000000E+00  0.00000000000E+00  0.16055484676E+04  0.16055484676E+04  0.25500000920E-02 0. -1.
       -2   -1    0    0    0  501  0.00000000000E+00  0.00000000000E+00 -0.24129885841E+04  0.24129885841E+04  0.25500000920E-02 0.  1.
    10030    2    1    2    0    0  0.00000000000E+00  0.00000000000E+00 -0.80744011647E+03  0.40185370518E+04  0.39365823368E+04 0.  0.
        5    1    3    3  502    0  0.31123913944E+03 -0.14792546063E+04  0.88311258925E+03  0.17507066937E+04  0.46999998093E+01 0. -1.
       -5    1    3    3    0  502 -0.31123913944E+03  0.14792546063E+04 -0.16905527057E+04  0.22678303581E+04  0.46999998093E+01 0.  1.
</event>
<event>
 5   0  0.1187925E-07  0.3915310E+04  0.7818609E-02  0.8021853E-01
       -1   -1    0    0    0  501  0.00000000000E+00  0.00000000000E+00  0.27980976844E+04  0.27980976844E+04  0.50400001928E-02 0. -1.
        1   -1    0    0  501    0  0.00000000000E+00  0.00000000000E+00 -0.13696494744E+04  0.13696494744E+04  0.50400001928E-02 0.  1.
    10030    2    1    2    0    0  0.00000000000E+00  0.00000000000E+00  0.14284482100E+04  0.41677471588E+04  0.39153099610E+04 0.  0.
        4    1    3    3  502    0 -0.70176827001E+01  0.18752713312E+04  0.11610732815E+03  0.18788758176E+04  0.12699999809E+01 0.  1.
       -4    1    3    3    0  502  0.70176827001E+01 -0.18752713312E+04  0.13123408819E+04  0.22888713412E+04  0.12699999809E+01 0. -1.
</event>
<event>
 5   0  0.1187925E-07  0.3832198E+04  0.7818609E-02  0.8039280E-01
       -1   -1    0    0    0  501  0.00000000000E+00  0.00000000000E+00  0.21735402601E+04  0.21735402601E+04  0.50400001928E-02 0. -1.
        1   -1    0    0  501    0  0.00000000000E+00  0.00000000000E+00 -0.16891498062E+04  0.16891498062E+04  0.50400001928E-02 0.  1.
    10030    2    1    2    0    0  0.00000000000E+00  0.00000000000E+00  0.48439045391E+03  0.38626900663E+04  0.38321978598E+04 0.  0.
        5    1    3    3  502    0  0.17663919245E+04  0.55288624706E+03  0.74170815791E+03  0.19939851340E+04  0.46999998093E+01 0. -1.
       -5    1    3    3    0  502 -0.17663919245E+04 -0.55288624706E+03 -0.25731770400E+03  0.18687049323E+04  0.46999998093E+01 0.  1.
</event>
<event>
 5   0  0.1187925E-07  0.3921007E+04  0.7818609E-02  0.8020674E-01
        1   -1    0    0  501    0  0.00000000000E+00  0.00000000000E+00  0.14351280464E+04  0.14351280464E+04  0.50400001928E-02 0.  1.
       -1   -1    0    0    0  501  0.00000000000E+00  0.00000000000E+00 -0.26782091044E+04  0.26782091044E+04  0.50400001928E-02 0. -1.
    10030    2    1    2    0    0  0.00000000000E+00  0.00000000000E+00 -0.12430810579E+04  0.41133371508E+04  0.39210065034E+04 0.  0.
        1    1    3    3  502    0 -0.10755968432E+04 -0.38582234042E+03  0.10496498126E+04  0.15516224336E+04  0.50400001928E-02 0.  1.
       -1    1    3    3    0  502  0.10755968432E+04  0.38582234042E+03 -0.22927308705E+04  0.25617147172E+04  0.50400001928E-02 0. -1.
</event>
<event>
 5   0  0.3610483E-07  0.3964983E+04  0.7818609E-02  0.8011648E-01
        2   -1    0    0  501    0  0.00000000000E+00  0.00000000000E+00  0.20177803888E+04  0.20177803888E+04  0.25500000920E-02 0. -1.
       -2   -1    0    0    0  501  0.00000000000E+00  0.00000000000E+00 -0.19478193333E+04  0.19478193333E+04  0.25500000920E-02 0.  1.
    10030    2    1    2    0    0  0.00000000000E+00  0.00000000000E+00  0.69961055586E+02  0.39655997221E+04  0.39649825481E+04 0.  0.
        4    1    3    3  502    0  0.35409848038E+03 -0.12678353286E+04 -0.14476394639E+04  0.19566434996E+04  0.12699999809E+01 0.  1.
       -4    1    3    3    0  502 -0.35409848038E+03  0.12678353286E+04  0.15176005194E+04  0.20089562225E+04  0.12699999809E+01 0. -1.
</event>
<event>
 5   0  0.3610483E-07  0.3877661E+04  0.7818609E-02  0.8029691E-01
        2   -1    0    0  501    0  0.00000000000E+00  0.00000000000E+00  0.23193046566E+04  0.23193046566E+04  0.25500000920E-02 0.  1.
       -2   -1    0    0    0  501  0.00000000000E+00  0.00000000000E+00 -0.16207716902E+04  0.16207716902E+04  0.25500000920E-02 0. -1.
    10030    2    1    2    0    0  0.00000000000E+00  0.00000000000E+00  0.69853296637E+03  0.39400763467E+04  0.38776608043E+04 0.  0.
        4    1    3    3  502    0  0.73547231158E+03  0.60403452435E+03  0.20656224259E+04  0.22743295379E+04  0.12699999809E+01 0.  1.
       -4    1    3    3    0  502 -0.73547231158E+03 -0.60403452435E+03 -0.13670894596E+04  0.16657468088E+04  0.12699999809E+01 0. -1.
</event>
<event>
 5   0  0.1187925E-07  0.4167872E+04  0.7818609E-02  0.7971512E-01
       -3   -1    0    0    0  501  0.00000000000E+00  0.00000000000E+00  0.20933735768E+04  0.20933735792E+04  0.10100000352E+00 0.  1.
        3   -1    0    0  501    0  0.00000000000E+00  0.00000000000E+00 -0.20745408404E+04  0.20745408429E+04  0.10100000352E+00 0. -1.
    10030    2    1    2    0    0  0.00000000000E+00  0.00000000000E+00  0.18832736334E+02  0.41679144221E+04  0.41678718740E+04 0.  0.
        5    1    3    3  502    0  0.74146754456E+03 -0.18727607497E+04 -0.52515429013E+03  0.20815417516E+04  0.46999998093E+01 0. -1.
       -5    1    3    3    0  502 -0.74146754456E+03  0.18727607497E+04  0.54398702646E+03  0.20863726705E+04  0.46999998093E+01 0.  1.
</event>
<event>
 5   0  0.3665303E-07  0.3957528E+04  0.7818609E-02  0.8013170E-01
       -2   -1    0    0    0  501  0.00000000000E+00  0.00000000000E+00  0.14200591722E+04  0.14200591722E+04  0.25500000920E-02 0. -1.
        2   -1    0    0  501    0  0.00000000000E+00  0.00000000000E+00 -0.27572837872E+04  0.27572837872E+04  0.25500000920E-02 0.  1.
    10030    2    1    2    0    0  0.00000000000E+00  0.00000000000E+00 -0.13372246149E+04  0.41773429594E+04  0.39575275779E+04 0.  0.
        2    1    3    3  502    0  0.17058403156E+04  0.98381544327E+03 -0.87362193137E+03  0.21542978642E+04  0.25500000920E-02 0. -1.
       -2    1    3    3    0  502 -0.17058403156E+04 -0.98381544327E+03 -0.46360268358E+03  0.20230450952E+04  0.25500000920E-02 0.  1.
</event>
<event>
 5   0  0.1187925E-07  0.3916023E+04  0.7818609E-02  0.8021705E-01
       -1   -1    0    0    0  501  0.00000000000E+00  0.00000000000E+00  0.18972440292E+04  0.18972440292E+04  0.50400001928E-02 0. -1.
        1   -1    0    0  501    0  0.00000000000E+00  0.00000000000E+00 -0.20207257373E+04  0.20207257373E+04  0.50400001928E-02 0.  1.
    10030    2    1    2    0    0  0.00000000000E+00  0.00000000000E+00 -0.12348170804E+03  0.39179697665E+04  0.39160234115E+04 0.  0.
        2    1    3    3  502    0  0.75234250277E+02 -0.19031501869E+04  0.39254320490E+03  0.19446673222E+04  0.25500000920E-02 0.  1.
       -2    1    3    3    0  502 -0.75234250277E+02  0.19031501869E+04 -0.51602491294E+03  0.19733024444E+04  0.25500000920E-02 0. -1.
</event>
<event>
 5   0  0.1187925E-07  0.3569017E+04  0.7818609E-02  0.8097626E-01
       -1   -1    0    0    0  501  0.00000000000E+00  0.00000000000E+00  0.15215252455E+04  0.15215252455E+04  0.50400001928E-02 0. -1.
        1   -1    0    0  501    0  0.00000000000E+00  0.00000000000E+00 -0.20929467562E+04  0.20929467562E+04  0.50400001928E-02 0.  1.
    10030    2    1    2    0    0  0.00000000000E+00  0.00000000000E+00 -0.57142151075E+03  0.36144720017E+04  0.35690174149E+04 0.  0.
        3    1    3    3  502    0 -0.64138176982E+03  0.10591816083E+04 -0.15870803299E+04  0.20129729848E+04  0.10100000352E+00 0. -1.
       -3    1    3    3    0  502  0.64138176982E+03 -0.10591816083E+04  0.10156588191E+04  0.16014990169E+04  0.10100000352E+00 0.  1.
</event>
<event>
 5   0  0.3810833E-07  0.3057168E+04  0.7818609E-02  0.8227592E-01
        2   -1    0    0  501    0  0.00000000000E+00  0.00000000000E+00  0.14245209178E+04  0.14245209178E+04  0.25500000920E-02 0. -1.
       -2   -1    0    0    0  501  0.00000000000E+00  0.00000000000E+00 -0.16402485917E+04  0.16402485918E+04  0.25500000920E-02 0.  1.
    10030    2    1    2    0    0  0.00000000000E+00  0.00000000000E+00 -0.21572767396E+03  0.30647695095E+04  0.30571675972E+04 0.  0.
        3    1    3    3  502    0 -0.24690167334E+03 -0.13365884875E+04  0.59326011516E+03  0.14830329719E+04  0.10100000352E+00 0. -1.
       -3    1    3    3    0  502  0.24690167334E+03  0.13365884875E+04 -0.80898778913E+03  0.15817365376E+04  0.10100000352E+00 0.  1.
</event>
<event>
 5   0  0.3680814E-07  0.3969536E+04  0.7818609E-02  0.8010720E-01
       -2   -1    0    0    0  501  0.00000000000E+00  0.00000000000E+00  0.24258846335E+04  0.24258846335E+04  0.25500000920E-02 0.  1.
        2   -1    0    0  501    0  0.00000000000E+00  0.00000000000E+00 -0.16238631943E+04  0.16238631943E+04  0.25500000920E-02 0. -1.
    10030    2    1    2    0    0  0.00000000000E+00  0.00000000000E+00  0.80202143921E+03  0.40497478278E+04  0.39695363810E+04 0.  0.
        1    1    3    3  502    0 -0.98498297385E+03 -0.84095395442E+02  0.21568459046E+04  0.23726035805E+04  0.50400001928E-02 0.  1.
       -1    1    3    3    0  502  0.98498297385E+03  0.84095395442E+02 -0.13548244653E+04  0.16771442473E+04  0.50400001928E-02 0. -1.
</event>
<event>
 5   0  0.1187925E-07  0.3858852E+04  0.7818609E-02  0.8033642E-01
       -1   -1    0    0    0  501  0.00000000000E+00  0.00000000000E+00  0.23896544654E+04  0.23896544654E+04  0.50400001928E-02 0.  1.
        1   -1    0    0  501    0  0.00000000000E+00  0.00000000000E+00 -0.15578342175E+04  0.15578342175E+04  0.50400001928E-02 0. -1.
    10030    2    1    2    0    0  0.00000000000E+00  0.00000000000E+00  0.83182024794E+03  0.39474886829E+04  0.38588524171E+04 0.  0.
        4    1    3    3  502    0 -0.44384253451E+03  0.15110380882E+04 -0.72434612531E+03  0.17334679754E+04  0.12699999809E+01 0.  1.
       -4    1    3    3    0  502  0.44384253451E+03 -0.15110380882E+04  0.15561663733E+04  0.22140207076E+04  0.12699999809E+01 0. -1.
</event>
<event>
 5   0  0.1187925E-07  0.3918857E+04  0.7818609E-02  0.8021119E-01
        1   -1    0    0  501    0  0.00000000000E+00  0.00000000000E+00  0.15484197547E+04  0.15484197547E+04  0.50400001928E-02 0.  1.
       -1   -1    0    0    0  501  0.00000000000E+00  0.00000000000E+00 -0.24795342707E+04  0.24795342707E+04  0.50400001928E-02 0. -1.
    10030    2    1    2    0    0  0.00000000000E+00  0.00000000000E+00 -0.93111451601E+03  0.40279540253E+04  0.39188568982E+04 0.  0.
        4    1    3    3  502    0  0.97355690697E+03  0.16992783318E+04 -0.53054996807E+03  0.20290009319E+04  0.12699999809E+01 0. -1.
       -4    1    3    3    0  502 -0.97355690697E+03 -0.16992783318E+04 -0.40056454794E+03  0.19989530935E+04  0.12699999809E+01 0.  1.
</event>
<event>
 5   0  0.1187925E-07  0.3851669E+04  0.7818609E-02  0.8035157E-01
        1   -1    0    0  501    0  0.00000000000E+00  0.00000000000E+00  0.21007814426E+04  0.21007814426E+04  0.50400001928E-02 0.  1.
       -1   -1    0    0    0  501  0.00000000000E+00  0.00000000000E+00 -0.17654566909E+04  0.17654566909E+04  0.50400001928E-02 0. -1.
    10030    2    1    2    0    0  0.00000000000E+00  0.00000000000E+00  0.33532475170E+03  0.38662381335E+04  0.38516690688E+04 0.  0.
        5    1    3    3  502    0 -0.20670536041E+03 -0.16157946109E+04  0.11988246932E+04  0.20225533530E+04  0.46999998093E+01 0.  1.
       -5    1    3    3    0  502  0.20670536041E+03  0.16157946109E+04 -0.86349994152E+03  0.18436847805E+04  0.46999998093E+01 0. -1.
</event>
<event>
 5   0  0.3610483E-07  0.3976901E+04  0.7818609E-02  0.8009223E-01
       -2   -1    0    0    0  501  0.00000000000E+00  0.00000000000E+00  0.21856089245E+04  0.21856089245E+04  0.25500000920E-02 0.  1.
        2   -1    0    0  501    0  0.00000000000E+00  0.00000000000E+00 -0.18090775057E+04  0.18090775057E+04  0.25500000920E-02 0. -1.
    10030    2    1    2    0    0  0.00000000000E+00  0.00000000000E+00  0.37653141879E+03  0.39946864302E+04  0.39769012769E+04 0.  0.
        4    1    3    3  502    0  0.84325341198E+02  0.19861764275E+04  0.23235693743E+03  0.20014991690E+04  0.12699999809E+01 0.  1.
       -4    1    3    3    0  502 -0.84325341198E+02 -0.19861764275E+04  0.14417448136E+03  0.19931872612E+04  0.12699999809E+01 0. -1.
</event>
<event>
 5   0  0.1187925E-07  0.3742584E+04  0.7818609E-02  0.8058590E-01
       -1   -1    0    0    0  501  0.00000000000E+00  0.00000000000E+00  0.33336470003E+04  0.33336470003E+04  0.50400001928E-02 0.  1.
        1   -1    0    0  501    0  0.00000000000E+00  0.00000000000E+00 -0.10504215224E+04  0.10504215224E+04  0.50400001928E-02 0. -1.
    10030    2    1    2    0    0  0.00000000000E+00  0.00000000000E+00  0.22832254778E+04  0.43840685227E+04  0.37425844318E+04 0.  0.
        5    1    3    3  502    0 -0.38796405567E+03  0.17314740643E+04  0.18377779847E+04  0.25545975328E+04  0.46999998093E+01 0.  1.
       -5    1    3    3    0  502  0.38796405567E+03 -0.17314740643E+04  0.44544749313E+03  0.18294709899E+04  0.46999998093E+01 0. -1.
</event>
<event>
 5   0  0.3810833E-07  0.3866619E+04  0.7818609E-02  0.8032008E-01
        2   -1    0    0  501    0  0.00000000000E+00  0.00000000000E+00  0.16833770009E+04  0.16833770009E+04  0.25500000920E-02 0.  1.
       -2   -1    0    0    0  501  0.00000000000E+00  0.00000000000E+00 -0.22203496891E+04  0.22203496891E+04  0.25500000920E-02 0. -1.
    10030    2    1    2    0    0  0.00000000000E+00  0.00000000000E+00 -0.53697268826E+03  0.39037266900E+04  0.38666189885E+04 0.  0.
        3    1    3    3  502    0 -0.40020900094E+03  0.13605573277E+04  0.10580495410E+04  0.17693932089E+04  0.10100000352E+00 0.  1.
       -3    1    3    3    0  502  0.40020900094E+03 -0.13605573277E+04 -0.15950222293E+04  0.21343334811E+04  0.10100000352E+00 0. -1.
</event>
<event>
 5   0  0.3810833E-07  0.3886596E+04  0.7818609E-02  0.8027823E-01
       -2   -1    0    0    0  501  0.00000000000E+00  0.00000000000E+00  0.18977341548E+04  0.18977341548E+04  0.25500000920E-02 0.  1.
        2   -1    0    0  501    0  0.00000000000E+00  0.00000000000E+00 -0.19899555881E+04  0.19899555881E+04  0.25500000920E-02 0. -1.
    10030    2    1    2    0    0  0.00000000000E+00  0.00000000000E+00 -0.92221433272E+02  0.38876897429E+04  0.38865957783E+04 0.  0.
        3    1    3    3  502    0 -0.64377375867E+03  0.56545385319E+03 -0.17907988839E+04  0.19852313128E+04  0.10100000352E+00 0. -1.
       -3    1    3    3    0  502  0.64377375867E+03 -0.56545385319E+03  0.16985774506E+04  0.19024584301E+04  0.10100000352E+00 0.  1.
</event>
<event>
 5   0  0.1187925E-07  0.3899599E+04  0.7818609E-02  0.8025113E-01
       -1   -1    0    0    0  501  0.00000000000E+00  0.00000000000E+00  0.21951562741E+04  0.21951562741E+04  0.50400001928E-02 0. -1.
        1   -1    0    0  501    0  0.00000000000E+00  0.00000000000E+00 -0.17318663061E+04  0.17318663061E+04  0.50400001928E-02 0.  1.
    10030    2    1    2    0    0  0.00000000000E+00  0.00000000000E+00  0.46328996801E+03  0.39270225801E+04  0.38995985371E+04 0.  0.
        5    1    3    3  502    0 -0.14539693020E+03  0.25554937592E+03  0.21726983819E+04  0.21925068072E+04  0.46999998093E+01 0. -1.
       -5    1    3    3    0  502  0.14539693020E+03 -0.25554937592E+03 -0.17094084139E+04  0.17345157729E+04  0.46999998093E+01 0.  1.
</event>
<event>
 5   0  0.3810833E-07  0.3903851E+04  0.7818609E-02  0.8024229E-01
       -2   -1    0    0    0  501  0.00000000000E+00  0.00000000000E+00  0.14767871404E+04  0.14767871404E+04  0.25500000920E-02 0. -1.
        2   -1    0    0  501    0  0.00000000000E+00  0.00000000000E+00 -0.25799334195E+04  0.25799334195E+04  0.25500000920E-02 0.  1.
    10030    2    1    2    0    0  0.00000000000E+00  0.00000000000E+00 -0.11031462791E+04  0.40567205600E+04  0.39038506616E+04 0.  0.
        3    1    3    3  502    0  0.66999959755E+03 -0.17135444405E+04  0.12577861950E+03  0.18441676392E+04  0.10100000352E+00 0. -1.
       -3    1    3    3    0  502 -0.66999959755E+03  0.17135444405E+04 -0.12289248986E+04  0.22125529207E+04  0.10100000352E+00 0.  1.
</event>
<event>
 5   0  0.3665303E-07  0.3552271E+04  0.7818609E-02  0.8101513E-01
       -2   -1    0    0    0  501  0.00000000000E+00  0.00000000000E+00  0.11843454149E+04  0.11843454149E+04  0.25500000920E-02 0.  1.
        2   -1    0    0  501    0  0.00000000000E+00  0.00000000000E+00 -0.26636290963E+04  0.26636290963E+04  0.25500000920E-02 0. -1.
    10030    2    1    2    0    0  0.00000000000E+00  0.00000000000E+00 -0.14792836814E+04  0.38479745112E+04  0.35522707707E+04 0.  0.
        2    1    3    3  502    0  0.25662095321E+03  0.16019684644E+04 -0.15226551047E+04  0.22250024365E+04  0.25500000920E-02 0.  1.
       -2    1    3    3    0  502 -0.25662095321E+03 -0.16019684644E+04  0.43371423262E+02  0.16229720746E+04  0.25500000920E-02 0. -1.
</event>
<event>
 5   0  0.3680814E-07  0.3901718E+04  0.7818609E-02  0.8024672E-01
       -2   -1    0    0    0  501  0.00000000000E+00  0.00000000000E+00  0.15050120916E+04  0.15050120916E+04  0.25500000920E-02 0. -1.
        2   -1    0    0  501    0  0.00000000000E+00  0.00000000000E+00 -0.25287837318E+04  0.25287837318E+04  0.25500000920E-02 0.  1.
    10030    2    1    2    0    0  0.00000000000E+00  0.00000000000E+00 -0.10237716402E+04  0.40337958233E+04  0.39017176183E+04 0.  0.
        1    1    3    3  502    0  0.57447347685E+03  0.71016955751E+03 -0.22940396100E+04  0.24692060077E+04  0.50400001928E-02 0.  1.
       -1    1    3    3    0  502 -0.57447347685E+03 -0.71016955751E+03  0.12702679698E+04  0.15645898157E+04  0.50400001928E-02 0. -1.
</event>
<event>
 5   0  0.1187925E-07  0.3871953E+04  0.7818609E-02  0.8030888E-01
        1   -1    0    0  501    0  0.00000000000E+00  0.00000000000E+00  0.21877186900E+04  0.21877186900E+04  0.50400001928E-02 0.  1.
       -1   -1    0    0    0  501  0.00000000000E+00  0.00000000000E+00 -0.17132027756E+04  0.17132027756E+04  0.50400001928E-02 0. -1.
    10030    2    1    2    0    0  0.00000000000E+00  0.00000000000E+00  0.47451591441E+03  0.39009214656E+04  0.38719533736E+04 0.  0.
        1    1    3    3  502    0 -0.15157978144E+04 -0.90443572779E+03  0.10384172014E+04  0.20479153508E+04  0.50400001928E-02 0.  1.
       -1    1    3    3    0  502  0.15157978144E+04  0.90443572779E+03 -0.56390128702E+03  0.18530061148E+04  0.50400001928E-02 0. -1.
</event>
<event>
 5   0  0.3610483E-07  0.3875967E+04  0.7818609E-02  0.8030046E-01
        2   -1    0    0  501    0  0.00000000000E+00  0.00000000000E+00  0.28535941041E+04  0.28535941041E+04  0.25500000920E-02 0.  1.
       -2   -1    0    0    0  501  0.00000000000E+00  0.00000000000E+00 -0.13161580260E+04  0.13161580260E+04  0.25500000920E-02 0. -1.
    10030    2    1    2    0    0  0.00000000000E+00  0.00000000000E+00  0.15374360781E+04  0.41697521302E+04  0.38759673802E+04 0.  0.
        4    1    3    3  502    0  0.11183107987E+04  0.21715124601E+03 -0.91791866783E+03  0.14629935064E+04  0.12699999809E+01 0. -1.
       -4    1    3    3    0  502 -0.11183107987E+04 -0.21715124601E+03  0.24553547460E+04  0.27067586238E+04  0.12699999809E+01 0.  1.
</event>
<event>
 5   0  0.3610483E-07  0.3337437E+04  0.7818609E-02  0.8153434E-01
        2   -1    0    0  501    0  0.00000000000E+00  0.00000000000E+00  0.14789709814E+04  0.14789709814E+04  0.25500000920E-02 0.  1.
       -2   -1    0    0    0  501  0.00000000000E+00  0.00000000000E+00 -0.18828095395E+04  0.18828095395E+04  0.25500000920E-02 0. -1.
    10030    2    1    2    0    0  0.00000000000E+00  0.00000000000E+00 -0.40383855812E+03  0.33617805210E+04  0.33374365447E+04 0.  0.
        4    1    3    3  502    0  0.15228957805E+04 -0.48558754703E+03  0.28075466238E+03  0.16229083823E+04  0.12699999809E+01 0. -1.
       -4    1    3    3    0  502 -0.15228957805E+04  0.48558754703E+03 -0.68459322050E+03  0.17388721386E+04  0.12699999809E+01 0.  1.
</event>
<event>
 5   0  0.3810833E-07  0.3873550E+04  0.7818609E-02  0.8030553E-01
        2   -1    0    0  501    0  0.00000000000E+00  0.00000000000E+00  0.28228435011E+04  0.28228435011E+04  0.25500000920E-02 0.  1.
       -2   -1    0    0    0  501  0.00000000000E+00  0.00000000000E+00 -0.13288364036E+04  0.13288364036E+04  0.25500000920E-02 0. -1.
    10030    2    1    2    0    0  0.00000000000E+00  0.00000000000E+00  0.14940070974E+04  0.41516799047E+04  0.38735498995E+04 0.  0.
        3    1    3    3  502    0 -0.10093325715E+04  0.14353105227E+04 -0.13176239769E+03  0.17596107172E+04  0.10100000352E+00 0. -1.
       -3    1    3    3    0  502  0.10093325715E+04 -0.14353105227E+04  0.16257694951E+04  0.23920691875E+04  0.10100000352E+00 0.  1.
</event>
<event>
 5   0  0.1187925E-07  0.3927381E+04  0.7818609E-02  0.8019358E-01
       -1   -1    0    0    0  501  0.00000000000E+00  0.00000000000E+00  0.13092699483E+04  0.13092699483E+04  0.50400001928E-02 0. -1.
        1   -1    0    0  501    0  0.00000000000E+00  0.00000000000E+00 -0.29452147870E+04  0.29452147870E+04  0.50400001928E-02 0.  1.
    10030    2    1    2    0    0  0.00000000000E+00  0.00000000000E+00 -0.16359448387E+04  0.42544847352E+04  0.39273814237E+04 0.  0.
        4    1    3    3  502    0 -0.69906813826E+03  0.17510593000E+04 -0.14124741265E+04  0.23558416129E+04  0.12699999809E+01 0.  1.
       -4    1    3    3    0  502  0.69906813826E+03 -0.17510593000E+04 -0.22347071214E+03  0.18986431223E+04  0.12699999809E+01 0. -1.
</event>
<event>
 5   0  0.1187925E-07  0.3881774E+04  0.7818609E-02  0.8028831E-01
        1   -1    0    0  501    0  0.00000000000E+00  0.00000000000E+00  0.26517926544E+04  0.26517926544E+04  0.50400001928E-02 0.  1.
       -1   -1    0    0    0  501  0.00000000000E+00  0.00000000000E+00 -0.14205645233E+04  0.14205645233E+04  0.50400001928E-02 0. -1.
    10030    2    1    2    0    0  0.00000000000E+00  0.00000000000E+00  0.12312281311E+04  0.40723571777E+04  0.38817741140E+04 0.  0.
        2    1    3    3  502    0  0.41877479598E+03  0.82481950815E+03  0.24056522331E+04  0.25773750634E+04  0.25500000920E-02 0.  1.
       -2    1    3    3    0  502 -0.41877479598E+03 -0.82481950815E+03 -0.11744241020E+04  0.14949821143E+04  0.25500000920E-02 0. -1.
</event>
<event>
 5   0  0.3810833E-07  0.3793529E+04  0.7818609E-02  0.8047545E-01
        2   -1    0    0  501    0  0.00000000000E+00  0.00000000000E+00  0.21785464192E+04  0.21785464192E+04  0.25500000920E-02 0.  1.
       -2   -1    0    0    0  501  0.00000000000E+00  0.00000000000E+00 -0.16514295073E+04  0.16514295073E+04  0.25500000920E-02 0. -1.
    10030    2    1    2    0    0  0.00000000000E+00  0.00000000000E+00  0.52711691192E+03  0.38299759264E+04  0.37935291429E+04 0.  0.
        3    1    3    3  502    0  0.14607019314E+04 -0.72807673972E+02 -0.95583889727E+03  0.17471631571E+04  0.10100000352E+00 0.  1.
       -3    1    3    3    0  502 -0.14607019314E+04  0.72807673972E+02  0.14829558092E+04  0.20828127693E+04  0.10100000352E+00 0. -1.
</event>
<event>
 5   0  0.3610483E-07  0.3907324E+04  0.7818609E-02  0.8023508E-01
       -2   -1    0    0    0  501  0.00000000000E+00  0.00000000000E+00  0.17887524233E+04  0.17887524233E+04  0.25500000920E-02 0. -1.
        2   -1    0    0  501    0  0.00000000000E+00  0.00000000000E+00 -0.21337750881E+04  0.21337750881E+04  0.25500000920E-02 0.  1.
    10030    2    1    2    0    0  0.00000000000E+00  0.00000000000E+00 -0.34502266484E+03  0.39225275115E+04  0.39073240765E+04 0.  0.
        4    1    3    3  502    0  0.19092128307E+04  0.38358256743E+03 -0.15170741655E+02  0.19474241919E+04  0.12699999809E+01 0. -1.
       -4    1    3    3    0  502 -0.19092128307E+04 -0.38358256743E+03 -0.32985192318E+03  0.19751033196E+04  0.12699999809E+01 0.  1.
</event>
<event>
 5   0  0.3610483E-07  0.3911819E+04  0.7818609E-02  0.8022575E-01
       -2   -1    0    0    0  501  0.00000000000E+00  0.00000000000E+00  0.26047565032E+04  0.26047565032E+04  0.25500000920E-02 0.  1.
        2   -1    0    0  501    0  0.00000000000E+00  0.00000000000E+00 -0.14686911772E+04  0.14686911772E+04  0.25500000920E-02 0. -1.
    10030    2    1    2    0    0  0.00000000000E+00  0.00000000000E+00  0.11360653259E+04  0.40734476804E+04  0.39118194718E+04 0.  0.
        4    1    3    3  502    0 -0.69867040230E+03 -0.83635597590E+03 -0.11232515227E+04  0.15650326660E+04  0.12699999809E+01 0. -1.
       -4    1    3    3    0  502  0.69867040230E+03  0.83635597590E+03  0.22593168486E+04  0.25084150144E+04  0.12699999809E+01 0.  1.
</event>
<event>
 5   0  0.1187925E-07  0.3112870E+04  0.7818609E-02  0.8212215E-01
       -1   -1    0    0    0  501  0.00000000000E+00  0.00000000000E+00  0.15738567097E+04  0.15738567097E+04  0.50400001928E-02 0. -1.
        1   -1    0    0  501    0  0.00000000000E+00  0.00000000000E+00 -0.15392061129E+04  0.15392061129E+04  0.50400001928E-02 0.  1.
    10030    2    1    2    0    0  0.00000000000E+00  0.00000000000E+00  0.34650596839E+02  0.31130628227E+04  0.31128699738E+04 0.  0.
        3    1    3    3  502    0 -0.69592006119E+03 -0.13561569879E+04  0.33202455271E+03  0.15600342372E+04  0.10100000352E+00 0. -1.
       -3    1    3    3    0  502  0.69592006119E+03  0.13561569879E+04 -0.29737395587E+03  0.15530285855E+04  0.10100000352E+00 0.  1.
</event>
<event>
 5   0  0.1187925E-07  0.3791505E+04  0.7818609E-02  0.8047980E-01
       -1   -1    0    0    0  501  0.00000000000E+00  0.00000000000E+00  0.13322648034E+04  0.13322648034E+04  0.50400001928E-02 0.  1.
        1   -1    0    0  501    0  0.00000000000E+00  0.00000000000E+00 -0.26975693423E+04  0.26975693423E+04  0.50400001928E-02 0. -1.
    10030    2    1    2    0    0  0.00000000000E+00  0.00000000000E+00 -0.13653045388E+04  0.40298341457E+04  0.37915045507E+04 0.  0.
        1    1    3    3  502    0  0.34400209086E+03  0.16771602095E+04 -0.15478695611E+04  0.23080519893E+04  0.50400001928E-02 0.  1.
       -1    1    3    3    0  502 -0.34400209086E+03 -0.16771602095E+04  0.18256502227E+03  0.17217821565E+04  0.50400001928E-02 0. -1.
</event>
<event>
 5   0  0.1187925E-07  0.3934083E+04  0.7818609E-02  0.8017978E-01
        1   -1    0    0  501    0  0.00000000000E+00  0.00000000000E+00  0.18447077954E+04  0.18447077954E+04  0.50400001928E-02 0. -1.
       -1   -1    0    0    0  501  0.00000000000E+00  0.00000000000E+00 -0.20974879642E+04  0.20974879642E+04  0.50400001928E-02 0.  1.
    10030    2    1    2    0    0  0.00000000000E+00  0.00000000000E+00 -0.25278016881E+03  0.39421957597E+04  0.39340830690E+04 0.  0.
        2    1    3    3  502    0  0.16968125864E+03  0.85413745266E+03 -0.18938044301E+04  0.20844274362E+04  0.25500000920E-02 0.  1.
       -2    1    3    3    0  502 -0.16968125864E+03 -0.85413745266E+03  0.16410242613E+04  0.18577683235E+04  0.25500000920E-02 0. -1.
</event>
<event>
 5   0  0.3680814E-07  0.3808183E+04  0.7818609E-02  0.8044401E-01
       -2   -1    0    0    0  501  0.00000000000E+00  0.00000000000E+00  0.17693186678E+04  0.17693186678E+04  0.25500000920E-02 0.  1.
        2   -1    0    0  501    0  0.00000000000E+00  0.00000000000E+00 -0.20491304946E+04  0.20491304946E+04  0.25500000920E-02 0. -1.
    10030    2    1    2    0    0  0.00000000000E+00  0.00000000000E+00 -0.27981182673E+03  0.38184491624E+04  0.38081832083E+04 0.  0.
        1    1    3    3  502    0 -0.12823517059E+04  0.12623797847E+03  0.12657301102E+04  0.18062210930E+04  0.50400001928E-02 0. -1.
       -1    1    3    3    0  502  0.12823517059E+04 -0.12623797847E+03 -0.15455419369E+04  0.20122280695E+04  0.50400001928E-02 0.  1.
</event>
<event>
 5   0  0.3610483E-07  0.3937619E+04  0.7818609E-02  0.8017250E-01
        2   -1    0    0  501    0  0.00000000000E+00  0.00000000000E+00  0.27303869754E+04  0.27303869754E+04  0.25500000920E-02 0. -1.
       -2   -1    0    0    0  501  0.00000000000E+00  0.00000000000E+00 -0.14196564108E+04  0.14196564108E+04  0.25500000920E-02 0.  1.
    10030    2    1    2    0    0  0.00000000000E+00  0.00000000000E+00  0.13107305645E+04  0.41500433862E+04  0.39376192673E+04 0.  0.
        4    1    3    3  502    0  0.45896706437E+03 -0.16896391287E+04  0.16043151562E+04  0.23747336451E+04  0.12699999809E+01 0. -1.
       -4    1    3    3    0  502 -0.45896706437E+03  0.16896391287E+04 -0.29358459172E+03  0.17753097411E+04  0.12699999809E+01 0.  1.
</event>
<event>
 5   0  0.1187925E-07  0.3582790E+04  0.7818609E-02  0.8094445E-01
        1   -1    0    0  501    0  0.00000000000E+00  0.00000000000E+00  0.15352387213E+04  0.15352387213E+04  0.50400001928E-02 0.  1.
       -1   -1    0    0    0  501  0.00000000000E+00  0.00000000000E+00 -0.20902916619E+04  0.20902916619E+04  0.50400001928E-02 0. -1.
    10030    2    1    2    0    0  0.00000000000E+00  0.00000000000E+00 -0.55505294066E+03  0.36255303832E+04  0.35827903641E+04 0.  0.
        5    1    3    3  502    0  0.33441952607E+03  0.32307853545E+03 -0.20281519288E+04  0.20807783389E+04  0.46999998093E+01 0. -1.
       -5    1    3    3    0  502 -0.33441952607E+03 -0.32307853545E+03  0.14730989881E+04  0.15447520443E+04  0.46999998093E+01 0.  1.
</event>
<event>
 5   0  0.3610483E-07  0.3925863E+04  0.7818609E-02  0.8019672E-01
        2   -1    0    0  501    0  0.00000000000E+00  0.00000000000E+00  0.22202877931E+04  0.22202877931E+04  0.25500000920E-02 0.  1.
       -2   -1    0    0    0  501  0.00000000000E+00  0.00000000000E+00 -0.17354054868E+04  0.17354054868E+04  0.25500000920E-02 0. -1.
    10030    2    1    2    0    0  0.00000000000E+00  0.00000000000E+00  0.48488230632E+03  0.39556932800E+04  0.39258627681E+04 0.  0.
        4    1    3    3  502    0 -0.58842304783E+03  0.12322986146E+03 -0.16403586138E+04  0.17470561745E+04  0.12699999809E+01 0. -1.
       -4    1    3    3    0  502  0.58842304783E+03 -0.12322986146E+03  0.21252409202E+04  0.22086371055E+04  0.12699999809E+01 0.  1.
</event>
<event>
 5   0  0.1187925E-07  0.3844311E+04  0.7818609E-02  0.8036712E-01
        1   -1    0    0  501    0  0.00000000000E+00  0.00000000000E+00  0.19863137806E+04  0.19863137806E+04  0.50400001928E-02 0.  1.
       -1   -1    0    0    0  501  0.00000000000E+00  0.00000000000E+00 -0.18600692738E+04  0.18600692738E+04  0.50400001928E-02 0. -1.
    10030    2    1    2    0    0  0.00000000000E+00  0.00000000000E+00  0.12624450687E+03  0.38463830544E+04  0.38443107218E+04 0.  0.
        3    1    3    3  502    0 -0.14680253069E+03  0.81236111808E+03 -0.16736705228E+04  0.18661871820E+04  0.10100000352E+00 0. -1.
       -3    1    3    3    0  502  0.14680253069E+03 -0.81236111808E+03  0.17999150296E+04  0.19801958724E+04  0.10100000352E+00 0.  1.
</event>
<event>
 5   0  0.1187925E-07  0.3965610E+04  0.7818609E-02  0.8011520E-01
        3   -1    0    0  501    0  0.00000000000E+00  0.00000000000E+00  0.30283396439E+04  0.30283396456E+04  0.10100000352E+00 0. -1.
       -3   -1    0    0    0  501  0.00000000000E+00  0.00000000000E+00 -0.12982410909E+04  0.12982410948E+04  0.10100000352E+00 0.  1.
    10030    2    1    2    0    0  0.00000000000E+00  0.00000000000E+00  0.17300985530E+04  0.43265807404E+04  0.39656096505E+04 0.  0.
        1    1    3    3  502    0 -0.14081907154E+04 -0.56725442057E+03 -0.52648346625E+03  0.16068489378E+04  0.50400001928E-02 0.  1.
       -1    1    3    3    0  502  0.14081907154E+04  0.56725442057E+03  0.22565820192E+04  0.27197318026E+04  0.50400001928E-02 0. -1.
</event>
<event>
 5   0  0.1187925E-07  0.3765609E+04  0.7818609E-02  0.8053576E-01
        1   -1    0    0  501    0  0.00000000000E+00  0.00000000000E+00  0.23814278632E+04  0.23814278632E+04  0.50400001928E-02 0. -1.
       -1   -1    0    0    0  501  0.00000000000E+00  0.00000000000E+00 -0.14885827314E+04  0.14885827314E+04  0.50400001928E-02 0.  1.
    10030    2    1    2    0    0  0.00000000000E+00  0.00000000000E+00  0.89284513188E+03  0.38700105946E+04  0.37656087918E+04 0.  0.
        5    1    3    3  502    0 -0.10692722317E+04  0.42233464461E+03  0.19788087865E+04  0.22885401375E+04  0.46999998093E+01 0. -1.
       -5    1    3    3    0  502  0.10692722317E+04 -0.42233464461E+03 -0.10859636546E+04  0.15814704571E+04  0.46999998093E+01 0.  1.
</event>
<event>
 5   0  0.3832389E-07  0.3928560E+04  0.7818609E-02  0.8019115E-01
        2   -1    0    0  501    0  0.00000000000E+00  0.00000000000E+00  0.19649494080E+04  0.19649494080E+04  0.25500000920E-02 0.  1.
       -2   -1    0    0    0  501  0.00000000000E+00  0.00000000000E+00 -0.19636107576E+04  0.19636107576E+04  0.25500000920E-02 0. -1.
    10030    2    1    2    0    0  0.00000000000E+00  0.00000000000E+00  0.13386504129E+01  0.39285601655E+04  0.39285599375E+04 0.  0.
        5    1    3    3  502    0 -0.10818833895E+04  0.14899720205E+04 -0.68335221650E+03  0.19640470035E+04  0.46999998093E+01 0.  1.
       -5    1    3    3    0  502  0.10818833895E+04 -0.14899720205E+04  0.68469086691E+03  0.19645131620E+04  0.46999998093E+01 0. -1.
</event>
<event>
 5   0  0.3832389E-07  0.3753945E+04  0.7818609E-02  0.8056111E-01
        2   -1    0    0  501    0  0.00000000000E+00  0.00000000000E+00  0.19947903579E+04  0.19947903579E+04  0.25500000920E-02 0.  1.
       -2   -1    0    0    0  501  0.00000000000E+00  0.00000000000E+00 -0.17661133125E+04  0.17661133125E+04  0.25500000920E-02 0. -1.
    10030    2    1    2    0    0  0.00000000000E+00  0.00000000000E+00  0.22867704547E+03  0.37609036704E+04  0.37539450218E+04 0.  0.
        5    1    3    3  502    0 -0.23171237083E+02  0.18573644863E+04 -0.15572372583E+03  0.18640310378E+04  0.46999998093E+01 0. -1.
       -5    1    3    3    0  502  0.23171237083E+02 -0.18573644863E+04  0.38440077130E+03  0.18968726326E+04  0.46999998093E+01 0.  1.
</event>
<event>
 5   0  0.3665303E-07  0.3445402E+04  0.7818609E-02  0.8126852E-01
       -2   -1    0    0    0  501  0.00000000000E+00  0.00000000000E+00  0.15358371489E+04  0.15358371489E+04  0.25500000920E-02 0. -1.
        2   -1    0    0  501    0  0.00000000000E+00  0.00000000000E+00 -0.19323003621E+04  0.19323003621E+04  0.25500000920E-02 0.  1.
    10030    2    1    2    0    0  0.00000000000E+00  0.00000000000E+00 -0.39646321322E+03  0.34681375110E+04  0.34454019673E+04 0.  0.
        2    1    3    3  502    0  0.12181786717E+03  0.17180126760E+04 -0.16205657968E+03  0.17299333753E+04  0.25500000920E-02 0. -1.
       -2    1    3    3    0  502 -0.12181786717E+03 -0.17180126760E+04 -0.23440663353E+03  0.17382041358E+04  0.25500000920E-02 0.  1.
</event>
<event>
 5   0  0.1187925E-07  0.3875283E+04  0.7818609E-02  0.8030190E-01
        1   -1    0    0  501    0  0.00000000000E+00  0.00000000000E+00  0.11225622800E+04  0.11225622800E+04  0.50400001928E-02 0.  1.
       -1   -1    0    0    0  501  0.00000000000E+00  0.00000000000E+00 -0.33445406495E+04  0.33445406495E+04  0.50400001928E-02 0. -1.
    10030    2    1    2    0    0  0.00000000000E+00  0.00000000000E+00 -0.22219783695E+04  0.44671029295E+04  0.38752833068E+04 0.  0.
        1    1    3    3  502    0  0.90964383968E+03  0.15349340607E+04 -0.23995898496E+03  0.18002929763E+04  0.50400001928E-02 0.  1.
       -1    1    3    3    0  502 -0.90964383968E+03 -0.15349340607E+04 -0.19820193846E+04  0.26668099532E+04  0.50400001928E-02 0. -1.
</event>
<event>
 5   0  0.3832389E-07  0.3922456E+04  0.7818609E-02  0.8020375E-01
       -2   -1    0    0    0  501  0.00000000000E+00  0.00000000000E+00  0.18860397262E+04  0.18860397262E+04  0.25500000920E-02 0.  1.
        2   -1    0    0  501    0  0.00000000000E+00  0.00000000000E+00 -0.20394133781E+04  0.20394133781E+04  0.25500000920E-02 0. -1.
    10030    2    1    2    0    0  0.00000000000E+00  0.00000000000E+00 -0.15337365189E+03  0.39254531043E+04  0.39224556845E+04 0.  0.
        5    1    3    3  502    0 -0.55922840011E+03  0.18242998809E+04 -0.53044934696E+03  0.19804557704E+04  0.46999998093E+01 0.  1.
       -5    1    3    3    0  502  0.55922840011E+03 -0.18242998809E+04  0.37707569508E+03  0.19449973339E+04  0.46999998093E+01 0. -1.
</event>
<event>
 5   0  0.1187925E-07  0.3870257E+04  0.7818609E-02  0.8031244E-01
        1   -1    0    0  501    0  0.00000000000E+00  0.00000000000E+00  0.14288401394E+04  0.14288401394E+04  0.50400001928E-02 0.  1.
       -1   -1    0    0    0  501  0.00000000000E+00  0.00000000000E+00 -0.26208133045E+04  0.26208133045E+04  0.50400001928E-02 0. -1.
    10030    2    1    2    0    0  0.00000000000E+00  0.00000000000E+00 -0.11919731651E+04  0.40496534439E+04  0.38702574836E+04 0.  0.
        5    1    3    3  502    0 -0.48190778320E+03  0.14379793343E+04  0.66167574740E+03  0.16546469599E+04  0.46999998093E+01 0.  1.
       -5    1    3    3    0  502  0.48190778320E+03 -0.14379793343E+04 -0.18536489125E+04  0.23950064839E+04  0.46999998093E+01 0. -1.
</event>
<event>
 5   0  0.3810833E-07  0.3938688E+04  0.7818609E-02  0.8017031E-01
        2   -1    0    0  501    0  0.00000000000E+00  0.00000000000E+00  0.21652350464E+04  0.21652350464E+04  0.25500000920E-02 0. -1.
       -2   -1    0    0    0  501  0.00000000000E+00  0.00000000000E+00 -0.17911751141E+04  0.17911751141E+04  0.25500000920E-02 0.  1.
    10030    2    1    2    0    0  0.00000000000E+00  0.00000000000E+00  0.37405993236E+03  0.39564101605E+04  0.39386876654E+04 0.  0.
        3    1    3    3  502    0  0.29756568783E+02 -0.16814927066E+04  0.12163416095E+04  0.20755216445E+04  0.10100000352E+00 0. -1.
       -3    1    3    3    0  502 -0.29756568783E+02  0.16814927066E+04 -0.84228167713E+03  0.18808885160E+04  0.10100000352E+00 0.  1.
</event>
<event>
 5   0  0.3832389E-07  0.3028060E+04  0.7818609E-02  0.8235763E-01
       -2   -1    0    0    0  501  0.00000000000E+00  0.00000000000E+00  0.97853818518E+03  0.97853818518E+03  0.25500000920E-02 0. -1.
        2   -1    0    0  501    0  0.00000000000E+00  0.00000000000E+00 -0.23425622380E+04  0.23425622380E+04  0.25500000920E-02 0.  1.
    10030    2    1    2    0    0  0.00000000000E+00  0.00000000000E+00 -0.13640240528E+04  0.33211004232E+04  0.30280598416E+04 0.  0.
        5    1    3    3  502    0  0.12880400439E+03  0.87102400558E+03  0.66884407324E+03  0.11057340431E+04  0.46999998093E+01 0. -1.
       -5    1    3    3    0  502 -0.12880400439E+03 -0.87102400558E+03 -0.20328681261E+04  0.22153663800E+04  0.46999998093E+01 0.  1.
</event>
<event>
 5   0  0.1187925E-07  0.3882327E+04  0.7818609E-02  0.8028715E-01
        1   -1    0    0  501    0  0.00000000000E+00  0.00000000000E+00  0.21115977797E+04  0.21115977797E+04  0.50400001928E-02 0. -1.
       -1   -1    0    0    0  501  0.00000000000E+00  0.00000000000E+00 -0.17844858471E+04  0.17844858471E+04  0.50400001928E-02 0.  1.
    10030    2    1    2    0    0  0.00000000000E+00  0.00000000000E+00  0.32711193259E+03  0.38960836268E+04  0.38823273188E+04 0.  0.
        4    1    3    3  502    0  0.29059669940E+03 -0.52980459803E+03  0.20148079040E+04  0.21034713824E+04  0.12699999809E+01 0. -1.
       -4    1    3    3    0  502 -0.29059669940E+03  0.52980459803E+03 -0.16876959714E+04  0.17926122443E+04  0.12699999809E+01 0.  1.
</event>
<event>
 5   0  0.3810833E-07  0.3986920E+04  0.7818609E-02  0.8007190E-01
       -2   -1    0    0    0  501  0.00000000000E+00  0.00000000000E+00  0.15892257673E+04  0.15892257673E+04  0.25500000920E-02 0.  1.
        2   -1    0    0  501    0  0.00000000000E+00  0.00000000000E+00 -0.25005153424E+04  0.25005153424E+04  0.25500000920E-02 0. -1.
    10030    2    1    2    0    0  0.00000000000E+00  0.00000000000E+00 -0.91128957506E+03  0.40897411097E+04  0.39869203221E+04 0.  0.
        3    1    3    3  502    0 -0.23923530083E+03 -0.90987140522E+03 -0.22584633581E+04  0.24465805226E+04  0.10100000352E+00 0. -1.
       -3    1    3    3    0  502  0.23923530083E+03  0.90987140522E+03  0.13471737831E+04  0.16431605872E+04  0.10100000352E+00 0.  1.
</event>
<event>
 5   0  0.3665303E-07  0.3789542E+04  0.7818609E-02  0.8048403E-01
        2   -1    0    0  501    0  0.00000000000E+00  0.00000000000E+00  0.25578944489E+04  0.25578944489E+04  0.25500000920E-02 0.  1.
       -2   -1    0    0    0  501  0.00000000000E+00  0.00000000000E+00 -0.14035593524E+04  0.14035593524E+04  0.25500000920E-02 0. -1.
    10030    2    1    2    0    0  0.00000000000E+00  0.00000000000E+00  0.11543350965E+04  0.39614538012E+04  0.37895417539E+04 0.  0.
        2    1    3    3  502    0 -0.18206679888E+04 -0.52413318399E+03  0.60296828862E+03  0.19882450244E+04  0.25500000920E-02 0.  1.
       -2    1    3    3    0  502  0.18206679888E+04  0.52413318399E+03  0.55136680790E+03  0.19732087768E+04  0.25500000920E-02 0. -1.
</event>
<event>
 5   0  0.3610483E-07  0.3935054E+04  0.7818609E-02  0.8017778E-01
       -2   -1    0    0    0  501  0.00000000000E+00  0.00000000000E+00  0.21337002130E+04  0.21337002130E+04  0.25500000920E-02 0.  1.
        2   -1    0    0  501    0  0.00000000000E+00  0.00000000000E+00 -0.18142950990E+04  0.18142950990E+04  0.25500000920E-02 0. -1.
    10030    2    1    2    0    0  0.00000000000E+00  0.00000000000E+00  0.31940511401E+03  0.39479953121E+04  0.39350536664E+04 0.  0.
        4    1    3    3  502    0  0.15876341927E+04  0.90720707018E+03  0.88841990945E+03  0.20329531589E+04  0.12699999809E+01 0.  1.
       -4    1    3    3    0  502 -0.15876341927E+04 -0.90720707018E+03 -0.56901479544E+03  0.19150421531E+04  0.12699999809E+01 0. -1.
</event>
<event>
 5   0  0.3810833E-07  0.3804443E+04  0.7818609E-02  0.8045202E-01
       -2   -1    0    0    0  501  0.00000000000E+00  0.00000000000E+00  0.15711375214E+04  0.15711375214E+04  0.25500000920E-02 0.  1.
        2   -1    0    0  501    0  0.00000000000E+00  0.00000000000E+00 -0.23030747608E+04  0.23030747608E+04  0.25500000920E-02 0. -1.
    10030    2    1    2    0    0  0.00000000000E+00  0.00000000000E+00 -0.73193723934E+03  0.38742122822E+04  0.38044432819E+04 0.  0.
        3    1    3    3  502    0 -0.59847307834E+03  0.12160338216E+04 -0.17251892328E+04  0.21938974862E+04  0.10100000352E+00 0. -1.
       -3    1    3    3    0  502  0.59847307834E+03 -0.12160338216E+04  0.99325199350E+03  0.16803147960E+04  0.10100000352E+00 0.  1.
</event>
<event>
 5   0  0.3680814E-07  0.3799907E+04  0.7818609E-02  0.8046175E-01
       -2   -1    0    0    0  501  0.00000000000E+00  0.00000000000E+00  0.14400895060E+04  0.14400895060E+04  0.25500000920E-02 0.  1.
        2   -1    0    0  501    0  0.00000000000E+00  0.00000000000E+00 -0.25066661696E+04  0.25066661696E+04  0.25500000920E-02 0. -1.
    10030    2    1    2    0    0  0.00000000000E+00  0.00000000000E+00 -0.10665766636E+04  0.39467556757E+04  0.37999071810E+04 0.  0.
        1    1    3    3  502    0  0.69296786896E+03 -0.13121161374E+04  0.69914665667E+03  0.16403229173E+04  0.50400001928E-02 0.  1.
       -1    1    3    3    0  502 -0.69296786896E+03  0.13121161374E+04 -0.17657233203E+04  0.23064327584E+04  0.50400001928E-02 0. -1.
</event>
<event>
 5   0  0.3680814E-07  0.3908391E+04  0.7818609E-02  0.8023286E-01
       -2   -1    0    0    0  501  0.00000000000E+00  0.00000000000E+00  0.27870504016E+04  0.27870504017E+04  0.25500000920E-02 0.  1.
        2   -1    0    0  501    0  0.00000000000E+00  0.00000000000E+00 -0.13702228810E+04  0.13702228810E+04  0.25500000920E-02 0. -1.
    10030    2    1    2    0    0  0.00000000000E+00  0.00000000000E+00  0.14168275206E+04  0.41572732827E+04  0.39083910914E+04 0.  0.
        1    1    3    3  502    0  0.11344046966E+04  0.15507744090E+04  0.10876342438E+04  0.22078776079E+04  0.50400001928E-02 0.  1.
       -1    1    3    3    0  502 -0.11344046966E+04 -0.15507744090E+04  0.32919327681E+03  0.19493956748E+04  0.50400001928E-02 0. -1.
</event>
<event>
 5   0  0.1187925E-07  0.3580232E+04  0.7818609E-02  0.8095035E-01
        1   -1    0    0  501    0  0.00000000000E+00  0.00000000000E+00  0.13987767786E+04  0.13987767786E+04  0.50400001928E-02 0. -1.
       -1   -1    0    0    0  501  0.00000000000E+00  0.00000000000E+00 -0.22909411809E+04  0.22909411809E+04  0.50400001928E-02 0.  1.
    10030    2    1    2    0    0  0.00000000000E+00  0.00000000000E+00 -0.89216440227E+03  0.36897179595E+04  0.35802320176E+04 0.  0.
        1    1    3    3  502    0 -0.16239259793E+04  0.10602478103E+03 -0.12146345826E+04  0.20306929875E+04  0.50400001928E-02 0.  1.
       -1    1    3    3    0  502  0.16239259793E+04 -0.10602478103E+03  0.32247018029E+03  0.16590249720E+04  0.50400001928E-02 0. -1.
</event>
<event>
 5   0  0.1187925E-07  0.3793116E+04  0.7818609E-02  0.8047634E-01
        1   -1    0    0  501    0  0.00000000000E+00  0.00000000000E+00  0.21123922756E+04  0.21123922756E+04  0.50400001928E-02 0. -1.
       -1   -1    0    0    0  501  0.00000000000E+00  0.00000000000E+00 -0.17027768517E+04  0.17027768517E+04  0.50400001928E-02 0.  1.
    10030    2    1    2    0    0  0.00000000000E+00  0.00000000000E+00  0.40961542392E+03  0.38151691273E+04  0.37931162221E+04 0.  0.
        2    1    3    3  502    0  0.85557672712E+03 -0.16859856048E+04  0.35525566727E+03  0.19237374001E+04  0.25500000920E-02 0.  1.
       -2    1    3    3    0  502 -0.85557672712E+03  0.16859856048E+04  0.54359756649E+02  0.18914317272E+04  0.25500000920E-02 0. -1.
</event>
<event>
 5   0  0.3680814E-07  0.3921362E+04  0.7818609E-02  0.8020601E-01
        2   -1    0    0  501    0  0.00000000000E+00  0.00000000000E+00  0.20632456374E+04  0.20632456374E+04  0.25500000920E-02 0.  1.
       -2   -1    0    0    0  501  0.00000000000E+00  0.00000000000E+00 -0.18632149065E+04  0.18632149065E+04  0.25500000920E-02 0. -1.
    10030    2    1    2    0    0  0.00000000000E+00  0.00000000000E+00  0.20003073084E+03  0.39264605439E+04  0.39213620223E+04 0.  0.
        1    1    3    3  502    0 -0.11147201686E+04 -0.12378048376E+04  0.11355302596E+04  0.20159838394E+04  0.50400001928E-02 0.  1.
       -1    1    3    3    0  502  0.11147201686E+04  0.12378048376E+04 -0.93549952871E+03  0.19104767045E+04  0.50400001928E-02 0. -1.
</event>
<event>
 5   0  0.1187925E-07  0.3596027E+04  0.7818609E-02  0.8091402E-01
       -1   -1    0    0    0  501  0.00000000000E+00  0.00000000000E+00  0.19406471251E+04  0.19406471251E+04  0.50400001928E-02 0. -1.
        1   -1    0    0  501    0  0.00000000000E+00  0.00000000000E+00 -0.16658630686E+04  0.16658630686E+04  0.50400001928E-02 0.  1.
    10030    2    1    2    0    0  0.00000000000E+00  0.00000000000E+00  0.27478405649E+03  0.36065101937E+04  0.35960269047E+04 0.  0.
        5    1    3    3  502    0 -0.80856461808E+03 -0.64723142796E+03  0.16114198677E+04  0.19155629311E+04  0.46999998093E+01 0. -1.
       -5    1    3    3    0  502  0.80856461808E+03  0.64723142796E+03 -0.13366358112E+04  0.16909472626E+04  0.46999998093E+01 0.  1.
</event>
<event>
 5   0  0.3832389E-07  0.3935970E+04  0.7818609E-02  0.8017589E-01
        2   -1    0    0  501    0  0.00000000000E+00  0.00000000000E+00  0.19504132987E+04  0.19504132987E+04  0.25500000920E-02 0.  1.
       -2   -1    0    0    0  501  0.00000000000E+00  0.00000000000E+00 -0.19857153346E+04  0.19857153346E+04  0.25500000920E-02 0. -1.
    10030    2    1    2    0    0  0.00000000000E+00  0.00000000000E+00 -0.35302035871E+02  0.39361286334E+04  0.39359703231E+04 0.  0.
        5    1    3    3  502    0 -0.55099368543E+02  0.13211437302E+04  0.14399695476E+04  0.19549913259E+04  0.46999998093E+01 0.  1.
       -5    1    3    3    0  502  0.55099368543E+02 -0.13211437302E+04 -0.14752715834E+04  0.19811373075E+04  0.46999998093E+01 0. -1.
</event>
<event>
 5   0  0.1187925E-07  0.3044913E+04  0.7818609E-02  0.8231021E-01
       -1   -1    0    0    0  501  0.00000000000E+00  0.00000000000E+00  0.10106615516E+04  0.10106615516E+04  0.50400001928E-02 0. -1.
        1   -1    0    0  501    0  0.00000000000E+00  0.00000000000E+00 -0.22934225848E+04  0.22934225848E+04  0.50400001928E-02 0.  1.
    10030    2    1    2    0    0  0.00000000000E+00  0.00000000000E+00 -0.12827610332E+04  0.33040841364E+04  0.30449131535E+04 0.  0.
        3    1    3    3  502    0 -0.15193051864E+03  0.82178558936E+02  0.99999437991E+03  0.10148029208E+04  0.10100000352E+00 0. -1.
       -3    1    3    3    0  502  0.15193051864E+03 -0.82178558936E+02 -0.22827554131E+04  0.22892812156E+04  0.10100000352E+00 0.  1.
</event>
<event>
 5   0  0.3665303E-07  0.3878635E+04  0.7818609E-02  0.8029487E-01
       -2   -1    0    0    0  501  0.00000000000E+00  0.00000000000E+00  0.12880739525E+04  0.12880739526E+04  0.25500000920E-02 0. -1.
        2   -1    0    0  501    0  0.00000000000E+00  0.00000000000E+00 -0.29198267405E+04  0.29198267405E+04  0.25500000920E-02 0.  1.
    10030    2    1    2    0    0  0.00000000000E+00  0.00000000000E+00 -0.16317527880E+04  0.42079006931E+04  0.38786352086E+04 0.  0.
        2    1    3    3  502    0  0.70904691357E+03 -0.43657377110E+03  0.10842676241E+04  0.13671066030E+04  0.25500000920E-02 0. -1.
       -2    1    3    3    0  502 -0.70904691357E+03  0.43657377110E+03 -0.27160204121E+04  0.28407940901E+04  0.25500000920E-02 0.  1.
</event>
<event>
 5   0  0.1187925E-07  0.3876205E+04  0.7818609E-02  0.8029996E-01
       -1   -1    0    0    0  501  0.00000000000E+00  0.00000000000E+00  0.17131559040E+04  0.17131559040E+04  0.50400001928E-02 0.  1.
        1   -1    0    0  501    0  0.00000000000E+00  0.00000000000E+00 -0.21925854963E+04  0.21925854963E+04  0.50400001928E-02 0. -1.
    10030    2    1    2    0    0  0.00000000000E+00  0.00000000000E+00 -0.47942959234E+03  0.39057414003E+04  0.38762047356E+04 0.  0.
        4    1    3    3  502    0 -0.47619054762E+03  0.11364595819E+04  0.12676595798E+04  0.17678405590E+04  0.12699999809E+01 0.  1.
       -4    1    3    3    0  502  0.47619054762E+03 -0.11364595819E+04 -0.17470891721E+04  0.21379008413E+04  0.12699999809E+01 0. -1.
</event>
<event>
 5   0  0.1187925E-07  0.4412543E+04  0.7818609E-02  0.7926129E-01
        1   -1    0    0  501    0  0.00000000000E+00  0.00000000000E+00  0.22930604390E+04  0.22930604390E+04  0.50400001928E-02 0.  1.
       -1   -1    0    0    0  501  0.00000000000E+00  0.00000000000E+00 -0.21227671729E+04  0.21227671729E+04  0.50400001928E-02 0. -1.
    10030    2    1    2    0    0  0.00000000000E+00  0.00000000000E+00  0.17029326615E+03  0.44158276119E+04  0.44125427705E+04 0.  0.
        5    1    3    3  502    0 -0.14045683680E+04  0.13016031990E+04  0.11816941179E+04  0.22502013835E+04  0.46999998093E+01 0.  1.
       -5    1    3    3    0  502  0.14045683680E+04 -0.13016031990E+04 -0.10114008518E+04  0.21656262284E+04  0.46999998093E+01 0. -1.
</event>
<event>
 5   0  0.1187925E-07  0.3449454E+04  0.7818609E-02  0.8125874E-01
       -1   -1    0    0    0  501  0.00000000000E+00  0.00000000000E+00  0.33281144625E+04  0.33281144625E+04  0.50400001928E-02 0.  1.
        1   -1    0    0  501    0  0.00000000000E+00  0.00000000000E+00 -0.89380454026E+03  0.89380454028E+03  0.50400001928E-02 0. -1.
    10030    2    1    2    0    0  0.00000000000E+00  0.00000000000E+00  0.24343099222E+04  0.42219190028E+04  0.34494543436E+04 0.  0.
        1    1    3    3  502    0 -0.79359297296E+03 -0.69022574941E+03 -0.45587610253E+03  0.11463090389E+04  0.50400001928E-02 0. -1.
       -1    1    3    3    0  502  0.79359297296E+03  0.69022574941E+03  0.28901860248E+04  0.30756099638E+04  0.50400001928E-02 0.  1.
</event>
<event>
 5   0  0.1187925E-07  0.3744864E+04  0.7818609E-02  0.8058092E-01
        1   -1    0    0  501    0  0.00000000000E+00  0.00000000000E+00  0.16596721332E+04  0.16596721332E+04  0.50400001928E-02 0. -1.
       -1   -1    0    0    0  501  0.00000000000E+00  0.00000000000E+00 -0.21124661319E+04  0.21124661319E+04  0.50400001928E-02 0.  1.
    10030    2    1    2    0    0  0.00000000000E+00  0.00000000000E+00 -0.45279399863E+03  0.37721382651E+04  0.37448637740E+04 0.  0.
        2    1    3    3  502    0 -0.94539782666E+03  0.27695003403E+02  0.14013729536E+04  0.16906774438E+04  0.25500000920E-02 0. -1.
       -2    1    3    3    0  502  0.94539782666E+03 -0.27695003403E+02 -0.18541669522E+04  0.20814608213E+04  0.25500000920E-02 0.  1.
</event>
<event>
 5   0  0.3810833E-07  0.3919823E+04  0.7818609E-02  0.8020919E-01
       -2   -1    0    0    0  501  0.00000000000E+00  0.00000000000E+00  0.18297786091E+04  0.18297786091E+04  0.25500000920E-02 0. -1.
        2   -1    0    0  501    0  0.00000000000E+00  0.00000000000E+00 -0.20992990384E+04  0.20992990384E+04  0.25500000920E-02 0.  1.
    10030    2    1    2    0    0  0.00000000000E+00  0.00000000000E+00 -0.26952042935E+03  0.39290776475E+04  0.39198226871E+04 0.  0.
        3    1    3    3  502    0  0.11288934523E+04 -0.18018564420E+03 -0.17304942155E+04  0.20740003696E+04  0.10100000352E+00 0.  1.
       -3    1    3    3    0  502 -0.11288934523E+04  0.18018564420E+03  0.14609737862E+04  0.18550772779E+04  0.10100000352E+00 0. -1.
</event>
<event>
 5   0  0.3680814E-07  0.3861884E+04  0.7818609E-02  0.8033004E-01
       -2   -1    0    0    0  501  0.00000000000E+00  0.00000000000E+00  0.22900843424E+04  0.22900843424E+04  0.25500000920E-02 0.  1.
        2   -1    0    0  501    0  0.00000000000E+00  0.00000000000E+00 -0.16281221812E+04  0.16281221812E+04  0.25500000920E-02 0. -1.
    10030    2    1    2    0    0  0.00000000000E+00  0.00000000000E+00  0.66196216118E+03  0.39182065236E+04  0.38618840555E+04 0.  0.
        1    1    3    3  502    0 -0.65856907392E+03  0.42760561578E+03  0.21207885019E+04  0.22614826238E+04  0.50400001928E-02 0.  1.
       -1    1    3    3    0  502  0.65856907392E+03 -0.42760561578E+03 -0.14588263407E+04  0.16567238998E+04  0.50400001928E-02 0. -1.
</event>
<event>
 5   0  0.1187925E-07  0.3851218E+04  0.7818609E-02  0.8035252E-01
       -1   -1    0    0    0  501  0.00000000000E+00  0.00000000000E+00  0.18492810712E+04  0.18492810712E+04  0.50400001928E-02 0.  1.
        1   -1    0    0  501    0  0.00000000000E+00  0.00000000000E+00 -0.20050876536E+04  0.20050876536E+04  0.50400001928E-02 0. -1.
    10030    2    1    2    0    0  0.00000000000E+00  0.00000000000E+00 -0.15580658240E+03  0.38543687247E+04  0.38512183235E+04 0.  0.
        2    1    3    3  502    0  0.14339816622E+04  0.96962424833E+03  0.76628897102E+03  0.18930592642E+04  0.25500000920E-02 0. -1.
       -2    1    3    3    0  502 -0.14339816622E+04 -0.96962424833E+03 -0.92209555342E+03  0.19613094606E+04  0.25500000920E-02 0.  1.
</event>
<event>
 5   0  0.1187925E-07  0.3754163E+04  0.7818609E-02  0.8056064E-01
       -1   -1    0    0    0  501  0.00000000000E+00  0.00000000000E+00  0.26593799796E+04  0.26593799796E+04  0.50400001928E-02 0. -1.
        1   -1    0    0  501    0  0.00000000000E+00  0.00000000000E+00 -0.13249084313E+04  0.13249084313E+04  0.50400001928E-02 0.  1.
    10030    2    1    2    0    0  0.00000000000E+00  0.00000000000E+00  0.13344715484E+04  0.39842884109E+04  0.37541629996E+04 0.  0.
        4    1    3    3  502    0  0.13764965930E+03 -0.18232478533E+04  0.11178232453E+04  0.21430610313E+04  0.12699999809E+01 0.  1.
       -4    1    3    3    0  502 -0.13764965930E+03  0.18232478533E+04  0.21664830309E+03  0.18412273796E+04  0.12699999809E+01 0. -1.
</event>
<event>
 5   0  0.1187925E-07  0.4003284E+04  0.7818609E-02  0.8003884E-01
        1   -1    0    0  501    0  0.00000000000E+00  0.00000000000E+00  0.15803997338E+04  0.15803997338E+04  0.50400001928E-02 0. -1.
       -1   -1    0    0    0  501  0.00000000000E+00  0.00000000000E+00 -0.25351627783E+04  0.25351627783E+04  0.50400001928E-02 0.  1.
    10030    2    1    2    0    0  0.00000000000E+00  0.00000000000E+00 -0.95476304444E+03  0.41155625121E+04  0.40032839420E+04 0.  0.
        3    1    3    3  502    0 -0.11997866732E+04 -0.51688503254E+03  0.10816986660E+04  0.16960926308E+04  0.10100000352E+00 0. -1.
       -3    1    3    3    0  502  0.11997866732E+04  0.51688503254E+03 -0.20364617105E+04  0.24194698813E+04  0.10100000352E+00 0.  1.
</event>
<event>
 5   0  0.1187925E-07  0.3726575E+04  0.7818609E-02  0.8062098E-01
       -1   -1    0    0    0  501  0.00000000000E+00  0.00000000000E+00  0.12016871750E+04  0.12016871750E+04  0.50400001928E-02 0. -1.
        1   -1    0    0  501    0  0.00000000000E+00  0.00000000000E+00 -0.28891375110E+04  0.28891375110E+04  0.50400001928E-02 0.  1.
    10030    2    1    2    0    0  0.00000000000E+00  0.00000000000E+00 -0.16874503359E+04  0.40908246860E+04  0.37265745632E+04 0.  0.
        4    1    3    3  502    0 -0.94824619490E+02  0.55754465650E+03 -0.27926427659E+04  0.28493337788E+04  0.12699999809E+01 0.  1.
       -4    1    3    3    0  502  0.94824619490E+02 -0.55754465650E+03  0.11051924300E+04  0.12414909072E+04  0.12699999809E+01 0. -1.
</event>
<event>
 5   0  0.3665303E-07  0.3899144E+04  0.7818609E-02  0.8025207E-01
        2   -1    0    0  501    0  0.00000000000E+00  0.00000000000E+00  0.19291330338E+04  0.19291330339E+04  0.25500000920E-02 0.  1.
       -2   -1    0    0    0  501  0.00000000000E+00  0.00000000000E+00 -0.19702274582E+04  0.19702274582E+04  0.25500000920E-02 0. -1.
    10030    2    1    2    0    0  0.00000000000E+00  0.00000000000E+00 -0.41094424378E+02  0.38993604921E+04  0.38991439439E+04 0.  0.
        2    1    3    3  502    0  0.68516112244E+03 -0.18126085130E+04 -0.23465134613E+03  0.19519366381E+04  0.25500000920E-02 0. -1.
       -2    1    3    3    0  502 -0.68516112244E+03  0.18126085130E+04  0.19355692175E+03  0.19474238540E+04  0.25500000920E-02 0.  1.
</event>
<event>
 5   0  0.3680814E-07  0.3698446E+04  0.7818609E-02  0.8068306E-01
        2   -1    0    0  501    0  0.00000000000E+00  0.00000000000E+00  0.12930681565E+04  0.12930681565E+04  0.25500000920E-02 0.  1.
       -2   -1    0    0    0  501  0.00000000000E+00  0.00000000000E+00 -0.26445828662E+04  0.26445828662E+04  0.25500000920E-02 0. -1.
    10030    2    1    2    0    0  0.00000000000E+00  0.00000000000E+00 -0.13515147098E+04  0.39376510227E+04  0.36984461015E+04 0.  0.
        1    1    3    3  502    0 -0.14676459473E+04 -0.88169068355E+03 -0.14197090712E+04  0.22241710669E+04  0.50400001928E-02 0. -1.
       -1    1    3    3    0  502  0.14676459473E+04  0.88169068355E+03  0.68194361393E+02  0.17134799558E+04  0.50400001928E-02 0.  1.
</event>
<event>
 5   0  0.1187925E-07  0.3379881E+04  0.7818609E-02  0.8142862E-01
       -1   -1    0    0    0  501  0.00000000000E+00  0.00000000000E+00  0.12168908987E+04  0.12168908987E+04  0.50400001928E-02 0.  1.
        1   -1    0    0  501    0  0.00000000000E+00  0.00000000000E+00 -0.23468817842E+04  0.23468817842E+04  0.50400001928E-02 0. -1.
    10030    2    1    2    0    0  0.00000000000E+00  0.00000000000E+00 -0.11299908855E+04  0.35637726829E+04  0.33798811124E+04 0.  0.
        1    1    3    3  502    0 -0.79151742318E+03 -0.85305379080E+03 -0.18571067924E+04  0.21915853257E+04  0.50400001928E-02 0. -1.
       -1    1    3    3    0  502  0.79151742318E+03  0.85305379080E+03  0.72711590690E+03  0.13721873572E+04  0.50400001928E-02 0.  1.
</event>
<event>
 5   0  0.3665303E-07  0.3961563E+04  0.7818609E-02  0.8012346E-01
        2   -1    0    0  501    0  0.00000000000E+00  0.00000000000E+00  0.23343621313E+04  0.23343621313E+04  0.25500000920E-02 0.  1.
       -2   -1    0    0    0  501  0.00000000000E+00  0.00000000000E+00 -0.16807567793E+04  0.16807567793E+04  0.25500000920E-02 0. -1.
    10030    2    1    2    0    0  0.00000000000E+00  0.00000000000E+00  0.65360535191E+03  0.40151189106E+04  0.39615628116E+04 0.  0.
        2    1    3    3  502    0  0.55111703409E+03 -0.18872203587E+03  0.22455813928E+04  0.23199098654E+04  0.25500000920E-02 0.  1.
       -2    1    3    3    0  502 -0.55111703409E+03  0.18872203587E+03 -0.15919760409E+04  0.16952090452E+04  0.25500000920E-02 0. -1.
</event>
<event>
 5   0  0.1187925E-07  0.3904096E+04  0.7818609E-02  0.8024178E-01
       -1   -1    0    0    0  501  0.00000000000E+00  0.00000000000E+00  0.15700010763E+04  0.15700010763E+04  0.50400001928E-02 0.  1.
        1   -1    0    0  501    0  0.00000000000E+00  0.00000000000E+00 -0.24270626858E+04  0.24270626858E+04  0.50400001928E-02 0. -1.
    10030    2    1    2    0    0  0.00000000000E+00  0.00000000000E+00 -0.85706160953E+03  0.39970637622E+04  0.39040958129E+04 0.  0.
        3    1    3    3  502    0 -0.14894305177E+04  0.12057121326E+04 -0.47724683902E+02  0.19168783658E+04  0.10100000352E+00 0.  1.
       -3    1    3    3    0  502  0.14894305177E+04 -0.12057121326E+04 -0.80933692563E+03  0.20801853963E+04  0.10100000352E+00 0. -1.
</event>
<event>
 5   0  0.3680814E-07  0.3802168E+04  0.7818609E-02  0.8045690E-01
       -2   -1    0    0    0  501  0.00000000000E+00  0.00000000000E+00  0.14091173454E+04  0.14091173454E+04  0.25500000920E-02 0. -1.
        2   -1    0    0  501    0  0.00000000000E+00  0.00000000000E+00 -0.25648115562E+04  0.25648115562E+04  0.25500000920E-02 0.  1.
    10030    2    1    2    0    0  0.00000000000E+00  0.00000000000E+00 -0.11556942108E+04  0.39739289017E+04  0.38021680403E+04 0.  0.
        1    1    3    3  502    0  0.15477699044E+04 -0.84703465754E+03 -0.13176808119E+04  0.22021221833E+04  0.50400001928E-02 0.  1.
       -1    1    3    3    0  502 -0.15477699044E+04  0.84703465754E+03  0.16198660112E+03  0.17718067183E+04  0.50400001928E-02 0. -1.
</event>
<event>
 5   0  0.1187925E-07  0.3842820E+04  0.7818609E-02  0.8037028E-01
        1   -1    0    0  501    0  0.00000000000E+00  0.00000000000E+00  0.19963062234E+04  0.19963062234E+04  0.50400001928E-02 0.  1.
       -1   -1    0    0    0  501  0.00000000000E+00  0.00000000000E+00 -0.18493236454E+04  0.18493236454E+04  0.50400001928E-02 0. -1.
    10030    2    1    2    0    0  0.00000000000E+00  0.00000000000E+00  0.14698257800E+03  0.38456298688E+04  0.38428199554E+04 0.  0.
        3    1    3    3  502    0  0.10522778064E+04 -0.15179011391E+04 -0.45652211398E+03  0.19025574632E+04  0.10100000352E+00 0. -1.
       -3    1    3    3    0  502 -0.10522778064E+04  0.15179011391E+04  0.60350469198E+03  0.19430724056E+04  0.10100000352E+00 0.  1.
</event>
<event>
 5   0  0.3832389E-07  0.3883782E+04  0.7818609E-02  0.8028411E-01
        2   -1    0    0  501    0  0.00000000000E+00  0.00000000000E+00  0.33267604926E+04  0.33267604926E+04  0.25500000920E-02 0. -1.
       -2   -1    0    0    0  501  0.00000000000E+00  0.00000000000E+00 -0.11335170356E+04  0.11335170356E+04  0.25500000920E-02 0.  1.
    10030    2    1    2    0    0  0.00000000000E+00  0.00000000000E+00  0.21932434570E+04  0.44602775282E+04  0.38837815035E+04 0.  0.
        5    1    3    3  502    0 -0.55293221635E+03 -0.18608607259E+04  0.10405840755E+04  0.22025834797E+04  0.46999998093E+01 0.  1.
       -5    1    3    3    0  502  0.55293221635E+03  0.18608607259E+04  0.11526593815E+04  0.22576940485E+04  0.46999998093E+01 0. -1.
</event>
<event>
 5   0  0.3680814E-07  0.3901190E+04  0.7818609E-02  0.8024782E-01
        2   -1    0    0  501    0  0.00000000000E+00  0.00000000000E+00  0.19270510079E+04  0.19270510079E+04  0.25500000920E-02 0.  1.
       -2   -1    0    0    0  501  0.00000000000E+00  0.00000000000E+00 -0.19744266121E+04  0.19744266121E+04  0.25500000920E-02 0. -1.
    10030    2    1    2    0    0  0.00000000000E+00  0.00000000000E+00 -0.47375604147E+02  0.39014776200E+04  0.39011899686E+04 0.  0.
        1    1    3    3  502    0  0.10813261497E+03  0.77722561390E+03  0.17622345862E+04  0.19290523721E+04  0.50400001928E-02 0.  1.
       -1    1    3    3    0  502 -0.10813261497E+03 -0.77722561390E+03 -0.18096101904E+04  0.19724252479E+04  0.50400001928E-02 0. -1.
</event>
<event>
 5   0  0.1187925E-07  0.3930392E+04  0.7818609E-02  0.8018738E-01
        1   -1    0    0  501    0  0.00000000000E+00  0.00000000000E+00  0.20758496385E+04  0.20758496385E+04  0.50400001928E-02 0. -1.
       -1   -1    0    0    0  501  0.00000000000E+00  0.00000000000E+00 -0.18604405256E+04  0.18604405256E+04  0.50400001928E-02 0.  1.
    10030    2    1    2    0    0  0.00000000000E+00  0.00000000000E+00  0.21540911288E+03  0.39362901641E+04  0.39303917324E+04 0.  0.
        2    1    3    3  502    0 -0.14615200991E+04 -0.38207523156E+03  0.13665604147E+04  0.20370345725E+04  0.25500000920E-02 0. -1.
       -2    1    3    3    0  502  0.14615200991E+04  0.38207523156E+03 -0.11511513018E+04  0.18992555916E+04  0.25500000920E-02 0.  1.
</event>
<event>
 5   0  0.3665303E-07  0.3489727E+04  0.7818609E-02  0.8116229E-01
       -2   -1    0    0    0  501  0.00000000000E+00  0.00000000000E+00  0.13149837614E+04  0.13149837614E+04  0.25500000920E-02 0.  1.
        2   -1    0    0  501    0  0.00000000000E+00  0.00000000000E+00 -0.23152751185E+04  0.23152751185E+04  0.25500000920E-02 0. -1.
    10030    2    1    2    0    0  0.00000000000E+00  0.00000000000E+00 -0.10002913571E+04  0.36302588798E+04  0.34897273154E+04 0.  0.
        2    1    3    3  502    0 -0.16139251012E+04 -0.66309241202E+03 -0.48956736200E+03  0.18122146620E+04  0.25500000920E-02 0.  1.
       -2    1    3    3    0  502  0.16139251012E+04  0.66309241202E+03 -0.51072399508E+03  0.18180442179E+04  0.25500000920E-02 0. -1.
</event>
<event>
 5   0  0.3680814E-07  0.3880784E+04  0.7818609E-02  0.8029038E-01
       -2   -1    0    0    0  501  0.00000000000E+00  0.00000000000E+00  0.17263176906E+04  0.17263176906E+04  0.25500000920E-02 0. -1.
        2   -1    0    0  501    0  0.00000000000E+00  0.00000000000E+00 -0.21810126811E+04  0.21810126811E+04  0.25500000920E-02 0.  1.
    10030    2    1    2    0    0  0.00000000000E+00  0.00000000000E+00 -0.45469499057E+03  0.39073303717E+04  0.38807838254E+04 0.  0.
        1    1    3    3  502    0  0.10366375696E+04  0.66838502923E+03 -0.17355141856E+04  0.21291701403E+04  0.50400001928E-02 0.  1.
       -1    1    3    3    0  502 -0.10366375696E+04 -0.66838502923E+03  0.12808191951E+04  0.17781602314E+04  0.50400001928E-02 0. -1.
</event>
<event>
 5   0  0.1187925E-07  0.3894463E+04  0.7818609E-02  0.8026182E-01
       -1   -1    0    0    0  501  0.00000000000E+00  0.00000000000E+00  0.18917633488E+04  0.18917633488E+04  0.50400001928E-02 0. -1.
        1   -1    0    0  501    0  0.00000000000E+00  0.00000000000E+00 -0.20043255465E+04  0.20043255465E+04  0.50400001928E-02 0.  1.
    10030    2    1    2    0    0  0.00000000000E+00  0.00000000000E+00 -0.11256219767E+03  0.38960888953E+04  0.38944625344E+04 0.  0.
        2    1    3    3  502    0 -0.11910939998E+04  0.17937133827E+03  0.14743351577E+04  0.19038232981E+04  0.25500000920E-02 0. -1.
       -2    1    3    3    0  502  0.11910939998E+04 -0.17937133827E+03 -0.15868973554E+04  0.19922655972E+04  0.25500000920E-02 0.  1.
</event>
<event>
 5   0  0.1187925E-07  0.3899121E+04  0.7818609E-02  0.8025212E-01
       -1   -1    0    0    0  501  0.00000000000E+00  0.00000000000E+00  0.31933200423E+04  0.31933200423E+04  0.50400001928E-02 0. -1.
        1   -1    0    0  501    0  0.00000000000E+00  0.00000000000E+00 -0.11902301984E+04  0.11902301984E+04  0.50400001928E-02 0.  1.
    10030    2    1    2    0    0  0.00000000000E+00  0.00000000000E+00  0.20030898439E+04  0.43835502407E+04  0.38991208996E+04 0.  0.
        4    1    3    3  502    0 -0.13199936977E+03  0.13164765571E+04 -0.60822087139E+03  0.14561828870E+04  0.12699999809E+01 0.  1.
       -4    1    3    3    0  502  0.13199936977E+03 -0.13164765571E+04  0.26113107153E+04  0.29273673537E+04  0.12699999809E+01 0. -1.
</event>
<event>
 5   0  0.3832389E-07  0.3791501E+04  0.7818609E-02  0.8047981E-01
       -2   -1    0    0    0  501  0.00000000000E+00  0.00000000000E+00  0.16337270643E+04  0.16337270643E+04  0.25500000920E-02 0.  1.
        2   -1    0    0  501    0  0.00000000000E+00  0.00000000000E+00 -0.21997980121E+04  0.21997980121E+04  0.25500000920E-02 0. -1.
    10030    2    1    2    0    0  0.00000000000E+00  0.00000000000E+00 -0.56607094773E+03  0.38335250764E+04  0.37915007838E+04 0.  0.
        5    1    3    3  502    0 -0.12808571346E+04  0.38049277454E+03 -0.16427374798E+04  0.21175406178E+04  0.46999998093E+01 0. -1.
       -5    1    3    3    0  502  0.12808571346E+04 -0.38049277454E+03  0.10766665321E+04  0.17159844585E+04  0.46999998093E+01 0.  1.
</event>
<event>
 5   0  0.1187925E-07  0.3933766E+04  0.7818609E-02  0.8018043E-01
       -1   -1    0    0    0  501  0.00000000000E+00  0.00000000000E+00  0.27703101774E+04  0.27703101774E+04  0.50400001928E-02 0.  1.
        1   -1    0    0  501    0  0.00000000000E+00  0.00000000000E+00 -0.13964604818E+04  0.13964604819E+04  0.50400001928E-02 0. -1.
    10030    2    1    2    0    0  0.00000000000E+00  0.00000000000E+00  0.13738496955E+04  0.41667706592E+04  0.39337659743E+04 0.  0.
        5    1    3    3  502    0 -0.18752075399E+04 -0.28942194105E+03  0.12357237715E+04  0.22643329497E+04  0.46999998093E+01 0.  1.
       -5    1    3    3    0  502  0.18752075399E+04  0.28942194105E+03  0.13812592406E+03  0.19024377095E+04  0.46999998093E+01 0. -1.
</event>
<event>
 5   0  0.1187925E-07  0.3889693E+04  0.7818609E-02  0.8027176E-01
       -1   -1    0    0    0  501  0.00000000000E+00  0.00000000000E+00  0.17339506346E+04  0.17339506346E+04  0.50400001928E-02 0.  1.
        1   -1    0    0  501    0  0.00000000000E+00  0.00000000000E+00 -0.21813926503E+04  0.21813926503E+04  0.50400001928E-02 0. -1.
    10030    2    1    2    0    0  0.00000000000E+00  0.00000000000E+00 -0.44744201564E+03  0.39153432849E+04  0.38896926204E+04 0.  0.
        3    1    3    3  502    0  0.55708448505E+03 -0.11101972552E+04 -0.17301010917E+04  0.21298194446E+04  0.10100000352E+00 0. -1.
       -3    1    3    3    0  502 -0.55708448505E+03  0.11101972552E+04  0.12826590760E+04  0.17855238403E+04  0.10100000352E+00 0.  1.
</event>
<event>
 5   0  0.3810833E-07  0.3963285E+04  0.7818609E-02  0.8011994E-01
       -2   -1    0    0    0  501  0.00000000000E+00  0.00000000000E+00  0.18110501711E+04  0.18110501711E+04  0.25500000920E-02 0.  1.
        2   -1    0    0  501    0  0.00000000000E+00  0.00000000000E+00 -0.21683034803E+04  0.21683034803E+04  0.25500000920E-02 0. -1.
    10030    2    1    2    0    0  0.00000000000E+00  0.00000000000E+00 -0.35725330919E+03  0.39793536514E+04  0.39632846927E+04 0.  0.
        3    1    3    3  502    0  0.54939939179E+03 -0.13316616331E+04 -0.15449319084E+04  0.21123392267E+04  0.10100000352E+00 0. -1.
       -3    1    3    3    0  502 -0.54939939179E+03  0.13316616331E+04  0.11876785992E+04  0.18670144247E+04  0.10100000352E+00 0.  1.
</event>
<event>
 5   0  0.3832389E-07  0.4052851E+04  0.7818609E-02  0.7993969E-01
        2   -1    0    0  501    0  0.00000000000E+00  0.00000000000E+00  0.13701332323E+04  0.13701332323E+04  0.25500000920E-02 0. -1.
       -2   -1    0    0    0  501  0.00000000000E+00  0.00000000000E+00 -0.29970812306E+04  0.29970812306E+04  0.25500000920E-02 0.  1.
    10030    2    1    2    0    0  0.00000000000E+00  0.00000000000E+00 -0.16269479983E+04  0.43672144629E+04  0.40528511416E+04 0.  0.
        5    1    3    3  502    0  0.17340506757E+04 -0.94768216493E+03 -0.12969941578E+04  0.23637362727E+04  0.46999998093E+01 0.  1.
       -5    1    3    3    0  502 -0.17340506757E+04  0.94768216493E+03 -0.32995384052E+03  0.20034781902E+04  0.46999998093E+01 0. -1.
</event>
<event>
 5   0  0.1187925E-07  0.2987066E+04  0.7818609E-02  0.8247434E-01
       -1   -1    0    0    0  501  0.00000000000E+00  0.00000000000E+00  0.18880511223E+04  0.18880511223E+04  0.50400001928E-02 0.  1.
        1   -1    0    0  501    0  0.00000000000E+00  0.00000000000E+00 -0.11814517308E+04  0.11814517308E+04  0.50400001928E-02 0. -1.
    10030    2    1    2    0    0  0.00000000000E+00  0.00000000000E+00  0.70659939147E+03  0.30695028531E+04  0.29870662974E+04 0.  0.
        5    1    3    3  502    0  0.11338670565E+04 -0.91730975246E+03  0.68390443387E+03  0.16108566194E+04  0.46999998093E+01 0. -1.
       -5    1    3    3    0  502 -0.11338670565E+04  0.91730975246E+03  0.22694957602E+02  0.14586462336E+04  0.46999998093E+01 0.  1.
</event>
<event>
 5   0  0.1187925E-07  0.3831207E+04  0.7818609E-02  0.8039491E-01
        1   -1    0    0  501    0  0.00000000000E+00  0.00000000000E+00  0.23048638359E+04  0.23048638359E+04  0.50400001928E-02 0.  1.
       -1   -1    0    0    0  501  0.00000000000E+00  0.00000000000E+00 -0.15920841012E+04  0.15920841012E+04  0.50400001928E-02 0. -1.
    10030    2    1    2    0    0  0.00000000000E+00  0.00000000000E+00  0.71277973474E+03  0.38969479371E+04  0.38312071563E+04 0.  0.
        2    1    3    3  502    0  0.18568955962E+04 -0.10501346810E+03 -0.11022798920E+03  0.18631262150E+04  0.25500000920E-02 0. -1.
       -2    1    3    3    0  502 -0.18568955962E+04  0.10501346810E+03  0.82300772394E+03  0.20338217221E+04  0.25500000920E-02 0.  1.
</event>
<event>
 5   0  0.3610483E-07  0.3694892E+04  0.7818609E-02  0.8069095E-01
       -2   -1    0    0    0  501  0.00000000000E+00  0.00000000000E+00  0.22062327255E+04  0.22062327256E+04  0.25500000920E-02 0. -1.
        2   -1    0    0  501    0  0.00000000000E+00  0.00000000000E+00 -0.15470064723E+04  0.15470064723E+04  0.25500000920E-02 0.  1.
    10030    2    1    2    0    0  0.00000000000E+00  0.00000000000E+00  0.65922625328E+03  0.37532391978E+04  0.36948917742E+04 0.  0.
        4    1    3    3  502    0  0.49417602782E+03 -0.17165072679E+04  0.80870447742E+03  0.19607681382E+04  0.12699999809E+01 0. -1.
       -4    1    3    3    0  502 -0.49417602782E+03  0.17165072679E+04 -0.14947822415E+03  0.17924710596E+04  0.12699999809E+01 0.  1.
</event>
<event>
 5   0  0.3832389E-07  0.3547328E+04  0.7818609E-02  0.8102665E-01
       -2   -1    0    0    0  501  0.00000000000E+00  0.00000000000E+00  0.16903111587E+04  0.16903111587E+04  0.25500000920E-02 0. -1.
        2   -1    0    0  501    0  0.00000000000E+00  0.00000000000E+00 -0.18611271323E+04  0.18611271323E+04  0.25500000920E-02 0.  1.
    10030    2    1    2    0    0  0.00000000000E+00  0.00000000000E+00 -0.17081597360E+03  0.35514382911E+04  0.35473279858E+04 0.  0.
        5    1    3    3  502    0 -0.16814712496E+04 -0.15322925736E+03  0.45839456817E+03  0.17495634995E+04  0.46999998093E+01 0. -1.
       -5    1    3    3    0  502  0.16814712496E+04  0.15322925736E+03 -0.62921054177E+03  0.18018747916E+04  0.46999998093E+01 0.  1.
</event>
<event>
 5   0  0.1187925E-07  0.3904959E+04  0.7818609E-02  0.8023999E-01
       -1   -1    0    0    0  501  0.00000000000E+00  0.00000000000E+00  0.20203071338E+04  0.20203071338E+04  0.50400001928E-02 0.  1.
        1   -1    0    0  501    0  0.00000000000E+00  0.00000000000E+00 -0.18869291970E+04  0.18869291970E+04  0.50400001928E-02 0. -1.
    10030    2    1    2    0    0  0.00000000000E+00  0.00000000000E+00  0.13337793677E+03  0.39072363309E+04  0.39049591638E+04 0.  0.
        1    1    3    3  502    0 -0.55892362961E+03  0.14886581347E+04  0.12003447520E+04  0.19923167894E+04  0.50400001928E-02 0.  1.
       -1    1    3    3    0  502  0.55892362961E+03 -0.14886581347E+04 -0.10669668152E+04  0.19149195415E+04  0.50400001928E-02 0. -1.
</event>
<event>
 5   0  0.3665303E-07  0.3908422E+04  0.7818609E-02  0.8023280E-01
        2   -1    0    0  501    0  0.00000000000E+00  0.00000000000E+00  0.23465525868E+04  0.23465525868E+04  0.25500000920E-02 0. -1.
       -2   -1    0    0    0  501  0.00000000000E+00  0.00000000000E+00 -0.16274688192E+04  0.16274688192E+04  0.25500000920E-02 0.  1.
    10030    2    1    2    0    0  0.00000000000E+00  0.00000000000E+00  0.71908376758E+03  0.39740214060E+04  0.39084222739E+04 0.  0.
        2    1    3    3  502    0 -0.40433892189E+03 -0.94566621632E+03 -0.13300236012E+04  0.16812903783E+04  0.25500000920E-02 0.  1.
       -2    1    3    3    0  502  0.40433892189E+03  0.94566621632E+03  0.20491073688E+04  0.22927310277E+04  0.25500000920E-02 0. -1.
</event>
<event>
 5   0  0.1187925E-07  0.3740543E+04  0.7818609E-02  0.8059036E-01
        1   -1    0    0  501    0  0.00000000000E+00  0.00000000000E+00  0.23503327302E+04  0.23503327302E+04  0.50400001928E-02 0. -1.
       -1   -1    0    0    0  501  0.00000000000E+00  0.00000000000E+00 -0.14882641868E+04  0.14882641868E+04  0.50400001928E-02 0.  1.
    10030    2    1    2    0    0  0.00000000000E+00  0.00000000000E+00  0.86206854340E+03  0.38385969171E+04  0.37405432919E+04 0.  0.
        2    1    3    3  502    0  0.93840663291E+03 -0.64533086941E+03  0.19534516971E+04  0.22612015551E+04  0.25500000920E-02 0. -1.
       -2    1    3    3    0  502 -0.93840663291E+03  0.64533086941E+03 -0.10913831537E+04  0.15773953620E+04  0.25500000920E-02 0.  1.
</event>
<event>
 5   0  0.3680814E-07  0.4002776E+04  0.7818609E-02  0.8003987E-01
        2   -1    0    0  501    0  0.00000000000E+00  0.00000000000E+00  0.25977473660E+04  0.25977473660E+04  0.25500000920E-02 0.  1.
       -2   -1    0    0    0  501  0.00000000000E+00  0.00000000000E+00 -0.15419336023E+04  0.15419336023E+04  0.25500000920E-02 0. -1.
    10030    2    1    2    0    0  0.00000000000E+00  0.00000000000E+00  0.10558137638E+04  0.41396809683E+04  0.40027760137E+04 0.  0.
        1    1    3    3  502    0  0.67074601899E+03 -0.15779148772E+04  0.15956118411E+04  0.23421555732E+04  0.50400001928E-02 0.  1.
       -1    1    3    3    0  502 -0.67074601899E+03  0.15779148772E+04 -0.53979807734E+03  0.17975253951E+04  0.50400001928E-02 0. -1.
</event>
<event>
 5   0  0.1187925E-07  0.3892342E+04  0.7818609E-02  0.8026624E-01
       -1   -1    0    0    0  501  0.00000000000E+00  0.00000000000E+00  0.16198048068E+04  0.16198048068E+04  0.50400001928E-02 0. -1.
        1   -1    0    0  501    0  0.00000000000E+00  0.00000000000E+00 -0.23382951726E+04  0.23382951726E+04  0.50400001928E-02 0.  1.
    10030    2    1    2    0    0  0.00000000000E+00  0.00000000000E+00 -0.71849036574E+03  0.39580999794E+04  0.38923421023E+04 0.  0.
        3    1    3    3  502    0  0.56027461690E+03 -0.10721903803E+04 -0.19094942176E+04  0.22604574837E+04  0.10100000352E+00 0.  1.
       -3    1    3    3    0  502 -0.56027461690E+03  0.10721903803E+04  0.11910038519E+04  0.16976424958E+04  0.10100000352E+00 0. -1.
</event>
<event>
 5   0  0.1187925E-07  0.3953968E+04  0.7818609E-02  0.8013898E-01
        1   -1    0    0  501    0  0.00000000000E+00  0.00000000000E+00  0.19689709485E+04  0.19689709485E+04  0.50400001928E-02 0.  1.
       -1   -1    0    0    0  501  0.00000000000E+00  0.00000000000E+00 -0.19850298821E+04  0.19850298821E+04  0.50400001928E-02 0. -1.
    10030    2    1    2    0    0  0.00000000000E+00  0.00000000000E+00 -0.16058933654E+02  0.39540008306E+04  0.39539682193E+04 0.  0.
        3    1    3    3  502    0 -0.17611321909E+03 -0.17402739558E+04  0.91333411794E+03  0.19732583532E+04  0.10100000352E+00 0.  1.
       -3    1    3    3    0  502  0.17611321909E+03  0.17402739558E+04 -0.92939305159E+03  0.19807424774E+04  0.10100000352E+00 0. -1.
</event>
<event>
 5   0  0.3610483E-07  0.3922945E+04  0.7818609E-02  0.8020274E-01
       -2   -1    0    0    0  501  0.00000000000E+00  0.00000000000E+00  0.20631766215E+04  0.20631766215E+04  0.25500000920E-02 0. -1.
        2   -1    0    0  501    0  0.00000000000E+00  0.00000000000E+00 -0.18647819810E+04  0.18647819810E+04  0.25500000920E-02 0.  1.
    10030    2    1    2    0    0  0.00000000000E+00  0.00000000000E+00  0.19839464050E+03  0.39279586025E+04  0.39229451118E+04 0.  0.
        4    1    3    3  502    0  0.70102473645E+03  0.51475697217E+02 -0.17343413265E+04  0.18713703210E+04  0.12699999809E+01 0.  1.
       -4    1    3    3    0  502 -0.70102473645E+03 -0.51475697217E+02  0.19327359670E+04  0.20565882815E+04  0.12699999809E+01 0. -1.
</event>
<event>
 5   0  0.3680814E-07  0.3892314E+04  0.7818609E-02  0.8026630E-01
       -2   -1    0    0    0  501  0.00000000000E+00  0.00000000000E+00  0.16645484452E+04  0.16645484452E+04  0.25500000920E-02 0. -1.
        2   -1    0    0  501    0  0.00000000000E+00  0.00000000000E+00 -0.22754079912E+04  0.22754079912E+04  0.25500000920E-02 0.  1.
    10030    2    1    2    0    0  0.00000000000E+00  0.00000000000E+00 -0.61085954591E+03  0.39399564364E+04  0.38923138794E+04 0.  0.
        1    1    3    3  502    0 -0.57155427451E+02  0.31387397379E+03  0.16378982026E+04  0.16686803577E+04  0.50400001928E-02 0. -1.
       -1    1    3    3    0  502  0.57155427451E+02 -0.31387397379E+03 -0.22487577485E+04  0.22712760787E+04  0.50400001928E-02 0.  1.
</event>
<event>
 5   0  0.3832389E-07  0.3789664E+04  0.7818609E-02  0.8048377E-01
        2   -1    0    0  501    0  0.00000000000E+00  0.00000000000E+00  0.23867148815E+04  0.23867148815E+04  0.25500000920E-02 0. -1.
       -2   -1    0    0    0  501  0.00000000000E+00  0.00000000000E+00 -0.15043221226E+04  0.15043221226E+04  0.25500000920E-02 0.  1.
    10030    2    1    2    0    0  0.00000000000E+00  0.00000000000E+00  0.88239275891E+03  0.38910370041E+04  0.37896638355E+04 0.  0.
        5    1    3    3  502    0  0.10830100680E+04  0.10051600288E+04 -0.77675079977E+03  0.16693176408E+04  0.46999998093E+01 0.  1.
       -5    1    3    3    0  502 -0.10830100680E+04 -0.10051600288E+04  0.16591435587E+04  0.22217193633E+04  0.46999998093E+01 0. -1.
</event>
<event>
 5   0  0.1187925E-07  0.3917548E+04  0.7818609E-02  0.8021389E-01
        1   -1    0    0  501    0  0.00000000000E+00  0.00000000000E+00  0.24790835997E+04  0.24790835997E+04  0.50400001928E-02 0.  1.
       -1   -1    0    0    0  501  0.00000000000E+00  0.00000000000E+00 -0.15476666506E+04  0.15476666506E+04  0.50400001928E-02 0. -1.
    10030    2    1    2    0    0  0.00000000000E+00  0.00000000000E+00  0.93141694909E+03  0.40267502502E+04  0.39175477080E+04 0.  0.
        4    1    3    3  502    0  0.50472243139E+03  0.15381161423E+04  0.15992863537E+04  0.22755800259E+04  0.12699999809E+01 0.  1.
       -4    1    3    3    0  502 -0.50472243139E+03 -0.15381161423E+04 -0.66786940462E+03  0.17511702243E+04  0.12699999809E+01 0. -1.
</event>
<event>
 5   0  0.1187925E-07  0.3797624E+04  0.7818609E-02  0.8046665E-01
       -1   -1    0    0    0  501  0.00000000000E+00  0.00000000000E+00  0.25562365091E+04  0.25562365092E+04  0.50400001928E-02 0.  1.
        1   -1    0    0  501    0  0.00000000000E+00  0.00000000000E+00 -0.14104667709E+04  0.14104667709E+04  0.50400001928E-02 0. -1.
    10030    2    1    2    0    0  0.00000000000E+00  0.00000000000E+00  0.11457697383E+04  0.39667032800E+04  0.37976238122E+04 0.  0.
        5    1    3    3  502    0 -0.78858015672E+03 -0.82008635170E+03  0.21607871982E+04  0.24420122222E+04  0.46999998093E+01 0.  1.
       -5    1    3    3    0  502  0.78858015672E+03  0.82008635170E+03 -0.10150174599E+04  0.15246910578E+04  0.46999998093E+01 0. -1.
</event>
<event>
 5   0  0.3665303E-07  0.3876581E+04  0.7818609E-02  0.8029918E-01
        2   -1    0    0  501    0  0.00000000000E+00  0.00000000000E+00  0.24100175917E+04  0.24100175917E+04  0.25500000920E-02 0. -1.
       -2   -1    0    0    0  501  0.00000000000E+00  0.00000000000E+00 -0.15588971659E+04  0.15588971659E+04  0.25500000920E-02 0.  1.
    10030    2    1    2    0    0  0.00000000000E+00  0.00000000000E+00  0.85112042588E+03  0.39689147576E+04  0.38765807581E+04 0.  0.
        2    1    3    3  502    0 -0.17639239802E+04  0.67745272645E+03  0.86782083970E+03  0.20792986833E+04  0.25500000920E-02 0. -1.
       -2    1    3    3    0  502  0.17639239802E+04 -0.67745272645E+03 -0.16700413813E+02  0.18896160743E+04  0.25500000920E-02 0.  1.
</event>
<event>
 5   0  0.1187925E-07  0.3666380E+04  0.7818609E-02  0.8075454E-01
        1   -1    0    0  501    0  0.00000000000E+00  0.00000000000E+00  0.15555420721E+04  0.15555420721E+04  0.50400001928E-02 0.  1.
       -1   -1    0    0    0  501  0.00000000000E+00  0.00000000000E+00 -0.21603946509E+04  0.21603946509E+04  0.50400001928E-02 0. -1.
    10030    2    1    2    0    0  0.00000000000E+00  0.00000000000E+00 -0.60485257877E+03  0.37159367230E+04  0.36663795613E+04 0.  0.
        4    1    3    3  502    0  0.73384083141E+03  0.14244497989E+04  0.60011786196E+03  0.17110589284E+04  0.12699999809E+01 0.  1.
       -4    1    3    3    0  502 -0.73384083141E+03 -0.14244497989E+04 -0.12049704407E+04  0.20048777946E+04  0.12699999809E+01 0. -1.
</event>
<event>
 5   0  0.3832389E-07  0.3869923E+04  0.7818609E-02  0.8031314E-01
        2   -1    0    0  501    0  0.00000000000E+00  0.00000000000E+00  0.21655219121E+04  0.21655219121E+04  0.25500000920E-02 0.  1.
       -2   -1    0    0    0  501  0.00000000000E+00  0.00000000000E+00 -0.17289485210E+04  0.17289485210E+04  0.25500000920E-02 0. -1.
    10030    2    1    2    0    0  0.00000000000E+00  0.00000000000E+00  0.43657339111E+03  0.38944704331E+04  0.38699229487E+04 0.  0.
        5    1    3    3  502    0 -0.14821298411E+04 -0.12132409496E+04  0.49460321571E+03  0.19782105295E+04  0.46999998093E+01 0. -1.
       -5    1    3    3    0  502  0.14821298411E+04  0.12132409496E+04 -0.58029824597E+02  0.19162599037E+04  0.46999998093E+01 0.  1.
</event>
<event>
 5   0  0.1187925E-07  0.3675576E+04  0.7818609E-02  0.8073396E-01
       -1   -1    0    0    0  501  0.00000000000E+00  0.00000000000E+00  0.12424474365E+04  0.12424474365E+04  0.50400001928E-02 0.  1.
        1   -1    0    0  501    0  0.00000000000E+00  0.00000000000E+00 -0.27183964926E+04  0.27183964926E+04  0.50400001928E-02 0. -1.
    10030    2    1    2    0    0  0.00000000000E+00  0.00000000000E+00 -0.14759490561E+04  0.39608439291E+04  0.36755760113E+04 0.  0.
        5    1    3    3  502    0  0.74348209285E+03 -0.21022117420E+03 -0.25348688217E+04  0.26500076600E+04  0.46999998093E+01 0. -1.
       -5    1    3    3    0  502 -0.74348209285E+03  0.21022117420E+03  0.10589197656E+04  0.13108362692E+04  0.46999998093E+01 0.  1.
</event>
<event>
 5   0  0.1187925E-07  0.3287359E+04  0.7818609E-02  0.8166119E-01
        1   -1    0    0  501    0  0.00000000000E+00  0.00000000000E+00  0.22494608190E+04  0.22494608190E+04  0.50400001928E-02 0.  1.
       -1   -1    0    0    0  501  0.00000000000E+00  0.00000000000E+00 -0.12010358119E+04  0.12010358119E+04  0.50400001928E-02 0. -1.
    10030    2    1    2    0    0  0.00000000000E+00  0.00000000000E+00  0.10484250071E+04  0.34504966309E+04  0.32873594273E+04 0.  0.
        1    1    3    3  502    0 -0.46730576377E+03  0.66683165485E+03  0.20228793487E+04  0.21806145905E+04  0.50400001928E-02 0.  1.
       -1    1    3    3    0  502  0.46730576377E+03 -0.66683165485E+03 -0.97445434160E+03  0.12698820404E+04  0.50400001928E-02 0. -1.
</event>
<event>
 5   0  0.3665303E-07  0.3907357E+04  0.7818609E-02  0.8023501E-01
        2   -1    0    0  501    0  0.00000000000E+00  0.00000000000E+00  0.29372998607E+04  0.29372998607E+04  0.25500000920E-02 0. -1.
       -2   -1    0    0    0  501  0.00000000000E+00  0.00000000000E+00 -0.12994447231E+04  0.12994447231E+04  0.25500000920E-02 0.  1.
    10030    2    1    2    0    0  0.00000000000E+00  0.00000000000E+00  0.16378551376E+04  0.42367445838E+04  0.39073565510E+04 0.  0.
        2    1    3    3  502    0 -0.88127757628E+03  0.86944464181E+03 -0.81986279014E+03  0.14848431386E+04  0.25500000920E-02 0.  1.
       -2    1    3    3    0  502  0.88127757628E+03 -0.86944464181E+03  0.24577179278E+04  0.27519014452E+04  0.25500000920E-02 0. -1.
</event>
<event>
 5   0  0.1187925E-07  0.3959907E+04  0.7818609E-02  0.8012684E-01
        1   -1    0    0  501    0  0.00000000000E+00  0.00000000000E+00  0.21451322029E+04  0.21451322029E+04  0.50400001928E-02 0.  1.
       -1   -1    0    0    0  501  0.00000000000E+00  0.00000000000E+00 -0.18274936142E+04  0.18274936142E+04  0.50400001928E-02 0. -1.
    10030    2    1    2    0    0  0.00000000000E+00  0.00000000000E+00  0.31763858872E+03  0.39726258172E+04  0.39599067679E+04 0.  0.
        5    1    3    3  502    0 -0.11803139569E+04 -0.15350029965E+04 -0.25580964741E+03  0.19531604905E+04  0.46999998093E+01 0.  1.
       -5    1    3    3    0  502  0.11803139569E+04  0.15350029965E+04  0.57344823613E+03  0.20194653267E+04  0.46999998093E+01 0. -1.
</event>
<event>
 5   0  0.3680814E-07  0.3868442E+04  0.7818609E-02  0.8031625E-01
       -2   -1    0    0    0  501  0.00000000000E+00  0.00000000000E+00  0.15456853053E+04  0.15456853053E+04  0.25500000920E-02 0.  1.
        2   -1    0    0  501    0  0.00000000000E+00  0.00000000000E+00 -0.24204225048E+04  0.24204225048E+04  0.25500000920E-02 0. -1.
    10030    2    1    2    0    0  0.00000000000E+00  0.00000000000E+00 -0.87473719946E+03  0.39661078101E+04  0.38684423213E+04 0.  0.
        1    1    3    3  502    0 -0.82621314372E+03  0.12352080668E+04 -0.17067070076E+04  0.22630103705E+04  0.50400001928E-02 0. -1.
       -1    1    3    3    0  502  0.82621314372E+03 -0.12352080668E+04  0.83196980811E+03  0.17030974396E+04  0.50400001928E-02 0.  1.
</event>
<event>
 5   0  0.1187925E-07  0.3334476E+04  0.7818609E-02  0.8154178E-01
       -1   -1    0    0    0  501  0.00000000000E+00  0.00000000000E+00  0.12961488950E+04  0.12961488950E+04  0.50400001928E-02 0.  1.
        1   -1    0    0  501    0  0.00000000000E+00  0.00000000000E+00 -0.21445708207E+04  0.21445708207E+04  0.50400001928E-02 0. -1.
    10030    2    1    2    0    0  0.00000000000E+00  0.00000000000E+00 -0.84842192570E+03  0.34407197158E+04  0.33344763305E+04 0.  0.
        1    1    3    3  502    0 -0.33865827423E+03 -0.15834407976E+04 -0.14431888642E+02  0.16193154311E+04  0.50400001928E-02 0.  1.
       -1    1    3    3    0  502  0.33865827423E+03  0.15834407976E+04 -0.83399003706E+03  0.18214042846E+04  0.50400001928E-02 0. -1.
</event>
<event>
 5   0  0.1187925E-07  0.3890135E+04  0.7818609E-02  0.8027084E-01
        1   -1    0    0  501    0  0.00000000000E+00  0.00000000000E+00  0.14652652427E+04  0.14652652427E+04  0.50400001928E-02 0.  1.
       -1   -1    0    0    0  501  0.00000000000E+00  0.00000000000E+00 -0.25819807268E+04  0.25819807268E+04  0.50400001928E-02 0. -1.
    10030    2    1    2    0    0  0.00000000000E+00  0.00000000000E+00 -0.11167154841E+04  0.40472459695E+04  0.38901345048E+04 0.  0.
        2    1    3    3  502    0 -0.61028432745E+03 -0.39653753141E+03  0.13182646924E+04  0.15058256119E+04  0.25500000920E-02 0.  1.
       -2    1    3    3    0  502  0.61028432745E+03  0.39653753141E+03 -0.24349801765E+04  0.25414203576E+04  0.25500000920E-02 0. -1.
</event>
<event>
 5   0  0.3610483E-07  0.3886110E+04  0.7818609E-02  0.8027924E-01
       -2   -1    0    0    0  501  0.00000000000E+00  0.00000000000E+00  0.16360893508E+04  0.16360893508E+04  0.25500000920E-02 0.  1.
        2   -1    0    0  501    0  0.00000000000E+00  0.00000000000E+00 -0.23076134840E+04  0.23076134840E+04  0.25500000920E-02 0. -1.
    10030    2    1    2    0    0  0.00000000000E+00  0.00000000000E+00 -0.67152413319E+03  0.39437028348E+04  0.38861095439E+04 0.  0.
        4    1    3    3  502    0 -0.10215128948E+04 -0.13100817103E+04 -0.13584963046E+04  0.21460001176E+04  0.12699999809E+01 0. -1.
       -4    1    3    3    0  502  0.10215128948E+04  0.13100817103E+04  0.68697217146E+03  0.17977027172E+04  0.12699999809E+01 0.  1.
</event>
<event>
 5   0  0.3665303E-07  0.4164837E+04  0.7818609E-02  0.7972095E-01
        2   -1    0    0  501    0  0.00000000000E+00  0.00000000000E+00  0.16721418027E+04  0.16721418027E+04  0.25500000920E-02 0. -1.
       -2   -1    0    0    0  501  0.00000000000E+00  0.00000000000E+00 -0.25933608516E+04  0.25933608516E+04  0.25500000920E-02 0.  1.
    10030    2    1    2    0    0  0.00000000000E+00  0.00000000000E+00 -0.92121904884E+03  0.42655026543E+04  0.41648371346E+04 0.  0.
        2    1    3    3  502    0 -0.10583280732E+04 -0.17783318843E+04 -0.22273620519E+03  0.20813779134E+04  0.25500000920E-02 0. -1.
       -2    1    3    3    0  502  0.10583280732E+04  0.17783318843E+04 -0.69848284364E+03  0.21841247410E+04  0.25500000920E-02 0.  1.
</event>
<event>
 5   0  0.3610483E-07  0.3898230E+04  0.7818609E-02  0.8025397E-01
       -2   -1    0    0    0  501  0.00000000000E+00  0.00000000000E+00  0.21456018792E+04  0.21456018792E+04  0.25500000920E-02 0. -1.
        2   -1    0    0  501    0  0.00000000000E+00  0.00000000000E+00 -0.17706216757E+04  0.17706216757E+04  0.25500000920E-02 0.  1.
    10030    2    1    2    0    0  0.00000000000E+00  0.00000000000E+00  0.37498020356E+03  0.39162235549E+04  0.38982299546E+04 0.  0.
        4    1    3    3  502    0  0.18827296922E+04 -0.38718708403E+03 -0.13720859127E+03  0.19270217285E+04  0.12699999809E+01 0.  1.
       -4    1    3    3    0  502 -0.18827296922E+04  0.38718708403E+03  0.51218879483E+03  0.19892018264E+04  0.12699999809E+01 0. -1.
</event>
<event>
 5   0  0.1187925E-07  0.3920563E+04  0.7818609E-02  0.8020766E-01
       -1   -1    0    0    0  501  0.00000000000E+00  0.00000000000E+00  0.15561030228E+04  0.15561030228E+04  0.50400001928E-02 0. -1.
        1   -1    0    0  501    0  0.00000000000E+00  0.00000000000E+00 -0.24694401833E+04  0.24694401833E+04  0.50400001928E-02 0.  1.
    10030    2    1    2    0    0  0.00000000000E+00  0.00000000000E+00 -0.91333716052E+03  0.40255432060E+04  0.39205628850E+04 0.  0.
        2    1    3    3  502    0  0.64082806486E+03  0.78100301381E+03  0.12682178238E+04  0.16214199842E+04  0.25500000920E-02 0. -1.
       -2    1    3    3    0  502 -0.64082806486E+03 -0.78100301381E+03 -0.21815549844E+04  0.24041232219E+04  0.25500000920E-02 0.  1.
</event>
<event>
 5   0  0.3680814E-07  0.3882887E+04  0.7818609E-02  0.8028598E-01
        2   -1    0    0  501    0  0.00000000000E+00  0.00000000000E+00  0.25039549225E+04  0.25039549225E+04  0.25500000920E-02 0. -1.
       -2   -1    0    0    0  501  0.00000000000E+00  0.00000000000E+00 -0.15053000329E+04  0.15053000329E+04  0.25500000920E-02 0.  1.
    10030    2    1    2    0    0  0.00000000000E+00  0.00000000000E+00  0.99865488965E+03  0.40092549554E+04  0.38828872902E+04 0.  0.
        1    1    3    3  502    0 -0.10604210473E+04 -0.16188910451E+04  0.65896305213E+03  0.20443906959E+04  0.50400001928E-02 0.  1.
       -1    1    3    3    0  502  0.10604210473E+04  0.16188910451E+04  0.33969183752E+03  0.19648642594E+04  0.50400001928E-02 0. -1.
</event>
<event>
 5   0  0.1187925E-07  0.3891011E+04  0.7818609E-02  0.8026901E-01
       -1   -1    0    0    0  501  0.00000000000E+00  0.00000000000E+00  0.23073076678E+04  0.23073076679E+04  0.50400001928E-02 0.  1.
        1   -1    0    0  501    0  0.00000000000E+00  0.00000000000E+00 -0.16404364864E+04  0.16404364864E+04  0.50400001928E-02 0. -1.
    10030    2    1    2    0    0  0.00000000000E+00  0.00000000000E+00  0.66687118149E+03  0.39477441542E+04  0.38910110170E+04 0.  0.
        4    1    3    3  502    0 -0.18268701250E+04  0.66665215976E+03  0.27685041336E+03  0.19643134475E+04  0.12699999809E+01 0.  1.
       -4    1    3    3    0  502  0.18268701250E+04 -0.66665215976E+03  0.39002076813E+03  0.19834307067E+04  0.12699999809E+01 0. -1.
</event>
<event>
 5   0  0.1187925E-07  0.3872985E+04  0.7818609E-02  0.8030671E-01
        1   -1    0    0  501    0  0.00000000000E+00  0.00000000000E+00  0.21515200949E+04  0.21515200949E+04  0.50400001928E-02 0.  1.
       -1   -1    0    0    0  501  0.00000000000E+00  0.00000000000E+00 -0.17429555271E+04  0.17429555271E+04  0.50400001928E-02 0. -1.
    10030    2    1    2    0    0  0.00000000000E+00  0.00000000000E+00  0.40856456776E+03  0.38944756220E+04  0.38729853297E+04 0.  0.
        2    1    3    3  502    0 -0.20242804363E+03  0.17844670329E+04 -0.52410169016E+03  0.18708239591E+04  0.25500000920E-02 0. -1.
       -2    1    3    3    0  502  0.20242804363E+03 -0.17844670329E+04  0.93266625791E+03  0.20236516629E+04  0.25500000920E-02 0.  1.
</event>
<event>
 5   0  0.1187925E-07  0.3856673E+04  0.7818609E-02  0.8034101E-01
       -1   -1    0    0    0  501  0.00000000000E+00  0.00000000000E+00  0.20846186192E+04  0.20846186192E+04  0.50400001928E-02 0. -1.
        1   -1    0    0  501    0  0.00000000000E+00  0.00000000000E+00 -0.17837710759E+04  0.17837710759E+04  0.50400001928E-02 0.  1.
    10030    2    1    2    0    0  0.00000000000E+00  0.00000000000E+00  0.30084754333E+03  0.38683896951E+04  0.38566733838E+04 0.  0.
        1    1    3    3  502    0  0.15445198252E+04 -0.11058352972E+04  0.48319844542E+03  0.19600749814E+04  0.50400001928E-02 0. -1.
       -1    1    3    3    0  502 -0.15445198252E+04  0.11058352972E+04 -0.18235090209E+03  0.19083147137E+04  0.50400001928E-02 0.  1.
</event>
<event>
 5   0  0.3610483E-07  0.3291376E+04  0.7818609E-02  0.8165093E-01
        2   -1    0    0  501    0  0.00000000000E+00  0.00000000000E+00  0.16388343277E+04  0.16388343277E+04  0.25500000920E-02 0. -1.
       -2   -1    0    0    0  501  0.00000000000E+00  0.00000000000E+00 -0.16525707436E+04  0.16525707436E+04  0.25500000920E-02 0.  1.
    10030    2    1    2    0    0  0.00000000000E+00  0.00000000000E+00 -0.13736415848E+02  0.32914050713E+04  0.32913764073E+04 0.  0.
        4    1    3    3  502    0  0.73320645281E+03  0.14093054511E+04  0.42273359395E+03  0.16439096269E+04  0.12699999809E+01 0.  1.
       -4    1    3    3    0  502 -0.73320645281E+03 -0.14093054511E+04 -0.43647000980E+03  0.16474954444E+04  0.12699999809E+01 0. -1.
</event>
<event>
 5   0  0.1187925E-07  0.3943640E+04  0.7818609E-02  0.8016014E-01
       -1   -1    0    0    0  501  0.00000000000E+00  0.00000000000E+00  0.22360391332E+04  0.22360391332E+04  0.50400001928E-02 0. -1.
        1   -1    0    0  501    0  0.00000000000E+00  0.00000000000E+00 -0.17388218187E+04  0.17388218187E+04  0.50400001928E-02 0.  1.
    10030    2    1    2    0    0  0.00000000000E+00  0.00000000000E+00  0.49721731452E+03  0.39748609520E+04  0.39436397566E+04 0.  0.
        3    1    3    3  502    0 -0.12426331033E+04 -0.16861020117E+03 -0.12851173145E+04  0.17955759387E+04  0.10100000352E+00 0.  1.
       -3    1    3    3    0  502  0.12426331033E+04  0.16861020117E+03  0.17823346290E+04  0.21792850133E+04  0.10100000352E+00 0. -1.
</event>
<event>
 5   0  0.1187925E-07  0.3841975E+04  0.7818609E-02  0.8037207E-01
        1   -1    0    0  501    0  0.00000000000E+00  0.00000000000E+00  0.35233002866E+04  0.35233002866E+04  0.50400001928E-02 0. -1.
       -1   -1    0    0    0  501  0.00000000000E+00  0.00000000000E+00 -0.10473680579E+04  0.10473680579E+04  0.50400001928E-02 0.  1.
    10030    2    1    2    0    0  0.00000000000E+00  0.00000000000E+00  0.24759322287E+04  0.45706683446E+04  0.38419745854E+04 0.  0.
        5    1    3    3  502    0 -0.27832044786E+02  0.21249945965E+03 -0.10330942296E+04  0.10551001944E+04  0.46999998093E+01 0.  1.
       -5    1    3    3    0  502  0.27832044786E+02 -0.21249945965E+03  0.35090264583E+04  0.35155681501E+04  0.46999998093E+01 0. -1.
</event>
<event>
 5   0  0.1187925E-07  0.3720882E+04  0.7818609E-02  0.8063350E-01
       -1   -1    0    0    0  501  0.00000000000E+00  0.00000000000E+00  0.22076173735E+04  0.22076173735E+04  0.50400001928E-02 0. -1.
        1   -1    0    0  501    0  0.00000000000E+00  0.00000000000E+00 -0.15678624165E+04  0.15678624166E+04  0.50400001928E-02 0.  1.
    10030    2    1    2    0    0  0.00000000000E+00  0.00000000000E+00  0.63975495695E+03  0.37754797901E+04  0.37208817826E+04 0.  0.
        3    1    3    3  502    0  0.50187667221E+02  0.12818153294E+04  0.16871177799E+04  0.21194187303E+04  0.10100000352E+00 0. -1.
       -3    1    3    3    0  502 -0.50187667221E+02 -0.12818153294E+04 -0.10473628230E+04  0.16560610598E+04  0.10100000352E+00 0.  1.
</event>
<event>
 5   0  0.3665303E-07  0.3391461E+04  0.7818609E-02  0.8140005E-01
        2   -1    0    0  501    0  0.00000000000E+00  0.00000000000E+00  0.20537224756E+04  0.20537224756E+04  0.25500000920E-02 0.  1.
       -2   -1    0    0    0  501  0.00000000000E+00  0.00000000000E+00 -0.14001411418E+04  0.14001411418E+04  0.25500000920E-02 0. -1.
    10030    2    1    2    0    0  0.00000000000E+00  0.00000000000E+00  0.65358133385E+03  0.34538636174E+04  0.33914606481E+04 0.  0.
        2    1    3    3  502    0  0.13797010389E+04 -0.40486456744E+03  0.12422247004E+04  0.19001611724E+04  0.25500000920E-02 0.  1.
       -2    1    3    3    0  502 -0.13797010389E+04  0.40486456744E+03 -0.58864336653E+03  0.15537024450E+04  0.25500000920E-02 0. -1.
</event>
<event>
 5   0  0.3665303E-07  0.3055010E+04  0.7818609E-02  0.8228195E-01
        2   -1    0    0  501    0  0.00000000000E+00  0.00000000000E+00  0.12918720807E+04  0.12918720807E+04  0.25500000920E-02 0. -1.
       -2   -1    0    0    0  501  0.00000000000E+00  0.00000000000E+00 -0.18061160328E+04  0.18061160328E+04  0.25500000920E-02 0.  1.
    10030    2    1    2    0    0  0.00000000000E+00  0.00000000000E+00 -0.51424395207E+03  0.30979881134E+04  0.30550095759E+04 0.  0.
        2    1    3    3  502    0 -0.10943057530E+03 -0.14947658870E+04  0.41934924218E+02  0.14993527422E+04  0.25500000920E-02 0. -1.
       -2    1    3    3    0  502  0.10943057530E+03  0.14947658870E+04 -0.55617887629E+03  0.15986353712E+04  0.25500000920E-02 0.  1.
</event>
<event>
 5   0  0.3610483E-07  0.3978888E+04  0.7818609E-02  0.8008819E-01
       -2   -1    0    0    0  501  0.00000000000E+00  0.00000000000E+00  0.12103764332E+04  0.12103764332E+04  0.25500000920E-02 0. -1.
        2   -1    0    0  501    0  0.00000000000E+00  0.00000000000E+00 -0.32699644534E+04  0.32699644534E+04  0.25500000920E-02 0.  1.
    10030    2    1    2    0    0  0.00000000000E+00  0.00000000000E+00 -0.20595880202E+04  0.44803408866E+04  0.39788882427E+04 0.  0.
        4    1    3    3  502    0 -0.15232101199E+04 -0.15631977325E+03 -0.24600190434E+04  0.28976370110E+04  0.12699999809E+01 0.  1.
       -4    1    3    3    0  502  0.15232101199E+04  0.15631977325E+03  0.40043102316E+03  0.15827038757E+04  0.12699999809E+01 0. -1.
</event>
<event>
 5   0  0.1187925E-07  0.3995694E+04  0.7818609E-02  0.8005416E-01
        1   -1    0    0  501    0  0.00000000000E+00  0.00000000000E+00  0.15803220768E+04  0.15803220768E+04  0.50400001928E-02 0.  1.
       -1   -1    0    0    0  501  0.00000000000E+00  0.00000000000E+00 -0.25256830248E+04  0.25256830248E+04  0.50400001928E-02 0. -1.
    10030    2    1    2    0    0  0.00000000000E+00  0.00000000000E+00 -0.94536094804E+03  0.41060051016E+04  0.39956940038E+04 0.  0.
        3    1    3    3  502    0 -0.18910105898E+04  0.41248779455E+03  0.36296952829E+02  0.19358162905E+04  0.10100000352E+00 0. -1.
       -3    1    3    3    0  502  0.18910105898E+04 -0.41248779455E+03 -0.98165790087E+03  0.21701888111E+04  0.10100000352E+00 0.  1.
</event>
<event>
 5   0  0.1187925E-07  0.3931604E+04  0.7818609E-02  0.8018488E-01
        1   -1    0    0  501    0  0.00000000000E+00  0.00000000000E+00  0.26093498110E+04  0.26093498110E+04  0.50400001928E-02 0. -1.
       -1   -1    0    0    0  501  0.00000000000E+00  0.00000000000E+00 -0.14809734519E+04  0.14809734519E+04  0.50400001928E-02 0.  1.
    10030    2    1    2    0    0  0.00000000000E+00  0.00000000000E+00  0.11283763591E+04  0.40903232629E+04  0.39316041493E+04 0.  0.
        4    1    3    3  502    0 -0.17395459232E+04  0.54699683802E+03  0.13280994256E+04  0.22558978826E+04  0.12699999809E+01 0.  1.
       -4    1    3    3    0  502  0.17395459232E+04 -0.54699683802E+03 -0.19972306650E+03  0.18344253803E+04  0.12699999809E+01 0. -1.
</event>
<event>
 5   0  0.3832389E-07  0.3913080E+04  0.7818609E-02  0.8022314E-01
        2   -1    0    0  501    0  0.00000000000E+00  0.00000000000E+00  0.23685284568E+04  0.23685284568E+04  0.25500000920E-02 0. -1.
       -2   -1    0    0    0  501  0.00000000000E+00  0.00000000000E+00 -0.16162142112E+04  0.16162142112E+04  0.25500000920E-02 0.  1.
    10030    2    1    2    0    0  0.00000000000E+00  0.00000000000E+00  0.75231424561E+03  0.39847426681E+04  0.39130802965E+04 0.  0.
        5    1    3    3  502    0  0.13453794168E+04  0.13925479044E+04  0.66199652034E+03  0.20463374414E+04  0.46999998093E+01 0. -1.
       -5    1    3    3    0  502 -0.13453794168E+04 -0.13925479044E+04  0.90317725265E+02  0.19384052267E+04  0.46999998093E+01 0.  1.
</event>
<event>
 5   0  0.1187925E-07  0.3325317E+04  0.7818609E-02  0.8156483E-01
        1   -1    0    0  501    0  0.00000000000E+00  0.00000000000E+00  0.22728542090E+04  0.22728542090E+04  0.50400001928E-02 0.  1.
       -1   -1    0    0    0  501  0.00000000000E+00  0.00000000000E+00 -0.12162829976E+04  0.12162829976E+04  0.50400001928E-02 0. -1.
    10030    2    1    2    0    0  0.00000000000E+00  0.00000000000E+00  0.10565712114E+04  0.34891372066E+04  0.33253173866E+04 0.  0.
        5    1    3    3  502    0  0.18583521679E+03 -0.11848515535E+04  0.17365371170E+04  0.21104480994E+04  0.46999998093E+01 0.  1.
       -5    1    3    3    0  502 -0.18583521679E+03  0.11848515535E+04 -0.67996590556E+03  0.13786891072E+04  0.46999998093E+01 0. -1.
</event>
<event>
 5   0  0.1187925E-07  0.3879453E+04  0.7818609E-02  0.8029316E-01
       -1   -1    0    0    0  501  0.00000000000E+00  0.00000000000E+00  0.19655785260E+04  0.19655785260E+04  0.50400001928E-02 0.  1.
        1   -1    0    0  501    0  0.00000000000E+00  0.00000000000E+00 -0.19142147197E+04  0.19142147197E+04  0.50400001928E-02 0. -1.
    10030    2    1    2    0    0  0.00000000000E+00  0.00000000000E+00  0.51363806339E+02  0.38797932457E+04  0.38794532332E+04 0.  0.
        2    1    3    3  502    0 -0.29148980366E+03 -0.90412938588E+03  0.17170199725E+04  0.19622879091E+04  0.25500000920E-02 0.  1.
       -2    1    3    3    0  502  0.29148980366E+03  0.90412938588E+03 -0.16656561662E+04  0.19175053366E+04  0.25500000920E-02 0. -1.
</event>
<event>
 5   0  0.3810833E-07  0.3897365E+04  0.7818609E-02  0.8025577E-01
        2   -1    0    0  501    0  0.00000000000E+00  0.00000000000E+00  0.19368516097E+04  0.19368516097E+04  0.25500000920E-02 0.  1.
       -2   -1    0    0    0  501  0.00000000000E+00  0.00000000000E+00 -0.19605855143E+04  0.19605855143E+04  0.25500000920E-02 0. -1.
    10030    2    1    2    0    0  0.00000000000E+00  0.00000000000E+00 -0.23733904615E+02  0.38974371240E+04  0.38973648581E+04 0.  0.
        3    1    3    3  502    0 -0.13746847637E+03  0.15048609277E+04 -0.12422796256E+04  0.19562113056E+04  0.10100000352E+00 0. -1.
       -3    1    3    3    0  502  0.13746847637E+03 -0.15048609277E+04  0.12185457210E+04  0.19412258184E+04  0.10100000352E+00 0.  1.
</event>
<event>
 5   0  0.1187925E-07  0.3891169E+04  0.7818609E-02  0.8026868E-01
        1   -1    0    0  501    0  0.00000000000E+00  0.00000000000E+00  0.13439517607E+04  0.13439517608E+04  0.50400001928E-02 0. -1.
       -1   -1    0    0    0  501  0.00000000000E+00  0.00000000000E+00 -0.28165444154E+04  0.28165444154E+04  0.50400001928E-02 0.  1.
    10030    2    1    2    0    0  0.00000000000E+00  0.00000000000E+00 -0.14725926546E+04  0.41604961761E+04  0.38911694007E+04 0.  0.
        3    1    3    3  502    0  0.55442116994E+03 -0.14474210461E+04  0.52106094183E+03  0.16352110059E+04  0.10100000352E+00 0. -1.
       -3    1    3    3    0  502 -0.55442116994E+03  0.14474210461E+04 -0.19936535965E+04  0.25252851703E+04  0.10100000352E+00 0.  1.
</event>
<event>
 5   0  0.1187925E-07  0.3275680E+04  0.7818609E-02  0.8169111E-01
        1   -1    0    0  501    0  0.00000000000E+00  0.00000000000E+00  0.18080542608E+04  0.18080542609E+04  0.50400001928E-02 0.  1.
       -1   -1    0    0    0  501  0.00000000000E+00  0.00000000000E+00 -0.14836496677E+04  0.14836496677E+04  0.50400001928E-02 0. -1.
    10030    2    1    2    0    0  0.00000000000E+00  0.00000000000E+00  0.32440459318E+03  0.32917039285E+04  0.32756795345E+04 0.  0.
        3    1    3    3  502    0 -0.55188244136E+03 -0.10538658944E+04 -0.96905411397E+03  0.15343641805E+04  0.10100000352E+00 0. -1.
       -3    1    3    3    0  502  0.55188244136E+03  0.10538658944E+04  0.12934587071E+04  0.17573397480E+04  0.10100000352E+00 0.  1.
</event>
<event>
 5   0  0.1187925E-07  0.3731542E+04  0.7818609E-02  0.8061008E-01
       -1   -1    0    0    0  501  0.00000000000E+00  0.00000000000E+00  0.20372906063E+04  0.20372906064E+04  0.50400001928E-02 0. -1.
        1   -1    0    0  501    0  0.00000000000E+00  0.00000000000E+00 -0.17086912146E+04  0.17086912147E+04  0.50400001928E-02 0.  1.
    10030    2    1    2    0    0  0.00000000000E+00  0.00000000000E+00  0.32859939170E+03  0.37459818210E+04  0.37315415371E+04 0.  0.
        3    1    3    3  502    0  0.65343307347E+03 -0.13612944236E+04  0.12644435540E+04  0.19694960779E+04  0.10100000352E+00 0. -1.
       -3    1    3    3    0  502 -0.65343307347E+03  0.13612944236E+04 -0.93584416231E+03  0.17764857431E+04  0.10100000352E+00 0.  1.
</event>
<event>
 5   0  0.3832389E-07  0.3891598E+04  0.7818609E-02  0.8026779E-01
        2   -1    0    0  501    0  0.00000000000E+00  0.00000000000E+00  0.23950702112E+04  0.23950702112E+04  0.25500000920E-02 0. -1.
       -2   -1    0    0    0  501  0.00000000000E+00  0.00000000000E+00 -0.15808024328E+04  0.15808024328E+04  0.25500000920E-02 0.  1.
    10030    2    1    2    0    0  0.00000000000E+00  0.00000000000E+00  0.81426777833E+03  0.39758726440E+04  0.38915975211E+04 0.  0.
        5    1    3    3  502    0  0.86437932149E+03  0.12149760294E+04 -0.87005516129E+03  0.17263650938E+04  0.46999998093E+01 0.  1.
       -5    1    3    3    0  502 -0.86437932149E+03 -0.12149760294E+04  0.16843229396E+04  0.22495075502E+04  0.46999998093E+01 0. -1.
</event>
<event>
 5   0  0.1187925E-07  0.3884042E+04  0.7818609E-02  0.8028356E-01
        1   -1    0    0  501    0  0.00000000000E+00  0.00000000000E+00  0.28811040871E+04  0.28811040871E+04  0.50400001928E-02 0. -1.
       -1   -1    0    0    0  501  0.00000000000E+00  0.00000000000E+00 -0.13090279686E+04  0.13090279686E+04  0.50400001928E-02 0.  1.
    10030    2    1    2    0    0  0.00000000000E+00  0.00000000000E+00  0.15720761185E+04  0.41901320557E+04  0.38840421370E+04 0.  0.
        4    1    3    3  502    0  0.10776532119E+04  0.39775349228E+03  0.24752928075E+04  0.27288496444E+04  0.12699999809E+01 0. -1.
       -4    1    3    3    0  502 -0.10776532119E+04 -0.39775349228E+03 -0.90321668896E+03  0.14612824114E+04  0.12699999809E+01 0.  1.
</event>
<event>
 5   0  0.1187925E-07  0.3869392E+04  0.7818609E-02  0.8031425E-01
       -1   -1    0    0    0  501  0.00000000000E+00  0.00000000000E+00  0.22986888146E+04  0.22986888146E+04  0.50400001928E-02 0.  1.
        1   -1    0    0  501    0  0.00000000000E+00  0.00000000000E+00 -0.16283403832E+04  0.16283403832E+04  0.50400001928E-02 0. -1.
    10030    2    1    2    0    0  0.00000000000E+00  0.00000000000E+00  0.67034843142E+03  0.39270291978E+04  0.38693915931E+04 0.  0.
        4    1    3    3  502    0  0.73470939554E+03 -0.63016387827E+03 -0.13649327755E+04  0.16733043668E+04  0.12699999809E+01 0. -1.
       -4    1    3    3    0  502 -0.73470939554E+03  0.63016387827E+03  0.20352812070E+04  0.22537248310E+04  0.12699999809E+01 0.  1.
</event>
<event>
 5   0  0.3810833E-07  0.4240131E+04  0.7818609E-02  0.7957782E-01
        2   -1    0    0  501    0  0.00000000000E+00  0.00000000000E+00  0.29884120857E+04  0.29884120857E+04  0.25500000920E-02 0. -1.
       -2   -1    0    0    0  501  0.00000000000E+00  0.00000000000E+00 -0.15040351237E+04  0.15040351237E+04  0.25500000920E-02 0.  1.
    10030    2    1    2    0    0  0.00000000000E+00  0.00000000000E+00  0.14843769619E+04  0.44924472094E+04  0.42401305362E+04 0.  0.
        3    1    3    3  502    0  0.12641888810E+04  0.26078054811E+03 -0.10397044069E+04  0.16574574761E+04  0.10100000352E+00 0.  1.
       -3    1    3    3    0  502 -0.12641888810E+04 -0.26078054811E+03  0.25240813689E+04  0.28349897333E+04  0.10100000352E+00 0. -1.
</event>
<event>
 5   0  0.3610483E-07  0.4018966E+04  0.7818609E-02  0.8000731E-01
        2   -1    0    0  501    0  0.00000000000E+00  0.00000000000E+00  0.23841119264E+04  0.23841119264E+04  0.25500000920E-02 0. -1.
       -2   -1    0    0    0  501  0.00000000000E+00  0.00000000000E+00 -0.16937218511E+04  0.16937218511E+04  0.25500000920E-02 0.  1.
    10030    2    1    2    0    0  0.00000000000E+00  0.00000000000E+00  0.69039007526E+03  0.40778337775E+04  0.40189662677E+04 0.  0.
        4    1    3    3  502    0  0.73589620338E+03 -0.75765939183E+03 -0.13893564963E+04  0.17452518623E+04  0.12699999809E+01 0.  1.
       -4    1    3    3    0  502 -0.73589620338E+03  0.75765939183E+03  0.20797465716E+04  0.23325819152E+04  0.12699999809E+01 0. -1.
</event>
<event>
 5   0  0.3610483E-07  0.3893337E+04  0.7818609E-02  0.8026416E-01
       -2   -1    0    0    0  501  0.00000000000E+00  0.00000000000E+00  0.28237789284E+04  0.28237789284E+04  0.25500000920E-02 0. -1.
        2   -1    0    0  501    0  0.00000000000E+00  0.00000000000E+00 -0.13420025615E+04  0.13420025615E+04  0.25500000920E-02 0.  1.
    10030    2    1    2    0    0  0.00000000000E+00  0.00000000000E+00  0.14817763670E+04  0.41657814899E+04  0.38933371572E+04 0.  0.
        4    1    3    3  502    0 -0.47783272642E+03 -0.90851101229E+03  0.25106576132E+04  0.27124010835E+04  0.12699999809E+01 0. -1.
       -4    1    3    3    0  502  0.47783272642E+03  0.90851101229E+03 -0.10288812463E+04  0.14533804064E+04  0.12699999809E+01 0.  1.
</event>
<event>
 5   0  0.1187925E-07  0.4005216E+04  0.7818609E-02  0.8003495E-01
        1   -1    0    0  501    0  0.00000000000E+00  0.00000000000E+00  0.19969258701E+04  0.19969258701E+04  0.50400001928E-02 0. -1.
       -1   -1    0    0    0  501  0.00000000000E+00  0.00000000000E+00 -0.20083060506E+04  0.20083060506E+04  0.50400001928E-02 0.  1.
    10030    2    1    2    0    0  0.00000000000E+00  0.00000000000E+00 -0.11380180497E+02  0.40052319208E+04  0.40052157533E+04 0.  0.
        5    1    3    3  502    0 -0.10355704491E+04  0.29389927211E+03  0.16829946945E+04  0.19978178518E+04  0.46999998093E+01 0. -1.
       -5    1    3    3    0  502  0.10355704491E+04 -0.29389927211E+03 -0.16943748750E+04  0.20074140690E+04  0.46999998093E+01 0.  1.
</event>
<event>
 5   0  0.1187925E-07  0.3904270E+04  0.7818609E-02  0.8024142E-01
        1   -1    0    0  501    0  0.00000000000E+00  0.00000000000E+00  0.22101557268E+04  0.22101557268E+04  0.50400001928E-02 0.  1.
       -1   -1    0    0    0  501  0.00000000000E+00  0.00000000000E+00 -0.17242365138E+04  0.17242365138E+04  0.50400001928E-02 0. -1.
    10030    2    1    2    0    0  0.00000000000E+00  0.00000000000E+00  0.48591921297E+03  0.39343922406E+04  0.39042700754E+04 0.  0.
        3    1    3    3  502    0  0.17120425441E+04 -0.92121837256E+03  0.42066706444E+03  0.19891439747E+04  0.10100000352E+00 0.  1.
       -3    1    3    3    0  502 -0.17120425441E+04  0.92121837256E+03  0.65252148526E+02  0.19452482659E+04  0.10100000352E+00 0. -1.
</event>
<event>
 5   0  0.3610483E-07  0.3376590E+04  0.7818609E-02  0.8143676E-01
       -2   -1    0    0    0  501  0.00000000000E+00  0.00000000000E+00  0.11846782139E+04  0.11846782139E+04  0.25500000920E-02 0.  1.
        2   -1    0    0  501    0  0.00000000000E+00  0.00000000000E+00 -0.24060033019E+04  0.24060033019E+04  0.25500000920E-02 0. -1.
    10030    2    1    2    0    0  0.00000000000E+00  0.00000000000E+00 -0.12213250879E+04  0.35906815158E+04  0.33765898148E+04 0.  0.
        4    1    3    3  502    0  0.51012235502E+03 -0.10476990457E+04 -0.19097758061E+04  0.22372177699E+04  0.12699999809E+01 0. -1.
       -4    1    3    3    0  502 -0.51012235502E+03  0.10476990457E+04  0.68845071813E+03  0.13534637460E+04  0.12699999809E+01 0.  1.
</event>
<event>
 5   0  0.3832389E-07  0.3904262E+04  0.7818609E-02  0.8024143E-01
        2   -1    0    0  501    0  0.00000000000E+00  0.00000000000E+00  0.20989463797E+04  0.20989463797E+04  0.25500000920E-02 0.  1.
       -2   -1    0    0    0  501  0.00000000000E+00  0.00000000000E+00 -0.18155851314E+04  0.18155851314E+04  0.25500000920E-02 0. -1.
    10030    2    1    2    0    0  0.00000000000E+00  0.00000000000E+00  0.28336124831E+03  0.39145315110E+04  0.39042622035E+04 0.  0.
        5    1    3    3  502    0  0.15150279122E+04 -0.72874274134E+03 -0.85310759181E+03  0.18852560067E+04  0.46999998093E+01 0. -1.
       -5    1    3    3    0  502 -0.15150279122E+04  0.72874274134E+03  0.11364688401E+04  0.20292755043E+04  0.46999998093E+01 0.  1.
</event>
<event>
 5   0  0.1187925E-07  0.3344380E+04  0.7818609E-02  0.8151694E-01
        1   -1    0    0  501    0  0.00000000000E+00  0.00000000000E+00  0.20331085360E+04  0.20331085360E+04  0.50400001928E-02 0. -1.
       -1   -1    0    0    0  501  0.00000000000E+00  0.00000000000E+00 -0.13753421352E+04  0.13753421352E+04  0.50400001928E-02 0.  1.
    10030    2    1    2    0    0  0.00000000000E+00  0.00000000000E+00  0.65776640080E+03  0.34084506713E+04  0.33443802625E+04 0.  0.
        5    1    3    3  502    0 -0.83543765297E+03  0.13478661648E+04 -0.21184545418E+03  0.15998749503E+04  0.46999998093E+01 0.  1.
       -5    1    3    3    0  502  0.83543765297E+03 -0.13478661648E+04  0.86961185497E+03  0.18085757210E+04  0.46999998093E+01 0. -1.
</event>
<event>
 5   0  0.1187925E-07  0.3428144E+04  0.7818609E-02  0.8131033E-01
       -1   -1    0    0    0  501  0.00000000000E+00  0.00000000000E+00  0.15481224149E+04  0.15481224149E+04  0.50400001928E-02 0.  1.
        1   -1    0    0  501    0  0.00000000000E+00  0.00000000000E+00 -0.18978108343E+04  0.18978108343E+04  0.50400001928E-02 0. -1.
    10030    2    1    2    0    0  0.00000000000E+00  0.00000000000E+00 -0.34968841940E+03  0.34459332492E+04  0.34281443912E+04 0.  0.
        3    1    3    3  502    0  0.10593107097E+04 -0.83116459162E+03 -0.12410412522E+04  0.18311627885E+04  0.10100000352E+00 0. -1.
       -3    1    3    3    0  502 -0.10593107097E+04  0.83116459162E+03  0.89135283283E+03  0.16147704607E+04  0.10100000352E+00 0.  1.
</event>
<event>
 5   0  0.3665303E-07  0.3895135E+04  0.7818609E-02  0.8026042E-01
        2   -1    0    0  501    0  0.00000000000E+00  0.00000000000E+00  0.22735668180E+04  0.22735668180E+04  0.25500000920E-02 0. -1.
       -2   -1    0    0    0  501  0.00000000000E+00  0.00000000000E+00 -0.16683123285E+04  0.16683123285E+04  0.25500000920E-02 0.  1.
    10030    2    1    2    0    0  0.00000000000E+00  0.00000000000E+00  0.60525448952E+03  0.39418791465E+04  0.38951351977E+04 0.  0.
        2    1    3    3  502    0 -0.14164701397E+04  0.11819875098E+04 -0.32899201109E+03  0.18739578100E+04  0.25500000920E-02 0.  1.
       -2    1    3    3    0  502  0.14164701397E+04 -0.11819875098E+04  0.93424650061E+03  0.20679213365E+04  0.25500000920E-02 0. -1.
</event>
<event>
 5   0  0.3832389E-07  0.3963765E+04  0.7818609E-02  0.8011896E-01
       -2   -1    0    0    0  501  0.00000000000E+00  0.00000000000E+00  0.21033787081E+04  0.21033787081E+04  0.25500000920E-02 0.  1.
        2   -1    0    0  501    0  0.00000000000E+00  0.00000000000E+00 -0.18674044657E+04  0.18674044657E+04  0.25500000920E-02 0. -1.
    10030    2    1    2    0    0  0.00000000000E+00  0.00000000000E+00  0.23597424240E+03  0.39707831738E+04  0.39637652769E+04 0.  0.
        5    1    3    3  502    0 -0.13414178279E+03 -0.16885019180E+04 -0.91281670509E+03  0.19241333561E+04  0.46999998093E+01 0. -1.
       -5    1    3    3    0  502  0.13414178279E+03  0.16885019180E+04  0.11487909475E+04  0.20466498176E+04  0.46999998093E+01 0.  1.
</event>
<event>
 5   0  0.3680814E-07  0.3969601E+04  0.7818609E-02  0.8010707E-01
       -2   -1    0    0    0  501  0.00000000000E+00  0.00000000000E+00  0.17963546937E+04  0.17963546937E+04  0.25500000920E-02 0.  1.
        2   -1    0    0  501    0  0.00000000000E+00  0.00000000000E+00 -0.21930154187E+04  0.21930154187E+04  0.25500000920E-02 0. -1.
    10030    2    1    2    0    0  0.00000000000E+00  0.00000000000E+00 -0.39666072497E+03  0.39893701124E+04  0.39696012599E+04 0.  0.
        1    1    3    3  502    0  0.17976580186E+04 -0.74563591078E+03  0.19333639619E+03  0.19557418606E+04  0.50400001928E-02 0.  1.
       -1    1    3    3    0  502 -0.17976580186E+04  0.74563591078E+03 -0.58999712116E+03  0.20336282517E+04  0.50400001928E-02 0. -1.
</event>
<event>
 5   0  0.3610483E-07  0.3778503E+04  0.7818609E-02  0.8050784E-01
       -2   -1    0    0    0  501  0.00000000000E+00  0.00000000000E+00  0.18980967331E+04  0.18980967331E+04  0.25500000920E-02 0. -1.
        2   -1    0    0  501    0  0.00000000000E+00  0.00000000000E+00 -0.18804470862E+04  0.18804470862E+04  0.25500000920E-02 0.  1.
    10030    2    1    2    0    0  0.00000000000E+00  0.00000000000E+00  0.17649646909E+02  0.37785438193E+04  0.37785025982E+04 0.  0.
        4    1    3    3  502    0  0.36671841444E+03  0.18065396684E+04  0.42259362927E+03  0.18912046313E+04  0.12699999809E+01 0.  1.
       -4    1    3    3    0  502 -0.36671841444E+03 -0.18065396684E+04 -0.40494398236E+03  0.18873391881E+04  0.12699999809E+01 0. -1.
</event>
<event>
 5   0  0.3832389E-07  0.3747890E+04  0.7818609E-02  0.8057431E-01
       -2   -1    0    0    0  501  0.00000000000E+00  0.00000000000E+00  0.14240773616E+04  0.14240773616E+04  0.25500000920E-02 0. -1.
        2   -1    0    0  501    0  0.00000000000E+00  0.00000000000E+00 -0.24659265973E+04  0.24659265973E+04  0.25500000920E-02 0.  1.
    10030    2    1    2    0    0  0.00000000000E+00  0.00000000000E+00 -0.10418492357E+04  0.38900039589E+04  0.37478902025E+04 0.  0.
        5    1    3    3  502    0 -0.13511583349E+04  0.21008279435E+03 -0.18508720917E+04  0.23011982131E+04  0.46999998093E+01 0.  1.
       -5    1    3    3    0  502  0.13511583349E+04 -0.21008279435E+03  0.80902285591E+03  0.15888057458E+04  0.46999998093E+01 0. -1.
</event>
<event>
 5   0  0.3810833E-07  0.3878720E+04  0.7818609E-02  0.8029470E-01
        2   -1    0    0  501    0  0.00000000000E+00  0.00000000000E+00  0.20337573476E+04  0.20337573476E+04  0.25500000920E-02 0. -1.
       -2   -1    0    0    0  501  0.00000000000E+00  0.00000000000E+00 -0.18493443055E+04  0.18493443055E+04  0.25500000920E-02 0.  1.
    10030    2    1    2    0    0  0.00000000000E+00  0.00000000000E+00  0.18441304217E+03  0.38831016531E+04  0.38787201856E+04 0.  0.
        3    1    3    3  502    0 -0.94960456653E+02 -0.12873641150E+04  0.15411816789E+04  0.20103643526E+04  0.10100000352E+00 0. -1.
       -3    1    3    3    0  502  0.94960456653E+02  0.12873641150E+04 -0.13567686367E+04  0.18727373005E+04  0.10100000352E+00 0.  1.
</event>
<event>
 5   0  0.1187925E-07  0.3824111E+04  0.7818609E-02  0.8041001E-01
        1   -1    0    0  501    0  0.00000000000E+00  0.00000000000E+00  0.18144819249E+04  0.18144819249E+04  0.50400001928E-02 0.  1.
       -1   -1    0    0    0  501  0.00000000000E+00  0.00000000000E+00 -0.20148756942E+04  0.20148756942E+04  0.50400001928E-02 0. -1.
    10030    2    1    2    0    0  0.00000000000E+00  0.00000000000E+00 -0.20039376935E+03  0.38293576191E+04  0.38241106302E+04 0.  0.
        4    1    3    3  502    0  0.18254932860E+04 -0.21278497626E+03 -0.62841541954E+03  0.19423209662E+04  0.12699999809E+01 0. -1.
       -4    1    3    3    0  502 -0.18254932860E+04  0.21278497626E+03  0.42802165019E+03  0.18870366529E+04  0.12699999809E+01 0.  1.
</event>
<event>
 5   0  0.3832389E-07  0.3889352E+04  0.7818609E-02  0.8027247E-01
        2   -1    0    0  501    0  0.00000000000E+00  0.00000000000E+00  0.24408909484E+04  0.24408909484E+04  0.25500000920E-02 0. -1.
       -2   -1    0    0    0  501  0.00000000000E+00  0.00000000000E+00 -0.15493376615E+04  0.15493376615E+04  0.25500000920E-02 0.  1.
    10030    2    1    2    0    0  0.00000000000E+00  0.00000000000E+00  0.89155328692E+03  0.39902286099E+04  0.38893517578E+04 0.  0.
        5    1    3    3  502    0  0.11880627279E+04 -0.13323313455E+04 -0.34568700648E+03  0.18182743072E+04  0.46999998093E+01 0.  1.
       -5    1    3    3    0  502 -0.11880627279E+04  0.13323313455E+04  0.12372402934E+04  0.21719543028E+04  0.46999998093E+01 0. -1.
</event>
<event>
 5   0  0.1187925E-07  0.3866937E+04  0.7818609E-02  0.8031941E-01
        1   -1    0    0  501    0  0.00000000000E+00  0.00000000000E+00  0.15671790531E+04  0.15671790531E+04  0.50400001928E-02 0. -1.
       -1   -1    0    0    0  501  0.00000000000E+00  0.00000000000E+00 -0.23853687337E+04  0.23853687337E+04  0.50400001928E-02 0.  1.
    10030    2    1    2    0    0  0.00000000000E+00  0.00000000000E+00 -0.81818968065E+03  0.39525477868E+04  0.38669367274E+04 0.  0.
        5    1    3    3  502    0 -0.31197226310E+03 -0.17178781358E+04  0.43986293155E+03  0.18005369951E+04  0.46999998093E+01 0. -1.
       -5    1    3    3    0  502  0.31197226310E+03  0.17178781358E+04 -0.12580526122E+04  0.21520107917E+04  0.46999998093E+01 0.  1.
</event>
<event>
 5   0  0.1187925E-07  0.3893721E+04  0.7818609E-02  0.8026336E-01
        1   -1    0    0  501    0  0.00000000000E+00  0.00000000000E+00  0.26591989629E+04  0.26591989629E+04  0.50400001928E-02 0. -1.
       -1   -1    0    0    0  501  0.00000000000E+00  0.00000000000E+00 -0.14253412105E+04  0.14253412105E+04  0.50400001928E-02 0.  1.
    10030    2    1    2    0    0  0.00000000000E+00  0.00000000000E+00  0.12338577524E+04  0.40845401735E+04  0.38937210321E+04 0.  0.
        5    1    3    3  502    0  0.18021497966E+04  0.69405991009E+03  0.87554839342E+03  0.21203938614E+04  0.46999998093E+01 0. -1.
       -5    1    3    3    0  502 -0.18021497966E+04 -0.69405991009E+03  0.35830935900E+03  0.19641463120E+04  0.46999998093E+01 0.  1.
</event>
<event>
 5   0  0.1187925E-07  0.3877582E+04  0.7818609E-02  0.8029708E-01
        1   -1    0    0  501    0  0.00000000000E+00  0.00000000000E+00  0.17240270951E+04  0.17240270951E+04  0.50400001928E-02 0.  1.
       -1   -1    0    0    0  501  0.00000000000E+00  0.00000000000E+00 -0.21803078232E+04  0.21803078232E+04  0.50400001928E-02 0. -1.
    10030    2    1    2    0    0  0.00000000000E+00  0.00000000000E+00 -0.45628072810E+03  0.39043349184E+04  0.38775815983E+04 0.  0.
        5    1    3    3  502    0  0.12004591116E+04  0.64574811588E+03  0.11600651197E+04  0.17899346021E+04  0.46999998093E+01 0.  1.
       -5    1    3    3    0  502 -0.12004591116E+04 -0.64574811588E+03 -0.16163458478E+04  0.21144003163E+04  0.46999998093E+01 0. -1.
</event>
<event>
 5   0  0.1187925E-07  0.3914647E+04  0.7818609E-02  0.8021990E-01
       -1   -1    0    0    0  501  0.00000000000E+00  0.00000000000E+00  0.22958849469E+04  0.22958849469E+04  0.50400001928E-02 0. -1.
        1   -1    0    0  501    0  0.00000000000E+00  0.00000000000E+00 -0.16686875777E+04  0.16686875777E+04  0.50400001928E-02 0.  1.
    10030    2    1    2    0    0  0.00000000000E+00  0.00000000000E+00  0.62719736924E+03  0.39645725246E+04  0.39146466970E+04 0.  0.
        1    1    3    3  502    0 -0.18159647443E+03  0.28667062023E+03 -0.16386680570E+04  0.16734366809E+04  0.50400001928E-02 0.  1.
       -1    1    3    3    0  502  0.18159647443E+03 -0.28667062023E+03  0.22658654263E+04  0.22911358436E+04  0.50400001928E-02 0. -1.
</event>
<event>
 5   0  0.3810833E-07  0.3900361E+04  0.7818609E-02  0.8024954E-01
       -2   -1    0    0    0  501  0.00000000000E+00  0.00000000000E+00  0.15602514630E+04  0.15602514631E+04  0.25500000920E-02 0.  1.
        2   -1    0    0  501    0  0.00000000000E+00  0.00000000000E+00 -0.24375578470E+04  0.24375578470E+04  0.25500000920E-02 0. -1.
    10030    2    1    2    0    0  0.00000000000E+00  0.00000000000E+00 -0.87730638398E+03  0.39978093101E+04  0.39003605972E+04 0.  0.
        3    1    3    3  502    0 -0.19432831592E+04  0.51393744308E+02 -0.59814432123E+03  0.20339044699E+04  0.10100000352E+00 0. -1.
       -3    1    3    3    0  502  0.19432831592E+04 -0.51393744308E+02 -0.27916206276E+03  0.19639048401E+04  0.10100000352E+00 0.  1.
</event>
<event>
 5   0  0.3832389E-07  0.3941946E+04  0.7818609E-02  0.8016361E-01
       -2   -1    0    0    0  501  0.00000000000E+00  0.00000000000E+00  0.16373241828E+04  0.16373241828E+04  0.25500000920E-02 0. -1.
        2   -1    0    0  501    0  0.00000000000E+00  0.00000000000E+00 -0.23726121673E+04  0.23726121673E+04  0.25500000920E-02 0.  1.
    10030    2    1    2    0    0  0.00000000000E+00  0.00000000000E+00 -0.73528798452E+03  0.40099363501E+04  0.39419463609E+04 0.  0.
        5    1    3    3  502    0  0.13886581673E+04  0.79959547652E+03  0.79975093634E+03  0.17909070556E+04  0.46999998093E+01 0. -1.
       -5    1    3    3    0  502 -0.13886581673E+04 -0.79959547652E+03 -0.15350389209E+04  0.22190292946E+04  0.46999998093E+01 0.  1.
</event>
<event>
 5   0  0.1187925E-07  0.3965398E+04  0.7818609E-02  0.8011563E-01
        1   -1    0    0  501    0  0.00000000000E+00  0.00000000000E+00  0.15673802303E+04  0.15673802303E+04  0.50400001928E-02 0.  1.
       -1   -1    0    0    0  501  0.00000000000E+00  0.00000000000E+00 -0.25080679340E+04  0.25080679340E+04  0.50400001928E-02 0. -1.
    10030    2    1    2    0    0  0.00000000000E+00  0.00000000000E+00 -0.94068770366E+03  0.40754481643E+04  0.39653983891E+04 0.  0.
        4    1    3    3  502    0  0.55243005571E+03 -0.15937529525E+04  0.60062508381E+03  0.17905249354E+04  0.12699999809E+01 0.  1.
       -4    1    3    3    0  502 -0.55243005571E+03  0.15937529525E+04 -0.15413127875E+04  0.22849232289E+04  0.12699999809E+01 0. -1.
</event>
<event>
 5   0  0.3665303E-07  0.3914874E+04  0.7818609E-02  0.8021943E-01
       -2   -1    0    0    0  501  0.00000000000E+00  0.00000000000E+00  0.17622924402E+04  0.17622924402E+04  0.25500000920E-02 0. -1.
        2   -1    0    0  501    0  0.00000000000E+00  0.00000000000E+00 -0.21741905803E+04  0.21741905803E+04  0.25500000920E-02 0.  1.
    10030    2    1    2    0    0  0.00000000000E+00  0.00000000000E+00 -0.41189814009E+03  0.39364830204E+04  0.39148740072E+04 0.  0.
        2    1    3    3  502    0  0.11906902269E+04 -0.43183391912E+03  0.12947148764E+04  0.18112179221E+04  0.25500000920E-02 0. -1.
       -2    1    3    3    0  502 -0.11906902269E+04  0.43183391912E+03 -0.17066130165E+04  0.21252650983E+04  0.25500000920E-02 0.  1.
</event>
<event>
 5   0  0.3665303E-07  0.3013254E+04  0.7818609E-02  0.8239956E-01
        2   -1    0    0  501    0  0.00000000000E+00  0.00000000000E+00  0.15121865202E+04  0.15121865202E+04  0.25500000920E-02 0.  1.
       -2   -1    0    0    0  501  0.00000000000E+00  0.00000000000E+00 -0.15010880587E+04  0.15010880587E+04  0.25500000920E-02 0. -1.
    10030    2    1    2    0    0  0.00000000000E+00  0.00000000000E+00  0.11098461416E+02  0.30132745789E+04  0.30132541400E+04 0.  0.
        2    1    3    3  502    0  0.20094314870E+03 -0.17550059415E+03  0.14883763780E+04  0.15120988229E+04  0.25500000920E-02 0.  1.
       -2    1    3    3    0  502 -0.20094314870E+03  0.17550059415E+03 -0.14772779166E+04  0.15011757560E+04  0.25500000920E-02 0. -1.
</event>
<event>
 5   0  0.1187925E-07  0.3950774E+04  0.7818609E-02  0.8014551E-01
       -1   -1    0    0    0  501  0.00000000000E+00  0.00000000000E+00  0.19160256643E+04  0.19160256643E+04  0.50400001928E-02 0. -1.
        1   -1    0    0  501    0  0.00000000000E+00  0.00000000000E+00 -0.20365872884E+04  0.20365872884E+04  0.50400001928E-02 0.  1.
    10030    2    1    2    0    0  0.00000000000E+00  0.00000000000E+00 -0.12056162407E+03  0.39526129527E+04  0.39507738545E+04 0.  0.
        1    1    3    3  502    0  0.87143098130E+03 -0.50078576849E+03  0.16410916474E+04  0.19244116338E+04  0.50400001928E-02 0. -1.
       -1    1    3    3    0  502 -0.87143098130E+03  0.50078576849E+03 -0.17616532715E+04  0.20282013189E+04  0.50400001928E-02 0.  1.
</event>
<event>
 5   0  0.3832389E-07  0.3968906E+04  0.7818609E-02  0.8010849E-01
       -2   -1    0    0    0  501  0.00000000000E+00  0.00000000000E+00  0.26169295347E+04  0.26169295347E+04  0.25500000920E-02 0. -1.
        2   -1    0    0  501    0  0.00000000000E+00  0.00000000000E+00 -0.15048377078E+04  0.15048377078E+04  0.25500000920E-02 0.  1.
    10030    2    1    2    0    0  0.00000000000E+00  0.00000000000E+00  0.11120918269E+04  0.41217672425E+04  0.39689062687E+04 0.  0.
        5    1    3    3  502    0  0.11456020197E+04  0.43748884912E+03 -0.10642471591E+04  0.16237132094E+04  0.46999998093E+01 0.  1.
       -5    1    3    3    0  502 -0.11456020197E+04 -0.43748884912E+03  0.21763389859E+04  0.24980540331E+04  0.46999998093E+01 0. -1.
</event>
<event>
 5   0  0.1187925E-07  0.3869974E+04  0.7818609E-02  0.8031303E-01
       -1   -1    0    0    0  501  0.00000000000E+00  0.00000000000E+00  0.13588104010E+04  0.13588104010E+04  0.50400001928E-02 0.  1.
        1   -1    0    0  501    0  0.00000000000E+00  0.00000000000E+00 -0.27554802573E+04  0.27554802573E+04  0.50400001928E-02 0. -1.
    10030    2    1    2    0    0  0.00000000000E+00  0.00000000000E+00 -0.13966698563E+04  0.41142906584E+04  0.38699742808E+04 0.  0.
        3    1    3    3  502    0 -0.67297275035E+03 -0.13444726480E+04 -0.19932952326E+04  0.24967428619E+04  0.10100000352E+00 0. -1.
       -3    1    3    3    0  502  0.67297275035E+03  0.13444726480E+04  0.59662537627E+03  0.16175477964E+04  0.10100000352E+00 0.  1.
</event>
<event>
 5   0  0.3610483E-07  0.3318622E+04  0.7818609E-02  0.8158173E-01
        2   -1    0    0  501    0  0.00000000000E+00  0.00000000000E+00  0.20761631664E+04  0.20761631664E+04  0.25500000920E-02 0. -1.
       -2   -1    0    0    0  501  0.00000000000E+00  0.00000000000E+00 -0.13261543263E+04  0.13261543263E+04  0.25500000920E-02 0.  1.
    10030    2    1    2    0    0  0.00000000000E+00  0.00000000000E+00  0.75000884015E+03  0.34023174927E+04  0.33186218617E+04 0.  0.
        4    1    3    3  502    0  0.24262630286E+03 -0.47133854798E+03  0.19870087814E+04  0.20565099221E+04  0.12699999809E+01 0. -1.
       -4    1    3    3    0  502 -0.24262630286E+03  0.47133854798E+03 -0.12369999412E+04  0.13458075706E+04  0.12699999809E+01 0.  1.
</event>
<event>
 5   0  0.3832389E-07  0.3893214E+04  0.7818609E-02  0.8026442E-01
       -2   -1    0    0    0  501  0.00000000000E+00  0.00000000000E+00  0.17810432742E+04  0.17810432742E+04  0.25500000920E-02 0.  1.
        2   -1    0    0  501    0  0.00000000000E+00  0.00000000000E+00 -0.21275611526E+04  0.21275611526E+04  0.25500000920E-02 0. -1.
    10030    2    1    2    0    0  0.00000000000E+00  0.00000000000E+00 -0.34651787838E+03  0.39086044267E+04  0.38932138298E+04 0.  0.
        5    1    3    3  502    0  0.67339264747E+03 -0.44499446086E+03  0.16051212627E+04  0.17966396650E+04  0.46999998093E+01 0.  1.
       -5    1    3    3    0  502 -0.67339264747E+03  0.44499446086E+03 -0.19516391411E+04  0.21119647617E+04  0.46999998093E+01 0. -1.
</event>
<event>
 5   0  0.1187925E-07  0.3851695E+04  0.7818609E-02  0.8035151E-01
       -1   -1    0    0    0  501  0.00000000000E+00  0.00000000000E+00  0.15440886823E+04  0.15440886823E+04  0.50400001928E-02 0. -1.
        1   -1    0    0  501    0  0.00000000000E+00  0.00000000000E+00 -0.24019917619E+04  0.24019917619E+04  0.50400001928E-02 0.  1.
    10030    2    1    2    0    0  0.00000000000E+00  0.00000000000E+00 -0.85790307960E+03  0.39460804441E+04  0.38516948448E+04 0.  0.
        1    1    3    3  502    0 -0.15230446365E+03  0.14126271934E+03  0.15325772349E+04  0.15465913444E+04  0.50400001928E-02 0. -1.
       -1    1    3    3    0  502  0.15230446365E+03 -0.14126271934E+03 -0.23904803145E+04  0.23994890997E+04  0.50400001928E-02 0.  1.
</event>
<event>
 5   0  0.1187925E-07  0.3181863E+04  0.7818609E-02  0.8193624E-01
        1   -1    0    0  501    0  0.00000000000E+00  0.00000000000E+00  0.15350882654E+04  0.15350882654E+04  0.50400001928E-02 0.  1.
       -1   -1    0    0    0  501  0.00000000000E+00  0.00000000000E+00 -0.16488057992E+04  0.16488057992E+04  0.50400001928E-02 0. -1.
    10030    2    1    2    0    0  0.00000000000E+00  0.00000000000E+00 -0.11371753381E+03  0.31838940647E+04  0.31818626208E+04 0.  0.
        1    1    3    3  502    0  0.94105089686E+03 -0.68678766198E+03  0.10272573032E+04  0.15532262070E+04  0.50400001928E-02 0.  1.
       -1    1    3    3    0  502 -0.94105089686E+03  0.68678766198E+03 -0.11409748371E+04  0.16306678576E+04  0.50400001928E-02 0. -1.
</event>
<event>
 5   0  0.1187925E-07  0.3043283E+04  0.7818609E-02  0.8231478E-01
       -1   -1    0    0    0  501  0.00000000000E+00  0.00000000000E+00  0.20311680699E+04  0.20311680699E+04  0.50400001928E-02 0.  1.
        1   -1    0    0  501    0  0.00000000000E+00  0.00000000000E+00 -0.11399317956E+04  0.11399317956E+04  0.50400001928E-02 0. -1.
    10030    2    1    2    0    0  0.00000000000E+00  0.00000000000E+00  0.89123627432E+03  0.31710998654E+04  0.30432831383E+04 0.  0.
        3    1    3    3  502    0 -0.94939744021E+00  0.49503953858E+03  0.19449132945E+04  0.20069262018E+04  0.10100000352E+00 0.  1.
       -3    1    3    3    0  502  0.94939744021E+00 -0.49503953858E+03 -0.10536770202E+04  0.11641736637E+04  0.10100000352E+00 0. -1.
</event>
<event>
 5   0  0.3610483E-07  0.3865331E+04  0.7818609E-02  0.8032279E-01
       -2   -1    0    0    0  501  0.00000000000E+00  0.00000000000E+00  0.25939527473E+04  0.25939527473E+04  0.25500000920E-02 0.  1.
        2   -1    0    0  501    0  0.00000000000E+00  0.00000000000E+00 -0.14399628322E+04  0.14399628322E+04  0.25500000920E-02 0. -1.
    10030    2    1    2    0    0  0.00000000000E+00  0.00000000000E+00  0.11539899151E+04  0.40339155795E+04  0.38653307980E+04 0.  0.
        4    1    3    3  502    0 -0.11957420812E+04  0.10973950454E+04  0.16721037120E+04  0.23302376375E+04  0.12699999809E+01 0.  1.
       -4    1    3    3    0  502  0.11957420812E+04 -0.10973950454E+04 -0.51811379690E+03  0.17036779420E+04  0.12699999809E+01 0. -1.
</event>
<event>
 5   0  0.3680814E-07  0.3901033E+04  0.7818609E-02  0.8024814E-01
       -2   -1    0    0    0  501  0.00000000000E+00  0.00000000000E+00  0.18473421545E+04  0.18473421545E+04  0.25500000920E-02 0.  1.
        2   -1    0    0  501    0  0.00000000000E+00  0.00000000000E+00 -0.20594530086E+04  0.20594530086E+04  0.25500000920E-02 0. -1.
    10030    2    1    2    0    0  0.00000000000E+00  0.00000000000E+00 -0.21211085402E+03  0.39067951631E+04  0.39010328673E+04 0.  0.
        1    1    3    3  502    0 -0.17137335085E+04  0.61185347353E+03  0.59731179785E+03  0.19152098045E+04  0.50400001928E-02 0. -1.
       -1    1    3    3    0  502  0.17137335085E+04 -0.61185347353E+03 -0.80942265187E+03  0.19915853586E+04  0.50400001928E-02 0.  1.
</event>
<event>
 5   0  0.3832389E-07  0.3917064E+04  0.7818609E-02  0.8021490E-01
        2   -1    0    0  501    0  0.00000000000E+00  0.00000000000E+00  0.29725817747E+04  0.29725817747E+04  0.25500000920E-02 0.  1.
       -2   -1    0    0    0  501  0.00000000000E+00  0.00000000000E+00 -0.12904092836E+04  0.12904092836E+04  0.25500000920E-02 0. -1.
    10030    2    1    2    0    0  0.00000000000E+00  0.00000000000E+00  0.16821724911E+04  0.42629910583E+04  0.39170637567E+04 0.  0.
        5    1    3    3  502    0  0.16243857245E+04 -0.10497777121E+04  0.11768141120E+04  0.22639734475E+04  0.46999998093E+01 0. -1.
       -5    1    3    3    0  502 -0.16243857245E+04  0.10497777121E+04  0.50535837905E+03  0.19990176108E+04  0.46999998093E+01 0.  1.
</event>
<event>
 5   0  0.1187925E-07  0.3910777E+04  0.7818609E-02  0.8022792E-01
        1   -1    0    0  501    0  0.00000000000E+00  0.00000000000E+00  0.12309494906E+04  0.12309494906E+04  0.50400001928E-02 0. -1.
       -1   -1    0    0    0  501  0.00000000000E+00  0.00000000000E+00 -0.31061741143E+04  0.31061741143E+04  0.50400001928E-02 0.  1.
    10030    2    1    2    0    0  0.00000000000E+00  0.00000000000E+00 -0.18752246237E+04  0.43371236049E+04  0.39107766205E+04 0.  0.
        2    1    3    3  502    0 -0.76038745256E+03 -0.15151706361E+04  0.14310462301E+03  0.17012965843E+04  0.25500000920E-02 0. -1.
       -2    1    3    3    0  502  0.76038745256E+03  0.15151706361E+04 -0.20183292467E+04  0.26358270206E+04  0.25500000920E-02 0.  1.
</event>
<event>
 5   0  0.1187925E-07  0.3898766E+04  0.7818609E-02  0.8025286E-01
        3   -1    0    0  501    0  0.00000000000E+00  0.00000000000E+00  0.22731401287E+04  0.22731401309E+04  0.10100000352E+00 0. -1.
       -3   -1    0    0    0  501  0.00000000000E+00  0.00000000000E+00 -0.16717376316E+04  0.16717376346E+04  0.10100000352E+00 0.  1.
    10030    2    1    2    0    0  0.00000000000E+00  0.00000000000E+00  0.60140249713E+03  0.39448777655E+04  0.38987659101E+04 0.  0.
        3    1    3    3  502    0 -0.17938741392E+02  0.37430936906E+03 -0.16349496477E+04  0.16773460176E+04  0.10100000352E+00 0.  1.
       -3    1    3    3    0  502  0.17938741392E+02 -0.37430936906E+03  0.22363521448E+04  0.22675317479E+04  0.10100000352E+00 0. -1.
</event>
<event>
 5   0  0.3610483E-07  0.3954403E+04  0.7818609E-02  0.8013809E-01
        2   -1    0    0  501    0  0.00000000000E+00  0.00000000000E+00  0.19833337591E+04  0.19833337591E+04  0.25500000920E-02 0. -1.
       -2   -1    0    0    0  501  0.00000000000E+00  0.00000000000E+00 -0.19710880090E+04  0.19710880090E+04  0.25500000920E-02 0.  1.
    10030    2    1    2    0    0  0.00000000000E+00  0.00000000000E+00  0.12245750146E+02  0.39544217681E+04  0.39544028072E+04 0.  0.
        4    1    3    3  502    0  0.56641650332E+03 -0.16062922944E+04  0.10102796640E+04  0.19803204798E+04  0.12699999809E+01 0. -1.
       -4    1    3    3    0  502 -0.56641650332E+03  0.16062922944E+04 -0.99803391390E+03  0.19741012883E+04  0.12699999809E+01 0.  1.
</event>
<event>
 5   0  0.1187925E-07  0.2806950E+04  0.7818609E-02  0.8301114E-01
       -1   -1    0    0    0  501  0.00000000000E+00  0.00000000000E+00  0.10740236970E+04  0.10740236970E+04  0.50400001928E-02 0. -1.
        1   -1    0    0  501    0  0.00000000000E+00  0.00000000000E+00 -0.18339842993E+04  0.18339842993E+04  0.50400001928E-02 0.  1.
    10030    2    1    2    0    0  0.00000000000E+00  0.00000000000E+00 -0.75996060230E+03  0.29080079963E+04  0.28069503718E+04 0.  0.
        3    1    3    3  502    0 -0.10969101180E+04  0.10191938236E+03 -0.12808518956E+04  0.16894321402E+04  0.10100000352E+00 0.  1.
       -3    1    3    3    0  502  0.10969101180E+04 -0.10191938236E+03  0.52089129333E+03  0.12185758562E+04  0.10100000352E+00 0. -1.
</event>
<event>
 5   0  0.3610483E-07  0.3908148E+04  0.7818609E-02  0.8023337E-01
       -2   -1    0    0    0  501  0.00000000000E+00  0.00000000000E+00  0.23001943849E+04  0.23001943849E+04  0.25500000920E-02 0.  1.
        2   -1    0    0  501    0  0.00000000000E+00  0.00000000000E+00 -0.16600357720E+04  0.16600357720E+04  0.25500000920E-02 0. -1.
    10030    2    1    2    0    0  0.00000000000E+00  0.00000000000E+00  0.64015861287E+03  0.39602301569E+04  0.39081478792E+04 0.  0.
        4    1    3    3  502    0 -0.47852355431E+03  0.15339891312E+04  0.14467854253E+04  0.21622435401E+04  0.12699999809E+01 0. -1.
       -4    1    3    3    0  502  0.47852355431E+03 -0.15339891312E+04 -0.80662681248E+03  0.17979866168E+04  0.12699999809E+01 0.  1.
</event>
<event>
 5   0  0.1187925E-07  0.3907813E+04  0.7818609E-02  0.8023406E-01
        1   -1    0    0  501    0  0.00000000000E+00  0.00000000000E+00  0.14952124903E+04  0.14952124903E+04  0.50400001928E-02 0.  1.
       -1   -1    0    0    0  501  0.00000000000E+00  0.00000000000E+00 -0.25533164793E+04  0.25533164793E+04  0.50400001928E-02 0. -1.
    10030    2    1    2    0    0  0.00000000000E+00  0.00000000000E+00 -0.10581039890E+04  0.40485289697E+04  0.39078130414E+04 0.  0.
        3    1    3    3  502    0  0.18631780134E+04 -0.38889631625E+03 -0.71471344735E+02  0.19046734150E+04  0.10100000352E+00 0.  1.
       -3    1    3    3    0  502 -0.18631780134E+04  0.38889631625E+03 -0.98663264426E+03  0.21438555547E+04  0.10100000352E+00 0. -1.
</event>
<event>
 5   0  0.1187925E-07  0.3945564E+04  0.7818609E-02  0.8015619E-01
        1   -1    0    0  501    0  0.00000000000E+00  0.00000000000E+00  0.21364776076E+04  0.21364776076E+04  0.50400001928E-02 0.  1.
       -1   -1    0    0    0  501  0.00000000000E+00  0.00000000000E+00 -0.18216284184E+04  0.18216284184E+04  0.50400001928E-02 0. -1.
    10030    2    1    2    0    0  0.00000000000E+00  0.00000000000E+00  0.31484918921E+03  0.39581060260E+04  0.39455637495E+04 0.  0.
        3    1    3    3  502    0  0.12981736066E+03 -0.10287246021E+04  0.18410747390E+04  0.21129796636E+04  0.10100000352E+00 0.  1.
       -3    1    3    3    0  502 -0.12981736066E+03  0.10287246021E+04 -0.15262255498E+04  0.18451263624E+04  0.10100000352E+00 0. -1.
</event>
<event>
 5   0  0.3610483E-07  0.3884528E+04  0.7818609E-02  0.8028255E-01
       -2   -1    0    0    0  501  0.00000000000E+00  0.00000000000E+00  0.18811480704E+04  0.18811480704E+04  0.25500000920E-02 0.  1.
        2   -1    0    0  501    0  0.00000000000E+00  0.00000000000E+00 -0.20053657049E+04  0.20053657049E+04  0.25500000920E-02 0. -1.
    10030    2    1    2    0    0  0.00000000000E+00  0.00000000000E+00 -0.12421763454E+03  0.38865137753E+04  0.38845281959E+04 0.  0.
        4    1    3    3  502    0 -0.39305379280E+01 -0.66346403257E+03  0.17642524868E+04  0.18848841932E+04  0.12699999809E+01 0.  1.
       -4    1    3    3    0  502  0.39305379280E+01  0.66346403257E+03 -0.18884701214E+04  0.20016295821E+04  0.12699999809E+01 0. -1.
</event>
<event>
 5   0  0.3680814E-07  0.3712116E+04  0.7818609E-02  0.8065282E-01
       -2   -1    0    0    0  501  0.00000000000E+00  0.00000000000E+00  0.14540598792E+04  0.14540598792E+04  0.25500000920E-02 0.  1.
        2   -1    0    0  501    0  0.00000000000E+00  0.00000000000E+00 -0.23691944953E+04  0.23691944953E+04  0.25500000920E-02 0. -1.
    10030    2    1    2    0    0  0.00000000000E+00  0.00000000000E+00 -0.91513461602E+03  0.38232543745E+04  0.37121156564E+04 0.  0.
        1    1    3    3  502    0  0.10948649191E+04  0.79188627042E+03 -0.17681172485E+04  0.22253205749E+04  0.50400001928E-02 0. -1.
       -1    1    3    3    0  502 -0.10948649191E+04 -0.79188627042E+03  0.85298263252E+03  0.15979337996E+04  0.50400001928E-02 0.  1.
</event>
<event>
 5   0  0.3665303E-07  0.3782102E+04  0.7818609E-02  0.8050007E-01
       -2   -1    0    0    0  501  0.00000000000E+00  0.00000000000E+00  0.20390681381E+04  0.20390681381E+04  0.25500000920E-02 0. -1.
        2   -1    0    0  501    0  0.00000000000E+00  0.00000000000E+00 -0.17537784645E+04  0.17537784645E+04  0.25500000920E-02 0.  1.
    10030    2    1    2    0    0  0.00000000000E+00  0.00000000000E+00  0.28528967353E+03  0.37928466026E+04  0.37821019491E+04 0.  0.
        2    1    3    3  502    0 -0.48104737721E+02 -0.18897327180E+04  0.90826220445E+02  0.18925256177E+04  0.25500000920E-02 0. -1.
       -2    1    3    3    0  502  0.48104737721E+02  0.18897327180E+04  0.19446345309E+03  0.19003209849E+04  0.25500000920E-02 0.  1.
</event>
<event>
 5   0  0.3610483E-07  0.4002311E+04  0.7818609E-02  0.8004080E-01
       -2   -1    0    0    0  501  0.00000000000E+00  0.00000000000E+00  0.27163700246E+04  0.27163700246E+04  0.25500000920E-02 0.  1.
        2   -1    0    0  501    0  0.00000000000E+00  0.00000000000E+00 -0.14742556919E+04  0.14742556919E+04  0.25500000920E-02 0. -1.
    10030    2    1    2    0    0  0.00000000000E+00  0.00000000000E+00  0.12421143327E+04  0.41906257165E+04  0.40023113173E+04 0.  0.
        4    1    3    3  502    0 -0.10480782241E+04 -0.62551599959E+03  0.22815117324E+04  0.25874766913E+04  0.12699999809E+01 0.  1.
       -4    1    3    3    0  502  0.10480782241E+04  0.62551599959E+03 -0.10393973998E+04  0.16031490253E+04  0.12699999809E+01 0. -1.
</event>
<event>
 5   0  0.1187925E-07  0.3431179E+04  0.7818609E-02  0.8130296E-01
        1   -1    0    0  501    0  0.00000000000E+00  0.00000000000E+00  0.31264404264E+04  0.31264404264E+04  0.50400001928E-02 0. -1.
       -1   -1    0    0    0  501  0.00000000000E+00  0.00000000000E+00 -0.94140505634E+03  0.94140505636E+03  0.50400001928E-02 0.  1.
    10030    2    1    2    0    0  0.00000000000E+00  0.00000000000E+00  0.21850353701E+04  0.40678454828E+04  0.34311787046E+04 0.  0.
        1    1    3    3  502    0  0.29342728650E+03 -0.79323657840E+03 -0.67706637234E+03  0.10833940716E+04  0.50400001928E-02 0.  1.
       -1    1    3    3    0  502 -0.29342728650E+03  0.79323657840E+03  0.28621017424E+04  0.29844514112E+04  0.50400001928E-02 0. -1.
</event>
<event>
 5   0  0.1187925E-07  0.3987403E+04  0.7818609E-02  0.8007093E-01
       -1   -1    0    0    0  501  0.00000000000E+00  0.00000000000E+00  0.17224164580E+04  0.17224164580E+04  0.50400001928E-02 0.  1.
        1   -1    0    0  501    0  0.00000000000E+00  0.00000000000E+00 -0.23077149963E+04  0.23077149963E+04  0.50400001928E-02 0. -1.
    10030    2    1    2    0    0  0.00000000000E+00  0.00000000000E+00 -0.58529853829E+03  0.40301314543E+04  0.39874033105E+04 0.  0.
        3    1    3    3  502    0 -0.16611715822E+04  0.96464348542E+02  0.81732185970E+03  0.18538639186E+04  0.10100000352E+00 0.  1.
       -3    1    3    3    0  502  0.16611715822E+04 -0.96464348542E+02 -0.14026203980E+04  0.21762675358E+04  0.10100000352E+00 0. -1.
</event>
<event>
 5   0  0.3665303E-07  0.3904902E+04  0.7818609E-02  0.8024010E-01
        2   -1    0    0  501    0  0.00000000000E+00  0.00000000000E+00  0.21196649562E+04  0.21196649562E+04  0.25500000920E-02 0. -1.
       -2   -1    0    0    0  501  0.00000000000E+00  0.00000000000E+00 -0.17984281864E+04  0.17984281864E+04  0.25500000920E-02 0.  1.
    10030    2    1    2    0    0  0.00000000000E+00  0.00000000000E+00  0.32123676979E+03  0.39180931427E+04  0.39049021515E+04 0.  0.
        2    1    3    3  502    0  0.13097706941E+04 -0.11870528720E+04  0.99255822311E+03  0.20272556865E+04  0.25500000920E-02 0. -1.
       -2    1    3    3    0  502 -0.13097706941E+04  0.11870528720E+04 -0.67132145332E+03  0.18908374562E+04  0.25500000920E-02 0.  1.
</event>
<event>
 5   0  0.1187925E-07  0.3879000E+04  0.7818609E-02  0.8029411E-01
        1   -1    0    0  501    0  0.00000000000E+00  0.00000000000E+00  0.15499864043E+04  0.15499864043E+04  0.50400001928E-02 0. -1.
       -1   -1    0    0    0  501  0.00000000000E+00  0.00000000000E+00 -0.24268987836E+04  0.24268987836E+04  0.50400001928E-02 0.  1.
    10030    2    1    2    0    0  0.00000000000E+00  0.00000000000E+00 -0.87691237935E+03  0.39768851879E+04  0.38789999326E+04 0.  0.
        2    1    3    3  502    0 -0.67119623835E+02 -0.19303272093E+04 -0.25796846761E+03  0.19486446339E+04  0.25500000920E-02 0.  1.
       -2    1    3    3    0  502  0.67119623835E+02  0.19303272093E+04 -0.61894391174E+03  0.20282405540E+04  0.25500000920E-02 0. -1.
</event>
<event>
 5   0  0.1187925E-07  0.3905102E+04  0.7818609E-02  0.8023969E-01
        1   -1    0    0  501    0  0.00000000000E+00  0.00000000000E+00  0.31607679728E+04  0.31607679728E+04  0.50400001928E-02 0.  1.
       -1   -1    0    0    0  501  0.00000000000E+00  0.00000000000E+00 -0.12061803716E+04  0.12061803716E+04  0.50400001928E-02 0. -1.
    10030    2    1    2    0    0  0.00000000000E+00  0.00000000000E+00  0.19545876012E+04  0.43669483444E+04  0.39051024509E+04 0.  0.
        4    1    3    3  502    0  0.38132710487E+03  0.16668804889E+04 -0.76819940354E+02  0.17116669774E+04  0.12699999809E+01 0. -1.
       -4    1    3    3    0  502 -0.38132710487E+03 -0.16668804889E+04  0.20314075415E+04  0.26552813670E+04  0.12699999809E+01 0.  1.
</event>
<event>
 5   0  0.1187925E-07  0.3895324E+04  0.7818609E-02  0.8026003E-01
        1   -1    0    0  501    0  0.00000000000E+00  0.00000000000E+00  0.23665060148E+04  0.23665060148E+04  0.50400001928E-02 0.  1.
       -1   -1    0    0    0  501  0.00000000000E+00  0.00000000000E+00 -0.16029481006E+04  0.16029481006E+04  0.50400001928E-02 0. -1.
    10030    2    1    2    0    0  0.00000000000E+00  0.00000000000E+00  0.76355791428E+03  0.39694541154E+04  0.38953235149E+04 0.  0.
        4    1    3    3  502    0  0.69143358992E+03  0.17849631202E+04  0.15478949249E+02  0.19142661676E+04  0.12699999809E+01 0. -1.
       -4    1    3    3    0  502 -0.69143358992E+03 -0.17849631202E+04  0.74807896503E+03  0.20551879478E+04  0.12699999809E+01 0.  1.
</event>
<event>
 5   0  0.3665303E-07  0.3062363E+04  0.7818609E-02  0.8226143E-01
       -2   -1    0    0    0  501  0.00000000000E+00  0.00000000000E+00  0.11902443207E+04  0.11902443207E+04  0.25500000920E-02 0.  1.
        2   -1    0    0  501    0  0.00000000000E+00  0.00000000000E+00 -0.19697782700E+04  0.19697782700E+04  0.25500000920E-02 0. -1.
    10030    2    1    2    0    0  0.00000000000E+00  0.00000000000E+00 -0.77953394929E+03  0.31600225908E+04  0.30623634004E+04 0.  0.
        2    1    3    3  502    0  0.79840691850E+03  0.97555903224E+03 -0.12865907409E+04  0.18012453379E+04  0.25500000920E-02 0. -1.
       -2    1    3    3    0  502 -0.79840691850E+03 -0.97555903224E+03  0.50705679159E+03  0.13587772528E+04  0.25500000920E-02 0.  1.
</event>
<event>
 5   0  0.1187925E-07  0.3902552E+04  0.7818609E-02  0.8024499E-01
       -1   -1    0    0    0  501  0.00000000000E+00  0.00000000000E+00  0.13376605696E+04  0.13376605696E+04  0.50400001928E-02 0.  1.
        1   -1    0    0  501    0  0.00000000000E+00  0.00000000000E+00 -0.28463708479E+04  0.28463708479E+04  0.50400001928E-02 0. -1.
    10030    2    1    2    0    0  0.00000000000E+00  0.00000000000E+00 -0.15087102783E+04  0.41840314175E+04  0.39025520110E+04 0.  0.
        1    1    3    3  502    0  0.48707818841E+03  0.68571522234E+03 -0.26420379096E+04  0.27726909030E+04  0.50400001928E-02 0. -1.
       -1    1    3    3    0  502 -0.48707818841E+03 -0.68571522234E+03  0.11333276313E+04  0.14113405145E+04  0.50400001928E-02 0.  1.
</event>
<event>
 5   0  0.3665303E-07  0.3718195E+04  0.7818609E-02  0.8063942E-01
        2   -1    0    0  501    0  0.00000000000E+00  0.00000000000E+00  0.23816513339E+04  0.23816513339E+04  0.25500000920E-02 0.  1.
       -2   -1    0    0    0  501  0.00000000000E+00  0.00000000000E+00 -0.14511962041E+04  0.14511962041E+04  0.25500000920E-02 0. -1.
    10030    2    1    2    0    0  0.00000000000E+00  0.00000000000E+00  0.93045512979E+03  0.38328475380E+04  0.37181949251E+04 0.  0.
        2    1    3    3  502    0 -0.38715294902E+03 -0.16420993807E+04  0.12702471693E+04  0.21118488708E+04  0.25500000920E-02 0.  1.
       -2    1    3    3    0  502  0.38715294902E+03  0.16420993807E+04 -0.33979203953E+03  0.17209986671E+04  0.25500000920E-02 0. -1.
</event>
<event>
 5   0  0.3665303E-07  0.3859881E+04  0.7818609E-02  0.8033425E-01
        2   -1    0    0  501    0  0.00000000000E+00  0.00000000000E+00  0.25096005776E+04  0.25096005776E+04  0.25500000920E-02 0. -1.
       -2   -1    0    0    0  501  0.00000000000E+00  0.00000000000E+00 -0.14841685903E+04  0.14841685903E+04  0.25500000920E-02 0.  1.
    10030    2    1    2    0    0  0.00000000000E+00  0.00000000000E+00  0.10254319874E+04  0.39937691679E+04  0.38598810093E+04 0.  0.
        2    1    3    3  502    0 -0.65726576981E+03 -0.74812798793E+03  0.22232314298E+04  0.24360730221E+04  0.25500000920E-02 0. -1.
       -2    1    3    3    0  502  0.65726576981E+03  0.74812798793E+03 -0.11977994424E+04  0.15576961458E+04  0.25500000920E-02 0.  1.
</event>
<event>
 5   0  0.3665303E-07  0.3906554E+04  0.7818609E-02  0.8023667E-01
        2   -1    0    0  501    0  0.00000000000E+00  0.00000000000E+00  0.14037208319E+04  0.14037208319E+04  0.25500000920E-02 0. -1.
       -2   -1    0    0    0  501  0.00000000000E+00  0.00000000000E+00 -0.27179844648E+04  0.27179844648E+04  0.25500000920E-02 0.  1.
    10030    2    1    2    0    0  0.00000000000E+00  0.00000000000E+00 -0.13142636329E+04  0.41217052967E+04  0.39065541921E+04 0.  0.
        2    1    3    3  502    0  0.14516357681E+03  0.13029466630E+04 -0.21848230474E+04  0.25479784573E+04  0.25500000920E-02 0.  1.
       -2    1    3    3    0  502 -0.14516357681E+03 -0.13029466630E+04  0.87055941452E+03  0.15737268393E+04  0.25500000920E-02 0. -1.
</event>
<event>
 5   0  0.3680814E-07  0.3872979E+04  0.7818609E-02  0.8030673E-01
       -2   -1    0    0    0  501  0.00000000000E+00  0.00000000000E+00  0.14518317128E+04  0.14518317128E+04  0.25500000920E-02 0. -1.
        2   -1    0    0  501    0  0.00000000000E+00  0.00000000000E+00 -0.25829376099E+04  0.25829376099E+04  0.25500000920E-02 0.  1.
    10030    2    1    2    0    0  0.00000000000E+00  0.00000000000E+00 -0.11311058970E+04  0.40347693227E+04  0.38729785614E+04 0.  0.
        1    1    3    3  502    0  0.99428798314E+03 -0.73155814204E+02  0.11639273394E+04  0.15325427296E+04  0.50400001928E-02 0. -1.
       -1    1    3    3    0  502 -0.99428798314E+03  0.73155814204E+02 -0.22950332365E+04  0.25022265931E+04  0.50400001928E-02 0.  1.
</event>
<event>
 5   0  0.1187925E-07  0.3887705E+04  0.7818609E-02  0.8027591E-01
       -1   -1    0    0    0  501  0.00000000000E+00  0.00000000000E+00  0.11709649481E+04  0.11709649481E+04  0.50400001928E-02 0.  1.
        1   -1    0    0  501    0  0.00000000000E+00  0.00000000000E+00 -0.32268784954E+04  0.32268784954E+04  0.50400001928E-02 0. -1.
    10030    2    1    2    0    0  0.00000000000E+00  0.00000000000E+00 -0.20559135474E+04  0.43978434435E+04  0.38877045206E+04 0.  0.
        2    1    3    3  502    0 -0.85539509240E+03  0.96436298685E+03  0.61790395919E+03  0.14295111183E+04  0.25500000920E-02 0.  1.
       -2    1    3    3    0  502  0.85539509240E+03 -0.96436298685E+03 -0.26738175066E+04  0.29683323252E+04  0.25500000920E-02 0. -1.
</event>
<event>
 5   0  0.3610483E-07  0.3947032E+04  0.7818609E-02  0.8015318E-01
        2   -1    0    0  501    0  0.00000000000E+00  0.00000000000E+00  0.17856801189E+04  0.17856801189E+04  0.25500000920E-02 0.  1.
       -2   -1    0    0    0  501  0.00000000000E+00  0.00000000000E+00 -0.21811109034E+04  0.21811109034E+04  0.25500000920E-02 0. -1.
    10030    2    1    2    0    0  0.00000000000E+00  0.00000000000E+00 -0.39543078449E+03  0.39667910223E+04  0.39470324940E+04 0.  0.
        4    1    3    3  502    0  0.74751027298E+03  0.14915220508E+04  0.86177018447E+03  0.18777803652E+04  0.12699999809E+01 0.  1.
       -4    1    3    3    0  502 -0.74751027298E+03 -0.14915220508E+04 -0.12572009690E+04  0.20890106571E+04  0.12699999809E+01 0. -1.
</event>
<event>
 5   0  0.3832389E-07  0.3868907E+04  0.7818609E-02  0.8031527E-01
       -2   -1    0    0    0  501  0.00000000000E+00  0.00000000000E+00  0.13017144618E+04  0.13017144618E+04  0.25500000920E-02 0. -1.
        2   -1    0    0  501    0  0.00000000000E+00  0.00000000000E+00 -0.28747548264E+04  0.28747548264E+04  0.25500000920E-02 0.  1.
    10030    2    1    2    0    0  0.00000000000E+00  0.00000000000E+00 -0.15730403646E+04  0.41764692883E+04  0.38689067871E+04 0.  0.
        5    1    3    3  502    0  0.14962300778E+04  0.79956693813E+03  0.21693279067E+03  0.17102905192E+04  0.46999998093E+01 0. -1.
       -5    1    3    3    0  502 -0.14962300778E+04 -0.79956693813E+03 -0.17899731553E+04  0.24661787691E+04  0.46999998093E+01 0.  1.
</event>
<event>
 5   0  0.1187925E-07  0.3951403E+04  0.7818609E-02  0.8014422E-01
        1   -1    0    0  501    0  0.00000000000E+00  0.00000000000E+00  0.26175091834E+04  0.26175091834E+04  0.50400001928E-02 0. -1.
       -1   -1    0    0    0  501  0.00000000000E+00  0.00000000000E+00 -0.14912638756E+04  0.14912638756E+04  0.50400001928E-02 0.  1.
    10030    2    1    2    0    0  0.00000000000E+00  0.00000000000E+00  0.11262453078E+04  0.41087730591E+04  0.39514032390E+04 0.  0.
        5    1    3    3  502    0  0.34636986380E+03 -0.18028714267E+04  0.13223079097E+04  0.22624848644E+04  0.46999998093E+01 0. -1.
       -5    1    3    3    0  502 -0.34636986380E+03  0.18028714267E+04 -0.19606260191E+03  0.18462881946E+04  0.46999998093E+01 0.  1.
</event>
<event>
 5   0  0.3832389E-07  0.3849573E+04  0.7818609E-02  0.8035600E-01
       -2   -1    0    0    0  501  0.00000000000E+00  0.00000000000E+00  0.15063194373E+04  0.15063194373E+04  0.25500000920E-02 0.  1.
        2   -1    0    0  501    0  0.00000000000E+00  0.00000000000E+00 -0.24595065713E+04  0.24595065713E+04  0.25500000920E-02 0. -1.
    10030    2    1    2    0    0  0.00000000000E+00  0.00000000000E+00 -0.95318713398E+03  0.39658260086E+04  0.38495727319E+04 0.  0.
        5    1    3    3  502    0 -0.26642278228E+03  0.10258552423E+04  0.11786064994E+04  0.15850853124E+04  0.46999998093E+01 0.  1.
       -5    1    3    3    0  502  0.26642278228E+03 -0.10258552423E+04 -0.21317936334E+04  0.23807406962E+04  0.46999998093E+01 0. -1.
</event>
<event>
 5   0  0.1187925E-07  0.3224671E+04  0.7818609E-02  0.8182332E-01
        1   -1    0    0  501    0  0.00000000000E+00  0.00000000000E+00  0.26229488805E+04  0.26229488805E+04  0.50400001928E-02 0.  1.
       -1   -1    0    0    0  501  0.00000000000E+00  0.00000000000E+00 -0.99110800914E+03  0.99110800915E+03  0.50400001928E-02 0. -1.
    10030    2    1    2    0    0  0.00000000000E+00  0.00000000000E+00  0.16318408714E+04  0.36140568897E+04  0.32246709246E+04 0.  0.
        5    1    3    3  502    0 -0.21678099377E+03  0.42885360534E+03  0.25408210447E+04  0.25858660223E+04  0.46999998093E+01 0.  1.
       -5    1    3    3    0  502  0.21678099377E+03 -0.42885360534E+03 -0.90898017337E+03  0.10281908673E+04  0.46999998093E+01 0. -1.
</event>
<event>
 5   0  0.3810833E-07  0.3942295E+04  0.7818609E-02  0.8016290E-01
        2   -1    0    0  501    0  0.00000000000E+00  0.00000000000E+00  0.17801859540E+04  0.17801859540E+04  0.25500000920E-02 0. -1.
       -2   -1    0    0    0  501  0.00000000000E+00  0.00000000000E+00 -0.21825933973E+04  0.21825933973E+04  0.25500000920E-02 0.  1.
    10030    2    1    2    0    0  0.00000000000E+00  0.00000000000E+00 -0.40240744327E+03  0.39627793513E+04  0.39422948186E+04 0.  0.
        3    1    3    3  502    0  0.66556250979E+03  0.13083423372E+04  0.11211885592E+04  0.18471050109E+04  0.10100000352E+00 0. -1.
       -3    1    3    3    0  502 -0.66556250979E+03 -0.13083423372E+04 -0.15235960024E+04  0.21156743404E+04  0.10100000352E+00 0.  1.
</event>
<event>
 5   0  0.3665303E-07  0.3844622E+04  0.7818609E-02  0.8036646E-01
       -2   -1    0    0    0  501  0.00000000000E+00  0.00000000000E+00  0.21661868250E+04  0.21661868251E+04  0.25500000920E-02 0.  1.
        2   -1    0    0  501    0  0.00000000000E+00  0.00000000000E+00 -0.17058915760E+04  0.17058915760E+04  0.25500000920E-02 0. -1.
    10030    2    1    2    0    0  0.00000000000E+00  0.00000000000E+00  0.46029524905E+03  0.38720784010E+04  0.38446221437E+04 0.  0.
        2    1    3    3  502    0 -0.12844219699E+04  0.12610309388E+04 -0.44946098613E+03  0.18552503883E+04  0.25500000920E-02 0. -1.
       -2    1    3    3    0  502  0.12844219699E+04 -0.12610309388E+04  0.90975623519E+03  0.20168280127E+04  0.25500000920E-02 0.  1.
</event>
<event>
 5   0  0.1187925E-07  0.3926427E+04  0.7818609E-02  0.8019555E-01
        1   -1    0    0  501    0  0.00000000000E+00  0.00000000000E+00  0.25133741235E+04  0.25133741235E+04  0.50400001928E-02 0.  1.
       -1   -1    0    0    0  501  0.00000000000E+00  0.00000000000E+00 -0.15334789741E+04  0.15334789741E+04  0.50400001928E-02 0. -1.
    10030    2    1    2    0    0  0.00000000000E+00  0.00000000000E+00  0.97989514941E+03  0.40468530975E+04  0.39264265547E+04 0.  0.
        1    1    3    3  502    0  0.92843439912E+03  0.75203147973E+03 -0.11156061339E+04  0.16346616855E+04  0.50400001928E-02 0. -1.
       -1    1    3    3    0  502 -0.92843439912E+03 -0.75203147973E+03  0.20955012833E+04  0.24121914120E+04  0.50400001928E-02 0.  1.
</event>
<event>
 5   0  0.1187925E-07  0.3873670E+04  0.7818609E-02  0.8030528E-01
       -1   -1    0    0    0  501  0.00000000000E+00  0.00000000000E+00  0.15042013349E+04  0.15042013350E+04  0.50400001928E-02 0. -1.
        1   -1    0    0  501    0  0.00000000000E+00  0.00000000000E+00 -0.24939016991E+04  0.24939016991E+04  0.50400001928E-02 0.  1.
    10030    2    1    2    0    0  0.00000000000E+00  0.00000000000E+00 -0.98970036413E+03  0.39981030340E+04  0.38736702312E+04 0.  0.
        3    1    3    3  502    0  0.71894689078E+03 -0.11878304227E+03  0.13573245013E+04  0.15405595915E+04  0.10100000352E+00 0. -1.
       -3    1    3    3    0  502 -0.71894689078E+03  0.11878304227E+03 -0.23470248654E+04  0.24575434426E+04  0.10100000352E+00 0.  1.
</event>
<event>
 5   0  0.3610483E-07  0.3778376E+04  0.7818609E-02  0.8050811E-01
       -2   -1    0    0    0  501  0.00000000000E+00  0.00000000000E+00  0.23574711503E+04  0.23574711503E+04  0.25500000920E-02 0.  1.
        2   -1    0    0  501    0  0.00000000000E+00  0.00000000000E+00 -0.15139233731E+04  0.15139233731E+04  0.25500000920E-02 0. -1.
    10030    2    1    2    0    0  0.00000000000E+00  0.00000000000E+00  0.84354777720E+03  0.38713945234E+04  0.37783756700E+04 0.  0.
        4    1    3    3  502    0  0.17049287072E+04 -0.76283458535E+03  0.13136981962E+03  0.18724203972E+04  0.12699999809E+01 0.  1.
       -4    1    3    3    0  502 -0.17049287072E+04  0.76283458535E+03  0.71217795758E+03  0.19989741263E+04  0.12699999809E+01 0. -1.
</event>
<event>
 5   0  0.3610483E-07  0.3858684E+04  0.7818609E-02  0.8033677E-01
        2   -1    0    0  501    0  0.00000000000E+00  0.00000000000E+00  0.17611323297E+04  0.17611323297E+04  0.25500000920E-02 0. -1.
       -2   -1    0    0    0  501  0.00000000000E+00  0.00000000000E+00 -0.21136178596E+04  0.21136178596E+04  0.25500000920E-02 0.  1.
    10030    2    1    2    0    0  0.00000000000E+00  0.00000000000E+00 -0.35248552988E+03  0.38747501893E+04  0.38586840996E+04 0.  0.
        4    1    3    3  502    0  0.13436911767E+03 -0.99961541674E+03  0.14753158237E+04  0.17871330207E+04  0.12699999809E+01 0. -1.
       -4    1    3    3    0  502 -0.13436911767E+03  0.99961541674E+03 -0.18278013536E+04  0.20876171685E+04  0.12699999809E+01 0.  1.
</event>
<event>
 5   0  0.3680814E-07  0.3906267E+04  0.7818609E-02  0.8023727E-01
        2   -1    0    0  501    0  0.00000000000E+00  0.00000000000E+00  0.17627062989E+04  0.17627062989E+04  0.25500000920E-02 0. -1.
       -2   -1    0    0    0  501  0.00000000000E+00  0.00000000000E+00 -0.21641326201E+04  0.21641326201E+04  0.25500000920E-02 0.  1.
    10030    2    1    2    0    0  0.00000000000E+00  0.00000000000E+00 -0.40142632124E+03  0.39268389190E+04  0.39062668629E+04 0.  0.
        1    1    3    3  502    0  0.17292386325E+04  0.10948609723E+02 -0.11134286884E+04  0.20567230159E+04  0.50400001928E-02 0.  1.
       -1    1    3    3    0  502 -0.17292386325E+04 -0.10948609723E+02  0.71200236713E+03  0.18701159031E+04  0.50400001928E-02 0. -1.
</event>
<event>
 5   0  0.3832389E-07  0.3905708E+04  0.7818609E-02  0.8023843E-01
        2   -1    0    0  501    0  0.00000000000E+00  0.00000000000E+00  0.35014253344E+04  0.35014253344E+04  0.25500000920E-02 0.  1.
       -2   -1    0    0    0  501  0.00000000000E+00  0.00000000000E+00 -0.10891673977E+04  0.10891673977E+04  0.25500000920E-02 0. -1.
    10030    2    1    2    0    0  0.00000000000E+00  0.00000000000E+00  0.24122579367E+04  0.45905927321E+04  0.39057077820E+04 0.  0.
        5    1    3    3  502    0  0.61907179477E+03 -0.17499398034E+04  0.19192091624E+04  0.26700047007E+04  0.46999998093E+01 0. -1.
       -5    1    3    3    0  502 -0.61907179477E+03  0.17499398034E+04  0.49304877429E+03  0.19205880314E+04  0.46999998093E+01 0.  1.
</event>
<event>
 5   0  0.1187925E-07  0.3847663E+04  0.7818609E-02  0.8036003E-01
        1   -1    0    0  501    0  0.00000000000E+00  0.00000000000E+00  0.22332449528E+04  0.22332449528E+04  0.50400001928E-02 0. -1.
       -1   -1    0    0    0  501  0.00000000000E+00  0.00000000000E+00 -0.16572865216E+04  0.16572865216E+04  0.50400001928E-02 0.  1.
    10030    2    1    2    0    0  0.00000000000E+00  0.00000000000E+00  0.57595843124E+03  0.38905314744E+04  0.38476625422E+04 0.  0.
        3    1    3    3  502    0  0.40824955306E+03 -0.58869917640E+03  0.20933390674E+04  0.22125331362E+04  0.10100000352E+00 0. -1.
       -3    1    3    3    0  502 -0.40824955306E+03  0.58869917640E+03 -0.15173806361E+04  0.16779983382E+04  0.10100000352E+00 0.  1.
</event>
<event>
 5   0  0.1187925E-07  0.3133710E+04  0.7818609E-02  0.8206547E-01
        1   -1    0    0  501    0  0.00000000000E+00  0.00000000000E+00  0.21105628789E+04  0.21105628789E+04  0.50400001928E-02 0.  1.
       -1   -1    0    0    0  501  0.00000000000E+00  0.00000000000E+00 -0.11632130932E+04  0.11632130932E+04  0.50400001928E-02 0. -1.
    10030    2    1    2    0    0  0.00000000000E+00  0.00000000000E+00  0.94734978569E+03  0.32737759721E+04  0.31337098620E+04 0.  0.
        1    1    3    3  502    0 -0.13354093218E+04 -0.81742013170E+03  0.53583781825E+03  0.16548763990E+04  0.50400001928E-02 0.  1.
       -1    1    3    3    0  502  0.13354093218E+04  0.81742013170E+03  0.41151196744E+03  0.16188995731E+04  0.50400001928E-02 0. -1.
</event>
<event>
 5   0  0.3665303E-07  0.3935322E+04  0.7818609E-02  0.8017723E-01
        2   -1    0    0  501    0  0.00000000000E+00  0.00000000000E+00  0.16720001721E+04  0.16720001721E+04  0.25500000920E-02 0.  1.
       -2   -1    0    0    0  501  0.00000000000E+00  0.00000000000E+00 -0.23156040845E+04  0.23156040845E+04  0.25500000920E-02 0. -1.
    10030    2    1    2    0    0  0.00000000000E+00  0.00000000000E+00 -0.64360391245E+03  0.39876042566E+04  0.39353223135E+04 0.  0.
        2    1    3    3  502    0 -0.25313824888E+03  0.15298687590E+04 -0.15491381192E+04  0.21918955963E+04  0.25500000920E-02 0. -1.
       -2    1    3    3    0  502  0.25313824888E+03 -0.15298687590E+04  0.90553420671E+03  0.17957086602E+04  0.25500000920E-02 0.  1.
</event>
<event>
 5   0  0.1187925E-07  0.3549744E+04  0.7818609E-02  0.8102101E-01
       -1   -1    0    0    0  501  0.00000000000E+00  0.00000000000E+00  0.18469746682E+04  0.18469746682E+04  0.50400001928E-02 0. -1.
        1   -1    0    0  501    0  0.00000000000E+00  0.00000000000E+00 -0.17055841376E+04  0.17055841376E+04  0.50400001928E-02 0.  1.
    10030    2    1    2    0    0  0.00000000000E+00  0.00000000000E+00  0.14139053061E+03  0.35525588057E+04  0.35497440452E+04 0.  0.
        5    1    3    3  502    0 -0.48005527498E+03  0.16884237958E+03  0.17723928672E+04  0.18440063400E+04  0.46999998093E+01 0. -1.
       -5    1    3    3    0  502  0.48005527498E+03 -0.16884237958E+03 -0.16310023366E+04  0.17085524657E+04  0.46999998093E+01 0.  1.
</event>
<event>
 5   0  0.1187925E-07  0.3616691E+04  0.7818609E-02  0.8086679E-01
        1   -1    0    0  501    0  0.00000000000E+00  0.00000000000E+00  0.30062980280E+04  0.30062980280E+04  0.50400001928E-02 0.  1.
       -1   -1    0    0    0  501  0.00000000000E+00  0.00000000000E+00 -0.10877544101E+04  0.10877544101E+04  0.50400001928E-02 0. -1.
    10030    2    1    2    0    0  0.00000000000E+00  0.00000000000E+00  0.19185436180E+04  0.40940524381E+04  0.36166912713E+04 0.  0.
        3    1    3    3  502    0  0.14632071383E+04 -0.48332329084E+03 -0.11196090155E+03  0.15450280861E+04  0.10100000352E+00 0.  1.
       -3    1    3    3    0  502 -0.14632071383E+04  0.48332329084E+03  0.20305045195E+04  0.25490243520E+04  0.10100000352E+00 0. -1.
</event>
<event>
 5   0  0.1187925E-07  0.3818615E+04  0.7818609E-02  0.8042172E-01
        1   -1    0    0  501    0  0.00000000000E+00  0.00000000000E+00  0.18547661259E+04  0.18547661259E+04  0.50400001928E-02 0. -1.
       -1   -1    0    0    0  501  0.00000000000E+00  0.00000000000E+00 -0.19654530895E+04  0.19654530895E+04  0.50400001928E-02 0.  1.
    10030    2    1    2    0    0  0.00000000000E+00  0.00000000000E+00 -0.11068696359E+03  0.38202192154E+04  0.38186153577E+04 0.  0.
        2    1    3    3  502    0 -0.18425743592E+04 -0.52307630688E+02 -0.55318634970E+03  0.19245340981E+04  0.25500000920E-02 0.  1.
       -2    1    3    3    0  502  0.18425743592E+04  0.52307630688E+02  0.44249938611E+03  0.18956851173E+04  0.25500000920E-02 0. -1.
</event>
<event>
 5   0  0.3665303E-07  0.3881878E+04  0.7818609E-02  0.8028809E-01
        2   -1    0    0  501    0  0.00000000000E+00  0.00000000000E+00  0.29546775523E+04  0.29546775523E+04  0.25500000920E-02 0. -1.
       -2   -1    0    0    0  501  0.00000000000E+00  0.00000000000E+00 -0.12750103200E+04  0.12750103200E+04  0.25500000920E-02 0.  1.
    10030    2    1    2    0    0  0.00000000000E+00  0.00000000000E+00  0.16796672323E+04  0.42296878723E+04  0.38818780875E+04 0.  0.
        2    1    3    3  502    0  0.46040696546E+02  0.45089991740E+03 -0.12165400782E+04  0.12982296573E+04  0.25500000920E-02 0.  1.
       -2    1    3    3    0  502 -0.46040696546E+02 -0.45089991740E+03  0.28962073105E+04  0.29314582151E+04  0.25500000920E-02 0. -1.
</event>
<event>
 5   0  0.3810833E-07  0.3834069E+04  0.7818609E-02  0.8038883E-01
        2   -1    0    0  501    0  0.00000000000E+00  0.00000000000E+00  0.18607124748E+04  0.18607124748E+04  0.25500000920E-02 0. -1.
       -2   -1    0    0    0  501  0.00000000000E+00  0.00000000000E+00 -0.19750608931E+04  0.19750608931E+04  0.25500000920E-02 0.  1.
    10030    2    1    2    0    0  0.00000000000E+00  0.00000000000E+00 -0.11434841836E+03  0.38357733679E+04  0.38340685660E+04 0.  0.
        3    1    3    3  502    0  0.67652137982E+03 -0.64079025864E+03  0.16188996710E+04  0.18679211675E+04  0.10100000352E+00 0. -1.
       -3    1    3    3    0  502 -0.67652137982E+03  0.64079025864E+03 -0.17332480894E+04  0.19678522004E+04  0.10100000352E+00 0.  1.
</event>
<event>
 5   0  0.1187925E-07  0.3872603E+04  0.7818609E-02  0.8030751E-01
        1   -1    0    0  501    0  0.00000000000E+00  0.00000000000E+00  0.14277969613E+04  0.14277969613E+04  0.50400001928E-02 0.  1.
       -1   -1    0    0    0  501  0.00000000000E+00  0.00000000000E+00 -0.26259085799E+04  0.26259085800E+04  0.50400001928E-02 0. -1.
    10030    2    1    2    0    0  0.00000000000E+00  0.00000000000E+00 -0.11981116187E+04  0.40537055413E+04  0.38726034091E+04 0.  0.
        5    1    3    3  502    0  0.15730994943E+04 -0.10338334893E+04 -0.12420222076E+03  0.18865052304E+04  0.46999998093E+01 0.  1.
       -5    1    3    3    0  502 -0.15730994943E+04  0.10338334893E+04 -0.10739093979E+04  0.21672003109E+04  0.46999998093E+01 0. -1.
</event>
<event>
 5   0  0.1187925E-07  0.3917252E+04  0.7818609E-02  0.8021451E-01
        1   -1    0    0  501    0  0.00000000000E+00  0.00000000000E+00  0.12953534084E+04  0.12953534084E+04  0.50400001928E-02 0. -1.
       -1   -1    0    0    0  501  0.00000000000E+00  0.00000000000E+00 -0.29615209947E+04  0.29615209947E+04  0.50400001928E-02 0.  1.
    10030    2    1    2    0    0  0.00000000000E+00  0.00000000000E+00 -0.16661675863E+04  0.42568744030E+04  0.39172522586E+04 0.  0.
        1    1    3    3  502    0  0.11039115047E+04  0.83635998708E+03  0.67194447341E+03  0.15393596115E+04  0.50400001928E-02 0. -1.
       -1    1    3    3    0  502 -0.11039115047E+04 -0.83635998708E+03 -0.23381120597E+04  0.27175147915E+04  0.50400001928E-02 0.  1.
</event>
<event>
 5   0  0.1187925E-07  0.3714761E+04  0.7818609E-02  0.8064698E-01
        1   -1    0    0  501    0  0.00000000000E+00  0.00000000000E+00  0.12532671397E+04  0.12532671397E+04  0.50400001928E-02 0. -1.
       -1   -1    0    0    0  501  0.00000000000E+00  0.00000000000E+00 -0.27526952633E+04  0.27526952633E+04  0.50400001928E-02 0.  1.
    10030    2    1    2    0    0  0.00000000000E+00  0.00000000000E+00 -0.14994281236E+04  0.40059624031E+04  0.37147611063E+04 0.  0.
        5    1    3    3  502    0 -0.96314278143E+03  0.15319142170E+04 -0.12013977440E+04  0.21720459974E+04  0.46999998093E+01 0. -1.
       -5    1    3    3    0  502  0.96314278143E+03 -0.15319142170E+04 -0.29803037955E+03  0.18339164056E+04  0.46999998093E+01 0.  1.
</event>
<event>
 5   0  0.3832389E-07  0.3754262E+04  0.7818609E-02  0.8056042E-01
        2   -1    0    0  501    0  0.00000000000E+00  0.00000000000E+00  0.19692702765E+04  0.19692702765E+04  0.25500000920E-02 0.  1.
       -2   -1    0    0    0  501  0.00000000000E+00  0.00000000000E+00 -0.17893024047E+04  0.17893024047E+04  0.25500000920E-02 0. -1.
    10030    2    1    2    0    0  0.00000000000E+00  0.00000000000E+00  0.17996787176E+03  0.37585726812E+04  0.37542616005E+04 0.  0.
        5    1    3    3  502    0 -0.22101043296E+03  0.75693079056E+03  0.17954094936E+04  0.19609454794E+04  0.46999998093E+01 0.  1.
       -5    1    3    3    0  502  0.22101043296E+03 -0.75693079056E+03 -0.16154416219E+04  0.17976272019E+04  0.46999998093E+01 0. -1.
</event>
<event>
 5   0  0.3665303E-07  0.3707569E+04  0.7818609E-02  0.8066287E-01
        2   -1    0    0  501    0  0.00000000000E+00  0.00000000000E+00  0.18826308886E+04  0.18826308886E+04  0.25500000920E-02 0. -1.
       -2   -1    0    0    0  501  0.00000000000E+00  0.00000000000E+00 -0.18253796265E+04  0.18253796265E+04  0.25500000920E-02 0.  1.
    10030    2    1    2    0    0  0.00000000000E+00  0.00000000000E+00  0.57251262103E+02  0.37080105151E+04  0.37075685123E+04 0.  0.
        2    1    3    3  502    0  0.71023194056E+03  0.45452907445E+03 -0.16224769897E+04  0.18285124202E+04  0.25500000920E-02 0.  1.
       -2    1    3    3    0  502 -0.71023194056E+03 -0.45452907445E+03  0.16797282518E+04  0.18794980949E+04  0.25500000920E-02 0. -1.
</event>
<event>
 5   0  0.3665303E-07  0.3903398E+04  0.7818609E-02  0.8024323E-01
        2   -1    0    0  501    0  0.00000000000E+00  0.00000000000E+00  0.19631719327E+04  0.19631719327E+04  0.25500000920E-02 0. -1.
       -2   -1    0    0    0  501  0.00000000000E+00  0.00000000000E+00 -0.19402927669E+04  0.19402927669E+04  0.25500000920E-02 0.  1.
    10030    2    1    2    0    0  0.00000000000E+00  0.00000000000E+00  0.22879165882E+02  0.39034646996E+04  0.39033976488E+04 0.  0.
        2    1    3    3  502    0  0.51853809782E+03 -0.12329617266E+04  0.14327493039E+04  0.19600629954E+04  0.25500000920E-02 0. -1.
       -2    1    3    3    0  502 -0.51853809782E+03  0.12329617266E+04 -0.14098701380E+04  0.19434017042E+04  0.25500000920E-02 0.  1.
</event>
<event>
 5   0  0.3832389E-07  0.3415631E+04  0.7818609E-02  0.8134080E-01
        2   -1    0    0  501    0  0.00000000000E+00  0.00000000000E+00  0.24418470370E+04  0.24418470370E+04  0.25500000920E-02 0.  1.
       -2   -1    0    0    0  501  0.00000000000E+00  0.00000000000E+00 -0.11944378184E+04  0.11944378184E+04  0.25500000920E-02 0. -1.
    10030    2    1    2    0    0  0.00000000000E+00  0.00000000000E+00  0.12474092187E+04  0.36362848554E+04  0.34156313898E+04 0.  0.
        5    1    3    3  502    0  0.16325010781E+04 -0.12221696289E+03  0.10584911318E+03  0.16404947061E+04  0.46999998093E+01 0. -1.
       -5    1    3    3    0  502 -0.16325010781E+04  0.12221696289E+03  0.11415601055E+04  0.19957901494E+04  0.46999998093E+01 0.  1.
</event>
<event>
 5   0  0.3680814E-07  0.3940655E+04  0.7818609E-02  0.8016626E-01
        2   -1    0    0  501    0  0.00000000000E+00  0.00000000000E+00  0.25343630532E+04  0.25343630532E+04  0.25500000920E-02 0.  1.
       -2   -1    0    0    0  501  0.00000000000E+00  0.00000000000E+00 -0.15318211531E+04  0.15318211531E+04  0.25500000920E-02 0. -1.
    10030    2    1    2    0    0  0.00000000000E+00  0.00000000000E+00  0.10025419001E+04  0.40661842064E+04  0.39406552423E+04 0.  0.
        1    1    3    3  502    0  0.92564955202E+03 -0.12004423073E+04 -0.79751507817E+03  0.17128686833E+04  0.50400001928E-02 0. -1.
       -1    1    3    3    0  502 -0.92564955202E+03  0.12004423073E+04  0.18000569783E+04  0.23533155231E+04  0.50400001928E-02 0.  1.
</event>
<event>
 5   0  0.3665303E-07  0.3855702E+04  0.7818609E-02  0.8034306E-01
       -2   -1    0    0    0  501  0.00000000000E+00  0.00000000000E+00  0.14586591282E+04  0.14586591282E+04  0.25500000920E-02 0.  1.
        2   -1    0    0  501    0  0.00000000000E+00  0.00000000000E+00 -0.25479624339E+04  0.25479624339E+04  0.25500000920E-02 0. -1.
    10030    2    1    2    0    0  0.00000000000E+00  0.00000000000E+00 -0.10893033057E+04  0.40066215621E+04  0.38557015769E+04 0.  0.
        2    1    3    3  502    0 -0.16477322362E+04  0.70641715401E+03  0.19201279469E+03  0.18030295702E+04  0.25500000920E-02 0.  1.
       -2    1    3    3    0  502  0.16477322362E+04 -0.70641715401E+03 -0.12813161004E+04  0.22035919919E+04  0.25500000920E-02 0. -1.
</event>
<event>
 5   0  0.3680814E-07  0.3835627E+04  0.7818609E-02  0.8038552E-01
        2   -1    0    0  501    0  0.00000000000E+00  0.00000000000E+00  0.24441051420E+04  0.24441051420E+04  0.25500000920E-02 0. -1.
       -2   -1    0    0    0  501  0.00000000000E+00  0.00000000000E+00 -0.15048483902E+04  0.15048483902E+04  0.25500000920E-02 0.  1.
    10030    2    1    2    0    0  0.00000000000E+00  0.00000000000E+00  0.93925675175E+03  0.39489535322E+04  0.38356265139E+04 0.  0.
        1    1    3    3  502    0 -0.18692751942E+04  0.37853495633E+03  0.67689522954E+03  0.20237750904E+04  0.50400001928E-02 0. -1.
       -1    1    3    3    0  502  0.18692751942E+04 -0.37853495633E+03  0.26236152221E+03  0.19251784419E+04  0.50400001928E-02 0.  1.
</event>
<event>
 5   0  0.1187925E-07  0.3851410E+04  0.7818609E-02  0.8035212E-01
       -1   -1    0    0    0  501  0.00000000000E+00  0.00000000000E+00  0.18978165377E+04  0.18978165377E+04  0.50400001928E-02 0.  1.
        1   -1    0    0  501    0  0.00000000000E+00  0.00000000000E+00 -0.19540034490E+04  0.19540034490E+04  0.50400001928E-02 0. -1.
    10030    2    1    2    0    0  0.00000000000E+00  0.00000000000E+00 -0.56186911305E+02  0.38518199867E+04  0.38514101626E+04 0.  0.
        4    1    3    3  502    0 -0.98781599354E+03 -0.95199732221E+03 -0.13796288009E+04  0.19456249844E+04  0.12699999809E+01 0. -1.
       -4    1    3    3    0  502  0.98781599354E+03  0.95199732221E+03  0.13234418896E+04  0.19061950023E+04  0.12699999809E+01 0.  1.
</event>
<event>
 5   0  0.1187925E-07  0.3901939E+04  0.7818609E-02  0.8024626E-01
       -1   -1    0    0    0  501  0.00000000000E+00  0.00000000000E+00  0.14289570908E+04  0.14289570908E+04  0.50400001928E-02 0. -1.
        1   -1    0    0  501    0  0.00000000000E+00  0.00000000000E+00 -0.26636788423E+04  0.26636788423E+04  0.50400001928E-02 0.  1.
    10030    2    1    2    0    0  0.00000000000E+00  0.00000000000E+00 -0.12347217515E+04  0.40926359331E+04  0.39019393995E+04 0.  0.
        4    1    3    3  502    0 -0.52817051040E+03  0.17378107955E+03 -0.25788128852E+04  0.26380753327E+04  0.12699999809E+01 0.  1.
       -4    1    3    3    0  502  0.52817051040E+03 -0.17378107955E+03  0.13440911337E+04  0.14545606004E+04  0.12699999809E+01 0. -1.
</event>
<event>
 5   0  0.1187925E-07  0.3862504E+04  0.7818609E-02  0.8032873E-01
       -1   -1    0    0    0  501  0.00000000000E+00  0.00000000000E+00  0.22110512429E+04  0.22110512429E+04  0.50400001928E-02 0. -1.
        1   -1    0    0  501    0  0.00000000000E+00  0.00000000000E+00 -0.16868602818E+04  0.16868602818E+04  0.50400001928E-02 0.  1.
    10030    2    1    2    0    0  0.00000000000E+00  0.00000000000E+00  0.52419096108E+03  0.38979115247E+04  0.38625041217E+04 0.  0.
        4    1    3    3  502    0 -0.38738514663E+03  0.30020841535E+03 -0.16230598784E+04  0.16954401571E+04  0.12699999809E+01 0.  1.
       -4    1    3    3    0  502  0.38738514663E+03 -0.30020841535E+03  0.21472508395E+04  0.22024713676E+04  0.12699999809E+01 0. -1.
</event>
<event>
 5   0  0.3610483E-07  0.3906738E+04  0.7818609E-02  0.8023629E-01
       -2   -1    0    0    0  501  0.00000000000E+00  0.00000000000E+00  0.27526600745E+04  0.27526600745E+04  0.25500000920E-02 0.  1.
        2   -1    0    0  501    0  0.00000000000E+00  0.00000000000E+00 -0.13861686389E+04  0.13861686389E+04  0.25500000920E-02 0. -1.
    10030    2    1    2    0    0  0.00000000000E+00  0.00000000000E+00  0.13664914356E+04  0.41388287134E+04  0.39067383167E+04 0.  0.
        4    1    3    3  502    0  0.14766584675E+03 -0.13586825282E+04 -0.79531177077E+03  0.15812481906E+04  0.12699999809E+01 0. -1.
       -4    1    3    3    0  502 -0.14766584675E+03  0.13586825282E+04  0.21618032063E+04  0.25575805228E+04  0.12699999809E+01 0.  1.
</event>
<event>
 5   0  0.1187925E-07  0.3939488E+04  0.7818609E-02  0.8016866E-01
       -1   -1    0    0    0  501  0.00000000000E+00  0.00000000000E+00  0.14855123515E+04  0.14855123515E+04  0.50400001928E-02 0.  1.
        1   -1    0    0  501    0  0.00000000000E+00  0.00000000000E+00 -0.26118199054E+04  0.26118199054E+04  0.50400001928E-02 0. -1.
    10030    2    1    2    0    0  0.00000000000E+00  0.00000000000E+00 -0.11263075539E+04  0.40973322569E+04  0.39394876466E+04 0.  0.
        5    1    3    3  502    0  0.54908964726E+02  0.35501607620E+03 -0.25774548821E+04  0.26023733722E+04  0.46999998093E+01 0. -1.
       -5    1    3    3    0  502 -0.54908964726E+02 -0.35501607620E+03  0.14511473283E+04  0.14949588847E+04  0.46999998093E+01 0.  1.
</event>
<event>
 5   0  0.1187925E-07  0.3936006E+04  0.7818609E-02  0.8017582E-01
        1   -1    0    0  501    0  0.00000000000E+00  0.00000000000E+00  0.28238292065E+04  0.28238292065E+04  0.50400001928E-02 0.  1.
       -1   -1    0    0    0  501  0.00000000000E+00  0.00000000000E+00 -0.13715543050E+04  0.13715543050E+04  0.50400001928E-02 0. -1.
    10030    2    1    2    0    0  0.00000000000E+00  0.00000000000E+00  0.14522749015E+04  0.41953835116E+04  0.39360056427E+04 0.  0.
        2    1    3    3  502    0  0.92650941614E+03 -0.32615513468E+03 -0.10915991191E+04  0.14684636553E+04  0.25500000920E-02 0. -1.
       -2    1    3    3    0  502 -0.92650941614E+03  0.32615513468E+03  0.25438740206E+04  0.27269198563E+04  0.25500000920E-02 0.  1.
</event>
<event>
 5   0  0.1187925E-07  0.3941210E+04  0.7818609E-02  0.8016513E-01
        1   -1    0    0  501    0  0.00000000000E+00  0.00000000000E+00  0.23048392436E+04  0.23048392436E+04  0.50400001928E-02 0.  1.
       -1   -1    0    0    0  501  0.00000000000E+00  0.00000000000E+00 -0.16848391922E+04  0.16848391922E+04  0.50400001928E-02 0. -1.
    10030    2    1    2    0    0  0.00000000000E+00  0.00000000000E+00  0.62000005137E+03  0.39896784358E+04  0.39412097073E+04 0.  0.
        4    1    3    3  502    0 -0.35825421729E+03 -0.18191958539E+04  0.98563760399E+03  0.20998339787E+04  0.12699999809E+01 0.  1.
       -4    1    3    3    0  502  0.35825421729E+03  0.18191958539E+04 -0.36563755262E+03  0.18898444570E+04  0.12699999809E+01 0. -1.
</event>
<event>
 5   0  0.1187925E-07  0.3091550E+04  0.7818609E-02  0.8218061E-01
        1   -1    0    0  501    0  0.00000000000E+00  0.00000000000E+00  0.13753050587E+04  0.13753050587E+04  0.50400001928E-02 0. -1.
       -1   -1    0    0    0  501  0.00000000000E+00  0.00000000000E+00 -0.17373743269E+04  0.17373743269E+04  0.50400001928E-02 0.  1.
    10030    2    1    2    0    0  0.00000000000E+00  0.00000000000E+00 -0.36206926816E+03  0.31126793856E+04  0.30915495795E+04 0.  0.
        4    1    3    3  502    0 -0.19603233966E+03  0.98206369364E+03 -0.13665970525E+04  0.16942452282E+04  0.12699999809E+01 0.  1.
       -4    1    3    3    0  502  0.19603233966E+03 -0.98206369364E+03  0.10045277843E+04  0.14184341574E+04  0.12699999809E+01 0. -1.
</event>
<event>
 5   0  0.3810833E-07  0.3210126E+04  0.7818609E-02  0.8186148E-01
       -2   -1    0    0    0  501  0.00000000000E+00  0.00000000000E+00  0.14062689804E+04  0.14062689804E+04  0.25500000920E-02 0. -1.
        2   -1    0    0  501    0  0.00000000000E+00  0.00000000000E+00 -0.18319587192E+04  0.18319587192E+04  0.25500000920E-02 0.  1.
    10030    2    1    2    0    0  0.00000000000E+00  0.00000000000E+00 -0.42568973882E+03  0.32382276996E+04  0.32101256799E+04 0.  0.
        3    1    3    3  502    0  0.11747495621E+04  0.36140642398E+03  0.82845898444E+03  0.14822265130E+04  0.10100000352E+00 0. -1.
       -3    1    3    3    0  502 -0.11747495621E+04 -0.36140642398E+03 -0.12541487233E+04  0.17560011865E+04  0.10100000352E+00 0.  1.
</event>
<event>
 5   0  0.1187925E-07  0.3907066E+04  0.7818609E-02  0.8023561E-01
       -1   -1    0    0    0  501  0.00000000000E+00  0.00000000000E+00  0.16157286968E+04  0.16157286968E+04  0.50400001928E-02 0. -1.
        1   -1    0    0  501    0  0.00000000000E+00  0.00000000000E+00 -0.23619631635E+04  0.23619631635E+04  0.50400001928E-02 0.  1.
    10030    2    1    2    0    0  0.00000000000E+00  0.00000000000E+00 -0.74623446672E+03  0.39776918603E+04  0.39070662467E+04 0.  0.
        2    1    3    3  502    0 -0.14649757161E+04 -0.93802514892E+03 -0.12781445531E+04  0.21586334861E+04  0.25500000920E-02 0. -1.
       -2    1    3    3    0  502  0.14649757161E+04  0.93802514892E+03  0.53191008635E+03  0.18190583742E+04  0.25500000920E-02 0.  1.
</event>
<event>
 5   0  0.3810833E-07  0.3848577E+04  0.7818609E-02  0.8035810E-01
        2   -1    0    0  501    0  0.00000000000E+00  0.00000000000E+00  0.20264415361E+04  0.20264415361E+04  0.25500000920E-02 0.  1.
       -2   -1    0    0    0  501  0.00000000000E+00  0.00000000000E+00 -0.18272846504E+04  0.18272846504E+04  0.25500000920E-02 0. -1.
    10030    2    1    2    0    0  0.00000000000E+00  0.00000000000E+00  0.19915688567E+03  0.38537261865E+04  0.38485766271E+04 0.  0.
        3    1    3    3  502    0 -0.18423783829E+04  0.54045643107E+03 -0.28789203718E+02  0.19202291760E+04  0.10100000352E+00 0.  1.
       -3    1    3    3    0  502  0.18423783829E+04 -0.54045643107E+03  0.22794608938E+03  0.19334970105E+04  0.10100000352E+00 0. -1.
</event>
<event>
 5   0  0.1187925E-07  0.3854494E+04  0.7818609E-02  0.8034561E-01
        3   -1    0    0  501    0  0.00000000000E+00  0.00000000000E+00  0.16573537319E+04  0.16573537350E+04  0.10100000352E+00 0.  1.
       -3   -1    0    0    0  501  0.00000000000E+00  0.00000000000E+00 -0.22410908028E+04  0.22410908051E+04  0.10100000352E+00 0. -1.
    10030    2    1    2    0    0  0.00000000000E+00  0.00000000000E+00 -0.58373707091E+03  0.38984445401E+04  0.38544935938E+04 0.  0.
        2    1    3    3  502    0 -0.10756518753E+03  0.15991977977E+03 -0.22313197307E+04  0.22396277249E+04  0.25500000920E-02 0. -1.
       -2    1    3    3    0  502  0.10756518753E+03 -0.15991977977E+03  0.16475826598E+04  0.16588168152E+04  0.25500000920E-02 0.  1.
</event>
<event>
 5   0  0.3810833E-07  0.3890495E+04  0.7818609E-02  0.8027009E-01
       -2   -1    0    0    0  501  0.00000000000E+00  0.00000000000E+00  0.18146451937E+04  0.18146451937E+04  0.25500000920E-02 0. -1.
        2   -1    0    0  501    0  0.00000000000E+00  0.00000000000E+00 -0.20852489814E+04  0.20852489814E+04  0.25500000920E-02 0.  1.
    10030    2    1    2    0    0  0.00000000000E+00  0.00000000000E+00 -0.27060378763E+03  0.38998941751E+04  0.38904945916E+04 0.  0.
        3    1    3    3  502    0  0.11537235057E+04  0.80100549066E+03  0.12137949216E+04  0.18563366736E+04  0.10100000352E+00 0. -1.
       -3    1    3    3    0  502 -0.11537235057E+04 -0.80100549066E+03 -0.14843987093E+04  0.20435575015E+04  0.10100000352E+00 0.  1.
</event>
<event>
 5   0  0.1187925E-07  0.3928651E+04  0.7818609E-02  0.8019097E-01
        1   -1    0    0  501    0  0.00000000000E+00  0.00000000000E+00  0.29440602132E+04  0.29440602132E+04  0.50400001928E-02 0. -1.
       -1   -1    0    0    0  501  0.00000000000E+00  0.00000000000E+00 -0.13106306065E+04  0.13106306065E+04  0.50400001928E-02 0.  1.
    10030    2    1    2    0    0  0.00000000000E+00  0.00000000000E+00  0.16334296067E+04  0.42546908198E+04  0.39286513833E+04 0.  0.
        3    1    3    3  502    0 -0.17081042591E+03 -0.15711183218E+04  0.20801454615E+04  0.26123924158E+04  0.10100000352E+00 0. -1.
       -3    1    3    3    0  502  0.17081042591E+03  0.15711183218E+04 -0.44671585479E+03  0.16422984040E+04  0.10100000352E+00 0.  1.
</event>
<event>
 5   0  0.1187925E-07  0.4016964E+04  0.7818609E-02  0.8001133E-01
        1   -1    0    0  501    0  0.00000000000E+00  0.00000000000E+00  0.24892485031E+04  0.24892485031E+04  0.50400001928E-02 0.  1.
       -1   -1    0    0    0  501  0.00000000000E+00  0.00000000000E+00 -0.16205697027E+04  0.16205697027E+04  0.50400001928E-02 0. -1.
    10030    2    1    2    0    0  0.00000000000E+00  0.00000000000E+00  0.86867880045E+03  0.41098182058E+04  0.40169643795E+04 0.  0.
        5    1    3    3  502    0 -0.16862606895E+04 -0.61010425658E+03 -0.49115675166E+03  0.18592900154E+04  0.46999998093E+01 0. -1.
       -5    1    3    3    0  502  0.16862606895E+04  0.61010425658E+03  0.13598355521E+04  0.22505281904E+04  0.46999998093E+01 0.  1.
</event>
<event>
 5   0  0.3810833E-07  0.2820103E+04  0.7818609E-02  0.8297054E-01
       -2   -1    0    0    0  501  0.00000000000E+00  0.00000000000E+00  0.90532205105E+03  0.90532205105E+03  0.25500000920E-02 0.  1.
        2   -1    0    0  501    0  0.00000000000E+00  0.00000000000E+00 -0.21961745037E+04  0.21961745037E+04  0.25500000920E-02 0. -1.
    10030    2    1    2    0    0  0.00000000000E+00  0.00000000000E+00 -0.12908524526E+04  0.31014965547E+04  0.28201029812E+04 0.  0.
        3    1    3    3  502    0 -0.54881291212E+03 -0.53096218271E+03 -0.19490863886E+04  0.20933356665E+04  0.10100000352E+00 0. -1.
       -3    1    3    3    0  502  0.54881291212E+03  0.53096218271E+03  0.65823393598E+03  0.10081608883E+04  0.10100000352E+00 0.  1.
</event>
<event>
 5   0  0.1187925E-07  0.3784065E+04  0.7818609E-02  0.8049583E-01
       -1   -1    0    0    0  501  0.00000000000E+00  0.00000000000E+00  0.19181036686E+04  0.19181036686E+04  0.50400001928E-02 0. -1.
        1   -1    0    0  501    0  0.00000000000E+00  0.00000000000E+00 -0.18663154018E+04  0.18663154018E+04  0.50400001928E-02 0.  1.
    10030    2    1    2    0    0  0.00000000000E+00  0.00000000000E+00  0.51788266781E+02  0.37844190704E+04  0.37840647029E+04 0.  0.
        3    1    3    3  502    0 -0.44003539480E+03  0.16621285033E+04 -0.76378990417E+03  0.18814030238E+04  0.10100000352E+00 0.  1.
       -3    1    3    3    0  502  0.44003539480E+03 -0.16621285033E+04  0.81557817095E+03  0.19030160465E+04  0.10100000352E+00 0. -1.
</event>
<event>
 5   0  0.1187925E-07  0.3859619E+04  0.7818609E-02  0.8033481E-01
       -1   -1    0    0    0  501  0.00000000000E+00  0.00000000000E+00  0.22177093694E+04  0.22177093694E+04  0.50400001928E-02 0. -1.
        1   -1    0    0  501    0  0.00000000000E+00  0.00000000000E+00 -0.16792841410E+04  0.16792841410E+04  0.50400001928E-02 0.  1.
    10030    2    1    2    0    0  0.00000000000E+00  0.00000000000E+00  0.53842522841E+03  0.38969935104E+04  0.38596187238E+04 0.  0.
        2    1    3    3  502    0  0.17126871779E+04 -0.78109906071E+03 -0.16005260916E+03  0.18891876428E+04  0.25500000920E-02 0.  1.
       -2    1    3    3    0  502 -0.17126871779E+04  0.78109906071E+03  0.69847783757E+03  0.20078058675E+04  0.25500000920E-02 0. -1.
</event>
<event>
 5   0  0.3665303E-07  0.3961016E+04  0.7818609E-02  0.8012457E-01
        2   -1    0    0  501    0  0.00000000000E+00  0.00000000000E+00  0.20449473040E+04  0.20449473040E+04  0.25500000920E-02 0.  1.
       -2   -1    0    0    0  501  0.00000000000E+00  0.00000000000E+00 -0.19180992585E+04  0.19180992585E+04  0.25500000920E-02 0. -1.
    10030    2    1    2    0    0  0.00000000000E+00  0.00000000000E+00  0.12684804557E+03  0.39630465625E+04  0.39610159846E+04 0.  0.
        2    1    3    3  502    0 -0.57568600030E+02  0.13730778955E+03 -0.19124920198E+04  0.19182787333E+04  0.25500000920E-02 0. -1.
       -2    1    3    3    0  502  0.57568600030E+02 -0.13730778955E+03  0.20393400654E+04  0.20447678292E+04  0.25500000920E-02 0.  1.
</event>
<event>
 5   0  0.3665303E-07  0.3822937E+04  0.7818609E-02  0.8041250E-01
       -2   -1    0    0    0  501  0.00000000000E+00  0.00000000000E+00  0.20779214910E+04  0.20779214910E+04  0.25500000920E-02 0.  1.
        2   -1    0    0  501    0  0.00000000000E+00  0.00000000000E+00 -0.17583494615E+04  0.17583494615E+04  0.25500000920E-02 0. -1.
    10030    2    1    2    0    0  0.00000000000E+00  0.00000000000E+00  0.31957202951E+03  0.38362709524E+04  0.38229371612E+04 0.  0.
        2    1    3    3  502    0 -0.35136979369E+03  0.33873833038E+02 -0.17253571613E+04  0.17610978117E+04  0.25500000920E-02 0. -1.
       -2    1    3    3    0  502  0.35136979369E+03 -0.33873833038E+02  0.20449291908E+04  0.20751731407E+04  0.25500000920E-02 0.  1.
</event>
<event>
 5   0  0.3610483E-07  0.3895325E+04  0.7818609E-02  0.8026002E-01
       -2   -1    0    0    0  501  0.00000000000E+00  0.00000000000E+00  0.21347184484E+04  0.21347184484E+04  0.25500000920E-02 0. -1.
        2   -1    0    0  501    0  0.00000000000E+00  0.00000000000E+00 -0.17769970199E+04  0.17769970199E+04  0.25500000920E-02 0.  1.
    10030    2    1    2    0    0  0.00000000000E+00  0.00000000000E+00  0.35772142850E+03  0.39117154682E+04  0.38953245415E+04 0.  0.
        4    1    3    3  502    0  0.63033192088E+02  0.13978222029E+04  0.15393702410E+04  0.20802746083E+04  0.12699999809E+01 0. -1.
       -4    1    3    3    0  502 -0.63033192088E+02 -0.13978222029E+04 -0.11816488125E+04  0.18314408599E+04  0.12699999809E+01 0.  1.
</event>
<event>
 5   0  0.3680814E-07  0.3946245E+04  0.7818609E-02  0.8015479E-01
        2   -1    0    0  501    0  0.00000000000E+00  0.00000000000E+00  0.24121407769E+04  0.24121407769E+04  0.25500000920E-02 0. -1.
       -2   -1    0    0    0  501  0.00000000000E+00  0.00000000000E+00 -0.16140069206E+04  0.16140069206E+04  0.25500000920E-02 0.  1.
    10030    2    1    2    0    0  0.00000000000E+00  0.00000000000E+00  0.79813385626E+03  0.40261476975E+04  0.39462447504E+04 0.  0.
        1    1    3    3  502    0 -0.80195191749E+03  0.61242831538E+03  0.21289863039E+04  0.23560089138E+04  0.50400001928E-02 0. -1.
       -1    1    3    3    0  502  0.80195191749E+03 -0.61242831538E+03 -0.13308524477E+04  0.16701387838E+04  0.50400001928E-02 0.  1.
</event>
<event>
 5   0  0.3832389E-07  0.3893238E+04  0.7818609E-02  0.8026437E-01
       -2   -1    0    0    0  501  0.00000000000E+00  0.00000000000E+00  0.14511538821E+04  0.14511538821E+04  0.25500000920E-02 0. -1.
        2   -1    0    0  501    0  0.00000000000E+00  0.00000000000E+00 -0.26112505422E+04  0.26112505422E+04  0.25500000920E-02 0.  1.
    10030    2    1    2    0    0  0.00000000000E+00  0.00000000000E+00 -0.11600966601E+04  0.40624044244E+04  0.38932384266E+04 0.  0.
        5    1    3    3  502    0 -0.14221266383E+04 -0.54153395527E+03  0.68661768829E+03  0.16694816980E+04  0.46999998093E+01 0. -1.
       -5    1    3    3    0  502  0.14221266383E+04  0.54153395527E+03 -0.18467143484E+04  0.23929227264E+04  0.46999998093E+01 0.  1.
</event>
<event>
 5   0  0.3665303E-07  0.3850753E+04  0.7818609E-02  0.8035350E-01
       -2   -1    0    0    0  501  0.00000000000E+00  0.00000000000E+00  0.11309451383E+04  0.11309451383E+04  0.25500000920E-02 0.  1.
        2   -1    0    0  501    0  0.00000000000E+00  0.00000000000E+00 -0.32778547931E+04  0.32778547931E+04  0.25500000920E-02 0. -1.
    10030    2    1    2    0    0  0.00000000000E+00  0.00000000000E+00 -0.21469096548E+04  0.44087999314E+04  0.38507526237E+04 0.  0.
        2    1    3    3  502    0 -0.91137923717E+03  0.15887127905E+04 -0.39374165940E+03  0.18734067735E+04  0.25500000920E-02 0. -1.
       -2    1    3    3    0  502  0.91137923717E+03 -0.15887127905E+04 -0.17531679954E+04  0.25353931578E+04  0.25500000920E-02 0.  1.
</event>
<event>
 5   0  0.3680814E-07  0.3875733E+04  0.7818609E-02  0.8030095E-01
        2   -1    0    0  501    0  0.00000000000E+00  0.00000000000E+00  0.26679800307E+04  0.26679800307E+04  0.25500000920E-02 0. -1.
       -2   -1    0    0    0  501  0.00000000000E+00  0.00000000000E+00 -0.14075544552E+04  0.14075544552E+04  0.25500000920E-02 0.  1.
    10030    2    1    2    0    0  0.00000000000E+00  0.00000000000E+00  0.12604255755E+04  0.40755344860E+04  0.38757333132E+04 0.  0.
        1    1    3    3  502    0 -0.18418764947E+03 -0.18302706584E+04 -0.10726306219E+02  0.18395463644E+04  0.50400001928E-02 0.  1.
       -1    1    3    3    0  502  0.18418764947E+03  0.18302706584E+04  0.12711518818E+04  0.22359881215E+04  0.50400001928E-02 0. -1.
</event>
<event>
 5   0  0.1187925E-07  0.3616552E+04  0.7818609E-02  0.8086711E-01
        1   -1    0    0  501    0  0.00000000000E+00  0.00000000000E+00  0.20488802436E+04  0.20488802436E+04  0.50400001928E-02 0. -1.
       -1   -1    0    0    0  501  0.00000000000E+00  0.00000000000E+00 -0.15959260414E+04  0.15959260414E+04  0.50400001928E-02 0.  1.
    10030    2    1    2    0    0  0.00000000000E+00  0.00000000000E+00  0.45295420216E+03  0.36448062850E+04  0.36165515821E+04 0.  0.
        3    1    3    3  502    0 -0.10604927325E+04  0.66484647492E+03  0.15417384500E+04  0.19858557675E+04  0.10100000352E+00 0. -1.
       -3    1    3    3    0  502  0.10604927325E+04 -0.66484647492E+03 -0.10887842479E+04  0.16589505175E+04  0.10100000352E+00 0.  1.
</event>
<event>
 5   0  0.3832389E-07  0.3740141E+04  0.7818609E-02  0.8059124E-01
        2   -1    0    0  501    0  0.00000000000E+00  0.00000000000E+00  0.14131046488E+04  0.14131046488E+04  0.25500000920E-02 0. -1.
       -2   -1    0    0    0  501  0.00000000000E+00  0.00000000000E+00 -0.24748090198E+04  0.24748090198E+04  0.25500000920E-02 0.  1.
    10030    2    1    2    0    0  0.00000000000E+00  0.00000000000E+00 -0.10617043710E+04  0.38879136687E+04  0.37401412438E+04 0.  0.
        5    1    3    3  502    0  0.13893815973E+04  0.10047013899E+04 -0.13068975915E+04  0.21558778979E+04  0.46999998093E+01 0.  1.
       -5    1    3    3    0  502 -0.13893815973E+04 -0.10047013899E+04  0.24519322048E+03  0.17320357708E+04  0.46999998093E+01 0. -1.
</event>
<event>
 5   0  0.1187925E-07  0.3715967E+04  0.7818609E-02  0.8064432E-01
       -1   -1    0    0    0  501  0.00000000000E+00  0.00000000000E+00  0.16605619993E+04  0.16605619993E+04  0.50400001928E-02 0. -1.
        1   -1    0    0  501    0  0.00000000000E+00  0.00000000000E+00 -0.20788763887E+04  0.20788763887E+04  0.50400001928E-02 0.  1.
    10030    2    1    2    0    0  0.00000000000E+00  0.00000000000E+00 -0.41831438943E+03  0.37394383880E+04  0.37159672401E+04 0.  0.
        4    1    3    3  502    0 -0.11294389843E+04 -0.14745544040E+04 -0.25590933114E+03  0.18749491482E+04  0.12699999809E+01 0. -1.
       -4    1    3    3    0  502  0.11294389843E+04  0.14745544040E+04 -0.16240505829E+03  0.18644892398E+04  0.12699999809E+01 0.  1.
</event>
<event>
 5   0  0.3680814E-07  0.3436015E+04  0.7818609E-02  0.8129123E-01
        2   -1    0    0  501    0  0.00000000000E+00  0.00000000000E+00  0.19543675749E+04  0.19543675749E+04  0.25500000920E-02 0.  1.
       -2   -1    0    0    0  501  0.00000000000E+00  0.00000000000E+00 -0.15102326706E+04  0.15102326706E+04  0.25500000920E-02 0. -1.
    10030    2    1    2    0    0  0.00000000000E+00  0.00000000000E+00  0.44413490424E+03  0.34646002455E+04  0.34360149953E+04 0.  0.
        1    1    3    3  502    0  0.14948812145E+04  0.95207589692E+02 -0.62624940034E+03  0.16235524759E+04  0.50400001928E-02 0.  1.
       -1    1    3    3    0  502 -0.14948812145E+04 -0.95207589692E+02  0.10703843046E+04  0.18410477696E+04  0.50400001928E-02 0. -1.
</event>
<event>
 5   0  0.3665303E-07  0.3909108E+04  0.7818609E-02  0.8023138E-01
       -2   -1    0    0    0  501  0.00000000000E+00  0.00000000000E+00  0.25993142116E+04  0.25993142116E+04  0.25500000920E-02 0.  1.
        2   -1    0    0  501    0  0.00000000000E+00  0.00000000000E+00 -0.14697263186E+04  0.14697263186E+04  0.25500000920E-02 0. -1.
    10030    2    1    2    0    0  0.00000000000E+00  0.00000000000E+00  0.11295878930E+04  0.40690405302E+04  0.39091075744E+04 0.  0.
        2    1    3    3  502    0  0.59392141360E+02  0.17964814790E+04  0.13639326729E+04  0.22563655437E+04  0.25500000920E-02 0.  1.
       -2    1    3    3    0  502 -0.59392141360E+02 -0.17964814790E+04 -0.23434477984E+03  0.18126749865E+04  0.25500000920E-02 0. -1.
</event>
<event>
 5   0  0.1187925E-07  0.3901280E+04  0.7818609E-02  0.8024763E-01
        1   -1    0    0  501    0  0.00000000000E+00  0.00000000000E+00  0.22994173106E+04  0.22994173106E+04  0.50400001928E-02 0. -1.
       -1   -1    0    0    0  501  0.00000000000E+00  0.00000000000E+00 -0.16547651686E+04  0.16547651686E+04  0.50400001928E-02 0.  1.
    10030    2    1    2    0    0  0.00000000000E+00  0.00000000000E+00  0.64465214200E+03  0.39541824792E+04  0.39012796227E+04 0.  0.
        5    1    3    3  502    0 -0.11417698851E+04 -0.14738479378E+04  0.90378418010E+03  0.20718866157E+04  0.46999998093E+01 0. -1.
       -5    1    3    3    0  502  0.11417698851E+04  0.14738479378E+04 -0.25913203811E+03  0.18822958634E+04  0.46999998093E+01 0.  1.
</event>
<event>
 5   0  0.3610483E-07  0.3881403E+04  0.7818609E-02  0.8028908E-01
        2   -1    0    0  501    0  0.00000000000E+00  0.00000000000E+00  0.17464836968E+04  0.17464836969E+04  0.25500000920E-02 0.  1.
       -2   -1    0    0    0  501  0.00000000000E+00  0.00000000000E+00 -0.21565172175E+04  0.21565172175E+04  0.25500000920E-02 0. -1.
    10030    2    1    2    0    0  0.00000000000E+00  0.00000000000E+00 -0.41003352064E+03  0.39030009143E+04  0.38814029228E+04 0.  0.
        4    1    3    3  502    0  0.14078396804E+04  0.62425896916E+03  0.98249006142E+03  0.18267457841E+04  0.12699999809E+01 0.  1.
       -4    1    3    3    0  502 -0.14078396804E+04 -0.62425896916E+03 -0.13925235821E+04  0.20762551302E+04  0.12699999809E+01 0. -1.
</event>
<event>
 5   0  0.3832389E-07  0.3781826E+04  0.7818609E-02  0.8050066E-01
       -2   -1    0    0    0  501  0.00000000000E+00  0.00000000000E+00  0.15480411543E+04  0.15480411543E+04  0.25500000920E-02 0.  1.
        2   -1    0    0  501    0  0.00000000000E+00  0.00000000000E+00 -0.23097266633E+04  0.23097266633E+04  0.25500000920E-02 0. -1.
    10030    2    1    2    0    0  0.00000000000E+00  0.00000000000E+00 -0.76168550898E+03  0.38577678176E+04  0.37818259770E+04 0.  0.
        5    1    3    3  502    0  0.43795916489E+03 -0.15006653850E+04  0.70434529451E+03  0.17146221775E+04  0.46999998093E+01 0.  1.
       -5    1    3    3    0  502 -0.43795916489E+03  0.15006653850E+04 -0.14660308035E+04  0.21431456401E+04  0.46999998093E+01 0. -1.
</event>
<event>
 5   0  0.1187925E-07  0.3927008E+04  0.7818609E-02  0.8019435E-01
       -1   -1    0    0    0  501  0.00000000000E+00  0.00000000000E+00  0.22167445752E+04  0.22167445752E+04  0.50400001928E-02 0.  1.
        1   -1    0    0  501    0  0.00000000000E+00  0.00000000000E+00 -0.17391938268E+04  0.17391938268E+04  0.50400001928E-02 0. -1.
    10030    2    1    2    0    0  0.00000000000E+00  0.00000000000E+00  0.47755074839E+03  0.39559384020E+04  0.39270082662E+04 0.  0.
        4    1    3    3  502    0  0.12279800558E+04  0.24082340343E+03 -0.12854530498E+04  0.17939682509E+04  0.12699999809E+01 0. -1.
       -4    1    3    3    0  502 -0.12279800558E+04 -0.24082340343E+03  0.17630037982E+04  0.21619701511E+04  0.12699999809E+01 0.  1.
</event>
<event>
 5   0  0.3680814E-07  0.3882577E+04  0.7818609E-02  0.8028663E-01
       -2   -1    0    0    0  501  0.00000000000E+00  0.00000000000E+00  0.24615200265E+04  0.24615200265E+04  0.25500000920E-02 0. -1.
        2   -1    0    0  501    0  0.00000000000E+00  0.00000000000E+00 -0.15310053772E+04  0.15310053772E+04  0.25500000920E-02 0.  1.
    10030    2    1    2    0    0  0.00000000000E+00  0.00000000000E+00  0.93051464937E+03  0.39925254037E+04  0.38825766685E+04 0.  0.
        1    1    3    3  502    0  0.10821750710E+04 -0.93706383447E+02  0.21197692592E+04  0.23818701650E+04  0.50400001928E-02 0. -1.
       -1    1    3    3    0  502 -0.10821750710E+04  0.93706383447E+02 -0.11892546099E+04  0.16106552386E+04  0.50400001928E-02 0.  1.
</event>
<event>
 5   0  0.1187925E-07  0.3856509E+04  0.7818609E-02  0.8034136E-01
        3   -1    0    0  501    0  0.00000000000E+00  0.00000000000E+00  0.19635651430E+04  0.19635651456E+04  0.10100000352E+00 0.  1.
       -3   -1    0    0    0  501  0.00000000000E+00  0.00000000000E+00 -0.18935788267E+04  0.18935788294E+04  0.10100000352E+00 0. -1.
    10030    2    1    2    0    0  0.00000000000E+00  0.00000000000E+00  0.69986316312E+02  0.38571439750E+04  0.38565089861E+04 0.  0.
        1    1    3    3  502    0 -0.15918875616E+04  0.17572665720E+02 -0.10531890107E+04  0.19088273625E+04  0.50400001928E-02 0. -1.
       -1    1    3    3    0  502  0.15918875616E+04 -0.17572665720E+02  0.11231753270E+04  0.19483166125E+04  0.50400001928E-02 0.  1.
</event>
<event>
 5   0  0.1187925E-07  0.3838029E+04  0.7818609E-02  0.8038043E-01
       -1   -1    0    0    0  501  0.00000000000E+00  0.00000000000E+00  0.18792463178E+04  0.18792463178E+04  0.50400001928E-02 0.  1.
        1   -1    0    0  501    0  0.00000000000E+00  0.00000000000E+00 -0.19596243616E+04  0.19596243616E+04  0.50400001928E-02 0. -1.
    10030    2    1    2    0    0  0.00000000000E+00  0.00000000000E+00 -0.80378043853E+02  0.38388706794E+04  0.38380291118E+04 0.  0.
        3    1    3    3  502    0  0.64746325510E+03 -0.19961318146E+02 -0.18469653935E+04  0.19572655149E+04  0.10100000352E+00 0. -1.
       -3    1    3    3    0  502 -0.64746325510E+03  0.19961318146E+02  0.17665873496E+04  0.18816051645E+04  0.10100000352E+00 0.  1.
</event>
<event>
 5   0  0.1187925E-07  0.3624826E+04  0.7818609E-02  0.8084829E-01
       -1   -1    0    0    0  501  0.00000000000E+00  0.00000000000E+00  0.17795907159E+04  0.17795907159E+04  0.50400001928E-02 0. -1.
        1   -1    0    0  501    0  0.00000000000E+00  0.00000000000E+00 -0.18458407123E+04  0.18458407123E+04  0.50400001928E-02 0.  1.
    10030    2    1    2    0    0  0.00000000000E+00  0.00000000000E+00 -0.66249996417E+02  0.36254314282E+04  0.36248260618E+04 0.  0.
        3    1    3    3  502    0 -0.11197874193E+04 -0.16372106064E+03 -0.14490282387E+04  0.18385894857E+04  0.10100000352E+00 0.  1.
       -3    1    3    3    0  502  0.11197874193E+04  0.16372106064E+03  0.13827782423E+04  0.17868419425E+04  0.10100000352E+00 0. -1.
</event>
<event>
 5   0  0.1187925E-07  0.4066563E+04  0.7818609E-02  0.7991252E-01
       -1   -1    0    0    0  501  0.00000000000E+00  0.00000000000E+00  0.16432658092E+04  0.16432658092E+04  0.50400001928E-02 0.  1.
        1   -1    0    0  501    0  0.00000000000E+00  0.00000000000E+00 -0.25158640286E+04  0.25158640286E+04  0.50400001928E-02 0. -1.
    10030    2    1    2    0    0  0.00000000000E+00  0.00000000000E+00 -0.87259821935E+03  0.41591298378E+04  0.40665628429E+04 0.  0.
        1    1    3    3  502    0  0.19189643506E+04 -0.60299456792E+03 -0.13254245257E+03  0.20158358389E+04  0.50400001928E-02 0. -1.
       -1    1    3    3    0  502 -0.19189643506E+04  0.60299456792E+03 -0.74005576678E+03  0.21432939989E+04  0.50400001928E-02 0.  1.
</event>
<event>
 5   0  0.3810833E-07  0.3257950E+04  0.7818609E-02  0.8173678E-01
        2   -1    0    0  501    0  0.00000000000E+00  0.00000000000E+00  0.10629700811E+04  0.10629700811E+04  0.25500000920E-02 0.  1.
       -2   -1    0    0    0  501  0.00000000000E+00  0.00000000000E+00 -0.24963628552E+04  0.24963628552E+04  0.25500000920E-02 0. -1.
    10030    2    1    2    0    0  0.00000000000E+00  0.00000000000E+00 -0.14333927740E+04  0.35593329363E+04  0.32579496784E+04 0.  0.
        3    1    3    3  502    0  0.60020783984E+03  0.94291815101E+03  0.57791980306E+03  0.12583065602E+04  0.10100000352E+00 0.  1.
       -3    1    3    3    0  502 -0.60020783984E+03 -0.94291815101E+03 -0.20113125771E+04  0.23010263761E+04  0.10100000352E+00 0. -1.
</event>
<event>
 5   0  0.3810833E-07  0.3737924E+04  0.7818609E-02  0.8059609E-01
        2   -1    0    0  501    0  0.00000000000E+00  0.00000000000E+00  0.22108757404E+04  0.22108757404E+04  0.25500000920E-02 0.  1.
       -2   -1    0    0    0  501  0.00000000000E+00  0.00000000000E+00 -0.15799253001E+04  0.15799253001E+04  0.25500000920E-02 0. -1.
    10030    2    1    2    0    0  0.00000000000E+00  0.00000000000E+00  0.63095044031E+03  0.37908010405E+04  0.37379237646E+04 0.  0.
        3    1    3    3  502    0 -0.13406061898E+04  0.65025453623E+03  0.14596921565E+04  0.20858468592E+04  0.10100000352E+00 0.  1.
       -3    1    3    3    0  502  0.13406061898E+04 -0.65025453623E+03 -0.82874171621E+03  0.17049541813E+04  0.10100000352E+00 0. -1.
</event>
<event>
 5   0  0.3832389E-07  0.2891742E+04  0.7818609E-02  0.8275339E-01
       -2   -1    0    0    0  501  0.00000000000E+00  0.00000000000E+00  0.82773191450E+03  0.82773191450E+03  0.25500000920E-02 0.  1.
        2   -1    0    0  501    0  0.00000000000E+00  0.00000000000E+00 -0.25256281689E+04  0.25256281689E+04  0.25500000920E-02 0. -1.
    10030    2    1    2    0    0  0.00000000000E+00  0.00000000000E+00 -0.16978962544E+04  0.33533600834E+04  0.28917420629E+04 0.  0.
        5    1    3    3  502    0 -0.60473357855E+03 -0.30410852002E+03  0.63263304952E+03  0.92651570862E+03  0.46999998093E+01 0.  1.
       -5    1    3    3    0  502  0.60473357855E+03  0.30410852002E+03 -0.23305293039E+04  0.24268443748E+04  0.46999998093E+01 0. -1.
</event>
<event>
 5   0  0.1187925E-07  0.4132040E+04  0.7818609E-02  0.7978427E-01
        1   -1    0    0  501    0  0.00000000000E+00  0.00000000000E+00  0.22240819917E+04  0.22240819917E+04  0.50400001928E-02 0.  1.
       -1   -1    0    0    0  501  0.00000000000E+00  0.00000000000E+00 -0.19191911118E+04  0.19191911118E+04  0.50400001928E-02 0. -1.
    10030    2    1    2    0    0  0.00000000000E+00  0.00000000000E+00  0.30489087993E+03  0.41432731035E+04  0.41320398790E+04 0.  0.
        2    1    3    3  502    0 -0.17657077865E+04  0.90500114854E+03  0.72993414421E+03  0.21141321910E+04  0.25500000920E-02 0.  1.
       -2    1    3    3    0  502  0.17657077865E+04 -0.90500114854E+03 -0.42504326428E+03  0.20291409125E+04  0.25500000920E-02 0. -1.
</event>
<event>
 5   0  0.1187925E-07  0.3915428E+04  0.7818609E-02  0.8021828E-01
        1   -1    0    0  501    0  0.00000000000E+00  0.00000000000E+00  0.25610748174E+04  0.25610748174E+04  0.50400001928E-02 0. -1.
       -1   -1    0    0    0  501  0.00000000000E+00  0.00000000000E+00 -0.14964984472E+04  0.14964984472E+04  0.50400001928E-02 0.  1.
    10030    2    1    2    0    0  0.00000000000E+00  0.00000000000E+00  0.10645763702E+04  0.40575732646E+04  0.39154281949E+04 0.  0.
        4    1    3    3  502    0 -0.11684968005E+04  0.96826667059E+03  0.18140070024E+04  0.23650683153E+04  0.12699999809E+01 0. -1.
       -4    1    3    3    0  502  0.11684968005E+04 -0.96826667059E+03 -0.74943063215E+03  0.16925049493E+04  0.12699999809E+01 0.  1.
</event>
<event>
 5   0  0.3665303E-07  0.3910819E+04  0.7818609E-02  0.8022783E-01
        2   -1    0    0  501    0  0.00000000000E+00  0.00000000000E+00  0.16359743117E+04  0.16359743117E+04  0.25500000920E-02 0. -1.
       -2   -1    0    0    0  501  0.00000000000E+00  0.00000000000E+00 -0.23372162121E+04  0.23372162121E+04  0.25500000920E-02 0.  1.
    10030    2    1    2    0    0  0.00000000000E+00  0.00000000000E+00 -0.70124190032E+03  0.39731905238E+04  0.39108186784E+04 0.  0.
        2    1    3    3  502    0 -0.19347403371E+04 -0.24808979088E+03 -0.49013168780E+03  0.20112179862E+04  0.25500000920E-02 0.  1.
       -2    1    3    3    0  502  0.19347403371E+04  0.24808979088E+03 -0.21111021252E+03  0.19619725376E+04  0.25500000920E-02 0. -1.
</event>
<event>
 5   0  0.3810833E-07  0.3910834E+04  0.7818609E-02  0.8022780E-01
        2   -1    0    0  501    0  0.00000000000E+00  0.00000000000E+00  0.18093550228E+04  0.18093550228E+04  0.25500000920E-02 0.  1.
       -2   -1    0    0    0  501  0.00000000000E+00  0.00000000000E+00 -0.21132699887E+04  0.21132699887E+04  0.25500000920E-02 0. -1.
    10030    2    1    2    0    0  0.00000000000E+00  0.00000000000E+00 -0.30391496586E+03  0.39226250116E+04  0.39108340127E+04 0.  0.
        3    1    3    3  502    0  0.15084596515E+03  0.13482434321E+04 -0.15644435886E+04  0.20707483212E+04  0.10100000352E+00 0. -1.
       -3    1    3    3    0  502 -0.15084596515E+03 -0.13482434321E+04  0.12605286228E+04  0.18518766904E+04  0.10100000352E+00 0.  1.
</event>
<event>
 5   0  0.1187925E-07  0.4006611E+04  0.7818609E-02  0.8003214E-01
       -1   -1    0    0    0  501  0.00000000000E+00  0.00000000000E+00  0.14973127753E+04  0.14973127753E+04  0.50400001928E-02 0. -1.
        1   -1    0    0  501    0  0.00000000000E+00  0.00000000000E+00 -0.26802906575E+04  0.26802906575E+04  0.50400001928E-02 0.  1.
    10030    2    1    2    0    0  0.00000000000E+00  0.00000000000E+00 -0.11829778822E+04  0.41776034327E+04  0.40066112579E+04 0.  0.
        1    1    3    3  502    0 -0.11697289772E+04 -0.12926925724E+04 -0.16204766613E+04  0.23801816268E+04  0.50400001928E-02 0.  1.
       -1    1    3    3    0  502  0.11697289772E+04  0.12926925724E+04  0.43749877911E+03  0.17974218059E+04  0.50400001928E-02 0. -1.
</event>
<event>
 5   0  0.3832389E-07  0.3926257E+04  0.7818609E-02  0.8019590E-01
       -2   -1    0    0    0  501  0.00000000000E+00  0.00000000000E+00  0.24173832035E+04  0.24173832035E+04  0.25500000920E-02 0.  1.
        2   -1    0    0  501    0  0.00000000000E+00  0.00000000000E+00 -0.15942337851E+04  0.15942337851E+04  0.25500000920E-02 0. -1.
    10030    2    1    2    0    0  0.00000000000E+00  0.00000000000E+00  0.82314941844E+03  0.40116169887E+04  0.39262572380E+04 0.  0.
        5    1    3    3  502    0 -0.65065590613E+03 -0.12579517085E+04  0.18005621145E+04  0.22908168035E+04  0.46999998093E+01 0.  1.
       -5    1    3    3    0  502  0.65065590613E+03  0.12579517085E+04 -0.97741269602E+03  0.17208001852E+04  0.46999998093E+01 0. -1.
</event>
<event>
 5   0  0.1187925E-07  0.3893070E+04  0.7818609E-02  0.8026472E-01
       -1   -1    0    0    0  501  0.00000000000E+00  0.00000000000E+00  0.15217333746E+04  0.15217333746E+04  0.50400001928E-02 0.  1.
        1   -1    0    0  501    0  0.00000000000E+00  0.00000000000E+00 -0.24899228064E+04  0.24899228064E+04  0.50400001928E-02 0. -1.
    10030    2    1    2    0    0  0.00000000000E+00  0.00000000000E+00 -0.96818943176E+03  0.40116561810E+04  0.38930700660E+04 0.  0.
        4    1    3    3  502    0  0.80675973244E+02  0.16608224685E+04  0.55873832466E+03  0.17541465197E+04  0.12699999809E+01 0.  1.
       -4    1    3    3    0  502 -0.80675973244E+02 -0.16608224685E+04 -0.15269277564E+04  0.22575096612E+04  0.12699999809E+01 0. -1.
</event>
<event>
 5   0  0.1187925E-07  0.3926268E+04  0.7818609E-02  0.8019588E-01
        1   -1    0    0  501    0  0.00000000000E+00  0.00000000000E+00  0.23950253709E+04  0.23950253709E+04  0.50400001928E-02 0.  1.
       -1   -1    0    0    0  501  0.00000000000E+00  0.00000000000E+00 -0.16091248101E+04  0.16091248101E+04  0.50400001928E-02 0. -1.
    10030    2    1    2    0    0  0.00000000000E+00  0.00000000000E+00  0.78590056084E+03  0.40041501810E+04  0.39262678182E+04 0.  0.
        5    1    3    3  502    0  0.15953851995E+03 -0.13062738980E+04  0.18785785304E+04  0.22936615750E+04  0.46999998093E+01 0.  1.
       -5    1    3    3    0  502 -0.15953851995E+03  0.13062738980E+04 -0.10926779696E+04  0.17104886060E+04  0.46999998093E+01 0. -1.
</event>
<event>
 5   0  0.3665303E-07  0.4145834E+04  0.7818609E-02  0.7975756E-01
       -2   -1    0    0    0  501  0.00000000000E+00  0.00000000000E+00  0.22432863942E+04  0.22432863942E+04  0.25500000920E-02 0.  1.
        2   -1    0    0  501    0  0.00000000000E+00  0.00000000000E+00 -0.19154869328E+04  0.19154869328E+04  0.25500000920E-02 0. -1.
    10030    2    1    2    0    0  0.00000000000E+00  0.00000000000E+00  0.32779946139E+03  0.41587733270E+04  0.41458344273E+04 0.  0.
        2    1    3    3  502    0  0.19251320074E+04  0.76563556121E+03  0.23233813670E+03  0.20847810601E+04  0.25500000920E-02 0.  1.
       -2    1    3    3    0  502 -0.19251320074E+04 -0.76563556121E+03  0.95461324691E+02  0.20739922669E+04  0.25500000920E-02 0. -1.
</event>
<event>
 5   0  0.1187925E-07  0.3897369E+04  0.7818609E-02  0.8025577E-01
       -1   -1    0    0    0  501  0.00000000000E+00  0.00000000000E+00  0.22170523221E+04  0.22170523221E+04  0.50400001928E-02 0.  1.
        1   -1    0    0  501    0  0.00000000000E+00  0.00000000000E+00 -0.17128014133E+04  0.17128014133E+04  0.50400001928E-02 0. -1.
    10030    2    1    2    0    0  0.00000000000E+00  0.00000000000E+00  0.50425090884E+03  0.39298537354E+04  0.38973685228E+04 0.  0.
        1    1    3    3  502    0  0.49921471274E+03  0.77586477954E+03 -0.14786279932E+04  0.17428488827E+04  0.50400001928E-02 0. -1.
       -1    1    3    3    0  502 -0.49921471274E+03 -0.77586477954E+03  0.19828789021E+04  0.21870048527E+04  0.50400001928E-02 0.  1.
</event>
<event>
 5   0  0.1187925E-07  0.3931699E+04  0.7818609E-02  0.8018469E-01
       -1   -1    0    0    0  501  0.00000000000E+00  0.00000000000E+00  0.12881199078E+04  0.12881199079E+04  0.50400001928E-02 0. -1.
        1   -1    0    0  501    0  0.00000000000E+00  0.00000000000E+00 -0.30001588540E+04  0.30001588540E+04  0.50400001928E-02 0.  1.
    10030    2    1    2    0    0  0.00000000000E+00  0.00000000000E+00 -0.17120389461E+04  0.42882787618E+04  0.39316990457E+04 0.  0.
        2    1    3    3  502    0 -0.15834247391E+04  0.10790198849E+04 -0.13352381567E+04  0.23354611432E+04  0.25500000920E-02 0. -1.
       -2    1    3    3    0  502  0.15834247391E+04 -0.10790198849E+04 -0.37680078947E+03  0.19528176186E+04  0.25500000920E-02 0.  1.
</event>
<event>
 5   0  0.3832389E-07  0.3928552E+04  0.7818609E-02  0.8019117E-01
       -2   -1    0    0    0  501  0.00000000000E+00  0.00000000000E+00  0.19510275855E+04  0.19510275855E+04  0.25500000920E-02 0. -1.
        2   -1    0    0  501    0  0.00000000000E+00  0.00000000000E+00 -0.19776148254E+04  0.19776148254E+04  0.25500000920E-02 0.  1.
    10030    2    1    2    0    0  0.00000000000E+00  0.00000000000E+00 -0.26587239913E+02  0.39286424109E+04  0.39285524448E+04 0.  0.
        5    1    3    3  502    0  0.18082595064E+04 -0.44376895381E+02  0.75261375267E+03  0.19591378976E+04  0.46999998093E+01 0. -1.
       -5    1    3    3    0  502 -0.18082595064E+04  0.44376895381E+02 -0.77920099258E+03  0.19695045133E+04  0.46999998093E+01 0.  1.
</event>
<event>
 5   0  0.3610483E-07  0.3874219E+04  0.7818609E-02  0.8030413E-01
       -2   -1    0    0    0  501  0.00000000000E+00  0.00000000000E+00  0.28274540989E+04  0.28274540989E+04  0.25500000920E-02 0. -1.
        2   -1    0    0  501    0  0.00000000000E+00  0.00000000000E+00 -0.13271277703E+04  0.13271277703E+04  0.25500000920E-02 0.  1.
    10030    2    1    2    0    0  0.00000000000E+00  0.00000000000E+00  0.15003263286E+04  0.41545818691E+04  0.38742188135E+04 0.  0.
        4    1    3    3  502    0 -0.35349297221E+03  0.12274839166E+04  0.23118162169E+04  0.26412440025E+04  0.12699999809E+01 0. -1.
       -4    1    3    3    0  502  0.35349297221E+03 -0.12274839166E+04 -0.81148988829E+03  0.15133378666E+04  0.12699999809E+01 0.  1.
</event>
<event>
 5   0  0.1187925E-07  0.3912118E+04  0.7818609E-02  0.8022514E-01
       -1   -1    0    0    0  501  0.00000000000E+00  0.00000000000E+00  0.26766551691E+04  0.26766551691E+04  0.50400001928E-02 0. -1.
        1   -1    0    0  501    0  0.00000000000E+00  0.00000000000E+00 -0.14294581329E+04  0.14294581329E+04  0.50400001928E-02 0.  1.
    10030    2    1    2    0    0  0.00000000000E+00  0.00000000000E+00  0.12471970362E+04  0.41061133019E+04  0.39121178409E+04 0.  0.
        2    1    3    3  502    0  0.89024714767E+03  0.12358625895E+04 -0.66456335076E+03  0.16617884255E+04  0.25500000920E-02 0.  1.
       -2    1    3    3    0  502 -0.89024714767E+03 -0.12358625895E+04  0.19117603870E+04  0.24443248764E+04  0.25500000920E-02 0. -1.
</event>
<event>
 5   0  0.1187925E-07  0.3803325E+04  0.7818609E-02  0.8045442E-01
       -1   -1    0    0    0  501  0.00000000000E+00  0.00000000000E+00  0.20391411163E+04  0.20391411163E+04  0.50400001928E-02 0. -1.
        1   -1    0    0  501    0  0.00000000000E+00  0.00000000000E+00 -0.17734528430E+04  0.17734528430E+04  0.50400001928E-02 0.  1.
    10030    2    1    2    0    0  0.00000000000E+00  0.00000000000E+00  0.26568827328E+03  0.38125939593E+04  0.38033251820E+04 0.  0.
        3    1    3    3  502    0  0.57098536594E+03  0.16214335903E+04  0.94799829782E+03  0.19631026358E+04  0.10100000352E+00 0. -1.
       -3    1    3    3    0  502 -0.57098536594E+03 -0.16214335903E+04 -0.68231002454E+03  0.18494913235E+04  0.10100000352E+00 0.  1.
</event>
<event>
 5   0  0.1187925E-07  0.2952845E+04  0.7818609E-02  0.8257326E-01
       -1   -1    0    0    0  501  0.00000000000E+00  0.00000000000E+00  0.16862342196E+04  0.16862342196E+04  0.50400001928E-02 0. -1.
        1   -1    0    0  501    0  0.00000000000E+00  0.00000000000E+00 -0.12927167781E+04  0.12927167781E+04  0.50400001928E-02 0.  1.
    10030    2    1    2    0    0  0.00000000000E+00  0.00000000000E+00  0.39351744150E+03  0.29789509977E+04  0.29528449112E+04 0.  0.
        2    1    3    3  502    0 -0.61409208731E+03 -0.11371800598E+04  0.91688726410E+03  0.15846039995E+04  0.25500000920E-02 0. -1.
       -2    1    3    3    0  502  0.61409208731E+03  0.11371800598E+04 -0.52336982260E+03  0.13943469982E+04  0.25500000920E-02 0.  1.
</event>
<event>
 5   0  0.3810833E-07  0.3909173E+04  0.7818609E-02  0.8023124E-01
        2   -1    0    0  501    0  0.00000000000E+00  0.00000000000E+00  0.17532301690E+04  0.17532301690E+04  0.25500000920E-02 0.  1.
       -2   -1    0    0    0  501  0.00000000000E+00  0.00000000000E+00 -0.21790678750E+04  0.21790678750E+04  0.25500000920E-02 0. -1.
    10030    2    1    2    0    0  0.00000000000E+00  0.00000000000E+00 -0.42583770601E+03  0.39322980441E+04  0.39091725666E+04 0.  0.
        3    1    3    3  502    0 -0.26674534739E+03 -0.58603430719E+02  0.17339425803E+04  0.17553188669E+04  0.10100000352E+00 0.  1.
       -3    1    3    3    0  502  0.26674534739E+03  0.58603430719E+02 -0.21597802863E+04  0.21769791772E+04  0.10100000352E+00 0. -1.
</event>
<event>
 5   0  0.1187925E-07  0.3882474E+04  0.7818609E-02  0.8028684E-01
        3   -1    0    0  501    0  0.00000000000E+00  0.00000000000E+00  0.21752836359E+04  0.21752836382E+04  0.10100000352E+00 0.  1.
       -3   -1    0    0    0  501  0.00000000000E+00  0.00000000000E+00 -0.17323726120E+04  0.17323726149E+04  0.10100000352E+00 0. -1.
    10030    2    1    2    0    0  0.00000000000E+00  0.00000000000E+00  0.44291102391E+03  0.39076562531E+04  0.38824743679E+04 0.  0.
        3    1    3    3  502    0 -0.16243300949E+03 -0.82222028412E+03 -0.15408929558E+04  0.17540757651E+04  0.10100000352E+00 0. -1.
       -3    1    3    3    0  502  0.16243300949E+03  0.82222028412E+03  0.19838039797E+04  0.21535804880E+04  0.10100000352E+00 0.  1.
</event>
<event>
 5   0  0.1187925E-07  0.3848726E+04  0.7818609E-02  0.8035779E-01
        1   -1    0    0  501    0  0.00000000000E+00  0.00000000000E+00  0.18447632665E+04  0.18447632665E+04  0.50400001928E-02 0.  1.
       -1   -1    0    0    0  501  0.00000000000E+00  0.00000000000E+00 -0.20073974772E+04  0.20073974772E+04  0.50400001928E-02 0. -1.
    10030    2    1    2    0    0  0.00000000000E+00  0.00000000000E+00 -0.16263421076E+03  0.38521607437E+04  0.38487260891E+04 0.  0.
        4    1    3    3  502    0 -0.47058494732E+03 -0.18403278073E+04 -0.38967463398E+03  0.19390989053E+04  0.12699999809E+01 0.  1.
       -4    1    3    3    0  502  0.47058494732E+03  0.18403278073E+04  0.22704042321E+03  0.19130618385E+04  0.12699999809E+01 0. -1.
</event>
<event>
 5   0  0.1187925E-07  0.3491115E+04  0.7818609E-02  0.8115899E-01
       -1   -1    0    0    0  501  0.00000000000E+00  0.00000000000E+00  0.11348355532E+04  0.11348355532E+04  0.50400001928E-02 0. -1.
        1   -1    0    0  501    0  0.00000000000E+00  0.00000000000E+00 -0.26849450700E+04  0.26849450700E+04  0.50400001928E-02 0.  1.
    10030    2    1    2    0    0  0.00000000000E+00  0.00000000000E+00 -0.15501095169E+04  0.38197806232E+04  0.34911150791E+04 0.  0.
        3    1    3    3  502    0 -0.14232723119E+04  0.10105764106E+04 -0.77673496274E+03  0.19105721572E+04  0.10100000352E+00 0.  1.
       -3    1    3    3    0  502  0.14232723119E+04 -0.10105764106E+04 -0.77337455413E+03  0.19092084660E+04  0.10100000352E+00 0. -1.
</event>
<event>
 5   0  0.3680814E-07  0.3883308E+04  0.7818609E-02  0.8028510E-01
       -2   -1    0    0    0  501  0.00000000000E+00  0.00000000000E+00  0.20783578938E+04  0.20783578938E+04  0.25500000920E-02 0.  1.
        2   -1    0    0  501    0  0.00000000000E+00  0.00000000000E+00 -0.18139415400E+04  0.18139415400E+04  0.25500000920E-02 0. -1.
    10030    2    1    2    0    0  0.00000000000E+00  0.00000000000E+00  0.26441635379E+03  0.38922994339E+04  0.38833077234E+04 0.  0.
        1    1    3    3  502    0 -0.94315424671E+03 -0.11565334769E+04  0.13772236470E+04  0.20307276012E+04  0.50400001928E-02 0.  1.
       -1    1    3    3    0  502  0.94315424671E+03  0.11565334769E+04 -0.11128072932E+04  0.18615718327E+04  0.50400001928E-02 0. -1.
</event>
<event>
 5   0  0.1187925E-07  0.3913025E+04  0.7818609E-02  0.8022326E-01
        1   -1    0    0  501    0  0.00000000000E+00  0.00000000000E+00  0.22349832998E+04  0.22349832998E+04  0.50400001928E-02 0. -1.
       -1   -1    0    0    0  501  0.00000000000E+00  0.00000000000E+00 -0.17127380150E+04  0.17127380150E+04  0.50400001928E-02 0.  1.
    10030    2    1    2    0    0  0.00000000000E+00  0.00000000000E+00  0.52224528480E+03  0.39477213148E+04  0.39130248456E+04 0.  0.
        1    1    3    3  502    0  0.13243845006E+04  0.25138118814E+03 -0.11694613379E+04  0.17846082562E+04  0.50400001928E-02 0.  1.
       -1    1    3    3    0  502 -0.13243845006E+04 -0.25138118814E+03  0.16917066227E+04  0.21631130586E+04  0.50400001928E-02 0. -1.
</event>
<event>
 5   0  0.3810833E-07  0.3508633E+04  0.7818609E-02  0.8111747E-01
       -2   -1    0    0    0  501  0.00000000000E+00  0.00000000000E+00  0.14985158934E+04  0.14985158934E+04  0.25500000920E-02 0. -1.
        2   -1    0    0  501    0  0.00000000000E+00  0.00000000000E+00 -0.20537826556E+04  0.20537826556E+04  0.25500000920E-02 0.  1.
    10030    2    1    2    0    0  0.00000000000E+00  0.00000000000E+00 -0.55526676219E+03  0.35522985490E+04  0.35086327543E+04 0.  0.
        3    1    3    3  502    0  0.11582375108E+04  0.24724306104E+03 -0.15879513755E+04  0.19809676534E+04  0.10100000352E+00 0.  1.
       -3    1    3    3    0  502 -0.11582375108E+04 -0.24724306104E+03  0.10326846133E+04  0.15713308956E+04  0.10100000352E+00 0. -1.
</event>
<event>
 5   0  0.3810833E-07  0.3874180E+04  0.7818609E-02  0.8030421E-01
        2   -1    0    0  501    0  0.00000000000E+00  0.00000000000E+00  0.19326564632E+04  0.19326564632E+04  0.25500000920E-02 0.  1.
       -2   -1    0    0    0  501  0.00000000000E+00  0.00000000000E+00 -0.19415334255E+04  0.19415334255E+04  0.25500000920E-02 0. -1.
    10030    2    1    2    0    0  0.00000000000E+00  0.00000000000E+00 -0.88769623504E+01  0.38741898887E+04  0.38741797187E+04 0.  0.
        3    1    3    3  502    0 -0.12982368532E+04 -0.51069389843E+03  0.13394734989E+04  0.19340156280E+04  0.10100000352E+00 0.  1.
       -3    1    3    3    0  502  0.12982368532E+04  0.51069389843E+03 -0.13483504613E+04  0.19401742606E+04  0.10100000352E+00 0. -1.
</event>
<event>
 5   0  0.3610483E-07  0.3298141E+04  0.7818609E-02  0.8163369E-01
       -2   -1    0    0    0  501  0.00000000000E+00  0.00000000000E+00  0.16981882440E+04  0.16981882440E+04  0.25500000920E-02 0.  1.
        2   -1    0    0  501    0  0.00000000000E+00  0.00000000000E+00 -0.16013731856E+04  0.16013731856E+04  0.25500000920E-02 0. -1.
    10030    2    1    2    0    0  0.00000000000E+00  0.00000000000E+00  0.96815058415E+02  0.32995614297E+04  0.32981407600E+04 0.  0.
        4    1    3    3  502    0  0.49565199236E+03 -0.85956470322E+03 -0.12693193280E+04  0.16111162422E+04  0.12699999809E+01 0. -1.
       -4    1    3    3    0  502 -0.49565199236E+03  0.85956470322E+03  0.13661343864E+04  0.16884451875E+04  0.12699999809E+01 0.  1.
</event>
<event>
 5   0  0.1187925E-07  0.2937528E+04  0.7818609E-02  0.8261798E-01
       -1   -1    0    0    0  501  0.00000000000E+00  0.00000000000E+00  0.77529359446E+03  0.77529359448E+03  0.50400001928E-02 0.  1.
        1   -1    0    0  501    0  0.00000000000E+00  0.00000000000E+00 -0.27825177650E+04  0.27825177650E+04  0.50400001928E-02 0. -1.
    10030    2    1    2    0    0  0.00000000000E+00  0.00000000000E+00 -0.20072241705E+04  0.35578113594E+04  0.29375283486E+04 0.  0.
        5    1    3    3  502    0 -0.44992974243E+02  0.22146768034E+03  0.75410087454E+03  0.78724997310E+03  0.46999998093E+01 0.  1.
       -5    1    3    3    0  502  0.44992974243E+02 -0.22146768034E+03 -0.27613250450E+04  0.27705613863E+04  0.46999998093E+01 0. -1.
</event>
<event>
 5   0  0.3610483E-07  0.3928420E+04  0.7818609E-02  0.8019144E-01
       -2   -1    0    0    0  501  0.00000000000E+00  0.00000000000E+00  0.21300033227E+04  0.21300033227E+04  0.25500000920E-02 0. -1.
        2   -1    0    0  501    0  0.00000000000E+00  0.00000000000E+00 -0.18113212483E+04  0.18113212483E+04  0.25500000920E-02 0.  1.
    10030    2    1    2    0    0  0.00000000000E+00  0.00000000000E+00  0.31868207434E+03  0.39413245710E+04  0.39284196707E+04 0.  0.
        4    1    3    3  502    0 -0.68702038830E+03 -0.14550499314E+04  0.12895189340E+04  0.20620446190E+04  0.12699999809E+01 0. -1.
       -4    1    3    3    0  502  0.68702038830E+03  0.14550499314E+04 -0.97083685969E+03  0.18792799520E+04  0.12699999809E+01 0.  1.
</event>
<event>
 5   0  0.1187925E-07  0.3885093E+04  0.7818609E-02  0.8028137E-01
        1   -1    0    0  501    0  0.00000000000E+00  0.00000000000E+00  0.16913193413E+04  0.16913193413E+04  0.50400001928E-02 0. -1.
       -1   -1    0    0    0  501  0.00000000000E+00  0.00000000000E+00 -0.22310911871E+04  0.22310911871E+04  0.50400001928E-02 0.  1.
    10030    2    1    2    0    0  0.00000000000E+00  0.00000000000E+00 -0.53977184575E+03  0.39224105284E+04  0.38850933976E+04 0.  0.
        5    1    3    3  502    0 -0.13079147188E+04 -0.60590047657E+02 -0.17186442517E+04  0.21605721973E+04  0.46999998093E+01 0.  1.
       -5    1    3    3    0  502  0.13079147188E+04  0.60590047657E+02  0.11788724060E+04  0.17618383312E+04  0.46999998093E+01 0. -1.
</event>
<event>
 5   0  0.3680814E-07  0.3720776E+04  0.7818609E-02  0.8063373E-01
        2   -1    0    0  501    0  0.00000000000E+00  0.00000000000E+00  0.28694325113E+04  0.28694325113E+04  0.25500000920E-02 0.  1.
       -2   -1    0    0    0  501  0.00000000000E+00  0.00000000000E+00 -0.12061767635E+04  0.12061767635E+04  0.25500000920E-02 0. -1.
    10030    2    1    2    0    0  0.00000000000E+00  0.00000000000E+00  0.16632557478E+04  0.40756092748E+04  0.37207756285E+04 0.  0.
        1    1    3    3  502    0 -0.53780650634E+02 -0.79744423094E+03 -0.10085317832E+04  0.12868356607E+04  0.50400001928E-02 0. -1.
       -1    1    3    3    0  502  0.53780650634E+02  0.79744423094E+03  0.26717875310E+04  0.27887736141E+04  0.50400001928E-02 0.  1.
</event>
<event>
 5   0  0.1187925E-07  0.3949168E+04  0.7818609E-02  0.8014880E-01
        1   -1    0    0  501    0  0.00000000000E+00  0.00000000000E+00  0.25124565120E+04  0.25124565120E+04  0.50400001928E-02 0. -1.
       -1   -1    0    0    0  501  0.00000000000E+00  0.00000000000E+00 -0.15518603247E+04  0.15518603247E+04  0.50400001928E-02 0.  1.
    10030    2    1    2    0    0  0.00000000000E+00  0.00000000000E+00  0.96059618733E+03  0.40643168368E+04  0.39491678002E+04 0.  0.
        2    1    3    3  502    0  0.26017145040E+03  0.15233363477E+03 -0.15280333683E+04  0.15574917960E+04  0.25500000920E-02 0.  1.
       -2    1    3    3    0  502 -0.26017145040E+03 -0.15233363477E+03  0.24886295556E+04  0.25068250408E+04  0.25500000920E-02 0. -1.
</event>
<event>
 5   0  0.3832389E-07  0.3904755E+04  0.7818609E-02  0.8024041E-01
       -2   -1    0    0    0  501  0.00000000000E+00  0.00000000000E+00  0.21773283889E+04  0.21773283889E+04  0.25500000920E-02 0.  1.
        2   -1    0    0  501    0  0.00000000000E+00  0.00000000000E+00 -0.17506676831E+04  0.17506676831E+04  0.25500000920E-02 0. -1.
    10030    2    1    2    0    0  0.00000000000E+00  0.00000000000E+00  0.42666070581E+03  0.39279960719E+04  0.39047552783E+04 0.  0.
        5    1    3    3  502    0 -0.71756601804E+03  0.12551063943E+04  0.15332233440E+04  0.21073654083E+04  0.46999998093E+01 0.  1.
       -5    1    3    3    0  502  0.71756601804E+03 -0.12551063943E+04 -0.11065626382E+04  0.18206306637E+04  0.46999998093E+01 0. -1.
</event>
<event>
 5   0  0.1187925E-07  0.3657710E+04  0.7818609E-02  0.8077399E-01
       -1   -1    0    0    0  501  0.00000000000E+00  0.00000000000E+00  0.14719198300E+04  0.14719198300E+04  0.50400001928E-02 0.  1.
        1   -1    0    0  501    0  0.00000000000E+00  0.00000000000E+00 -0.22723461663E+04  0.22723461663E+04  0.50400001928E-02 0. -1.
    10030    2    1    2    0    0  0.00000000000E+00  0.00000000000E+00 -0.80042633627E+03  0.37442659963E+04  0.36577104220E+04 0.  0.
        3    1    3    3  502    0 -0.15660292176E+04 -0.93848746340E+03 -0.51001343292E+03  0.18956054287E+04  0.10100000352E+00 0. -1.
       -3    1    3    3    0  502  0.15660292176E+04  0.93848746340E+03 -0.29041290335E+03  0.18486605676E+04  0.10100000352E+00 0.  1.
</event>
<event>
 5   0  0.1187925E-07  0.3398087E+04  0.7818609E-02  0.8138376E-01
        1   -1    0    0  501    0  0.00000000000E+00  0.00000000000E+00  0.20391734472E+04  0.20391734472E+04  0.50400001928E-02 0.  1.
       -1   -1    0    0    0  501  0.00000000000E+00  0.00000000000E+00 -0.14156462802E+04  0.14156462802E+04  0.50400001928E-02 0. -1.
    10030    2    1    2    0    0  0.00000000000E+00  0.00000000000E+00  0.62352716703E+03  0.34548197274E+04  0.33980867001E+04 0.  0.
        3    1    3    3  502    0 -0.15960890863E+04  0.57471843123E+03  0.40792948773E+03  0.17447659224E+04  0.10100000352E+00 0.  1.
       -3    1    3    3    0  502  0.15960890863E+04 -0.57471843123E+03  0.21559767931E+03  0.17100538051E+04  0.10100000352E+00 0. -1.
</event>
<event>
 5   0  0.1187925E-07  0.3747296E+04  0.7818609E-02  0.8057560E-01
       -1   -1    0    0    0  501  0.00000000000E+00  0.00000000000E+00  0.12929785070E+04  0.12929785070E+04  0.50400001928E-02 0. -1.
        1   -1    0    0  501    0  0.00000000000E+00  0.00000000000E+00 -0.27150934935E+04  0.27150934935E+04  0.50400001928E-02 0.  1.
    10030    2    1    2    0    0  0.00000000000E+00  0.00000000000E+00 -0.14221149866E+04  0.40080720005E+04  0.37472963756E+04 0.  0.
        3    1    3    3  502    0 -0.17721067446E+04 -0.55279618199E+02 -0.62971028741E+02  0.17740866696E+04  0.10100000352E+00 0.  1.
       -3    1    3    3    0  502  0.17721067446E+04  0.55279618199E+02 -0.13591439578E+04  0.22339853309E+04  0.10100000352E+00 0. -1.
</event>
<event>
 5   0  0.1187925E-07  0.3881013E+04  0.7818609E-02  0.8028990E-01
        1   -1    0    0  501    0  0.00000000000E+00  0.00000000000E+00  0.19839358449E+04  0.19839358449E+04  0.50400001928E-02 0. -1.
       -1   -1    0    0    0  501  0.00000000000E+00  0.00000000000E+00 -0.18980279015E+04  0.18980279015E+04  0.50400001928E-02 0.  1.
    10030    2    1    2    0    0  0.00000000000E+00  0.00000000000E+00  0.85907943448E+02  0.38819637464E+04  0.38810130576E+04 0.  0.
        2    1    3    3  502    0 -0.23025150712E+03 -0.17909559113E+04 -0.66787245398E+03  0.19252512687E+04  0.25500000920E-02 0.  1.
       -2    1    3    3    0  502  0.23025150712E+03  0.17909559113E+04  0.75378039743E+03  0.19567124777E+04  0.25500000920E-02 0. -1.
</event>
<event>
 5   0  0.1187925E-07  0.3361484E+04  0.7818609E-02  0.8147425E-01
       -1   -1    0    0    0  501  0.00000000000E+00  0.00000000000E+00  0.13955152653E+04  0.13955152653E+04  0.50400001928E-02 0. -1.
        1   -1    0    0  501    0  0.00000000000E+00  0.00000000000E+00 -0.20242657342E+04  0.20242657342E+04  0.50400001928E-02 0.  1.
    10030    2    1    2    0    0  0.00000000000E+00  0.00000000000E+00 -0.62875046891E+03  0.34197809995E+04  0.33614840372E+04 0.  0.
        5    1    3    3  502    0  0.11333294821E+04 -0.48627934734E+01 -0.15770332150E+04  0.19420389319E+04  0.46999998093E+01 0.  1.
       -5    1    3    3    0  502 -0.11333294821E+04  0.48627934734E+01  0.94828274607E+03  0.14777420676E+04  0.46999998093E+01 0. -1.
</event>
<event>
 5   0  0.3832389E-07  0.3829637E+04  0.7818609E-02  0.8039825E-01
       -2   -1    0    0    0  501  0.00000000000E+00  0.00000000000E+00  0.20486481021E+04  0.20486481021E+04  0.25500000920E-02 0.  1.
        2   -1    0    0  501    0  0.00000000000E+00  0.00000000000E+00 -0.17897314869E+04  0.17897314869E+04  0.25500000920E-02 0. -1.
    10030    2    1    2    0    0  0.00000000000E+00  0.00000000000E+00  0.25891661522E+03  0.38383795889E+04  0.38296370657E+04 0.  0.
        5    1    3    3  502    0 -0.60359600380E+02 -0.37674970998E+03 -0.17512378928E+04  0.17923280594E+04  0.46999998093E+01 0. -1.
       -5    1    3    3    0  502  0.60359600380E+02  0.37674970998E+03  0.20101545080E+04  0.20460515295E+04  0.46999998093E+01 0.  1.
</event>
<event>
 5   0  0.1187925E-07  0.2914310E+04  0.7818609E-02  0.8268633E-01
        3   -1    0    0  501    0  0.00000000000E+00  0.00000000000E+00  0.33331109512E+04  0.33331109527E+04  0.10100000352E+00 0.  1.
       -3   -1    0    0    0  501  0.00000000000E+00  0.00000000000E+00 -0.63703267700E+03  0.63703268501E+03  0.10100000352E+00 0. -1.
    10030    2    1    2    0    0  0.00000000000E+00  0.00000000000E+00  0.26960782742E+04  0.39701436378E+04  0.29143099430E+04 0.  0.
        1    1    3    3  502    0  0.14046765094E+04  0.11258378801E+03  0.84287014665E+03  0.16420174450E+04  0.50400001928E-02 0. -1.
       -1    1    3    3    0  502 -0.14046765094E+04 -0.11258378801E+03  0.18532081276E+04  0.23281261928E+04  0.50400001928E-02 0.  1.
</event>
<event>
 5   0  0.3680814E-07  0.3941329E+04  0.7818609E-02  0.8016488E-01
       -2   -1    0    0    0  501  0.00000000000E+00  0.00000000000E+00  0.17743488240E+04  0.17743488240E+04  0.25500000920E-02 0.  1.
        2   -1    0    0  501    0  0.00000000000E+00  0.00000000000E+00 -0.21887006199E+04  0.21887006199E+04  0.25500000920E-02 0. -1.
    10030    2    1    2    0    0  0.00000000000E+00  0.00000000000E+00 -0.41435179591E+03  0.39630494440E+04  0.39413288983E+04 0.  0.
        1    1    3    3  502    0  0.37087554872E+03 -0.18064553905E+04 -0.90576264669E+03  0.20545646066E+04  0.50400001928E-02 0. -1.
       -1    1    3    3    0  502 -0.37087554872E+03  0.18064553905E+04  0.49141085078E+03  0.19084848374E+04  0.50400001928E-02 0.  1.
</event>
<event>
 5   0  0.1187925E-07  0.3828335E+04  0.7818609E-02  0.8040101E-01
        1   -1    0    0  501    0  0.00000000000E+00  0.00000000000E+00  0.18140497507E+04  0.18140497507E+04  0.50400001928E-02 0. -1.
       -1   -1    0    0    0  501  0.00000000000E+00  0.00000000000E+00 -0.20198111957E+04  0.20198111957E+04  0.50400001928E-02 0.  1.
    10030    2    1    2    0    0  0.00000000000E+00  0.00000000000E+00 -0.20576144496E+03  0.38338609464E+04  0.38283354064E+04 0.  0.
        1    1    3    3  502    0  0.44578392247E+03 -0.17373822833E+04  0.56652814398E+03  0.18810036262E+04  0.50400001928E-02 0. -1.
       -1    1    3    3    0  502 -0.44578392247E+03  0.17373822833E+04 -0.77228958894E+03  0.19528573202E+04  0.50400001928E-02 0.  1.
</event>
<event>
 5   0  0.3610483E-07  0.3917403E+04  0.7818609E-02  0.8021419E-01
        2   -1    0    0  501    0  0.00000000000E+00  0.00000000000E+00  0.14354761705E+04  0.14354761705E+04  0.25500000920E-02 0. -1.
       -2   -1    0    0    0  501  0.00000000000E+00  0.00000000000E+00 -0.26726409211E+04  0.26726409211E+04  0.25500000920E-02 0.  1.
    10030    2    1    2    0    0  0.00000000000E+00  0.00000000000E+00 -0.12371647505E+04  0.41081170916E+04  0.39174034025E+04 0.  0.
        4    1    3    3  502    0  0.96062307462E+03  0.87809814256E+03 -0.21536266831E+04  0.25163391152E+04  0.12699999809E+01 0.  1.
       -4    1    3    3    0  502 -0.96062307462E+03 -0.87809814256E+03  0.91646193255E+03  0.15917779764E+04  0.12699999809E+01 0. -1.
</event>
<event>
 5   0  0.3810833E-07  0.3863498E+04  0.7818609E-02  0.8032664E-01
        2   -1    0    0  501    0  0.00000000000E+00  0.00000000000E+00  0.15236155182E+04  0.15236155183E+04  0.25500000920E-02 0. -1.
       -2   -1    0    0    0  501  0.00000000000E+00  0.00000000000E+00 -0.24492105176E+04  0.24492105176E+04  0.25500000920E-02 0.  1.
    10030    2    1    2    0    0  0.00000000000E+00  0.00000000000E+00 -0.92559499939E+03  0.39728260359E+04  0.38634984934E+04 0.  0.
        3    1    3    3  502    0 -0.18991672102E+04  0.87288809544E+02 -0.81482944540E+03  0.20684299514E+04  0.10100000352E+00 0. -1.
       -3    1    3    3    0  502  0.18991672102E+04 -0.87288809544E+02 -0.11076555400E+03  0.19043960845E+04  0.10100000352E+00 0.  1.
</event>
<event>
 5   0  0.1187925E-07  0.3902013E+04  0.7818609E-02  0.8024611E-01
       -1   -1    0    0    0  501  0.00000000000E+00  0.00000000000E+00  0.29234082256E+04  0.29234082256E+04  0.50400001928E-02 0. -1.
        1   -1    0    0  501    0  0.00000000000E+00  0.00000000000E+00 -0.13020508970E+04  0.13020508970E+04  0.50400001928E-02 0.  1.
    10030    2    1    2    0    0  0.00000000000E+00  0.00000000000E+00  0.16213573286E+04  0.42254591226E+04  0.39020129689E+04 0.  0.
        3    1    3    3  502    0 -0.57665582595E+03 -0.13786247121E+04  0.21689587904E+04  0.26339172885E+04  0.10100000352E+00 0. -1.
       -3    1    3    3    0  502  0.57665582595E+03  0.13786247121E+04 -0.54760146181E+03  0.15915418340E+04  0.10100000352E+00 0.  1.
</event>
<event>
 5   0  0.1187925E-07  0.3197432E+04  0.7818609E-02  0.8189496E-01
       -1   -1    0    0    0  501  0.00000000000E+00  0.00000000000E+00  0.12472142027E+04  0.12472142027E+04  0.50400001928E-02 0.  1.
        1   -1    0    0  501    0  0.00000000000E+00  0.00000000000E+00 -0.20492810607E+04  0.20492810607E+04  0.50400001928E-02 0. -1.
    10030    2    1    2    0    0  0.00000000000E+00  0.00000000000E+00 -0.80206685801E+03  0.32964952634E+04  0.31974317470E+04 0.  0.
        5    1    3    3  502    0 -0.44683193347E+03 -0.15201610351E+04 -0.18154798182E+03  0.15948448542E+04  0.46999998093E+01 0.  1.
       -5    1    3    3    0  502  0.44683193347E+03  0.15201610351E+04 -0.62051887620E+03  0.17016504092E+04  0.46999998093E+01 0. -1.
</event>
<event>
 5   0  0.1187925E-07  0.3852089E+04  0.7818609E-02  0.8035068E-01
        1   -1    0    0  501    0  0.00000000000E+00  0.00000000000E+00  0.26166761338E+04  0.26166761338E+04  0.50400001928E-02 0. -1.
       -1   -1    0    0    0  501  0.00000000000E+00  0.00000000000E+00 -0.14176943312E+04  0.14176943312E+04  0.50400001928E-02 0.  1.
    10030    2    1    2    0    0  0.00000000000E+00  0.00000000000E+00  0.11989818026E+04  0.40343704650E+04  0.38520887432E+04 0.  0.
        4    1    3    3  502    0  0.10645794298E+04  0.83903987773E+03 -0.83358918609E+03  0.15912855881E+04  0.12699999809E+01 0.  1.
       -4    1    3    3    0  502 -0.10645794298E+04 -0.83903987773E+03  0.20325709887E+04  0.24430848769E+04  0.12699999809E+01 0. -1.
</event>
<event>
 5   0  0.3810833E-07  0.3916695E+04  0.7818609E-02  0.8021566E-01
       -2   -1    0    0    0  501  0.00000000000E+00  0.00000000000E+00  0.16961038708E+04  0.16961038708E+04  0.25500000920E-02 0.  1.
        2   -1    0    0  501    0  0.00000000000E+00  0.00000000000E+00 -0.22611376527E+04  0.22611376527E+04  0.25500000920E-02 0. -1.
    10030    2    1    2    0    0  0.00000000000E+00  0.00000000000E+00 -0.56503378190E+03  0.39572415235E+04  0.39166946908E+04 0.  0.
        3    1    3    3  502    0 -0.75409361644E+02 -0.18138096937E+04  0.45961568922E+03  0.18726555393E+04  0.10100000352E+00 0.  1.
       -3    1    3    3    0  502  0.75409361644E+02  0.18138096937E+04 -0.10246494711E+04  0.20845859842E+04  0.10100000352E+00 0. -1.
</event>
<event>
 5   0  0.3665303E-07  0.3834589E+04  0.7818609E-02  0.8038773E-01
       -2   -1    0    0    0  501  0.00000000000E+00  0.00000000000E+00  0.18974964347E+04  0.18974964347E+04  0.25500000920E-02 0.  1.
        2   -1    0    0  501    0  0.00000000000E+00  0.00000000000E+00 -0.19372989735E+04  0.19372989735E+04  0.25500000920E-02 0. -1.
    10030    2    1    2    0    0  0.00000000000E+00  0.00000000000E+00 -0.39802538793E+02  0.38347954083E+04  0.38345888412E+04 0.  0.
        2    1    3    3  502    0  0.35820881994E+03  0.13542618854E+04 -0.13290474481E+04  0.19309857411E+04  0.25500000920E-02 0. -1.
       -2    1    3    3    0  502 -0.35820881994E+03 -0.13542618854E+04  0.12892449093E+04  0.19038096672E+04  0.25500000920E-02 0.  1.
</event>
<event>
 5   0  0.3810833E-07  0.3858570E+04  0.7818609E-02  0.8033701E-01
       -2   -1    0    0    0  501  0.00000000000E+00  0.00000000000E+00  0.26509293460E+04  0.26509293460E+04  0.25500000920E-02 0.  1.
        2   -1    0    0  501    0  0.00000000000E+00  0.00000000000E+00 -0.14040889923E+04  0.14040889923E+04  0.25500000920E-02 0. -1.
    10030    2    1    2    0    0  0.00000000000E+00  0.00000000000E+00  0.12468403537E+04  0.40550183383E+04  0.38585700533E+04 0.  0.
        3    1    3    3  502    0  0.15119466760E+04  0.10362466764E+04  0.12560228645E+04  0.22220223607E+04  0.10100000352E+00 0. -1.
       -3    1    3    3    0  502 -0.15119466760E+04 -0.10362466764E+04 -0.91825107590E+01  0.18329959776E+04  0.10100000352E+00 0.  1.
</event>
<event>
 5   0  0.3665303E-07  0.3926498E+04  0.7818609E-02  0.8019541E-01
       -2   -1    0    0    0  501  0.00000000000E+00  0.00000000000E+00  0.13747976887E+04  0.13747976887E+04  0.25500000920E-02 0. -1.
        2   -1    0    0  501    0  0.00000000000E+00  0.00000000000E+00 -0.28035732325E+04  0.28035732325E+04  0.25500000920E-02 0.  1.
    10030    2    1    2    0    0  0.00000000000E+00  0.00000000000E+00 -0.14287755438E+04  0.41783709212E+04  0.39264976761E+04 0.  0.
        2    1    3    3  502    0 -0.12929484207E+04  0.14732405064E+04 -0.59688361691E+03  0.20490054320E+04  0.25500000920E-02 0. -1.
       -2    1    3    3    0  502  0.12929484207E+04 -0.14732405064E+04 -0.83189192694E+03  0.21293654892E+04  0.25500000920E-02 0.  1.
</event>
<event>
 5   0  0.3810833E-07  0.3923302E+04  0.7818609E-02  0.8020200E-01
        2   -1    0    0  501    0  0.00000000000E+00  0.00000000000E+00  0.26282606086E+04  0.26282606086E+04  0.25500000920E-02 0.  1.
       -2   -1    0    0    0  501  0.00000000000E+00  0.00000000000E+00 -0.14641145048E+04  0.14641145048E+04  0.25500000920E-02 0. -1.
    10030    2    1    2    0    0  0.00000000000E+00  0.00000000000E+00  0.11641461038E+04  0.40923751134E+04  0.39233019152E+04 0.  0.
        3    1    3    3  502    0 -0.84907436566E+03  0.17028893165E+04  0.10793953263E+04  0.21876593847E+04  0.10100000352E+00 0.  1.
       -3    1    3    3    0  502  0.84907436566E+03 -0.17028893165E+04  0.84750777516E+02  0.19047157287E+04  0.10100000352E+00 0. -1.
</event>
<event>
 5   0  0.3832389E-07  0.3840883E+04  0.7818609E-02  0.8037438E-01
        2   -1    0    0  501    0  0.00000000000E+00  0.00000000000E+00  0.25477184165E+04  0.25477184165E+04  0.25500000920E-02 0.  1.
       -2   -1    0    0    0  501  0.00000000000E+00  0.00000000000E+00 -0.14476069022E+04  0.14476069022E+04  0.25500000920E-02 0. -1.
    10030    2    1    2    0    0  0.00000000000E+00  0.00000000000E+00  0.11001115143E+04  0.39953253187E+04  0.38408825885E+04 0.  0.
        5    1    3    3  502    0 -0.10206933987E+04 -0.38364636698E+03 -0.10943560942E+04  0.15448743962E+04  0.46999998093E+01 0. -1.
       -5    1    3    3    0  502  0.10206933987E+04  0.38364636698E+03  0.21944676085E+04  0.24504509225E+04  0.46999998093E+01 0.  1.
</event>
<event>
 5   0  0.3610483E-07  0.3890727E+04  0.7818609E-02  0.8026961E-01
        2   -1    0    0  501    0  0.00000000000E+00  0.00000000000E+00  0.10995180816E+04  0.10995180816E+04  0.25500000920E-02 0. -1.
       -2   -1    0    0    0  501  0.00000000000E+00  0.00000000000E+00 -0.34419075583E+04  0.34419075583E+04  0.25500000920E-02 0.  1.
    10030    2    1    2    0    0  0.00000000000E+00  0.00000000000E+00 -0.23423894767E+04  0.45414256398E+04  0.38907272305E+04 0.  0.
        4    1    3    3  502    0  0.31014067490E+03 -0.10508556720E+04 -0.30475010370E+04  0.32384794372E+04  0.12699999809E+01 0.  1.
       -4    1    3    3    0  502 -0.31014067490E+03  0.10508556720E+04  0.70511156032E+03  0.13029462027E+04  0.12699999809E+01 0. -1.
</event>
<event>
 5   0  0.3610483E-07  0.3949094E+04  0.7818609E-02  0.8014895E-01
        2   -1    0    0  501    0  0.00000000000E+00  0.00000000000E+00  0.20681525518E+04  0.20681525518E+04  0.25500000920E-02 0. -1.
       -2   -1    0    0    0  501  0.00000000000E+00  0.00000000000E+00 -0.18851784245E+04  0.18851784245E+04  0.25500000920E-02 0.  1.
    10030    2    1    2    0    0  0.00000000000E+00  0.00000000000E+00  0.18297412730E+03  0.39533309763E+04  0.39490943616E+04 0.  0.
        4    1    3    3  502    0  0.16970055656E+04  0.90403116300E+03 -0.35814367347E+03  0.19558549888E+04  0.12699999809E+01 0.  1.
       -4    1    3    3    0  502 -0.16970055656E+04 -0.90403116300E+03  0.54111780077E+03  0.19974759875E+04  0.12699999809E+01 0. -1.
</event>
<event>
 5   0  0.1187925E-07  0.3880033E+04  0.7818609E-02  0.8029195E-01
       -1   -1    0    0    0  501  0.00000000000E+00  0.00000000000E+00  0.18328406192E+04  0.18328406192E+04  0.50400001928E-02 0. -1.
        1   -1    0    0  501    0  0.00000000000E+00  0.00000000000E+00 -0.20534592312E+04  0.20534592312E+04  0.50400001928E-02 0.  1.
    10030    2    1    2    0    0  0.00000000000E+00  0.00000000000E+00 -0.22061861192E+03  0.38862998504E+04  0.38800327261E+04 0.  0.
        1    1    3    3  502    0 -0.59749667798E+03 -0.36194095583E+03 -0.19231111021E+04  0.20460595903E+04  0.50400001928E-02 0.  1.
       -1    1    3    3    0  502  0.59749667798E+03  0.36194095583E+03  0.17024924902E+04  0.18402402601E+04  0.50400001928E-02 0. -1.
</event>
<event>
 5   0  0.3665303E-07  0.3880701E+04  0.7818609E-02  0.8029055E-01
        2   -1    0    0  501    0  0.00000000000E+00  0.00000000000E+00  0.16100183643E+04  0.16100183643E+04  0.25500000920E-02 0.  1.
       -2   -1    0    0    0  501  0.00000000000E+00  0.00000000000E+00 -0.23384573426E+04  0.23384573426E+04  0.25500000920E-02 0. -1.
    10030    2    1    2    0    0  0.00000000000E+00  0.00000000000E+00 -0.72843897830E+03  0.39484757069E+04  0.38807005891E+04 0.  0.
        2    1    3    3  502    0  0.57349450334E+03  0.16649463239E+04 -0.11933233778E+04  0.21271960161E+04  0.25500000920E-02 0. -1.
       -2    1    3    3    0  502 -0.57349450334E+03 -0.16649463239E+04  0.46488439950E+03  0.18212796907E+04  0.25500000920E-02 0.  1.
</event>
<event>
 5   0  0.1187925E-07  0.3896563E+04  0.7818609E-02  0.8025745E-01
       -1   -1    0    0    0  501  0.00000000000E+00  0.00000000000E+00  0.16015657530E+04  0.16015657530E+04  0.50400001928E-02 0. -1.
        1   -1    0    0  501    0  0.00000000000E+00  0.00000000000E+00 -0.23700556323E+04  0.23700556323E+04  0.50400001928E-02 0.  1.
    10030    2    1    2    0    0  0.00000000000E+00  0.00000000000E+00 -0.76848987928E+03  0.39716213853E+04  0.38965625535E+04 0.  0.
        5    1    3    3  502    0 -0.91655836994E+03 -0.11766542827E+04 -0.16618588001E+04  0.22330229080E+04  0.46999998093E+01 0.  1.
       -5    1    3    3    0  502  0.91655836994E+03  0.11766542827E+04  0.89336892078E+03  0.17385984773E+04  0.46999998093E+01 0. -1.
</event>
<event>
 5   0  0.1187925E-07  0.3872198E+04  0.7818609E-02  0.8030837E-01
        1   -1    0    0  501    0  0.00000000000E+00  0.00000000000E+00  0.24084094805E+04  0.24084094805E+04  0.50400001928E-02 0.  1.
       -1   -1    0    0    0  501  0.00000000000E+00  0.00000000000E+00 -0.15564125533E+04  0.15564125533E+04  0.50400001928E-02 0. -1.
    10030    2    1    2    0    0  0.00000000000E+00  0.00000000000E+00  0.85199692718E+03  0.39648220338E+04  0.38721976959E+04 0.  0.
        1    1    3    3  502    0  0.91717741180E+02 -0.60712573170E+03  0.23060748753E+04  0.23864188922E+04  0.50400001928E-02 0.  1.
       -1    1    3    3    0  502 -0.91717741180E+02  0.60712573170E+03 -0.14540779482E+04  0.15784031416E+04  0.50400001928E-02 0. -1.
</event>
<event>
 5   0  0.1187925E-07  0.3838779E+04  0.7818609E-02  0.8037884E-01
       -1   -1    0    0    0  501  0.00000000000E+00  0.00000000000E+00  0.19072963874E+04  0.19072963874E+04  0.50400001928E-02 0. -1.
        1   -1    0    0  501    0  0.00000000000E+00  0.00000000000E+00 -0.19315594414E+04  0.19315594415E+04  0.50400001928E-02 0.  1.
    10030    2    1    2    0    0  0.00000000000E+00  0.00000000000E+00 -0.24263054035E+02  0.38388558289E+04  0.38387791522E+04 0.  0.
        5    1    3    3  502    0  0.36848880109E+03 -0.15173364307E+04 -0.11283708330E+04  0.19264829787E+04  0.46999998093E+01 0. -1.
       -5    1    3    3    0  502 -0.36848880109E+03  0.15173364307E+04  0.11041077789E+04  0.19123728502E+04  0.46999998093E+01 0.  1.
</event>
<event>
 5   0  0.3680814E-07  0.3763682E+04  0.7818609E-02  0.8053994E-01
       -2   -1    0    0    0  501  0.00000000000E+00  0.00000000000E+00  0.16631365152E+04  0.16631365152E+04  0.25500000920E-02 0.  1.
        2   -1    0    0  501    0  0.00000000000E+00  0.00000000000E+00 -0.21293058958E+04  0.21293058958E+04  0.25500000920E-02 0. -1.
    10030    2    1    2    0    0  0.00000000000E+00  0.00000000000E+00 -0.46616938056E+03  0.37924424109E+04  0.37636824453E+04 0.  0.
        1    1    3    3  502    0  0.12397468449E+04 -0.56647267339E+03  0.10743132331E+04  0.17355150394E+04  0.50400001928E-02 0.  1.
       -1    1    3    3    0  502 -0.12397468449E+04  0.56647267339E+03 -0.15404826136E+04  0.20569273716E+04  0.50400001928E-02 0. -1.
</event>
<event>
 5   0  0.3810833E-07  0.3904741E+04  0.7818609E-02  0.8024044E-01
       -2   -1    0    0    0  501  0.00000000000E+00  0.00000000000E+00  0.18637282040E+04  0.18637282040E+04  0.25500000920E-02 0.  1.
        2   -1    0    0  501    0  0.00000000000E+00  0.00000000000E+00 -0.20452285877E+04  0.20452285877E+04  0.25500000920E-02 0. -1.
    10030    2    1    2    0    0  0.00000000000E+00  0.00000000000E+00 -0.18150038375E+03  0.39089567917E+04  0.39047408121E+04 0.  0.
        3    1    3    3  502    0  0.39501671747E+03  0.16248019413E+04 -0.10996729866E+04  0.20013246221E+04  0.10100000352E+00 0. -1.
       -3    1    3    3    0  502 -0.39501671747E+03 -0.16248019413E+04  0.91817260280E+03  0.19076321696E+04  0.10100000352E+00 0.  1.
</event>
<event>
 5   0  0.3832389E-07  0.3943071E+04  0.7818609E-02  0.8016130E-01
        2   -1    0    0  501    0  0.00000000000E+00  0.00000000000E+00  0.14013109401E+04  0.14013109401E+04  0.25500000920E-02 0. -1.
       -2   -1    0    0    0  501  0.00000000000E+00  0.00000000000E+00 -0.27737978016E+04  0.27737978016E+04  0.25500000920E-02 0.  1.
    10030    2    1    2    0    0  0.00000000000E+00  0.00000000000E+00 -0.13724868615E+04  0.41751087416E+04  0.39430714956E+04 0.  0.
        5    1    3    3  502    0  0.77509897271E+03 -0.67615259431E+03 -0.24671754357E+04  0.26730015841E+04  0.46999998093E+01 0.  1.
       -5    1    3    3    0  502 -0.77509897271E+03  0.67615259431E+03  0.10946885742E+04  0.15021071575E+04  0.46999998093E+01 0. -1.
</event>
<event>
 5   0  0.1187925E-07  0.3808292E+04  0.7818609E-02  0.8044378E-01
        1   -1    0    0  501    0  0.00000000000E+00  0.00000000000E+00  0.24744695952E+04  0.24744695952E+04  0.50400001928E-02 0.  1.
       -1   -1    0    0    0  501  0.00000000000E+00  0.00000000000E+00 -0.14652722696E+04  0.14652722696E+04  0.50400001928E-02 0. -1.
    10030    2    1    2    0    0  0.00000000000E+00  0.00000000000E+00  0.10091973256E+04  0.39397418649E+04  0.38082918375E+04 0.  0.
        5    1    3    3  502    0  0.40093014235E+03 -0.85768652869E+03 -0.12045090065E+04  0.15320689271E+04  0.46999998093E+01 0. -1.
       -5    1    3    3    0  502 -0.40093014235E+03  0.85768652869E+03  0.22137063321E+04  0.24076729378E+04  0.46999998093E+01 0.  1.
</event>
<event>
 5   0  0.3810833E-07  0.3665844E+04  0.7818609E-02  0.8075574E-01
        2   -1    0    0  501    0  0.00000000000E+00  0.00000000000E+00  0.11910665327E+04  0.11910665327E+04  0.25500000920E-02 0. -1.
       -2   -1    0    0    0  501  0.00000000000E+00  0.00000000000E+00 -0.28206670764E+04  0.28206670764E+04  0.25500000920E-02 0.  1.
    10030    2    1    2    0    0  0.00000000000E+00  0.00000000000E+00 -0.16296005437E+04  0.40117336092E+04  0.36658435072E+04 0.  0.
        3    1    3    3  502    0 -0.25939662229E+03 -0.17860320303E+04 -0.46459796016E+03  0.18636116269E+04  0.10100000352E+00 0. -1.
       -3    1    3    3    0  502  0.25939662229E+03  0.17860320303E+04 -0.11650025836E+04  0.21481219823E+04  0.10100000352E+00 0.  1.
</event>
<event>
 5   0  0.3610483E-07  0.3904998E+04  0.7818609E-02  0.8023990E-01
       -2   -1    0    0    0  501  0.00000000000E+00  0.00000000000E+00  0.32507960962E+04  0.32507960962E+04  0.25500000920E-02 0. -1.
        2   -1    0    0  501    0  0.00000000000E+00  0.00000000000E+00 -0.11727135320E+04  0.11727135320E+04  0.25500000920E-02 0.  1.
    10030    2    1    2    0    0  0.00000000000E+00  0.00000000000E+00  0.20780825642E+04  0.44235096281E+04  0.39049981161E+04 0.  0.
        4    1    3    3  502    0  0.17800584623E+04 -0.23055178310E+03  0.16857501521E+03  0.18028259490E+04  0.12699999809E+01 0.  1.
       -4    1    3    3    0  502 -0.17800584623E+04  0.23055178310E+03  0.19095075490E+04  0.26206836791E+04  0.12699999809E+01 0. -1.
</event>
<event>
 5   0  0.3832389E-07  0.3977885E+04  0.7818609E-02  0.8009023E-01
        2   -1    0    0  501    0  0.00000000000E+00  0.00000000000E+00  0.14798147923E+04  0.14798147923E+04  0.25500000920E-02 0.  1.
       -2   -1    0    0    0  501  0.00000000000E+00  0.00000000000E+00 -0.26732346221E+04  0.26732346221E+04  0.25500000920E-02 0. -1.
    10030    2    1    2    0    0  0.00000000000E+00  0.00000000000E+00 -0.11934198298E+04  0.41530494143E+04  0.39778849340E+04 0.  0.
        5    1    3    3  502    0 -0.81408975918E+03  0.62843270823E+03  0.11806651224E+04  0.15657784090E+04  0.46999998093E+01 0.  1.
       -5    1    3    3    0  502  0.81408975918E+03 -0.62843270823E+03 -0.23740849522E+04  0.25872710054E+04  0.46999998093E+01 0. -1.
</event>
<event>
 5   0  0.1187925E-07  0.3797748E+04  0.7818609E-02  0.8046638E-01
        1   -1    0    0  501    0  0.00000000000E+00  0.00000000000E+00  0.12043457459E+04  0.12043457459E+04  0.50400001928E-02 0. -1.
       -1   -1    0    0    0  501  0.00000000000E+00  0.00000000000E+00 -0.29939268944E+04  0.29939268944E+04  0.50400001928E-02 0.  1.
    10030    2    1    2    0    0  0.00000000000E+00  0.00000000000E+00 -0.17895811485E+04  0.41982726403E+04  0.37977483428E+04 0.  0.
        5    1    3    3  502    0 -0.99562081195E+03 -0.13006583793E+04  0.16710376919E+03  0.16464867994E+04  0.46999998093E+01 0.  1.
       -5    1    3    3    0  502  0.99562081195E+03  0.13006583793E+04 -0.19566849177E+04  0.25517858409E+04  0.46999998093E+01 0. -1.
</event>
<event>
 5   0  0.3810833E-07  0.3887703E+04  0.7818609E-02  0.8027592E-01
       -2   -1    0    0    0  501  0.00000000000E+00  0.00000000000E+00  0.22338846768E+04  0.22338846768E+04  0.25500000920E-02 0. -1.
        2   -1    0    0  501    0  0.00000000000E+00  0.00000000000E+00 -0.16914740948E+04  0.16914740948E+04  0.25500000920E-02 0.  1.
    10030    2    1    2    0    0  0.00000000000E+00  0.00000000000E+00  0.54241058207E+03  0.39253587716E+04  0.38877026952E+04 0.  0.
        3    1    3    3  502    0  0.49592542791E+03 -0.92109475262E+03  0.19254272659E+04  0.21912616776E+04  0.10100000352E+00 0. -1.
       -3    1    3    3    0  502 -0.49592542791E+03  0.92109475262E+03 -0.13830166838E+04  0.17340970940E+04  0.10100000352E+00 0.  1.
</event>
<event>
 5   0  0.3680814E-07  0.3898273E+04  0.7818609E-02  0.8025388E-01
       -2   -1    0    0    0  501  0.00000000000E+00  0.00000000000E+00  0.25891684657E+04  0.25891684657E+04  0.25500000920E-02 0. -1.
        2   -1    0    0  501    0  0.00000000000E+00  0.00000000000E+00 -0.14673179361E+04  0.14673179361E+04  0.25500000920E-02 0.  1.
    10030    2    1    2    0    0  0.00000000000E+00  0.00000000000E+00  0.11218505296E+04  0.40564864018E+04  0.38982731199E+04 0.  0.
        1    1    3    3  502    0  0.59970464249E+03 -0.95388368955E+03 -0.10940943154E+04  0.15705356164E+04  0.50400001928E-02 0.  1.
       -1    1    3    3    0  502 -0.59970464249E+03  0.95388368955E+03  0.22159448450E+04  0.24859507854E+04  0.50400001928E-02 0. -1.
</event>
<event>
 5   0  0.3610483E-07  0.3786613E+04  0.7818609E-02  0.8049034E-01
        2   -1    0    0  501    0  0.00000000000E+00  0.00000000000E+00  0.20684159324E+04  0.20684159324E+04  0.25500000920E-02 0. -1.
       -2   -1    0    0    0  501  0.00000000000E+00  0.00000000000E+00 -0.17330211773E+04  0.17330211773E+04  0.25500000920E-02 0.  1.
    10030    2    1    2    0    0  0.00000000000E+00  0.00000000000E+00  0.33539475518E+03  0.38014371097E+04  0.37866125307E+04 0.  0.
        4    1    3    3  502    0  0.34191917525E+03  0.58489788038E+03 -0.16071586818E+04  0.17441258252E+04  0.12699999809E+01 0.  1.
       -4    1    3    3    0  502 -0.34191917525E+03 -0.58489788038E+03  0.19425534370E+04  0.20573112845E+04  0.12699999809E+01 0. -1.
</event>
<event>
 5   0  0.3680814E-07  0.3877691E+04  0.7818609E-02  0.8029685E-01
       -2   -1    0    0    0  501  0.00000000000E+00  0.00000000000E+00  0.15466523046E+04  0.15466523046E+04  0.25500000920E-02 0. -1.
        2   -1    0    0  501    0  0.00000000000E+00  0.00000000000E+00 -0.24304896357E+04  0.24304896357E+04  0.25500000920E-02 0.  1.
    10030    2    1    2    0    0  0.00000000000E+00  0.00000000000E+00 -0.88383733101E+03  0.39771419403E+04  0.38776912700E+04 0.  0.
        1    1    3    3  502    0  0.77899548842E+03  0.32066623926E+03  0.13491384918E+04  0.15905456542E+04  0.50400001928E-02 0. -1.
       -1    1    3    3    0  502 -0.77899548842E+03 -0.32066623926E+03 -0.22329758228E+04  0.23865962862E+04  0.50400001928E-02 0.  1.
</event>
<event>
 5   0  0.3810833E-07  0.3900935E+04  0.7818609E-02  0.8024835E-01
       -2   -1    0    0    0  501  0.00000000000E+00  0.00000000000E+00  0.21519359201E+04  0.21519359201E+04  0.25500000920E-02 0. -1.
        2   -1    0    0  501    0  0.00000000000E+00  0.00000000000E+00 -0.17678605280E+04  0.17678605280E+04  0.25500000920E-02 0.  1.
    10030    2    1    2    0    0  0.00000000000E+00  0.00000000000E+00  0.38407539210E+03  0.39197964481E+04  0.39009345403E+04 0.  0.
        3    1    3    3  502    0 -0.46663954324E+03 -0.40735364049E+03 -0.16664004020E+04  0.17778019467E+04  0.10100000352E+00 0.  1.
       -3    1    3    3    0  502  0.46663954324E+03  0.40735364049E+03  0.20504757941E+04  0.21419945014E+04  0.10100000352E+00 0. -1.
</event>
<event>
 5   0  0.3665303E-07  0.3345449E+04  0.7818609E-02  0.8151426E-01
        2   -1    0    0  501    0  0.00000000000E+00  0.00000000000E+00  0.22136423385E+04  0.22136423385E+04  0.25500000920E-02 0. -1.
       -2   -1    0    0    0  501  0.00000000000E+00  0.00000000000E+00 -0.12639835446E+04  0.12639835446E+04  0.25500000920E-02 0.  1.
    10030    2    1    2    0    0  0.00000000000E+00  0.00000000000E+00  0.94965879393E+03  0.34776258832E+04  0.33454491415E+04 0.  0.
        2    1    3    3  502    0 -0.37339454033E+03  0.94526839039E+03  0.18558722036E+04  0.21159436308E+04  0.25500000920E-02 0. -1.
       -2    1    3    3    0  502  0.37339454033E+03 -0.94526839039E+03 -0.90621340965E+03  0.13616822524E+04  0.25500000920E-02 0.  1.
</event>
<event>
 5   0  0.3680814E-07  0.3464077E+04  0.7818609E-02  0.8122356E-01
        2   -1    0    0  501    0  0.00000000000E+00  0.00000000000E+00  0.24851777891E+04  0.24851777891E+04  0.25500000920E-02 0. -1.
       -2   -1    0    0    0  501  0.00000000000E+00  0.00000000000E+00 -0.12071399533E+04  0.12071399533E+04  0.25500000920E-02 0.  1.
    10030    2    1    2    0    0  0.00000000000E+00  0.00000000000E+00  0.12780378358E+04  0.36923177424E+04  0.34640770201E+04 0.  0.
        1    1    3    3  502    0  0.99999188472E+03 -0.46270932535E+03 -0.78539726728E+03  0.13531195648E+04  0.50400001928E-02 0.  1.
       -1    1    3    3    0  502 -0.99999188472E+03  0.46270932535E+03  0.20634351031E+04  0.23391981776E+04  0.50400001928E-02 0. -1.
</event>
<event>
 5   0  0.3665303E-07  0.3899492E+04  0.7818609E-02  0.8025135E-01
       -2   -1    0    0    0  501  0.00000000000E+00  0.00000000000E+00  0.16437299263E+04  0.16437299263E+04  0.25500000920E-02 0.  1.
        2   -1    0    0  501    0  0.00000000000E+00  0.00000000000E+00 -0.23127341543E+04  0.23127341543E+04  0.25500000920E-02 0. -1.
    10030    2    1    2    0    0  0.00000000000E+00  0.00000000000E+00 -0.66900422798E+03  0.39564640806E+04  0.38994924495E+04 0.  0.
        2    1    3    3  502    0  0.12571005965E+04  0.86658709077E+03 -0.15647498043E+04  0.21862563998E+04  0.25500000920E-02 0. -1.
       -2    1    3    3    0  502 -0.12571005965E+04 -0.86658709077E+03  0.89574557627E+03  0.17702076808E+04  0.25500000920E-02 0.  1.
</event>
<event>
 5   0  0.1187925E-07  0.3091725E+04  0.7818609E-02  0.8218012E-01
        1   -1    0    0  501    0  0.00000000000E+00  0.00000000000E+00  0.20574984834E+04  0.20574984834E+04  0.50400001928E-02 0. -1.
       -1   -1    0    0    0  501  0.00000000000E+00  0.00000000000E+00 -0.11614548510E+04  0.11614548510E+04  0.50400001928E-02 0.  1.
    10030    2    1    2    0    0  0.00000000000E+00  0.00000000000E+00  0.89604363245E+03  0.32189533344E+04  0.30917254693E+04 0.  0.
        1    1    3    3  502    0 -0.55726600477E+03  0.76144858691E+03  0.17228866622E+04  0.19643542963E+04  0.50400001928E-02 0. -1.
       -1    1    3    3    0  502  0.55726600477E+03 -0.76144858691E+03 -0.82684302972E+03  0.12545990381E+04  0.50400001928E-02 0.  1.
</event>
<event>
 5   0  0.1187925E-07  0.3906764E+04  0.7818609E-02  0.8023624E-01
        1   -1    0    0  501    0  0.00000000000E+00  0.00000000000E+00  0.22244474724E+04  0.22244474724E+04  0.50400001928E-02 0.  1.
       -1   -1    0    0    0  501  0.00000000000E+00  0.00000000000E+00 -0.17153482856E+04  0.17153482856E+04  0.50400001928E-02 0. -1.
    10030    2    1    2    0    0  0.00000000000E+00  0.00000000000E+00  0.50909918674E+03  0.39397957580E+04  0.39067644711E+04 0.  0.
        2    1    3    3  502    0  0.75583960867E+03 -0.49639924076E+03 -0.14915621573E+04  0.17442658597E+04  0.25500000920E-02 0. -1.
       -2    1    3    3    0  502 -0.75583960867E+03  0.49639924076E+03  0.20006613441E+04  0.21955298982E+04  0.25500000920E-02 0.  1.
</event>
<event>
 5   0  0.1187925E-07  0.3889871E+04  0.7818609E-02  0.8027139E-01
       -1   -1    0    0    0  501  0.00000000000E+00  0.00000000000E+00  0.23363723183E+04  0.23363723183E+04  0.50400001928E-02 0. -1.
        1   -1    0    0  501    0  0.00000000000E+00  0.00000000000E+00 -0.16190805801E+04  0.16190805801E+04  0.50400001928E-02 0.  1.
    10030    2    1    2    0    0  0.00000000000E+00  0.00000000000E+00  0.71729173821E+03  0.39554528984E+04  0.38898714881E+04 0.  0.
        4    1    3    3  502    0 -0.74370959691E+03 -0.92164435984E+03 -0.12101680823E+04  0.16932337969E+04  0.12699999809E+01 0.  1.
       -4    1    3    3    0  502  0.74370959691E+03  0.92164435984E+03  0.19274598205E+04  0.22622191015E+04  0.12699999809E+01 0. -1.
</event>
<event>
 5   0  0.1187925E-07  0.3940307E+04  0.7818609E-02  0.8016698E-01
       -3   -1    0    0    0  501  0.00000000000E+00  0.00000000000E+00  0.16780663180E+04  0.16780663211E+04  0.10100000352E+00 0. -1.
        3   -1    0    0  501    0  0.00000000000E+00  0.00000000000E+00 -0.23130821926E+04  0.23130821949E+04  0.10100000352E+00 0.  1.
    10030    2    1    2    0    0  0.00000000000E+00  0.00000000000E+00 -0.63501587461E+03  0.39911485159E+04  0.39403072615E+04 0.  0.
        4    1    3    3  502    0 -0.85794289931E+03  0.16855724568E+04 -0.87624409925E+03  0.20844725616E+04  0.12699999809E+01 0.  1.
       -4    1    3    3    0  502  0.85794289931E+03 -0.16855724568E+04  0.24122822464E+03  0.19066759544E+04  0.12699999809E+01 0. -1.
</event>
<event>
 5   0  0.3810833E-07  0.3927522E+04  0.7818609E-02  0.8019329E-01
        2   -1    0    0  501    0  0.00000000000E+00  0.00000000000E+00  0.14087608183E+04  0.14087608183E+04  0.25500000920E-02 0.  1.
       -2   -1    0    0    0  501  0.00000000000E+00  0.00000000000E+00 -0.27374115159E+04  0.27374115159E+04  0.25500000920E-02 0. -1.
    10030    2    1    2    0    0  0.00000000000E+00  0.00000000000E+00 -0.13286506977E+04  0.41461723342E+04  0.39275224186E+04 0.  0.
        3    1    3    3  502    0 -0.88100147675E+03  0.70255319056E+03 -0.23621562975E+04  0.26171600966E+04  0.10100000352E+00 0. -1.
       -3    1    3    3    0  502  0.88100147675E+03 -0.70255319056E+03  0.10335055998E+04  0.15290122376E+04  0.10100000352E+00 0.  1.
</event>
<event>
 5   0  0.3810833E-07  0.3989459E+04  0.7818609E-02  0.8006676E-01
       -2   -1    0    0    0  501  0.00000000000E+00  0.00000000000E+00  0.24288434651E+04  0.24288434651E+04  0.25500000920E-02 0.  1.
        2   -1    0    0  501    0  0.00000000000E+00  0.00000000000E+00 -0.16382059871E+04  0.16382059871E+04  0.25500000920E-02 0. -1.
    10030    2    1    2    0    0  0.00000000000E+00  0.00000000000E+00  0.79063747799E+03  0.40670494522E+04  0.39894590642E+04 0.  0.
        3    1    3    3  502    0 -0.89194119172E+03 -0.17016636349E+04 -0.15151620868E+03  0.19272196002E+04  0.10100000352E+00 0.  1.
       -3    1    3    3    0  502  0.89194119172E+03  0.17016636349E+04  0.94215368668E+03  0.21398298520E+04  0.10100000352E+00 0. -1.
</event>
<event>
 5   0  0.1187925E-07  0.3718862E+04  0.7818609E-02  0.8063795E-01
       -1   -1    0    0    0  501  0.00000000000E+00  0.00000000000E+00  0.16257826880E+04  0.16257826880E+04  0.50400001928E-02 0.  1.
        1   -1    0    0  501    0  0.00000000000E+00  0.00000000000E+00 -0.21266579821E+04  0.21266579821E+04  0.50400001928E-02 0. -1.
    10030    2    1    2    0    0  0.00000000000E+00  0.00000000000E+00 -0.50087529411E+03  0.37524406702E+04  0.37188620467E+04 0.  0.
        3    1    3    3  502    0 -0.17596461913E+04 -0.53686843306E+03  0.22002662806E+02  0.18398550378E+04  0.10100000352E+00 0. -1.
       -3    1    3    3    0  502  0.17596461913E+04  0.53686843306E+03 -0.52287795692E+03  0.19125856323E+04  0.10100000352E+00 0.  1.
</event>
<event>
 5   0  0.1187925E-07  0.3911066E+04  0.7818609E-02  0.8022732E-01
        1   -1    0    0  501    0  0.00000000000E+00  0.00000000000E+00  0.15023516907E+04  0.15023516907E+04  0.50400001928E-02 0. -1.
       -1   -1    0    0    0  501  0.00000000000E+00  0.00000000000E+00 -0.25454154665E+04  0.25454154665E+04  0.50400001928E-02 0.  1.
    10030    2    1    2    0    0  0.00000000000E+00  0.00000000000E+00 -0.10430637758E+04  0.40477671572E+04  0.39110659568E+04 0.  0.
        4    1    3    3  502    0 -0.12671499644E+04 -0.13922685195E+04  0.26139812562E+02  0.18827547810E+04  0.12699999809E+01 0. -1.
       -4    1    3    3    0  502  0.12671499644E+04  0.13922685195E+04 -0.10692035884E+04  0.21650123762E+04  0.12699999809E+01 0.  1.
</event>
<event>
 5   0  0.1187925E-07  0.3904596E+04  0.7818609E-02  0.8024074E-01
        1   -1    0    0  501    0  0.00000000000E+00  0.00000000000E+00  0.20167489304E+04  0.20167489304E+04  0.50400001928E-02 0. -1.
       -1   -1    0    0    0  501  0.00000000000E+00  0.00000000000E+00 -0.18899069439E+04  0.18899069439E+04  0.50400001928E-02 0.  1.
    10030    2    1    2    0    0  0.00000000000E+00  0.00000000000E+00  0.12684198650E+03  0.39066558743E+04  0.39045961674E+04 0.  0.
        5    1    3    3  502    0 -0.24917071710E+03 -0.16087683435E+04 -0.10147485306E+04  0.19183217404E+04  0.46999998093E+01 0.  1.
       -5    1    3    3    0  502  0.24917071710E+03  0.16087683435E+04  0.11415905171E+04  0.19883341339E+04  0.46999998093E+01 0. -1.
</event>
<event>
 5   0  0.3610483E-07  0.4059646E+04  0.7818609E-02  0.7992621E-01
        2   -1    0    0  501    0  0.00000000000E+00  0.00000000000E+00  0.12248280926E+04  0.12248280926E+04  0.25500000920E-02 0.  1.
       -2   -1    0    0    0  501  0.00000000000E+00  0.00000000000E+00 -0.33638854703E+04  0.33638854703E+04  0.25500000920E-02 0. -1.
    10030    2    1    2    0    0  0.00000000000E+00  0.00000000000E+00 -0.21390573777E+04  0.45887135629E+04  0.40596460064E+04 0.  0.
        4    1    3    3  502    0 -0.12942087630E+04 -0.29080709245E+03  0.66714081866E+03  0.14847974852E+04  0.12699999809E+01 0.  1.
       -4    1    3    3    0  502  0.12942087630E+04  0.29080709245E+03 -0.28061981964E+04  0.31039160777E+04  0.12699999809E+01 0. -1.
</event>
<event>
 5   0  0.3610483E-07  0.3929897E+04  0.7818609E-02  0.8018840E-01
       -2   -1    0    0    0  501  0.00000000000E+00  0.00000000000E+00  0.12422325012E+04  0.12422325012E+04  0.25500000920E-02 0. -1.
        2   -1    0    0  501    0  0.00000000000E+00  0.00000000000E+00 -0.31081319586E+04  0.31081319586E+04  0.25500000920E-02 0.  1.
    10030    2    1    2    0    0  0.00000000000E+00  0.00000000000E+00 -0.18658994574E+04  0.43503644598E+04  0.39298969640E+04 0.  0.
        4    1    3    3  502    0  0.11858691091E+04  0.36760061792E+03 -0.26189262094E+04  0.28983084483E+04  0.12699999809E+01 0.  1.
       -4    1    3    3    0  502 -0.11858691091E+04 -0.36760061792E+03  0.75302675203E+03  0.14520560115E+04  0.12699999809E+01 0. -1.
</event>
<event>
 5   0  0.3810833E-07  0.3459409E+04  0.7818609E-02  0.8123477E-01
       -2   -1    0    0    0  501  0.00000000000E+00  0.00000000000E+00  0.10753294588E+04  0.10753294588E+04  0.25500000920E-02 0.  1.
        2   -1    0    0  501    0  0.00000000000E+00  0.00000000000E+00 -0.27822898102E+04  0.27822898102E+04  0.25500000920E-02 0. -1.
    10030    2    1    2    0    0  0.00000000000E+00  0.00000000000E+00 -0.17069603514E+04  0.38576192690E+04  0.34594093113E+04 0.  0.
        3    1    3    3  502    0  0.12030121497E+04  0.11367990448E+04 -0.14136246242E+04  0.21766683001E+04  0.10100000352E+00 0. -1.
       -3    1    3    3    0  502 -0.12030121497E+04 -0.11367990448E+04 -0.29333572724E+03  0.16809509689E+04  0.10100000352E+00 0.  1.
</event>
<event>
 5   0  0.1187925E-07  0.3902666E+04  0.7818609E-02  0.8024475E-01
       -1   -1    0    0    0  501  0.00000000000E+00  0.00000000000E+00  0.22549938244E+04  0.22549938245E+04  0.50400001928E-02 0. -1.
        1   -1    0    0  501    0  0.00000000000E+00  0.00000000000E+00 -0.16885638113E+04  0.16885638113E+04  0.50400001928E-02 0.  1.
    10030    2    1    2    0    0  0.00000000000E+00  0.00000000000E+00  0.56643001315E+03  0.39435576358E+04  0.39026662510E+04 0.  0.
        1    1    3    3  502    0 -0.11504187720E+04  0.83984861967E+03  0.16309408613E+04  0.21653584341E+04  0.50400001928E-02 0. -1.
       -1    1    3    3    0  502  0.11504187720E+04 -0.83984861967E+03 -0.10645108482E+04  0.17781992017E+04  0.50400001928E-02 0.  1.
</event>
<event>
 5   0  0.3610483E-07  0.2981916E+04  0.7818609E-02  0.8248914E-01
        2   -1    0    0  501    0  0.00000000000E+00  0.00000000000E+00  0.13161570029E+04  0.13161570029E+04  0.25500000920E-02 0. -1.
       -2   -1    0    0    0  501  0.00000000000E+00  0.00000000000E+00 -0.16889740619E+04  0.16889740619E+04  0.25500000920E-02 0.  1.
    10030    2    1    2    0    0  0.00000000000E+00  0.00000000000E+00 -0.37281705893E+03  0.30051310648E+04  0.29819155181E+04 0.  0.
        4    1    3    3  502    0 -0.14524772873E+04 -0.21722426568E+03  0.72646782067E+02  0.14704270874E+04  0.12699999809E+01 0. -1.
       -4    1    3    3    0  502  0.14524772873E+04  0.21722426568E+03 -0.44546384100E+03  0.15347039774E+04  0.12699999809E+01 0.  1.
</event>
<event>
 5   0  0.1187925E-07  0.3929581E+04  0.7818609E-02  0.8018905E-01
       -1   -1    0    0    0  501  0.00000000000E+00  0.00000000000E+00  0.18897941959E+04  0.18897941959E+04  0.50400001928E-02 0.  1.
        1   -1    0    0  501    0  0.00000000000E+00  0.00000000000E+00 -0.20427631789E+04  0.20427631789E+04  0.50400001928E-02 0. -1.
    10030    2    1    2    0    0  0.00000000000E+00  0.00000000000E+00 -0.15296898303E+03  0.39325573748E+04  0.39295811477E+04 0.  0.
        4    1    3    3  502    0 -0.61164179845E+03  0.11968016765E+04 -0.15107344424E+04  0.20220682756E+04  0.12699999809E+01 0. -1.
       -4    1    3    3    0  502  0.61164179845E+03 -0.11968016765E+04  0.13577654594E+04  0.19104890992E+04  0.12699999809E+01 0.  1.
</event>
<event>
 5   0  0.3680814E-07  0.4043876E+04  0.7818609E-02  0.7995753E-01
        2   -1    0    0  501    0  0.00000000000E+00  0.00000000000E+00  0.20818956445E+04  0.20818956445E+04  0.25500000920E-02 0.  1.
       -2   -1    0    0    0  501  0.00000000000E+00  0.00000000000E+00 -0.19637073308E+04  0.19637073308E+04  0.25500000920E-02 0. -1.
    10030    2    1    2    0    0  0.00000000000E+00  0.00000000000E+00  0.11818831376E+03  0.40456029753E+04  0.40438762291E+04 0.  0.
        1    1    3    3  502    0 -0.81792991078E+03 -0.11849143086E+04  0.14792785966E+04  0.20642907799E+04  0.50400001928E-02 0.  1.
       -1    1    3    3    0  502  0.81792991078E+03  0.11849143086E+04 -0.13610902828E+04  0.19813121954E+04  0.50400001928E-02 0. -1.
</event>
<event>
 5   0  0.3832389E-07  0.3871865E+04  0.7818609E-02  0.8030906E-01
        2   -1    0    0  501    0  0.00000000000E+00  0.00000000000E+00  0.15791702906E+04  0.15791702906E+04  0.25500000920E-02 0.  1.
       -2   -1    0    0    0  501  0.00000000000E+00  0.00000000000E+00 -0.23732932024E+04  0.23732932024E+04  0.25500000920E-02 0. -1.
    10030    2    1    2    0    0  0.00000000000E+00  0.00000000000E+00 -0.79412291177E+03  0.39524634930E+04  0.38718647271E+04 0.  0.
        5    1    3    3  502    0 -0.27419219418E+03  0.17224680122E+04  0.46050621573E+03  0.18039305633E+04  0.46999998093E+01 0. -1.
       -5    1    3    3    0  502  0.27419219418E+03 -0.17224680122E+04 -0.12546291275E+04  0.21485329297E+04  0.46999998093E+01 0.  1.
</event>
<event>
 5   0  0.1187925E-07  0.3755635E+04  0.7818609E-02  0.8055743E-01
        1   -1    0    0  501    0  0.00000000000E+00  0.00000000000E+00  0.28395986480E+04  0.28395986480E+04  0.50400001928E-02 0.  1.
       -1   -1    0    0    0  501  0.00000000000E+00  0.00000000000E+00 -0.12417949441E+04  0.12417949441E+04  0.50400001928E-02 0. -1.
    10030    2    1    2    0    0  0.00000000000E+00  0.00000000000E+00  0.15978037039E+04  0.40813935920E+04  0.37556353626E+04 0.  0.
        1    1    3    3  502    0  0.18512827236E+04 -0.31400795157E+03  0.81924819335E+03  0.20486620802E+04  0.50400001928E-02 0.  1.
       -1    1    3    3    0  502 -0.18512827236E+04  0.31400795157E+03  0.77855551054E+03  0.20327315119E+04  0.50400001928E-02 0. -1.
</event>
<event>
 5   0  0.1187925E-07  0.3952516E+04  0.7818609E-02  0.8014195E-01
        1   -1    0    0  501    0  0.00000000000E+00  0.00000000000E+00  0.26135655749E+04  0.26135655750E+04  0.50400001928E-02 0.  1.
       -1   -1    0    0    0  501  0.00000000000E+00  0.00000000000E+00 -0.14943553835E+04  0.14943553835E+04  0.50400001928E-02 0. -1.
    10030    2    1    2    0    0  0.00000000000E+00  0.00000000000E+00  0.11192101915E+04  0.41079209584E+04  0.39525160528E+04 0.  0.
        1    1    3    3  502    0 -0.11959056412E+04  0.28458773660E+03 -0.10486249666E+04  0.16157954088E+04  0.50400001928E-02 0. -1.
       -1    1    3    3    0  502  0.11959056412E+04 -0.28458773660E+03  0.21678351581E+04  0.24921255496E+04  0.50400001928E-02 0.  1.
</event>
<event>
 5   0  0.1187925E-07  0.3981669E+04  0.7818609E-02  0.8008255E-01
       -1   -1    0    0    0  501  0.00000000000E+00  0.00000000000E+00  0.18036571054E+04  0.18036571054E+04  0.50400001928E-02 0. -1.
        1   -1    0    0  501    0  0.00000000000E+00  0.00000000000E+00 -0.21974363943E+04  0.21974363943E+04  0.50400001928E-02 0.  1.
    10030    2    1    2    0    0  0.00000000000E+00  0.00000000000E+00 -0.39377928886E+03  0.40010934997E+04  0.39816688794E+04 0.  0.
        4    1    3    3  502    0 -0.17417815689E+04 -0.83423159342E+03  0.28886780516E+03  0.19527395134E+04  0.12699999809E+01 0.  1.
       -4    1    3    3    0  502  0.17417815689E+04  0.83423159342E+03 -0.68264709402E+03  0.20483539863E+04  0.12699999809E+01 0. -1.
</event>
<event>
 5   0  0.3610483E-07  0.3789258E+04  0.7818609E-02  0.8048464E-01
        2   -1    0    0  501    0  0.00000000000E+00  0.00000000000E+00  0.21409513746E+04  0.21409513746E+04  0.25500000920E-02 0.  1.
       -2   -1    0    0    0  501  0.00000000000E+00  0.00000000000E+00 -0.16766462957E+04  0.16766462957E+04  0.25500000920E-02 0. -1.
    10030    2    1    2    0    0  0.00000000000E+00  0.00000000000E+00  0.46430507897E+03  0.38175976703E+04  0.37892575481E+04 0.  0.
        4    1    3    3  502    0 -0.88921164735E+03 -0.10709523129E+04  0.15270592263E+04  0.20662883884E+04  0.12699999809E+01 0.  1.
       -4    1    3    3    0  502  0.88921164735E+03  0.10709523129E+04 -0.10627541474E+04  0.17513092819E+04  0.12699999809E+01 0. -1.
</event>
<event>
 5   0  0.1187925E-07  0.3935237E+04  0.7818609E-02  0.8017740E-01
        1   -1    0    0  501    0  0.00000000000E+00  0.00000000000E+00  0.13109911705E+04  0.13109911705E+04  0.50400001928E-02 0. -1.
       -1   -1    0    0    0  501  0.00000000000E+00  0.00000000000E+00 -0.29531266678E+04  0.29531266678E+04  0.50400001928E-02 0.  1.
    10030    2    1    2    0    0  0.00000000000E+00  0.00000000000E+00 -0.16421354973E+04  0.42641178383E+04  0.39352372161E+04 0.  0.
        1    1    3    3  502    0  0.15324513230E+04 -0.82794460819E+03  0.17063781095E+03  0.17501475921E+04  0.50400001928E-02 0. -1.
       -1    1    3    3    0  502 -0.15324513230E+04  0.82794460819E+03 -0.18127733083E+04  0.25139702462E+04  0.50400001928E-02 0.  1.
</event>
<event>
 5   0  0.3610483E-07  0.3946285E+04  0.7818609E-02  0.8015471E-01
       -2   -1    0    0    0  501  0.00000000000E+00  0.00000000000E+00  0.33981715852E+04  0.33981715852E+04  0.25500000920E-02 0.  1.
        2   -1    0    0  501    0  0.00000000000E+00  0.00000000000E+00 -0.11457015848E+04  0.11457015848E+04  0.25500000920E-02 0. -1.
    10030    2    1    2    0    0  0.00000000000E+00  0.00000000000E+00  0.22524700004E+04  0.45438731700E+04  0.39462846176E+04 0.  0.
        4    1    3    3  502    0 -0.46024194927E+03 -0.11058692762E+04  0.29316399146E+04  0.31669044365E+04  0.12699999809E+01 0.  1.
       -4    1    3    3    0  502  0.46024194927E+03  0.11058692762E+04 -0.67916991423E+03  0.13769687336E+04  0.12699999809E+01 0. -1.
</event>
<event>
 5   0  0.1187925E-07  0.3942778E+04  0.7818609E-02  0.8016191E-01
        3   -1    0    0  501    0  0.00000000000E+00  0.00000000000E+00  0.23154936906E+04  0.23154936928E+04  0.10100000352E+00 0. -1.
       -3   -1    0    0    0  501  0.00000000000E+00  0.00000000000E+00 -0.16784216641E+04  0.16784216671E+04  0.10100000352E+00 0.  1.
    10030    2    1    2    0    0  0.00000000000E+00  0.00000000000E+00  0.63707202652E+03  0.39939153599E+04  0.39427780986E+04 0.  0.
        4    1    3    3  502    0 -0.11779666433E+04  0.12756015828E+04  0.12642443446E+04  0.21478082285E+04  0.12699999809E+01 0. -1.
       -4    1    3    3    0  502  0.11779666433E+04 -0.12756015828E+04 -0.62717231804E+03  0.18461071313E+04  0.12699999809E+01 0.  1.
</event>
<event>
 5   0  0.3810833E-07  0.3766254E+04  0.7818609E-02  0.8053436E-01
       -2   -1    0    0    0  501  0.00000000000E+00  0.00000000000E+00  0.22785530841E+04  0.22785530841E+04  0.25500000920E-02 0. -1.
        2   -1    0    0  501    0  0.00000000000E+00  0.00000000000E+00 -0.15563244475E+04  0.15563244475E+04  0.25500000920E-02 0.  1.
    10030    2    1    2    0    0  0.00000000000E+00  0.00000000000E+00  0.72222863659E+03  0.38348775316E+04  0.37662543036E+04 0.  0.
        3    1    3    3  502    0 -0.90091764120E+02  0.10525423026E+04  0.19484303614E+04  0.22163805422E+04  0.10100000352E+00 0. -1.
       -3    1    3    3    0  502  0.90091764120E+02 -0.10525423026E+04 -0.12262017248E+04  0.16184969894E+04  0.10100000352E+00 0.  1.
</event>
<event>
 5   0  0.1187925E-07  0.3636748E+04  0.7818609E-02  0.8082126E-01
       -1   -1    0    0    0  501  0.00000000000E+00  0.00000000000E+00  0.27785200240E+04  0.27785200240E+04  0.50400001928E-02 0.  1.
        1   -1    0    0  501    0  0.00000000000E+00  0.00000000000E+00 -0.11900162622E+04  0.11900162622E+04  0.50400001928E-02 0. -1.
    10030    2    1    2    0    0  0.00000000000E+00  0.00000000000E+00  0.15885037618E+04  0.39685362861E+04  0.36367480052E+04 0.  0.
        1    1    3    3  502    0  0.17979452545E+04 -0.15298230076E+03  0.54909281622E+03  0.18861372282E+04  0.50400001928E-02 0.  1.
       -1    1    3    3    0  502 -0.17979452545E+04  0.15298230076E+03  0.10394109456E+04  0.20823990579E+04  0.50400001928E-02 0. -1.
</event>
<event>
 5   0  0.1187925E-07  0.3890535E+04  0.7818609E-02  0.8027001E-01
       -3   -1    0    0    0  501  0.00000000000E+00  0.00000000000E+00  0.17602098327E+04  0.17602098356E+04  0.10100000352E+00 0. -1.
        3   -1    0    0  501    0  0.00000000000E+00  0.00000000000E+00 -0.21497808056E+04  0.21497808079E+04  0.10100000352E+00 0.  1.
    10030    2    1    2    0    0  0.00000000000E+00  0.00000000000E+00 -0.38957097286E+03  0.39099906435E+04  0.38905348334E+04 0.  0.
        4    1    3    3  502    0  0.11170415372E+04 -0.16813711309E+03  0.13968045069E+04  0.17964176374E+04  0.12699999809E+01 0. -1.
       -4    1    3    3    0  502 -0.11170415372E+04  0.16813711309E+03 -0.17863754798E+04  0.21135730061E+04  0.12699999809E+01 0.  1.
</event>
<event>
 5   0  0.3832389E-07  0.3909007E+04  0.7818609E-02  0.8023159E-01
        2   -1    0    0  501    0  0.00000000000E+00  0.00000000000E+00  0.25213257295E+04  0.25213257295E+04  0.25500000920E-02 0.  1.
       -2   -1    0    0    0  501  0.00000000000E+00  0.00000000000E+00 -0.15151089978E+04  0.15151089978E+04  0.25500000920E-02 0. -1.
    10030    2    1    2    0    0  0.00000000000E+00  0.00000000000E+00  0.10062167318E+04  0.40364347273E+04  0.39090066765E+04 0.  0.
        5    1    3    3  502    0  0.72351290938E+03  0.14704640486E+04 -0.59665796406E+03  0.17440637214E+04  0.46999998093E+01 0. -1.
       -5    1    3    3    0  502 -0.72351290938E+03 -0.14704640486E+04  0.16028746958E+04  0.22923710059E+04  0.46999998093E+01 0.  1.
</event>
<event>
 5   0  0.1187925E-07  0.3836119E+04  0.7818609E-02  0.8038448E-01
        1   -1    0    0  501    0  0.00000000000E+00  0.00000000000E+00  0.24643387588E+04  0.24643387588E+04  0.50400001928E-02 0.  1.
       -1   -1    0    0    0  501  0.00000000000E+00  0.00000000000E+00 -0.14928760624E+04  0.14928760624E+04  0.50400001928E-02 0. -1.
    10030    2    1    2    0    0  0.00000000000E+00  0.00000000000E+00  0.97146269642E+03  0.39572148212E+04  0.38361190506E+04 0.  0.
        1    1    3    3  502    0  0.17903985638E+04  0.38446795730E+03  0.10743665459E+04  0.21231123622E+04  0.50400001928E-02 0. -1.
       -1    1    3    3    0  502 -0.17903985638E+04 -0.38446795730E+03 -0.10290384951E+03  0.18341024589E+04  0.50400001928E-02 0.  1.
</event>
<event>
 5   0  0.1187925E-07  0.3913077E+04  0.7818609E-02  0.8022315E-01
        1   -1    0    0  501    0  0.00000000000E+00  0.00000000000E+00  0.23730585129E+04  0.23730585129E+04  0.50400001928E-02 0. -1.
       -1   -1    0    0    0  501  0.00000000000E+00  0.00000000000E+00 -0.16131260293E+04  0.16131260293E+04  0.50400001928E-02 0.  1.
    10030    2    1    2    0    0  0.00000000000E+00  0.00000000000E+00  0.75993248367E+03  0.39861845422E+04  0.39130767721E+04 0.  0.
        5    1    3    3  502    0 -0.16015446725E+04 -0.73243171233E+03 -0.48837884571E+03  0.18275495994E+04  0.46999998093E+01 0.  1.
       -5    1    3    3    0  502  0.16015446725E+04  0.73243171233E+03  0.12483113294E+04  0.21586349428E+04  0.46999998093E+01 0. -1.
</event>
<event>
 5   0  0.1187925E-07  0.3909562E+04  0.7818609E-02  0.8023043E-01
       -1   -1    0    0    0  501  0.00000000000E+00  0.00000000000E+00  0.14832991434E+04  0.14832991434E+04  0.50400001928E-02 0.  1.
        1   -1    0    0  501    0  0.00000000000E+00  0.00000000000E+00 -0.25761288206E+04  0.25761288206E+04  0.50400001928E-02 0. -1.
    10030    2    1    2    0    0  0.00000000000E+00  0.00000000000E+00 -0.10928296772E+04  0.40594279640E+04  0.39095624681E+04 0.  0.
        3    1    3    3  502    0 -0.29901970756E+03 -0.18457239133E+04  0.45580822014E+02  0.18703441318E+04  0.10100000352E+00 0.  1.
       -3    1    3    3    0  502  0.29901970756E+03  0.18457239133E+04 -0.11384104992E+04  0.21890838323E+04  0.10100000352E+00 0. -1.
</event>
<event>
 5   0  0.3610483E-07  0.3656878E+04  0.7818609E-02  0.8077586E-01
       -2   -1    0    0    0  501  0.00000000000E+00  0.00000000000E+00  0.26991513227E+04  0.26991513227E+04  0.25500000920E-02 0.  1.
        2   -1    0    0  501    0  0.00000000000E+00  0.00000000000E+00 -0.12386076401E+04  0.12386076401E+04  0.25500000920E-02 0. -1.
    10030    2    1    2    0    0  0.00000000000E+00  0.00000000000E+00  0.14605436826E+04  0.39377589628E+04  0.36568781495E+04 0.  0.
        4    1    3    3  502    0  0.13427420438E+04  0.12319209316E+03 -0.59951319648E+03  0.14756524570E+04  0.12699999809E+01 0. -1.
       -4    1    3    3    0  502 -0.13427420438E+04 -0.12319209316E+03  0.20600568791E+04  0.24621065058E+04  0.12699999809E+01 0.  1.
</event>
<event>
 5   0  0.1187925E-07  0.3935073E+04  0.7818609E-02  0.8017774E-01
        1   -1    0    0  501    0  0.00000000000E+00  0.00000000000E+00  0.15912218677E+04  0.15912218678E+04  0.50400001928E-02 0.  1.
       -1   -1    0    0    0  501  0.00000000000E+00  0.00000000000E+00 -0.24328467823E+04  0.24328467823E+04  0.50400001928E-02 0. -1.
    10030    2    1    2    0    0  0.00000000000E+00  0.00000000000E+00 -0.84162491453E+03  0.40240686500E+04  0.39350725538E+04 0.  0.
        2    1    3    3  502    0 -0.78005347964E+03 -0.60580906373E+03  0.13193517877E+04  0.16480828840E+04  0.25500000920E-02 0.  1.
       -2    1    3    3    0  502  0.78005347964E+03  0.60580906373E+03 -0.21609767022E+04  0.23759857660E+04  0.25500000920E-02 0. -1.
</event>
<event>
 5   0  0.3680814E-07  0.3922245E+04  0.7818609E-02  0.8020418E-01
        2   -1    0    0  501    0  0.00000000000E+00  0.00000000000E+00  0.21149151847E+04  0.21149151847E+04  0.25500000920E-02 0. -1.
       -2   -1    0    0    0  501  0.00000000000E+00  0.00000000000E+00 -0.18185137304E+04  0.18185137304E+04  0.25500000920E-02 0.  1.
    10030    2    1    2    0    0  0.00000000000E+00  0.00000000000E+00  0.29640145424E+03  0.39334289151E+04  0.39222454294E+04 0.  0.
        1    1    3    3  502    0 -0.11615386374E+04  0.11608483043E+04 -0.92689211771E+03  0.18857014052E+04  0.50400001928E-02 0.  1.
       -1    1    3    3    0  502  0.11615386374E+04 -0.11608483043E+04  0.12232935720E+04  0.20477275099E+04  0.50400001928E-02 0. -1.
</event>
<event>
 5   0  0.3610483E-07  0.3909976E+04  0.7818609E-02  0.8022958E-01
        2   -1    0    0  501    0  0.00000000000E+00  0.00000000000E+00  0.19187238004E+04  0.19187238004E+04  0.25500000920E-02 0.  1.
       -2   -1    0    0    0  501  0.00000000000E+00  0.00000000000E+00 -0.19919379588E+04  0.19919379588E+04  0.25500000920E-02 0. -1.
    10030    2    1    2    0    0  0.00000000000E+00  0.00000000000E+00 -0.73214158334E+02  0.39106617592E+04  0.39099763531E+04 0.  0.
        4    1    3    3  502    0  0.86212062276E+03  0.84819060650E+03 -0.15728769485E+04  0.19840924326E+04  0.12699999809E+01 0. -1.
       -4    1    3    3    0  502 -0.86212062276E+03 -0.84819060650E+03  0.14996627901E+04  0.19265693266E+04  0.12699999809E+01 0.  1.
</event>
<event>
 5   0  0.3610483E-07  0.3381134E+04  0.7818609E-02  0.8142552E-01
        2   -1    0    0  501    0  0.00000000000E+00  0.00000000000E+00  0.24801014403E+04  0.24801014403E+04  0.25500000920E-02 0.  1.
       -2   -1    0    0    0  501  0.00000000000E+00  0.00000000000E+00 -0.11523791409E+04  0.11523791409E+04  0.25500000920E-02 0. -1.
    10030    2    1    2    0    0  0.00000000000E+00  0.00000000000E+00  0.13277222994E+04  0.36324805813E+04  0.33811342282E+04 0.  0.
        4    1    3    3  502    0 -0.26495119726E+03 -0.34293678446E+03 -0.10916907028E+04  0.11745616112E+04  0.12699999809E+01 0. -1.
       -4    1    3    3    0  502  0.26495119726E+03  0.34293678446E+03  0.24194130022E+04  0.24579189700E+04  0.12699999809E+01 0.  1.
</event>
<event>
 5   0  0.3665303E-07  0.3850296E+04  0.7818609E-02  0.8035447E-01
        2   -1    0    0  501    0  0.00000000000E+00  0.00000000000E+00  0.29941802517E+04  0.29941802517E+04  0.25500000920E-02 0. -1.
       -2   -1    0    0    0  501  0.00000000000E+00  0.00000000000E+00 -0.12377995202E+04  0.12377995202E+04  0.25500000920E-02 0.  1.
    10030    2    1    2    0    0  0.00000000000E+00  0.00000000000E+00  0.17563807315E+04  0.42319797719E+04  0.38502960296E+04 0.  0.
        2    1    3    3  502    0  0.74985558345E+03  0.81059251031E+03 -0.85511215042E+03  0.13966246466E+04  0.25500000920E-02 0.  1.
       -2    1    3    3    0  502 -0.74985558345E+03 -0.81059251031E+03  0.26114928819E+04  0.28353551252E+04  0.25500000920E-02 0. -1.
</event>
<event>
 5   0  0.3810833E-07  0.3977660E+04  0.7818609E-02  0.8009068E-01
       -2   -1    0    0    0  501  0.00000000000E+00  0.00000000000E+00  0.17396866082E+04  0.17396866082E+04  0.25500000920E-02 0. -1.
        2   -1    0    0  501    0  0.00000000000E+00  0.00000000000E+00 -0.22736541695E+04  0.22736541695E+04  0.25500000920E-02 0.  1.
    10030    2    1    2    0    0  0.00000000000E+00  0.00000000000E+00 -0.53396756133E+03  0.40133407778E+04  0.39776604734E+04 0.  0.
        3    1    3    3  502    0 -0.17791076717E+04  0.46391289548E+03  0.49811000460E+03  0.19048760770E+04  0.10100000352E+00 0. -1.
       -3    1    3    3    0  502  0.17791076717E+04 -0.46391289548E+03 -0.10320775659E+04  0.21084647007E+04  0.10100000352E+00 0.  1.
</event>
<event>
 5   0  0.1187925E-07  0.3861065E+04  0.7818609E-02  0.8033176E-01
       -1   -1    0    0    0  501  0.00000000000E+00  0.00000000000E+00  0.19434454942E+04  0.19434454942E+04  0.50400001928E-02 0. -1.
        1   -1    0    0  501    0  0.00000000000E+00  0.00000000000E+00 -0.19177052868E+04  0.19177052868E+04  0.50400001928E-02 0.  1.
    10030    2    1    2    0    0  0.00000000000E+00  0.00000000000E+00  0.25740207357E+02  0.38611507810E+04  0.38610649820E+04 0.  0.
        3    1    3    3  502    0 -0.13214679734E+03 -0.42047175593E+03 -0.18667185271E+04  0.19180451880E+04  0.10100000352E+00 0.  1.
       -3    1    3    3    0  502  0.13214679734E+03  0.42047175593E+03  0.18924587345E+04  0.19431055930E+04  0.10100000352E+00 0. -1.
</event>
<event>
 5   0  0.1187925E-07  0.4423006E+04  0.7818609E-02  0.7924257E-01
        1   -1    0    0  501    0  0.00000000000E+00  0.00000000000E+00  0.17979721033E+04  0.17979721033E+04  0.50400001928E-02 0. -1.
       -1   -1    0    0    0  501  0.00000000000E+00  0.00000000000E+00 -0.27201452644E+04  0.27201452644E+04  0.50400001928E-02 0.  1.
    10030    2    1    2    0    0  0.00000000000E+00  0.00000000000E+00 -0.92217316116E+03  0.45181173677E+04  0.44230059020E+04 0.  0.
        4    1    3    3  502    0 -0.14043381429E+04  0.17970504790E+03 -0.21965262997E+04  0.26132716893E+04  0.12699999809E+01 0.  1.
       -4    1    3    3    0  502  0.14043381429E+04 -0.17970504790E+03  0.12743531386E+04  0.19048456784E+04  0.12699999809E+01 0. -1.
</event>
<event>
 5   0  0.3810833E-07  0.3425608E+04  0.7818609E-02  0.8131650E-01
       -2   -1    0    0    0  501  0.00000000000E+00  0.00000000000E+00  0.18003669634E+04  0.18003669634E+04  0.25500000920E-02 0.  1.
        2   -1    0    0  501    0  0.00000000000E+00  0.00000000000E+00 -0.16294995015E+04  0.16294995015E+04  0.25500000920E-02 0. -1.
    10030    2    1    2    0    0  0.00000000000E+00  0.00000000000E+00  0.17086746189E+03  0.34298664648E+04  0.34256077237E+04 0.  0.
        3    1    3    3  502    0  0.14611417914E+04  0.80210310502E+03  0.48012214396E+03  0.17345956327E+04  0.10100000352E+00 0.  1.
       -3    1    3    3    0  502 -0.14611417914E+04 -0.80210310502E+03 -0.30925468207E+03  0.16952708321E+04  0.10100000352E+00 0. -1.
</event>
<event>
 5   0  0.3665303E-07  0.3896411E+04  0.7818609E-02  0.8025776E-01
       -2   -1    0    0    0  501  0.00000000000E+00  0.00000000000E+00  0.19372086417E+04  0.19372086417E+04  0.25500000920E-02 0. -1.
        2   -1    0    0  501    0  0.00000000000E+00  0.00000000000E+00 -0.19592649649E+04  0.19592649649E+04  0.25500000920E-02 0.  1.
    10030    2    1    2    0    0  0.00000000000E+00  0.00000000000E+00 -0.22056323226E+02  0.38964736066E+04  0.38964111803E+04 0.  0.
        2    1    3    3  502    0  0.10488946661E+04 -0.64296092134E+03 -0.15216569628E+04  0.19567878473E+04  0.25500000920E-02 0.  1.
       -2    1    3    3    0  502 -0.10488946661E+04  0.64296092134E+03  0.14996006395E+04  0.19396857594E+04  0.25500000920E-02 0. -1.
</event>
<event>
 5   0  0.1187925E-07  0.3922763E+04  0.7818609E-02  0.8020311E-01
       -1   -1    0    0    0  501  0.00000000000E+00  0.00000000000E+00  0.24609724752E+04  0.24609724752E+04  0.50400001928E-02 0. -1.
        1   -1    0    0  501    0  0.00000000000E+00  0.00000000000E+00 -0.15632106099E+04  0.15632106099E+04  0.50400001928E-02 0.  1.
    10030    2    1    2    0    0  0.00000000000E+00  0.00000000000E+00  0.89776186529E+03  0.40241830851E+04  0.39227634565E+04 0.  0.
        1    1    3    3  502    0  0.81039024704E+03  0.11133930185E+04 -0.98388216312E+03  0.16924539808E+04  0.50400001928E-02 0. -1.
       -1    1    3    3    0  502 -0.81039024704E+03 -0.11133930185E+04  0.18816440284E+04  0.23317291043E+04  0.50400001928E-02 0.  1.
</event>
<event>
 5   0  0.3680814E-07  0.3811426E+04  0.7818609E-02  0.8043707E-01
       -2   -1    0    0    0  501  0.00000000000E+00  0.00000000000E+00  0.26065028785E+04  0.26065028785E+04  0.25500000920E-02 0.  1.
        2   -1    0    0  501    0  0.00000000000E+00  0.00000000000E+00 -0.13933390978E+04  0.13933390978E+04  0.25500000920E-02 0. -1.
    10030    2    1    2    0    0  0.00000000000E+00  0.00000000000E+00  0.12131637807E+04  0.39998419763E+04  0.38114261736E+04 0.  0.
        1    1    3    3  502    0  0.84119816693E+03  0.29524939999E+03  0.23741721793E+04  0.25360362973E+04  0.50400001928E-02 0.  1.
       -1    1    3    3    0  502 -0.84119816693E+03 -0.29524939999E+03 -0.11610083986E+04  0.14638056790E+04  0.50400001928E-02 0. -1.
</event>
<event>
 5   0  0.1187925E-07  0.3813436E+04  0.7818609E-02  0.8043278E-01
       -1   -1    0    0    0  501  0.00000000000E+00  0.00000000000E+00  0.17487018953E+04  0.17487018953E+04  0.50400001928E-02 0. -1.
        1   -1    0    0  501    0  0.00000000000E+00  0.00000000000E+00 -0.20790131830E+04  0.20790131830E+04  0.50400001928E-02 0.  1.
    10030    2    1    2    0    0  0.00000000000E+00  0.00000000000E+00 -0.33031128770E+03  0.38277150783E+04  0.38134363996E+04 0.  0.
        2    1    3    3  502    0 -0.77419639633E+03 -0.13348608913E+04  0.95901137857E+03  0.18168479527E+04  0.25500000920E-02 0. -1.
       -2    1    3    3    0  502  0.77419639633E+03  0.13348608913E+04 -0.12893226663E+04  0.20108671256E+04  0.25500000920E-02 0.  1.
</event>
<event>
 5   0  0.3832389E-07  0.3914983E+04  0.7818609E-02  0.8021920E-01
        2   -1    0    0  501    0  0.00000000000E+00  0.00000000000E+00  0.21580387947E+04  0.21580387947E+04  0.25500000920E-02 0. -1.
       -2   -1    0    0    0  501  0.00000000000E+00  0.00000000000E+00 -0.17755815724E+04  0.17755815724E+04  0.25500000920E-02 0.  1.
    10030    2    1    2    0    0  0.00000000000E+00  0.00000000000E+00  0.38245722234E+03  0.39336203671E+04  0.39149834821E+04 0.  0.
        5    1    3    3  502    0 -0.19129210739E+04 -0.40380049189E+03  0.93658387009E+02  0.19573236461E+04  0.46999998093E+01 0.  1.
       -5    1    3    3    0  502  0.19129210739E+04  0.40380049189E+03  0.28879883533E+03  0.19762967210E+04  0.46999998093E+01 0. -1.
</event>
<event>
 5   0  0.1187925E-07  0.3867160E+04  0.7818609E-02  0.8031894E-01
        1   -1    0    0  501    0  0.00000000000E+00  0.00000000000E+00  0.22906302178E+04  0.22906302178E+04  0.50400001928E-02 0. -1.
       -1   -1    0    0    0  501  0.00000000000E+00  0.00000000000E+00 -0.16321843324E+04  0.16321843324E+04  0.50400001928E-02 0.  1.
    10030    2    1    2    0    0  0.00000000000E+00  0.00000000000E+00  0.65844588542E+03  0.39228145503E+04  0.38671595534E+04 0.  0.
        2    1    3    3  502    0 -0.16747647116E+04 -0.89983323892E+03 -0.28260631756E+02  0.19014035238E+04  0.25500000920E-02 0.  1.
       -2    1    3    3    0  502  0.16747647116E+04  0.89983323892E+03  0.68670651717E+03  0.20214110264E+04  0.25500000920E-02 0. -1.
</event>
<event>
 5   0  0.1187925E-07  0.3819197E+04  0.7818609E-02  0.8042048E-01
       -1   -1    0    0    0  501  0.00000000000E+00  0.00000000000E+00  0.17560631346E+04  0.17560631346E+04  0.50400001928E-02 0.  1.
        1   -1    0    0  501    0  0.00000000000E+00  0.00000000000E+00 -0.20765576066E+04  0.20765576066E+04  0.50400001928E-02 0. -1.
    10030    2    1    2    0    0  0.00000000000E+00  0.00000000000E+00 -0.32049447206E+03  0.38326207412E+04  0.38191969103E+04 0.  0.
        3    1    3    3  502    0 -0.46041686716E+03 -0.11118979617E+04  0.13276189209E+04  0.17918908387E+04  0.10100000352E+00 0.  1.
       -3    1    3    3    0  502  0.46041686716E+03  0.11118979617E+04 -0.16481133929E+04  0.20407299025E+04  0.10100000352E+00 0. -1.
</event>
<event>
 5   0  0.1187925E-07  0.3818561E+04  0.7818609E-02  0.8042183E-01
        1   -1    0    0  501    0  0.00000000000E+00  0.00000000000E+00  0.18251749672E+04  0.18251749672E+04  0.50400001928E-02 0.  1.
       -1   -1    0    0    0  501  0.00000000000E+00  0.00000000000E+00 -0.19972620717E+04  0.19972620718E+04  0.50400001928E-02 0. -1.
    10030    2    1    2    0    0  0.00000000000E+00  0.00000000000E+00 -0.17208710453E+03  0.38224370390E+04  0.38185613712E+04 0.  0.
        5    1    3    3  502    0  0.12633151107E+03 -0.17670614376E+04  0.62662346938E+03  0.18791340658E+04  0.46999998093E+01 0.  1.
       -5    1    3    3    0  502 -0.12633151107E+03  0.17670614376E+04 -0.79871057390E+03  0.19433029732E+04  0.46999998093E+01 0. -1.
</event>
<event>
 5   0  0.3680814E-07  0.3903896E+04  0.7818609E-02  0.8024219E-01
        2   -1    0    0  501    0  0.00000000000E+00  0.00000000000E+00  0.14113982379E+04  0.14113982379E+04  0.25500000920E-02 0. -1.
       -2   -1    0    0    0  501  0.00000000000E+00  0.00000000000E+00 -0.26995219248E+04  0.26995219248E+04  0.25500000920E-02 0.  1.
    10030    2    1    2    0    0  0.00000000000E+00  0.00000000000E+00 -0.12881236870E+04  0.41109201627E+04  0.39038957403E+04 0.  0.
        1    1    3    3  502    0  0.19435085394E+03 -0.22032125104E+03  0.13879827519E+04  0.14187352916E+04  0.50400001928E-02 0. -1.
       -1    1    3    3    0  502 -0.19435085394E+03  0.22032125104E+03 -0.26761064389E+04  0.26921848711E+04  0.50400001928E-02 0.  1.
</event>
<event>
 5   0  0.1187925E-07  0.3896756E+04  0.7818609E-02  0.8025704E-01
        1   -1    0    0  501    0  0.00000000000E+00  0.00000000000E+00  0.24697073177E+04  0.24697073178E+04  0.50400001928E-02 0. -1.
       -1   -1    0    0    0  501  0.00000000000E+00  0.00000000000E+00 -0.15370961627E+04  0.15370961627E+04  0.50400001928E-02 0.  1.
    10030    2    1    2    0    0  0.00000000000E+00  0.00000000000E+00  0.93261115505E+03  0.40068034805E+04  0.38967564159E+04 0.  0.
        3    1    3    3  502    0  0.19103494200E+04 -0.35326081437E+03  0.61864324798E+03  0.20388593841E+04  0.10100000352E+00 0. -1.
       -3    1    3    3    0  502 -0.19103494200E+04  0.35326081437E+03  0.31396790707E+03  0.19679440964E+04  0.10100000352E+00 0.  1.
</event>
<event>
 5   0  0.3665303E-07  0.3877962E+04  0.7818609E-02  0.8029628E-01
       -2   -1    0    0    0  501  0.00000000000E+00  0.00000000000E+00  0.16423753164E+04  0.16423753164E+04  0.25500000920E-02 0.  1.
        2   -1    0    0  501    0  0.00000000000E+00  0.00000000000E+00 -0.22891528579E+04  0.22891528579E+04  0.25500000920E-02 0. -1.
    10030    2    1    2    0    0  0.00000000000E+00  0.00000000000E+00 -0.64677754146E+03  0.39315281743E+04  0.38779624286E+04 0.  0.
        2    1    3    3  502    0  0.14315518589E+03  0.10146514151E+03 -0.22810872749E+04  0.22878259851E+04  0.25500000920E-02 0. -1.
       -2    1    3    3    0  502 -0.14315518589E+03 -0.10146514151E+03  0.16343097334E+04  0.16437021893E+04  0.25500000920E-02 0.  1.
</event>
<event>
 5   0  0.1187925E-07  0.3858794E+04  0.7818609E-02  0.8033654E-01
       -1   -1    0    0    0  501  0.00000000000E+00  0.00000000000E+00  0.15900818461E+04  0.15900818461E+04  0.50400001928E-02 0. -1.
        1   -1    0    0  501    0  0.00000000000E+00  0.00000000000E+00 -0.23411203827E+04  0.23411203827E+04  0.50400001928E-02 0.  1.
    10030    2    1    2    0    0  0.00000000000E+00  0.00000000000E+00 -0.75103853666E+03  0.39312022288E+04  0.38587941226E+04 0.  0.
        4    1    3    3  502    0 -0.84946983158E+03 -0.66979598319E+03  0.12520651739E+04  0.16546584138E+04  0.12699999809E+01 0. -1.
       -4    1    3    3    0  502  0.84946983158E+03  0.66979598319E+03 -0.20031037105E+04  0.22765438150E+04  0.12699999809E+01 0.  1.
</event>
<event>
 5   0  0.1187925E-07  0.3905499E+04  0.7818609E-02  0.8023887E-01
        1   -1    0    0  501    0  0.00000000000E+00  0.00000000000E+00  0.13136576575E+04  0.13136576576E+04  0.50400001928E-02 0.  1.
       -1   -1    0    0    0  501  0.00000000000E+00  0.00000000000E+00 -0.29027579504E+04  0.29027579505E+04  0.50400001928E-02 0. -1.
    10030    2    1    2    0    0  0.00000000000E+00  0.00000000000E+00 -0.15891002929E+04  0.42164156080E+04  0.39054987951E+04 0.  0.
        5    1    3    3  502    0 -0.10506581930E+04 -0.32359438305E+03  0.94781203395E+03  0.14515390814E+04  0.46999998093E+01 0.  1.
       -5    1    3    3    0  502  0.10506581930E+04  0.32359438305E+03 -0.25369123268E+04  0.27648765266E+04  0.46999998093E+01 0. -1.
</event>
<event>
 5   0  0.3832389E-07  0.3906943E+04  0.7818609E-02  0.8023587E-01
       -2   -1    0    0    0  501  0.00000000000E+00  0.00000000000E+00  0.28686564122E+04  0.28686564122E+04  0.25500000920E-02 0.  1.
        2   -1    0    0  501    0  0.00000000000E+00  0.00000000000E+00 -0.13302569511E+04  0.13302569511E+04  0.25500000920E-02 0. -1.
    10030    2    1    2    0    0  0.00000000000E+00  0.00000000000E+00  0.15383994611E+04  0.41989133632E+04  0.39069426064E+04 0.  0.
        5    1    3    3  502    0  0.82323050440E+03  0.41253303065E+03  0.26207767687E+04  0.27778381749E+04  0.46999998093E+01 0.  1.
       -5    1    3    3    0  502 -0.82323050440E+03 -0.41253303065E+03 -0.10823773076E+04  0.14210751883E+04  0.46999998093E+01 0. -1.
</event>
<event>
 5   0  0.1187925E-07  0.3983795E+04  0.7818609E-02  0.8007824E-01
        1   -1    0    0  501    0  0.00000000000E+00  0.00000000000E+00  0.25480676563E+04  0.25480676563E+04  0.50400001928E-02 0.  1.
       -1   -1    0    0    0  501  0.00000000000E+00  0.00000000000E+00 -0.15571230333E+04  0.15571230334E+04  0.50400001928E-02 0. -1.
    10030    2    1    2    0    0  0.00000000000E+00  0.00000000000E+00  0.99094462299E+03  0.41051906897E+04  0.39837945922E+04 0.  0.
        5    1    3    3  502    0  0.82341411044E+03  0.78618748182E+03  0.21797609627E+04  0.24591627637E+04  0.46999998093E+01 0.  1.
       -5    1    3    3    0  502 -0.82341411044E+03 -0.78618748182E+03 -0.11888163397E+04  0.16460279260E+04  0.46999998093E+01 0. -1.
</event>
<event>
 5   0  0.1187925E-07  0.3851368E+04  0.7818609E-02  0.8035220E-01
       -1   -1    0    0    0  501  0.00000000000E+00  0.00000000000E+00  0.17622010786E+04  0.17622010786E+04  0.50400001928E-02 0. -1.
        1   -1    0    0  501    0  0.00000000000E+00  0.00000000000E+00 -0.21043332581E+04  0.21043332581E+04  0.50400001928E-02 0.  1.
    10030    2    1    2    0    0  0.00000000000E+00  0.00000000000E+00 -0.34213217952E+03  0.38665343367E+04  0.38513677244E+04 0.  0.
        2    1    3    3  502    0  0.55701355014E+03 -0.16793501388E+04 -0.93417608554E+03  0.20007913291E+04  0.25500000920E-02 0. -1.
       -2    1    3    3    0  502 -0.55701355014E+03  0.16793501388E+04  0.59204390602E+03  0.18657430076E+04  0.25500000920E-02 0.  1.
</event>
<event>
 5   0  0.3680814E-07  0.3913984E+04  0.7818609E-02  0.8022127E-01
       -2   -1    0    0    0  501  0.00000000000E+00  0.00000000000E+00  0.20242505863E+04  0.20242505863E+04  0.25500000920E-02 0. -1.
        2   -1    0    0  501    0  0.00000000000E+00  0.00000000000E+00 -0.18919678020E+04  0.18919678020E+04  0.25500000920E-02 0.  1.
    10030    2    1    2    0    0  0.00000000000E+00  0.00000000000E+00  0.13228278432E+03  0.39162183884E+04  0.39139836140E+04 0.  0.
        1    1    3    3  502    0 -0.16104045067E+04  0.84364349922E+03 -0.65862010621E+03  0.19336280597E+04  0.50400001928E-02 0.  1.
       -1    1    3    3    0  502  0.16104045067E+04 -0.84364349922E+03  0.79090289054E+03  0.19825903286E+04  0.50400001928E-02 0. -1.
</event>
<event>
 5   0  0.1187925E-07  0.3909920E+04  0.7818609E-02  0.8022969E-01
        1   -1    0    0  501    0  0.00000000000E+00  0.00000000000E+00  0.18706423045E+04  0.18706423045E+04  0.50400001928E-02 0. -1.
       -1   -1    0    0    0  501  0.00000000000E+00  0.00000000000E+00 -0.20430785888E+04  0.20430785888E+04  0.50400001928E-02 0.  1.
    10030    2    1    2    0    0  0.00000000000E+00  0.00000000000E+00 -0.17243628428E+03  0.39137208933E+04  0.39099203264E+04 0.  0.
        4    1    3    3  502    0 -0.47779703904E+03  0.16692144201E+04 -0.98559072498E+03  0.19964862837E+04  0.12699999809E+01 0.  1.
       -4    1    3    3    0  502  0.47779703904E+03 -0.16692144201E+04  0.81315444070E+03  0.19172346096E+04  0.12699999809E+01 0. -1.
</event>
<event>
 5   0  0.3680814E-07  0.3983140E+04  0.7818609E-02  0.8007957E-01
       -2   -1    0    0    0  501  0.00000000000E+00  0.00000000000E+00  0.23410924948E+04  0.23410924948E+04  0.25500000920E-02 0.  1.
        2   -1    0    0  501    0  0.00000000000E+00  0.00000000000E+00 -0.16942304062E+04  0.16942304062E+04  0.25500000920E-02 0. -1.
    10030    2    1    2    0    0  0.00000000000E+00  0.00000000000E+00  0.64686208856E+03  0.40353229010E+04  0.39831395097E+04 0.  0.
        1    1    3    3  502    0 -0.11643895870E+04 -0.60954352046E+02  0.19591521525E+04  0.22798674742E+04  0.50400001928E-02 0.  1.
       -1    1    3    3    0  502  0.11643895870E+04  0.60954352046E+02 -0.13122900639E+04  0.17554554267E+04  0.50400001928E-02 0. -1.
</event>
<event>
 5   0  0.3680814E-07  0.3555515E+04  0.7818609E-02  0.8100758E-01
        2   -1    0    0  501    0  0.00000000000E+00  0.00000000000E+00  0.23943330244E+04  0.23943330244E+04  0.25500000920E-02 0. -1.
       -2   -1    0    0    0  501  0.00000000000E+00  0.00000000000E+00 -0.13199592635E+04  0.13199592635E+04  0.25500000920E-02 0.  1.
    10030    2    1    2    0    0  0.00000000000E+00  0.00000000000E+00  0.10743737608E+04  0.37142922879E+04  0.35555151838E+04 0.  0.
        1    1    3    3  502    0 -0.31345415254E+01 -0.12504856092E+03  0.23897300375E+04  0.23930015922E+04  0.50400001928E-02 0. -1.
       -1    1    3    3    0  502  0.31345415254E+01  0.12504856092E+03 -0.13153562767E+04  0.13212906957E+04  0.50400001928E-02 0.  1.
</event>
<event>
 5   0  0.1187925E-07  0.3885093E+04  0.7818609E-02  0.8028137E-01
        1   -1    0    0  501    0  0.00000000000E+00  0.00000000000E+00  0.21143541211E+04  0.21143541211E+04  0.50400001928E-02 0. -1.
       -1   -1    0    0    0  501  0.00000000000E+00  0.00000000000E+00 -0.17846992586E+04  0.17846992586E+04  0.50400001928E-02 0.  1.
    10030    2    1    2    0    0  0.00000000000E+00  0.00000000000E+00  0.32965486252E+03  0.38990533797E+04  0.38850926539E+04 0.  0.
        4    1    3    3  502    0  0.12524006322E+04 -0.72811252298E+02 -0.13236324672E+04  0.18236812614E+04  0.12699999809E+01 0.  1.
       -4    1    3    3    0  502 -0.12524006322E+04  0.72811252298E+02  0.16532873297E+04  0.20753721183E+04  0.12699999809E+01 0. -1.
</event>
<event>
 5   0  0.1187925E-07  0.3724319E+04  0.7818609E-02  0.8062594E-01
        1   -1    0    0  501    0  0.00000000000E+00  0.00000000000E+00  0.21383984887E+04  0.21383984887E+04  0.50400001928E-02 0.  1.
       -1   -1    0    0    0  501  0.00000000000E+00  0.00000000000E+00 -0.16216049014E+04  0.16216049014E+04  0.50400001928E-02 0. -1.
    10030    2    1    2    0    0  0.00000000000E+00  0.00000000000E+00  0.51679358725E+03  0.37600033901E+04  0.37243187138E+04 0.  0.
        5    1    3    3  502    0 -0.10797088726E+04  0.12928249305E+04 -0.54321846308E+03  0.17698237029E+04  0.46999998093E+01 0. -1.
       -5    1    3    3    0  502  0.10797088726E+04 -0.12928249305E+04  0.10600120503E+04  0.19901796872E+04  0.46999998093E+01 0.  1.
</event>
<event>
 5   0  0.3610483E-07  0.3806292E+04  0.7818609E-02  0.8044806E-01
        2   -1    0    0  501    0  0.00000000000E+00  0.00000000000E+00  0.16293102255E+04  0.16293102255E+04  0.25500000920E-02 0. -1.
       -2   -1    0    0    0  501  0.00000000000E+00  0.00000000000E+00 -0.22230047635E+04  0.22230047635E+04  0.25500000920E-02 0.  1.
    10030    2    1    2    0    0  0.00000000000E+00  0.00000000000E+00 -0.59369453794E+03  0.38523149890E+04  0.38062918399E+04 0.  0.
        4    1    3    3  502    0  0.14866996471E+04 -0.60357077022E+03  0.73894762462E+03  0.17665273053E+04  0.12699999809E+01 0. -1.
       -4    1    3    3    0  502 -0.14866996471E+04  0.60357077022E+03 -0.13326421626E+04  0.20857876838E+04  0.12699999809E+01 0.  1.
</event>
<event>
 5   0  0.1187925E-07  0.3402596E+04  0.7818609E-02  0.8137269E-01
        1   -1    0    0  501    0  0.00000000000E+00  0.00000000000E+00  0.18400550906E+04  0.18400550906E+04  0.50400001928E-02 0.  1.
       -1   -1    0    0    0  501  0.00000000000E+00  0.00000000000E+00 -0.15730044136E+04  0.15730044136E+04  0.50400001928E-02 0. -1.
    10030    2    1    2    0    0  0.00000000000E+00  0.00000000000E+00  0.26705067707E+03  0.34130595042E+04  0.34025959377E+04 0.  0.
        4    1    3    3  502    0  0.30933961997E+03 -0.77103871741E+03  0.16227529991E+04  0.18230525536E+04  0.12699999809E+01 0.  1.
       -4    1    3    3    0  502 -0.30933961997E+03  0.77103871741E+03 -0.13557023220E+04  0.15900069506E+04  0.12699999809E+01 0. -1.
</event>
<event>
 5   0  0.1187925E-07  0.3918827E+04  0.7818609E-02  0.8021125E-01
        1   -1    0    0  501    0  0.00000000000E+00  0.00000000000E+00  0.22783373241E+04  0.22783373241E+04  0.50400001928E-02 0. -1.
       -1   -1    0    0    0  501  0.00000000000E+00  0.00000000000E+00 -0.16851329996E+04  0.16851329996E+04  0.50400001928E-02 0.  1.
    10030    2    1    2    0    0  0.00000000000E+00  0.00000000000E+00  0.59320432457E+03  0.39634703237E+04  0.39188270741E+04 0.  0.
        1    1    3    3  502    0 -0.11081547479E+04 -0.19272080803E+03  0.19192964308E+04  0.22246004236E+04  0.50400001928E-02 0. -1.
       -1    1    3    3    0  502  0.11081547479E+04  0.19272080803E+03 -0.13260921063E+04  0.17388699001E+04  0.50400001928E-02 0.  1.
</event>
<event>
 5   0  0.1187925E-07  0.3833875E+04  0.7818609E-02  0.8038924E-01
        1   -1    0    0  501    0  0.00000000000E+00  0.00000000000E+00  0.16287845145E+04  0.16287845145E+04  0.50400001928E-02 0.  1.
       -1   -1    0    0    0  501  0.00000000000E+00  0.00000000000E+00 -0.22560685855E+04  0.22560685855E+04  0.50400001928E-02 0. -1.
    10030    2    1    2    0    0  0.00000000000E+00  0.00000000000E+00 -0.62728407102E+03  0.38848530999E+04  0.38338751026E+04 0.  0.
        5    1    3    3  502    0 -0.99885999474E+03 -0.11292479669E+04  0.88603677138E+03  0.17487153886E+04  0.46999998093E+01 0.  1.
       -5    1    3    3    0  502  0.99885999474E+03  0.11292479669E+04 -0.15133208424E+04  0.21361377114E+04  0.46999998093E+01 0. -1.
</event>
<event>
 5   0  0.3610483E-07  0.2963931E+04  0.7818609E-02  0.8254106E-01
       -2   -1    0    0    0  501  0.00000000000E+00  0.00000000000E+00  0.81746430716E+03  0.81746430716E+03  0.25500000920E-02 0. -1.
        2   -1    0    0  501    0  0.00000000000E+00  0.00000000000E+00 -0.26866268859E+04  0.26866268859E+04  0.25500000920E-02 0.  1.
    10030    2    1    2    0    0  0.00000000000E+00  0.00000000000E+00 -0.18691625788E+04  0.35040911931E+04  0.29639308939E+04 0.  0.
        4    1    3    3  502    0 -0.11878166513E+04 -0.95929859603E+02 -0.19761038865E+04  0.23076176282E+04  0.12699999809E+01 0.  1.
       -4    1    3    3    0  502  0.11878166513E+04  0.95929859603E+02  0.10694130770E+03  0.11964735648E+04  0.12699999809E+01 0. -1.
</event>
<event>
 5   0  0.3665303E-07  0.3926362E+04  0.7818609E-02  0.8019569E-01
       -2   -1    0    0    0  501  0.00000000000E+00  0.00000000000E+00  0.16112028506E+04  0.16112028506E+04  0.25500000920E-02 0. -1.
        2   -1    0    0  501    0  0.00000000000E+00  0.00000000000E+00 -0.23920507300E+04  0.23920507300E+04  0.25500000920E-02 0.  1.
    10030    2    1    2    0    0  0.00000000000E+00  0.00000000000E+00 -0.78084787945E+03  0.40032535806E+04  0.39263616517E+04 0.  0.
        2    1    3    3  502    0  0.64047031789E+03 -0.41036939961E+02 -0.22820722238E+04  0.23705990579E+04  0.25500000920E-02 0.  1.
       -2    1    3    3    0  502 -0.64047031789E+03  0.41036939961E+02  0.15012243443E+04  0.16326545227E+04  0.25500000920E-02 0. -1.
</event>
<event>
 5   0  0.1187925E-07  0.3929854E+04  0.7818609E-02  0.8018849E-01
        1   -1    0    0  501    0  0.00000000000E+00  0.00000000000E+00  0.24878128868E+04  0.24878128868E+04  0.50400001928E-02 0. -1.
       -1   -1    0    0    0  501  0.00000000000E+00  0.00000000000E+00 -0.15519410006E+04  0.15519410006E+04  0.50400001928E-02 0.  1.
    10030    2    1    2    0    0  0.00000000000E+00  0.00000000000E+00  0.93587188620E+03  0.40397538873E+04  0.39298543590E+04 0.  0.
        5    1    3    3  502    0 -0.59667294628E+03 -0.17332225298E+04  0.11954258902E+04  0.21884113168E+04  0.46999998093E+01 0. -1.
       -5    1    3    3    0  502  0.59667294628E+03  0.17332225298E+04 -0.25955400401E+03  0.18513425705E+04  0.46999998093E+01 0.  1.
</event>
<event>
 5   0  0.1187925E-07  0.3826103E+04  0.7818609E-02  0.8040576E-01
       -1   -1    0    0    0  501  0.00000000000E+00  0.00000000000E+00  0.16630145389E+04  0.16630145389E+04  0.50400001928E-02 0.  1.
        1   -1    0    0  501    0  0.00000000000E+00  0.00000000000E+00 -0.22006813955E+04  0.22006813955E+04  0.50400001928E-02 0. -1.
    10030    2    1    2    0    0  0.00000000000E+00  0.00000000000E+00 -0.53766685660E+03  0.38636959344E+04  0.38261025372E+04 0.  0.
        1    1    3    3  502    0 -0.10141486593E+04  0.13511362229E+03  0.13635306728E+04  0.17046903208E+04  0.50400001928E-02 0.  1.
       -1    1    3    3    0  502  0.10141486593E+04 -0.13511362229E+03 -0.19011975294E+04  0.21590056137E+04  0.50400001928E-02 0. -1.
</event>
<event>
 5   0  0.3810833E-07  0.3278766E+04  0.7818609E-02  0.8168320E-01
        2   -1    0    0  501    0  0.00000000000E+00  0.00000000000E+00  0.21627356175E+04  0.21627356175E+04  0.25500000920E-02 0. -1.
       -2   -1    0    0    0  501  0.00000000000E+00  0.00000000000E+00 -0.12426742769E+04  0.12426742769E+04  0.25500000920E-02 0.  1.
    10030    2    1    2    0    0  0.00000000000E+00  0.00000000000E+00  0.92006134064E+03  0.34054098944E+04  0.32787655723E+04 0.  0.
        3    1    3    3  502    0 -0.36414462951E+03  0.15791226322E+04  0.20278193324E+03  0.16332024129E+04  0.10100000352E+00 0.  1.
       -3    1    3    3    0  502  0.36414462951E+03 -0.15791226322E+04  0.71727940739E+03  0.17722074815E+04  0.10100000352E+00 0. -1.
</event>
<event>
 5   0  0.3610483E-07  0.3118262E+04  0.7818609E-02  0.8210744E-01
       -2   -1    0    0    0  501  0.00000000000E+00  0.00000000000E+00  0.89143163947E+03  0.89143163947E+03  0.25500000920E-02 0.  1.
        2   -1    0    0  501    0  0.00000000000E+00  0.00000000000E+00 -0.27269496519E+04  0.27269496519E+04  0.25500000920E-02 0. -1.
    10030    2    1    2    0    0  0.00000000000E+00  0.00000000000E+00 -0.18355180124E+04  0.36183812914E+04  0.31182618228E+04 0.  0.
        4    1    3    3  502    0 -0.87034135879E+03 -0.67075362559E+03  0.36575536368E+03  0.11580946015E+04  0.12699999809E+01 0.  1.
       -4    1    3    3    0  502  0.87034135879E+03  0.67075362559E+03 -0.22012733761E+04  0.24602866899E+04  0.12699999809E+01 0. -1.
</event>
<event>
 5   0  0.3610483E-07  0.3670617E+04  0.7818609E-02  0.8074505E-01
        2   -1    0    0  501    0  0.00000000000E+00  0.00000000000E+00  0.14529667149E+04  0.14529667149E+04  0.25500000920E-02 0. -1.
       -2   -1    0    0    0  501  0.00000000000E+00  0.00000000000E+00 -0.23182620272E+04  0.23182620272E+04  0.25500000920E-02 0.  1.
    10030    2    1    2    0    0  0.00000000000E+00  0.00000000000E+00 -0.86529531230E+03  0.37712287422E+04  0.36706171481E+04 0.  0.
        4    1    3    3  502    0 -0.13689132077E+04  0.41047203853E+03  0.75041184446E+03  0.16141654853E+04  0.12699999809E+01 0. -1.
       -4    1    3    3    0  502  0.13689132077E+04 -0.41047203853E+03 -0.16157071568E+04  0.21570632569E+04  0.12699999809E+01 0.  1.
</event>
<event>
 5   0  0.1187925E-07  0.3892357E+04  0.7818609E-02  0.8026621E-01
        1   -1    0    0  501    0  0.00000000000E+00  0.00000000000E+00  0.25953495998E+04  0.25953495998E+04  0.50400001928E-02 0.  1.
       -1   -1    0    0    0  501  0.00000000000E+00  0.00000000000E+00 -0.14593835527E+04  0.14593835527E+04  0.50400001928E-02 0. -1.
    10030    2    1    2    0    0  0.00000000000E+00  0.00000000000E+00  0.11359660471E+04  0.40547331525E+04  0.38923568795E+04 0.  0.
        3    1    3    3  502    0  0.23616156125E+03  0.16283526486E+03  0.25732059236E+04  0.25891458711E+04  0.10100000352E+00 0.  1.
       -3    1    3    3    0  502 -0.23616156125E+03 -0.16283526486E+03 -0.14372398765E+04  0.14655872814E+04  0.10100000352E+00 0. -1.
</event>
<event>
 5   0  0.1187925E-07  0.3852618E+04  0.7818609E-02  0.8034957E-01
        1   -1    0    0  501    0  0.00000000000E+00  0.00000000000E+00  0.28289823437E+04  0.28289823437E+04  0.50400001928E-02 0. -1.
       -1   -1    0    0    0  501  0.00000000000E+00  0.00000000000E+00 -0.13116612182E+04  0.13116612182E+04  0.50400001928E-02 0.  1.
    10030    2    1    2    0    0  0.00000000000E+00  0.00000000000E+00  0.15173211255E+04  0.41406435619E+04  0.38526180330E+04 0.  0.
        5    1    3    3  502    0 -0.18861996766E+04 -0.38462477541E+03  0.68297648255E+03  0.20425876734E+04  0.46999998093E+01 0. -1.
       -5    1    3    3    0  502  0.18861996766E+04  0.38462477541E+03  0.83434464299E+03  0.20980558885E+04  0.46999998093E+01 0.  1.
</event>
<event>
 5   0  0.1187925E-07  0.3934378E+04  0.7818609E-02  0.8017917E-01
        1   -1    0    0  501    0  0.00000000000E+00  0.00000000000E+00  0.22846984525E+04  0.22846984525E+04  0.50400001928E-02 0.  1.
       -1   -1    0    0    0  501  0.00000000000E+00  0.00000000000E+00 -0.16938047489E+04  0.16938047490E+04  0.50400001928E-02 0. -1.
    10030    2    1    2    0    0  0.00000000000E+00  0.00000000000E+00  0.59089370357E+03  0.39785032015E+04  0.39343782679E+04 0.  0.
        3    1    3    3  502    0 -0.39658855616E+03 -0.10968260408E+04  0.18973608985E+04  0.22271704551E+04  0.10100000352E+00 0.  1.
       -3    1    3    3    0  502  0.39658855616E+03  0.10968260408E+04 -0.13064671950E+04  0.17513327463E+04  0.10100000352E+00 0. -1.
</event>
<event>
 5   0  0.1187925E-07  0.3893451E+04  0.7818609E-02  0.8026393E-01
        1   -1    0    0  501    0  0.00000000000E+00  0.00000000000E+00  0.24587427360E+04  0.24587427360E+04  0.50400001928E-02 0. -1.
       -1   -1    0    0    0  501  0.00000000000E+00  0.00000000000E+00 -0.15413328968E+04  0.15413328968E+04  0.50400001928E-02 0.  1.
    10030    2    1    2    0    0  0.00000000000E+00  0.00000000000E+00  0.91740983922E+03  0.40000756328E+04  0.38934514579E+04 0.  0.
        2    1    3    3  502    0 -0.43096627724E+03  0.16625324160E+04 -0.48290671096E+03  0.17840809561E+04  0.25500000920E-02 0.  1.
       -2    1    3    3    0  502  0.43096627724E+03 -0.16625324160E+04  0.14003165502E+04  0.22159946767E+04  0.25500000920E-02 0. -1.
</event>
<event>
 5   0  0.3810833E-07  0.3928821E+04  0.7818609E-02  0.8019062E-01
        2   -1    0    0  501    0  0.00000000000E+00  0.00000000000E+00  0.18019843582E+04  0.18019843582E+04  0.25500000920E-02 0.  1.
       -2   -1    0    0    0  501  0.00000000000E+00  0.00000000000E+00 -0.21414774667E+04  0.21414774667E+04  0.25500000920E-02 0. -1.
    10030    2    1    2    0    0  0.00000000000E+00  0.00000000000E+00 -0.33949310847E+03  0.39434618250E+04  0.39288211456E+04 0.  0.
        3    1    3    3  502    0  0.10653862169E+04  0.80150007276E+03 -0.16178489919E+04  0.20963982276E+04  0.10100000352E+00 0. -1.
       -3    1    3    3    0  502 -0.10653862169E+04 -0.80150007276E+03  0.12783558834E+04  0.18470635974E+04  0.10100000352E+00 0.  1.
</event>
<event>
 5   0  0.3810833E-07  0.3918485E+04  0.7818609E-02  0.8021196E-01
        2   -1    0    0  501    0  0.00000000000E+00  0.00000000000E+00  0.15874710919E+04  0.15874710919E+04  0.25500000920E-02 0.  1.
       -2   -1    0    0    0  501  0.00000000000E+00  0.00000000000E+00 -0.24180788254E+04  0.24180788254E+04  0.25500000920E-02 0. -1.
    10030    2    1    2    0    0  0.00000000000E+00  0.00000000000E+00 -0.83060773358E+03  0.40055499173E+04  0.39184845199E+04 0.  0.
        3    1    3    3  502    0  0.65766638806E+03 -0.70569407966E+03 -0.21585100455E+04  0.23642535479E+04  0.10100000352E+00 0. -1.
       -3    1    3    3    0  502 -0.65766638806E+03  0.70569407966E+03  0.13279023119E+04  0.16412963694E+04  0.10100000352E+00 0.  1.
</event>
<event>
 5   0  0.1187925E-07  0.3940625E+04  0.7818609E-02  0.8016633E-01
        1   -1    0    0  501    0  0.00000000000E+00  0.00000000000E+00  0.13220532201E+04  0.13220532202E+04  0.50400001928E-02 0. -1.
       -1   -1    0    0    0  501  0.00000000000E+00  0.00000000000E+00 -0.29364417714E+04  0.29364417714E+04  0.50400001928E-02 0.  1.
    10030    2    1    2    0    0  0.00000000000E+00  0.00000000000E+00 -0.16143885512E+04  0.42584949915E+04  0.39406254832E+04 0.  0.
        3    1    3    3  502    0 -0.12860568632E+04 -0.67663599759E+03  0.63068031206E+03  0.15841515694E+04  0.10100000352E+00 0. -1.
       -3    1    3    3    0  502  0.12860568632E+04  0.67663599759E+03 -0.22450688633E+04  0.26743434222E+04  0.10100000352E+00 0.  1.
</event>
<event>
 5   0  0.3665303E-07  0.3904320E+04  0.7818609E-02  0.8024131E-01
       -2   -1    0    0    0  501  0.00000000000E+00  0.00000000000E+00  0.19405580945E+04  0.19405580945E+04  0.25500000920E-02 0. -1.
        2   -1    0    0  501    0  0.00000000000E+00  0.00000000000E+00 -0.19638309100E+04  0.19638309100E+04  0.25500000920E-02 0.  1.
    10030    2    1    2    0    0  0.00000000000E+00  0.00000000000E+00 -0.23272815464E+02  0.39043890045E+04  0.39043196430E+04 0.  0.
        2    1    3    3  502    0 -0.98126173475E+03 -0.48111703625E+03 -0.16292496939E+04  0.19618365783E+04  0.25500000920E-02 0.  1.
       -2    1    3    3    0  502  0.98126173475E+03  0.48111703625E+03  0.16059768785E+04  0.19425524263E+04  0.25500000920E-02 0. -1.
</event>
<event>
 5   0  0.3680814E-07  0.3928416E+04  0.7818609E-02  0.8019145E-01
        2   -1    0    0  501    0  0.00000000000E+00  0.00000000000E+00  0.27061325528E+04  0.27061325528E+04  0.25500000920E-02 0.  1.
       -2   -1    0    0    0  501  0.00000000000E+00  0.00000000000E+00 -0.14256926891E+04  0.14256926891E+04  0.25500000920E-02 0. -1.
    10030    2    1    2    0    0  0.00000000000E+00  0.00000000000E+00  0.12804398637E+04  0.41318252420E+04  0.39284161676E+04 0.  0.
        1    1    3    3  502    0  0.34861662682E+03  0.73366182393E+03  0.25212053264E+04  0.26488241773E+04  0.50400001928E-02 0.  1.
       -1    1    3    3    0  502 -0.34861662682E+03 -0.73366182393E+03 -0.12407654627E+04  0.14830010647E+04  0.50400001928E-02 0. -1.
</event>
<event>
 5   0  0.3610483E-07  0.3795283E+04  0.7818609E-02  0.8047168E-01
        2   -1    0    0  501    0  0.00000000000E+00  0.00000000000E+00  0.28708047460E+04  0.28708047460E+04  0.25500000920E-02 0. -1.
       -2   -1    0    0    0  501  0.00000000000E+00  0.00000000000E+00 -0.12543673450E+04  0.12543673450E+04  0.25500000920E-02 0.  1.
    10030    2    1    2    0    0  0.00000000000E+00  0.00000000000E+00  0.16164374010E+04  0.41251720911E+04  0.37952832450E+04 0.  0.
        4    1    3    3  502    0 -0.14642962618E+04 -0.12031871880E+04  0.91258099569E+03  0.21034801255E+04  0.12699999809E+01 0.  1.
       -4    1    3    3    0  502  0.14642962618E+04  0.12031871880E+04  0.70385640529E+03  0.20216919656E+04  0.12699999809E+01 0. -1.
</event>
<event>
 5   0  0.1187925E-07  0.3835636E+04  0.7818609E-02  0.8038551E-01
       -1   -1    0    0    0  501  0.00000000000E+00  0.00000000000E+00  0.21031746258E+04  0.21031746258E+04  0.50400001928E-02 0.  1.
        1   -1    0    0  501    0  0.00000000000E+00  0.00000000000E+00 -0.17487968138E+04  0.17487968138E+04  0.50400001928E-02 0. -1.
    10030    2    1    2    0    0  0.00000000000E+00  0.00000000000E+00  0.35437781199E+03  0.38519714396E+04  0.38356355846E+04 0.  0.
        5    1    3    3  502    0 -0.49385176039E+03  0.13386480210E+04  0.14641047154E+04  0.20443807848E+04  0.46999998093E+01 0.  1.
       -5    1    3    3    0  502  0.49385176039E+03 -0.13386480210E+04 -0.11097269034E+04  0.18075906549E+04  0.46999998093E+01 0. -1.
</event>
<event>
 5   0  0.3680814E-07  0.3181413E+04  0.7818609E-02  0.8193743E-01
       -2   -1    0    0    0  501  0.00000000000E+00  0.00000000000E+00  0.21045959815E+04  0.21045959815E+04  0.25500000920E-02 0. -1.
        2   -1    0    0  501    0  0.00000000000E+00  0.00000000000E+00 -0.12022956217E+04  0.12022956217E+04  0.25500000920E-02 0.  1.
    10030    2    1    2    0    0  0.00000000000E+00  0.00000000000E+00  0.90230035978E+03  0.33068916033E+04  0.31814126008E+04 0.  0.
        1    1    3    3  502    0 -0.41522730460E+03 -0.26268450331E+03  0.20237426324E+04  0.20825347788E+04  0.50400001928E-02 0. -1.
       -1    1    3    3    0  502  0.41522730460E+03  0.26268450331E+03 -0.11214422726E+04  0.12243568245E+04  0.50400001928E-02 0.  1.
</event>
<event>
 5   0  0.3810833E-07  0.3899396E+04  0.7818609E-02  0.8025155E-01
       -2   -1    0    0    0  501  0.00000000000E+00  0.00000000000E+00  0.17449062397E+04  0.17449062397E+04  0.25500000920E-02 0.  1.
        2   -1    0    0  501    0  0.00000000000E+00  0.00000000000E+00 -0.21785254433E+04  0.21785254433E+04  0.25500000920E-02 0. -1.
    10030    2    1    2    0    0  0.00000000000E+00  0.00000000000E+00 -0.43361920354E+03  0.39234316830E+04  0.38993961786E+04 0.  0.
        3    1    3    3  502    0 -0.44660666954E+03  0.11232365780E+04 -0.17560117359E+04  0.21318290631E+04  0.10100000352E+00 0. -1.
       -3    1    3    3    0  502  0.44660666954E+03 -0.11232365780E+04  0.13223925324E+04  0.17916026199E+04  0.10100000352E+00 0.  1.
</event>
<event>
 5   0  0.1187925E-07  0.3057409E+04  0.7818609E-02  0.8227525E-01
       -1   -1    0    0    0  501  0.00000000000E+00  0.00000000000E+00  0.21463157636E+04  0.21463157636E+04  0.50400001928E-02 0. -1.
        1   -1    0    0  501    0  0.00000000000E+00  0.00000000000E+00 -0.10888131299E+04  0.10888131299E+04  0.50400001928E-02 0.  1.
    10030    2    1    2    0    0  0.00000000000E+00  0.00000000000E+00  0.10575026337E+04  0.32351288935E+04  0.30574085656E+04 0.  0.
        4    1    3    3  502    0  0.12018822977E+04 -0.20359346058E+02 -0.47060518637E+03  0.12908936497E+04  0.12699999809E+01 0.  1.
       -4    1    3    3    0  502 -0.12018822977E+04  0.20359346058E+02  0.15281078201E+04  0.19442352438E+04  0.12699999809E+01 0. -1.
</event>
<event>
 5   0  0.3832389E-07  0.2861967E+04  0.7818609E-02  0.8284284E-01
        2   -1    0    0  501    0  0.00000000000E+00  0.00000000000E+00  0.16863150194E+04  0.16863150194E+04  0.25500000920E-02 0.  1.
       -2   -1    0    0    0  501  0.00000000000E+00  0.00000000000E+00 -0.12143124122E+04  0.12143124122E+04  0.25500000920E-02 0. -1.
    10030    2    1    2    0    0  0.00000000000E+00  0.00000000000E+00  0.47200260721E+03  0.29006274316E+04  0.28619666377E+04 0.  0.
        5    1    3    3  502    0  0.91562291362E+03  0.10458111879E+04  0.58060135022E+03  0.15063885218E+04  0.46999998093E+01 0.  1.
       -5    1    3    3    0  502 -0.91562291362E+03 -0.10458111879E+04 -0.10859874301E+03  0.13942389098E+04  0.46999998093E+01 0. -1.
</event>
<event>
 5   0  0.3665303E-07  0.3825675E+04  0.7818609E-02  0.8040668E-01
       -2   -1    0    0    0  501  0.00000000000E+00  0.00000000000E+00  0.17301653815E+04  0.17301653815E+04  0.25500000920E-02 0.  1.
        2   -1    0    0  501    0  0.00000000000E+00  0.00000000000E+00 -0.21147958759E+04  0.21147958759E+04  0.25500000920E-02 0. -1.
    10030    2    1    2    0    0  0.00000000000E+00  0.00000000000E+00 -0.38463049440E+03  0.38449612574E+04  0.38256746403E+04 0.  0.
        2    1    3    3  502    0  0.81973582346E+03 -0.86227266548E+03 -0.16976866014E+04  0.20730703719E+04  0.25500000920E-02 0. -1.
       -2    1    3    3    0  502 -0.81973582346E+03  0.86227266548E+03  0.13130561070E+04  0.17718908855E+04  0.25500000920E-02 0.  1.
</event>
<event>
 5   0  0.3665303E-07  0.3773499E+04  0.7818609E-02  0.8051866E-01
        2   -1    0    0  501    0  0.00000000000E+00  0.00000000000E+00  0.17994778204E+04  0.17994778204E+04  0.25500000920E-02 0.  1.
       -2   -1    0    0    0  501  0.00000000000E+00  0.00000000000E+00 -0.19782536667E+04  0.19782536667E+04  0.25500000920E-02 0. -1.
    10030    2    1    2    0    0  0.00000000000E+00  0.00000000000E+00 -0.17877584626E+03  0.37777314871E+04  0.37734989580E+04 0.  0.
        2    1    3    3  502    0 -0.31317307013E+03  0.23041069896E+03 -0.19377136613E+04  0.19763351678E+04  0.25500000920E-02 0. -1.
       -2    1    3    3    0  502  0.31317307013E+03 -0.23041069896E+03  0.17589378151E+04  0.18013963194E+04  0.25500000920E-02 0.  1.
</event>
<event>
 5   0  0.1187925E-07  0.3940252E+04  0.7818609E-02  0.8016709E-01
       -1   -1    0    0    0  501  0.00000000000E+00  0.00000000000E+00  0.25900554977E+04  0.25900554977E+04  0.50400001928E-02 0.  1.
        1   -1    0    0  501    0  0.00000000000E+00  0.00000000000E+00 -0.14985764929E+04  0.14985764930E+04  0.50400001928E-02 0. -1.
    10030    2    1    2    0    0  0.00000000000E+00  0.00000000000E+00  0.10914790048E+04  0.40886319907E+04  0.39402519129E+04 0.  0.
        3    1    3    3  502    0  0.46689498112E+03 -0.74581376705E+03 -0.12833558405E+04  0.15560306302E+04  0.10100000352E+00 0. -1.
       -3    1    3    3    0  502 -0.46689498112E+03  0.74581376705E+03  0.23748348453E+04  0.25326013605E+04  0.10100000352E+00 0.  1.
</event>
<event>
 5   0  0.1187925E-07  0.3876341E+04  0.7818609E-02  0.8029968E-01
       -1   -1    0    0    0  501  0.00000000000E+00  0.00000000000E+00  0.14474934775E+04  0.14474934775E+04  0.50400001928E-02 0. -1.
        1   -1    0    0  501    0  0.00000000000E+00  0.00000000000E+00 -0.25951789400E+04  0.25951789400E+04  0.50400001928E-02 0.  1.
    10030    2    1    2    0    0  0.00000000000E+00  0.00000000000E+00 -0.11476854625E+04  0.40426724175E+04  0.38763408460E+04 0.  0.
        2    1    3    3  502    0  0.26161398698E+03 -0.93050649985E+03 -0.23258748136E+04  0.25187254462E+04  0.25500000920E-02 0.  1.
       -2    1    3    3    0  502 -0.26161398698E+03  0.93050649985E+03  0.11781893511E+04  0.15239469714E+04  0.25500000920E-02 0. -1.
</event>
<event>
 5   0  0.3680814E-07  0.3885556E+04  0.7818609E-02  0.8028040E-01
       -2   -1    0    0    0  501  0.00000000000E+00  0.00000000000E+00  0.32176568904E+04  0.32176568904E+04  0.25500000920E-02 0. -1.
        2   -1    0    0  501    0  0.00000000000E+00  0.00000000000E+00 -0.11730232483E+04  0.11730232483E+04  0.25500000920E-02 0.  1.
    10030    2    1    2    0    0  0.00000000000E+00  0.00000000000E+00  0.20446336421E+04  0.43906801387E+04  0.38855559898E+04 0.  0.
        1    1    3    3  502    0 -0.48752304770E+03  0.16900857353E+04  0.90276817710E+02  0.17613115620E+04  0.50400001928E-02 0.  1.
       -1    1    3    3    0  502  0.48752304770E+03 -0.16900857353E+04  0.19543568244E+04  0.26293685766E+04  0.50400001928E-02 0. -1.
</event>
<event>
 5   0  0.1187925E-07  0.3868877E+04  0.7818609E-02  0.8031534E-01
       -1   -1    0    0    0  501  0.00000000000E+00  0.00000000000E+00  0.26708967554E+04  0.26708967554E+04  0.50400001928E-02 0. -1.
        1   -1    0    0  501    0  0.00000000000E+00  0.00000000000E+00 -0.14010471281E+04  0.14010471281E+04  0.50400001928E-02 0.  1.
    10030    2    1    2    0    0  0.00000000000E+00  0.00000000000E+00  0.12698496273E+04  0.40719438835E+04  0.38688769578E+04 0.  0.
        2    1    3    3  502    0 -0.14753815576E+04 -0.81035722311E+03 -0.36832398347E+03  0.17231053730E+04  0.25500000920E-02 0.  1.
       -2    1    3    3    0  502  0.14753815576E+04  0.81035722311E+03  0.16381736108E+04  0.23488385105E+04  0.25500000920E-02 0. -1.
</event>
<event>
 5   0  0.1187925E-07  0.3879459E+04  0.7818609E-02  0.8029315E-01
        1   -1    0    0  501    0  0.00000000000E+00  0.00000000000E+00  0.26455482567E+04  0.26455482567E+04  0.50400001928E-02 0.  1.
       -1   -1    0    0    0  501  0.00000000000E+00  0.00000000000E+00 -0.14222193756E+04  0.14222193756E+04  0.50400001928E-02 0. -1.
    10030    2    1    2    0    0  0.00000000000E+00  0.00000000000E+00  0.12233288811E+04  0.40677676323E+04  0.38794587199E+04 0.  0.
        5    1    3    3  502    0 -0.67577259608E+03 -0.15696954649E+03 -0.12876753513E+04  0.14626817632E+04  0.46999998093E+01 0. -1.
       -5    1    3    3    0  502  0.67577259608E+03  0.15696954649E+03  0.25110042324E+04  0.26050858691E+04  0.46999998093E+01 0.  1.
</event>
<event>
 5   0  0.3832389E-07  0.3888516E+04  0.7818609E-02  0.8027422E-01
        2   -1    0    0  501    0  0.00000000000E+00  0.00000000000E+00  0.16404080065E+04  0.16404080065E+04  0.25500000920E-02 0. -1.
       -2   -1    0    0    0  501  0.00000000000E+00  0.00000000000E+00 -0.23043891042E+04  0.23043891042E+04  0.25500000920E-02 0.  1.
    10030    2    1    2    0    0  0.00000000000E+00  0.00000000000E+00 -0.66398109778E+03  0.39447971107E+04  0.38885155711E+04 0.  0.
        5    1    3    3  502    0  0.11400285649E+04 -0.15748760411E+04 -0.34691996321E+03  0.19749114473E+04  0.46999998093E+01 0. -1.
       -5    1    3    3    0  502 -0.11400285649E+04  0.15748760411E+04 -0.31706113457E+03  0.19698856634E+04  0.46999998093E+01 0.  1.
</event>
<event>
 5   0  0.1187925E-07  0.3923082E+04  0.7818609E-02  0.8020246E-01
       -1   -1    0    0    0  501  0.00000000000E+00  0.00000000000E+00  0.23816020784E+04  0.23816020784E+04  0.50400001928E-02 0. -1.
        1   -1    0    0  501    0  0.00000000000E+00  0.00000000000E+00 -0.16155694693E+04  0.16155694693E+04  0.50400001928E-02 0.  1.
    10030    2    1    2    0    0  0.00000000000E+00  0.00000000000E+00  0.76603260908E+03  0.39971715477E+04  0.39230822606E+04 0.  0.
        2    1    3    3  502    0 -0.13160867312E+04 -0.11753894978E+04 -0.48991281129E+03  0.18312944379E+04  0.25500000920E-02 0.  1.
       -2    1    3    3    0  502  0.13160867312E+04  0.11753894978E+04  0.12559454204E+04  0.21658771098E+04  0.25500000920E-02 0. -1.
</event>
<event>
 5   0  0.1187925E-07  0.3864343E+04  0.7818609E-02  0.8032486E-01
        1   -1    0    0  501    0  0.00000000000E+00  0.00000000000E+00  0.28622295356E+04  0.28622295356E+04  0.50400001928E-02 0. -1.
       -1   -1    0    0    0  501  0.00000000000E+00  0.00000000000E+00 -0.13043279551E+04  0.13043279551E+04  0.50400001928E-02 0.  1.
    10030    2    1    2    0    0  0.00000000000E+00  0.00000000000E+00  0.15579015805E+04  0.41665574907E+04  0.38643426334E+04 0.  0.
        3    1    3    3  502    0 -0.47233723564E+03 -0.18611988454E+04  0.10105076285E+04  0.21698592774E+04  0.10100000352E+00 0.  1.
       -3    1    3    3    0  502  0.47233723564E+03  0.18611988454E+04  0.54739395206E+03  0.19966982133E+04  0.10100000352E+00 0. -1.
</event>
<event>
 5   0  0.1187925E-07  0.3330960E+04  0.7818609E-02  0.8155062E-01
        1   -1    0    0  501    0  0.00000000000E+00  0.00000000000E+00  0.20152304410E+04  0.20152304410E+04  0.50400001928E-02 0.  1.
       -1   -1    0    0    0  501  0.00000000000E+00  0.00000000000E+00 -0.13764296710E+04  0.13764296710E+04  0.50400001928E-02 0. -1.
    10030    2    1    2    0    0  0.00000000000E+00  0.00000000000E+00  0.63880076998E+03  0.33916601120E+04  0.33309596052E+04 0.  0.
        5    1    3    3  502    0  0.58188071588E+03 -0.15597999778E+04  0.27121201738E+03  0.16867540386E+04  0.46999998093E+01 0. -1.
       -5    1    3    3    0  502 -0.58188071588E+03  0.15597999778E+04  0.36758875260E+03  0.17049060735E+04  0.46999998093E+01 0.  1.
</event>
<event>
 5   0  0.3665303E-07  0.3889216E+04  0.7818609E-02  0.8027276E-01
        2   -1    0    0  501    0  0.00000000000E+00  0.00000000000E+00  0.13599225147E+04  0.13599225147E+04  0.25500000920E-02 0. -1.
       -2   -1    0    0    0  501  0.00000000000E+00  0.00000000000E+00 -0.27806737769E+04  0.27806737769E+04  0.25500000920E-02 0.  1.
    10030    2    1    2    0    0  0.00000000000E+00  0.00000000000E+00 -0.14207512622E+04  0.41405962915E+04  0.38892163093E+04 0.  0.
        2    1    3    3  502    0  0.75060116264E+03  0.88524752512E+03 -0.23714915290E+04  0.26402722129E+04  0.25500000920E-02 0.  1.
       -2    1    3    3    0  502 -0.75060116264E+03 -0.88524752512E+03  0.95074026679E+03  0.15003240787E+04  0.25500000920E-02 0. -1.
</event>
<event>
 5   0  0.3680814E-07  0.3832712E+04  0.7818609E-02  0.8039171E-01
        2   -1    0    0  501    0  0.00000000000E+00  0.00000000000E+00  0.20138764694E+04  0.20138764695E+04  0.25500000920E-02 0. -1.
       -2   -1    0    0    0  501  0.00000000000E+00  0.00000000000E+00 -0.18235576759E+04  0.18235576760E+04  0.25500000920E-02 0.  1.
    10030    2    1    2    0    0  0.00000000000E+00  0.00000000000E+00  0.19031879350E+03  0.38374341454E+04  0.38327117785E+04 0.  0.
        1    1    3    3  502    0 -0.16394383085E+03  0.16158495216E+04  0.11135520751E+04  0.19692245885E+04  0.50400001928E-02 0. -1.
       -1    1    3    3    0  502  0.16394383085E+03 -0.16158495216E+04 -0.92323328155E+03  0.18682095569E+04  0.50400001928E-02 0.  1.
</event>
<event>
 5   0  0.1187925E-07  0.3807753E+04  0.7818609E-02  0.8044493E-01
        1   -1    0    0  501    0  0.00000000000E+00  0.00000000000E+00  0.25999607190E+04  0.25999607190E+04  0.50400001928E-02 0.  1.
       -1   -1    0    0    0  501  0.00000000000E+00  0.00000000000E+00 -0.13941538702E+04  0.13941538702E+04  0.50400001928E-02 0. -1.
    10030    2    1    2    0    0  0.00000000000E+00  0.00000000000E+00  0.12058068488E+04  0.39941145892E+04  0.38077527750E+04 0.  0.
        3    1    3    3  502    0  0.53633325658E+03  0.26801984976E+03 -0.12925384930E+04  0.14248311367E+04  0.10100000352E+00 0. -1.
       -3    1    3    3    0  502 -0.53633325658E+03 -0.26801984976E+03  0.24983453419E+04  0.25692834525E+04  0.10100000352E+00 0.  1.
</event>
<event>
 5   0  0.3680814E-07  0.3933520E+04  0.7818609E-02  0.8018094E-01
        2   -1    0    0  501    0  0.00000000000E+00  0.00000000000E+00  0.20734138750E+04  0.20734138750E+04  0.25500000920E-02 0.  1.
       -2   -1    0    0    0  501  0.00000000000E+00  0.00000000000E+00 -0.18655923548E+04  0.18655923548E+04  0.25500000920E-02 0. -1.
    10030    2    1    2    0    0  0.00000000000E+00  0.00000000000E+00  0.20782152025E+03  0.39390062298E+04  0.39335200895E+04 0.  0.
        1    1    3    3  502    0 -0.60790441687E+03 -0.11421611977E+03 -0.17656564241E+04  0.18708649631E+04  0.50400001928E-02 0. -1.
       -1    1    3    3    0  502  0.60790441687E+03  0.11421611977E+03  0.19734779444E+04  0.20681412667E+04  0.50400001928E-02 0.  1.
</event>
<event>
 5   0  0.3680814E-07  0.3891800E+04  0.7818609E-02  0.8026737E-01
       -2   -1    0    0    0  501  0.00000000000E+00  0.00000000000E+00  0.24655687028E+04  0.24655687028E+04  0.25500000920E-02 0. -1.
        2   -1    0    0  501    0  0.00000000000E+00  0.00000000000E+00 -0.15357617904E+04  0.15357617904E+04  0.25500000920E-02 0.  1.
    10030    2    1    2    0    0  0.00000000000E+00  0.00000000000E+00  0.92980691239E+03  0.40013304932E+04  0.38917996893E+04 0.  0.
        1    1    3    3  502    0 -0.24250412369E+03  0.84437642279E+03 -0.13202655504E+04  0.15858376074E+04  0.50400001928E-02 0.  1.
       -1    1    3    3    0  502  0.24250412369E+03 -0.84437642279E+03  0.22500724628E+04  0.24154928858E+04  0.50400001928E-02 0. -1.
</event>
<event>
 5   0  0.3832389E-07  0.2989643E+04  0.7818609E-02  0.8246695E-01
        2   -1    0    0  501    0  0.00000000000E+00  0.00000000000E+00  0.26979123172E+04  0.26979123172E+04  0.25500000920E-02 0.  1.
       -2   -1    0    0    0  501  0.00000000000E+00  0.00000000000E+00 -0.82822965504E+03  0.82822965505E+03  0.25500000920E-02 0. -1.
    10030    2    1    2    0    0  0.00000000000E+00  0.00000000000E+00  0.18696826622E+04  0.35261419723E+04  0.29896427799E+04 0.  0.
        5    1    3    3  502    0  0.12771996927E+04 -0.28766803591E+03  0.83936003481E+02  0.13118914957E+04  0.46999998093E+01 0. -1.
       -5    1    3    3    0  502 -0.12771996927E+04  0.28766803591E+03  0.17857466587E+04  0.22142504766E+04  0.46999998093E+01 0.  1.
</event>
<event>
 5   0  0.3680814E-07  0.3923113E+04  0.7818609E-02  0.8020239E-01
       -2   -1    0    0    0  501  0.00000000000E+00  0.00000000000E+00  0.30825126225E+04  0.30825126225E+04  0.25500000920E-02 0.  1.
        2   -1    0    0  501    0  0.00000000000E+00  0.00000000000E+00 -0.12482364464E+04  0.12482364464E+04  0.25500000920E-02 0. -1.
    10030    2    1    2    0    0  0.00000000000E+00  0.00000000000E+00  0.18342761760E+04  0.43307490689E+04  0.39231133565E+04 0.  0.
        1    1    3    3  502    0 -0.16151995255E+04 -0.51992493836E+03 -0.16924982539E+03  0.17052380925E+04  0.50400001928E-02 0. -1.
       -1    1    3    3    0  502  0.16151995255E+04  0.51992493836E+03  0.20035260014E+04  0.26255109764E+04  0.50400001928E-02 0.  1.
</event>
<event>
 5   0  0.1187925E-07  0.3915393E+04  0.7818609E-02  0.8021835E-01
        1   -1    0    0  501    0  0.00000000000E+00  0.00000000000E+00  0.15646088933E+04  0.15646088933E+04  0.50400001928E-02 0.  1.
       -1   -1    0    0    0  501  0.00000000000E+00  0.00000000000E+00 -0.24495422141E+04  0.24495422142E+04  0.50400001928E-02 0. -1.
    10030    2    1    2    0    0  0.00000000000E+00  0.00000000000E+00 -0.88493332085E+03  0.40141511075E+04  0.39153929728E+04 0.  0.
        1    1    3    3  502    0  0.15034321863E+04 -0.68824677272E+03 -0.15170371522E+04  0.22439682885E+04  0.50400001928E-02 0. -1.
       -1    1    3    3    0  502 -0.15034321863E+04  0.68824677272E+03  0.63210383130E+03  0.17701828189E+04  0.50400001928E-02 0.  1.
</event>
<event>
 5   0  0.1187925E-07  0.3898898E+04  0.7818609E-02  0.8025258E-01
       -1   -1    0    0    0  501  0.00000000000E+00  0.00000000000E+00  0.17069720623E+04  0.17069720623E+04  0.50400001928E-02 0.  1.
        1   -1    0    0  501    0  0.00000000000E+00  0.00000000000E+00 -0.22263701339E+04  0.22263701340E+04  0.50400001928E-02 0. -1.
    10030    2    1    2    0    0  0.00000000000E+00  0.00000000000E+00 -0.51939807165E+03  0.39333421963E+04  0.38988981105E+04 0.  0.
        1    1    3    3  502    0  0.92224509163E+03 -0.14173586900E+04 -0.12382734954E+04  0.20958919139E+04  0.50400001928E-02 0. -1.
       -1    1    3    3    0  502 -0.92224509163E+03  0.14173586900E+04  0.71887542380E+03  0.18374502824E+04  0.50400001928E-02 0.  1.
</event>
<event>
 5   0  0.1187925E-07  0.3703813E+04  0.7818609E-02  0.8067117E-01
        1   -1    0    0  501    0  0.00000000000E+00  0.00000000000E+00  0.19313950651E+04  0.19313950651E+04  0.50400001928E-02 0. -1.
       -1   -1    0    0    0  501  0.00000000000E+00  0.00000000000E+00 -0.17756898338E+04  0.17756898338E+04  0.50400001928E-02 0.  1.
    10030    2    1    2    0    0  0.00000000000E+00  0.00000000000E+00  0.15570523132E+03  0.37070848989E+04  0.37038134845E+04 0.  0.
        3    1    3    3  502    0  0.59441995526E+03 -0.17498541123E+04 -0.41559401994E+02  0.18485268978E+04  0.10100000352E+00 0.  1.
       -3    1    3    3    0  502 -0.59441995526E+03  0.17498541123E+04  0.19726463332E+03  0.18585580011E+04  0.10100000352E+00 0. -1.
</event>
<event>
 5   0  0.3832389E-07  0.3770592E+04  0.7818609E-02  0.8052495E-01
        2   -1    0    0  501    0  0.00000000000E+00  0.00000000000E+00  0.15669724531E+04  0.15669724531E+04  0.25500000920E-02 0. -1.
       -2   -1    0    0    0  501  0.00000000000E+00  0.00000000000E+00 -0.22682851736E+04  0.22682851736E+04  0.25500000920E-02 0.  1.
    10030    2    1    2    0    0  0.00000000000E+00  0.00000000000E+00 -0.70131272049E+03  0.38352576266E+04  0.37705916685E+04 0.  0.
        5    1    3    3  502    0 -0.17852565189E+04 -0.36186417283E+03 -0.84502873542E+03  0.20080294250E+04  0.46999998093E+01 0. -1.
       -5    1    3    3    0  502  0.17852565189E+04  0.36186417283E+03  0.14371601492E+03  0.18272282016E+04  0.46999998093E+01 0.  1.
</event>
<event>
 5   0  0.3680814E-07  0.3629954E+04  0.7818609E-02  0.8083665E-01
        2   -1    0    0  501    0  0.00000000000E+00  0.00000000000E+00  0.21588045495E+04  0.21588045495E+04  0.25500000920E-02 0. -1.
       -2   -1    0    0    0  501  0.00000000000E+00  0.00000000000E+00 -0.15259097817E+04  0.15259097817E+04  0.25500000920E-02 0.  1.
    10030    2    1    2    0    0  0.00000000000E+00  0.00000000000E+00  0.63289476780E+03  0.36847143312E+04  0.36299537071E+04 0.  0.
        1    1    3    3  502    0 -0.57699647788E+03 -0.17148403174E+04  0.46192277073E+03  0.18673443432E+04  0.50400001928E-02 0.  1.
       -1    1    3    3    0  502  0.57699647788E+03  0.17148403174E+04  0.17097199707E+03  0.18173699881E+04  0.50400001928E-02 0. -1.
</event>
<event>
 5   0  0.1187925E-07  0.3847691E+04  0.7818609E-02  0.8035997E-01
        1   -1    0    0  501    0  0.00000000000E+00  0.00000000000E+00  0.19804658824E+04  0.19804658824E+04  0.50400001928E-02 0.  1.
       -1   -1    0    0    0  501  0.00000000000E+00  0.00000000000E+00 -0.18688436512E+04  0.18688436512E+04  0.50400001928E-02 0. -1.
    10030    2    1    2    0    0  0.00000000000E+00  0.00000000000E+00  0.11162223119E+03  0.38493095335E+04  0.38476907831E+04 0.  0.
        5    1    3    3  502    0  0.18583001623E+04 -0.48554216566E+03  0.16598606740E+03  0.19278496187E+04  0.46999998093E+01 0. -1.
       -5    1    3    3    0  502 -0.18583001623E+04  0.48554216566E+03 -0.54363836218E+02  0.19214599149E+04  0.46999998093E+01 0.  1.
</event>
<event>
 5   0  0.1187925E-07  0.3869349E+04  0.7818609E-02  0.8031434E-01
        1   -1    0    0  501    0  0.00000000000E+00  0.00000000000E+00  0.26950427698E+04  0.26950427698E+04  0.50400001928E-02 0. -1.
       -1   -1    0    0    0  501  0.00000000000E+00  0.00000000000E+00 -0.13888337232E+04  0.13888337232E+04  0.50400001928E-02 0.  1.
    10030    2    1    2    0    0  0.00000000000E+00  0.00000000000E+00  0.13062090466E+04  0.40838764930E+04  0.38693494462E+04 0.  0.
        5    1    3    3  502    0  0.37623689195E+03 -0.68217102075E+03  0.25221718130E+04  0.26397507922E+04  0.46999998093E+01 0. -1.
       -5    1    3    3    0  502 -0.37623689195E+03  0.68217102075E+03 -0.12159627664E+04  0.14441257008E+04  0.46999998093E+01 0.  1.
</event>
<event>
 5   0  0.3680814E-07  0.3495531E+04  0.7818609E-02  0.8114850E-01
        2   -1    0    0  501    0  0.00000000000E+00  0.00000000000E+00  0.19308315272E+04  0.19308315272E+04  0.25500000920E-02 0.  1.
       -2   -1    0    0    0  501  0.00000000000E+00  0.00000000000E+00 -0.15820558903E+04  0.15820558903E+04  0.25500000920E-02 0. -1.
    10030    2    1    2    0    0  0.00000000000E+00  0.00000000000E+00  0.34877563685E+03  0.35128874175E+04  0.34955305124E+04 0.  0.
        1    1    3    3  502    0  0.92328495973E+03  0.12395937244E+04  0.99430394471E+03  0.18378487568E+04  0.50400001928E-02 0.  1.
       -1    1    3    3    0  502 -0.92328495973E+03 -0.12395937244E+04 -0.64552830785E+03  0.16750386607E+04  0.50400001928E-02 0. -1.
</event>
<event>
 5   0  0.1187925E-07  0.3882934E+04  0.7818609E-02  0.8028588E-01
        1   -1    0    0  501    0  0.00000000000E+00  0.00000000000E+00  0.13136921931E+04  0.13136921931E+04  0.50400001928E-02 0. -1.
       -1   -1    0    0    0  501  0.00000000000E+00  0.00000000000E+00 -0.28692365985E+04  0.28692365985E+04  0.50400001928E-02 0.  1.
    10030    2    1    2    0    0  0.00000000000E+00  0.00000000000E+00 -0.15555444054E+04  0.41829287917E+04  0.38829337979E+04 0.  0.
        3    1    3    3  502    0  0.69995369988E+03 -0.18108836116E+04 -0.76949250534E+03  0.20883853482E+04  0.10100000352E+00 0. -1.
       -3    1    3    3    0  502 -0.69995369988E+03  0.18108836116E+04 -0.78605190009E+03  0.20945434434E+04  0.10100000352E+00 0.  1.
</event>
<event>
 5   0  0.1187925E-07  0.4082620E+04  0.7818609E-02  0.7988084E-01
        1   -1    0    0  501    0  0.00000000000E+00  0.00000000000E+00  0.15225305698E+04  0.15225305698E+04  0.50400001928E-02 0. -1.
       -1   -1    0    0    0  501  0.00000000000E+00  0.00000000000E+00 -0.27368559631E+04  0.27368559631E+04  0.50400001928E-02 0.  1.
    10030    2    1    2    0    0  0.00000000000E+00  0.00000000000E+00 -0.12143253933E+04  0.42593865330E+04  0.40826201729E+04 0.  0.
        2    1    3    3  502    0 -0.22727076542E+03 -0.83755494341E+03 -0.25348069862E+04  0.26792530193E+04  0.25500000920E-02 0.  1.
       -2    1    3    3    0  502  0.22727076542E+03  0.83755494341E+03  0.13204815928E+04  0.15801335137E+04  0.25500000920E-02 0. -1.
</event>
<event>
 5   0  0.1187925E-07  0.3907712E+04  0.7818609E-02  0.8023427E-01
       -1   -1    0    0    0  501  0.00000000000E+00  0.00000000000E+00  0.20664583551E+04  0.20664583551E+04  0.50400001928E-02 0.  1.
        1   -1    0    0  501    0  0.00000000000E+00  0.00000000000E+00 -0.18473894091E+04  0.18473894091E+04  0.50400001928E-02 0. -1.
    10030    2    1    2    0    0  0.00000000000E+00  0.00000000000E+00  0.21906894604E+03  0.39138477642E+04  0.39077120055E+04 0.  0.
        4    1    3    3  502    0 -0.23073871264E+02  0.13342310721E+04 -0.13198878257E+04  0.18769151400E+04  0.12699999809E+01 0. -1.
       -4    1    3    3    0  502  0.23073871264E+02 -0.13342310721E+04  0.15389567717E+04  0.20369326242E+04  0.12699999809E+01 0.  1.
</event>
<event>
 5   0  0.1187925E-07  0.3267093E+04  0.7818609E-02  0.8171319E-01
       -1   -1    0    0    0  501  0.00000000000E+00  0.00000000000E+00  0.12851612222E+04  0.12851612222E+04  0.50400001928E-02 0. -1.
        1   -1    0    0  501    0  0.00000000000E+00  0.00000000000E+00 -0.20763729480E+04  0.20763729480E+04  0.50400001928E-02 0.  1.
    10030    2    1    2    0    0  0.00000000000E+00  0.00000000000E+00 -0.79121172582E+03  0.33615341701E+04  0.32670928946E+04 0.  0.
        4    1    3    3  502    0  0.75627685260E+03  0.10543254051E+04 -0.14167230006E+04  0.19211096822E+04  0.12699999809E+01 0.  1.
       -4    1    3    3    0  502 -0.75627685260E+03 -0.10543254051E+04  0.62551127483E+03  0.14404244879E+04  0.12699999809E+01 0. -1.
</event>
<event>
 5   0  0.1187925E-07  0.3513690E+04  0.7818609E-02  0.8110553E-01
       -1   -1    0    0    0  501  0.00000000000E+00  0.00000000000E+00  0.18039395681E+04  0.18039395681E+04  0.50400001928E-02 0.  1.
        1   -1    0    0  501    0  0.00000000000E+00  0.00000000000E+00 -0.17109802651E+04  0.17109802651E+04  0.50400001928E-02 0. -1.
    10030    2    1    2    0    0  0.00000000000E+00  0.00000000000E+00  0.92959303005E+02  0.35149198333E+04  0.35136903680E+04 0.  0.
        1    1    3    3  502    0 -0.90027928752E+03 -0.86249807392E+03 -0.11917334360E+04  0.17247128183E+04  0.50400001928E-02 0. -1.
       -1    1    3    3    0  502  0.90027928752E+03  0.86249807392E+03  0.12846927390E+04  0.17902070150E+04  0.50400001928E-02 0.  1.
</event>
<event>
 5   0  0.1187925E-07  0.4229900E+04  0.7818609E-02  0.7959709E-01
        1   -1    0    0  501    0  0.00000000000E+00  0.00000000000E+00  0.14436178217E+04  0.14436178217E+04  0.50400001928E-02 0. -1.
       -1   -1    0    0    0  501  0.00000000000E+00  0.00000000000E+00 -0.30984747680E+04  0.30984747680E+04  0.50400001928E-02 0.  1.
    10030    2    1    2    0    0  0.00000000000E+00  0.00000000000E+00 -0.16548569463E+04  0.45420925896E+04  0.42298999492E+04 0.  0.
        3    1    3    3  502    0  0.45330154707E+03  0.72493160731E+03  0.12497704300E+04  0.15142437934E+04  0.10100000352E+00 0. -1.
       -3    1    3    3    0  502 -0.45330154707E+03 -0.72493160731E+03 -0.29046273763E+04  0.30278487963E+04  0.10100000352E+00 0.  1.
</event>
<event>
 5   0  0.1187925E-07  0.3934368E+04  0.7818609E-02  0.8017919E-01
        1   -1    0    0  501    0  0.00000000000E+00  0.00000000000E+00  0.21235036361E+04  0.21235036361E+04  0.50400001928E-02 0. -1.
       -1   -1    0    0    0  501  0.00000000000E+00  0.00000000000E+00 -0.18223716754E+04  0.18223716754E+04  0.50400001928E-02 0.  1.
    10030    2    1    2    0    0  0.00000000000E+00  0.00000000000E+00  0.30113196073E+03  0.39458753115E+04  0.39343679945E+04 0.  0.
        4    1    3    3  502    0 -0.13208117790E+04  0.74315921856E+03 -0.11072880333E+04  0.18769437341E+04  0.12699999809E+01 0.  1.
       -4    1    3    3    0  502  0.13208117790E+04 -0.74315921856E+03  0.14084199940E+04  0.20689315774E+04  0.12699999809E+01 0. -1.
</event>
<event>
 5   0  0.3810833E-07  0.3853911E+04  0.7818609E-02  0.8034684E-01
        2   -1    0    0  501    0  0.00000000000E+00  0.00000000000E+00  0.21790918819E+04  0.21790918819E+04  0.25500000920E-02 0. -1.
       -2   -1    0    0    0  501  0.00000000000E+00  0.00000000000E+00 -0.17039934104E+04  0.17039934104E+04  0.25500000920E-02 0.  1.
    10030    2    1    2    0    0  0.00000000000E+00  0.00000000000E+00  0.47509847147E+03  0.38830852924E+04  0.38539113677E+04 0.  0.
        3    1    3    3  502    0  0.66188946002E+02 -0.17537795208E+04  0.10392068761E+04  0.20396260749E+04  0.10100000352E+00 0. -1.
       -3    1    3    3    0  502 -0.66188946002E+02  0.17537795208E+04 -0.56410840462E+03  0.18434592174E+04  0.10100000352E+00 0.  1.
</event>
<event>
 5   0  0.1187925E-07  0.3847264E+04  0.7818609E-02  0.8036088E-01
        1   -1    0    0  501    0  0.00000000000E+00  0.00000000000E+00  0.26583613215E+04  0.26583613215E+04  0.50400001928E-02 0.  1.
       -1   -1    0    0    0  501  0.00000000000E+00  0.00000000000E+00 -0.13919704571E+04  0.13919704571E+04  0.50400001928E-02 0. -1.
    10030    2    1    2    0    0  0.00000000000E+00  0.00000000000E+00  0.12663908643E+04  0.40503317786E+04  0.38472641832E+04 0.  0.
        2    1    3    3  502    0 -0.51531584324E+02 -0.14829376378E+04 -0.65559285956E+03  0.16222088458E+04  0.25500000920E-02 0. -1.
       -2    1    3    3    0  502  0.51531584324E+02  0.14829376378E+04  0.19219837239E+04  0.24281229328E+04  0.25500000920E-02 0.  1.
</event>
<event>
 5   0  0.1187925E-07  0.3220552E+04  0.7818609E-02  0.8183410E-01
       -1   -1    0    0    0  501  0.00000000000E+00  0.00000000000E+00  0.12077316428E+04  0.12077316428E+04  0.50400001928E-02 0. -1.
        1   -1    0    0  501    0  0.00000000000E+00  0.00000000000E+00 -0.21469909284E+04  0.21469909284E+04  0.50400001928E-02 0.  1.
    10030    2    1    2    0    0  0.00000000000E+00  0.00000000000E+00 -0.93925928557E+03  0.33547225712E+04  0.32205520527E+04 0.  0.
        3    1    3    3  502    0  0.25716993304E+03 -0.15760547193E+04 -0.25386748723E+03  0.16169519362E+04  0.10100000352E+00 0. -1.
       -3    1    3    3    0  502 -0.25716993304E+03  0.15760547193E+04 -0.68539179834E+03  0.17377706350E+04  0.10100000352E+00 0.  1.
</event>
<event>
 5   0  0.1187925E-07  0.2987752E+04  0.7818609E-02  0.8247237E-01
       -1   -1    0    0    0  501  0.00000000000E+00  0.00000000000E+00  0.10070062550E+04  0.10070062551E+04  0.50400001928E-02 0.  1.
        1   -1    0    0  501    0  0.00000000000E+00  0.00000000000E+00 -0.22161392993E+04  0.22161392993E+04  0.50400001928E-02 0. -1.
    10030    2    1    2    0    0  0.00000000000E+00  0.00000000000E+00 -0.12091330443E+04  0.32231455544E+04  0.29877524238E+04 0.  0.
        2    1    3    3  502    0  0.13161467665E+04  0.41219226161E+03  0.14699283376E+02  0.13792609762E+04  0.25500000920E-02 0.  1.
       -2    1    3    3    0  502 -0.13161467665E+04 -0.41219226161E+03 -0.12238323277E+04  0.18438845782E+04  0.25500000920E-02 0. -1.
</event>
<event>
 5   0  0.3680814E-07  0.3938076E+04  0.7818609E-02  0.8017156E-01
       -2   -1    0    0    0  501  0.00000000000E+00  0.00000000000E+00  0.14542728127E+04  0.14542728127E+04  0.25500000920E-02 0. -1.
        2   -1    0    0  501    0  0.00000000000E+00  0.00000000000E+00 -0.26660133892E+04  0.26660133892E+04  0.25500000920E-02 0.  1.
    10030    2    1    2    0    0  0.00000000000E+00  0.00000000000E+00 -0.12117405765E+04  0.41202862019E+04  0.39380760735E+04 0.  0.
        1    1    3    3  502    0  0.10866480937E+04 -0.13995320935E+04 -0.15044541867E+04  0.23244088625E+04  0.50400001928E-02 0.  1.
       -1    1    3    3    0  502 -0.10866480937E+04  0.13995320935E+04  0.29271361022E+03  0.17958773393E+04  0.50400001928E-02 0. -1.
</event>
<event>
 5   0  0.1187925E-07  0.3874785E+04  0.7818609E-02  0.8030294E-01
       -1   -1    0    0    0  501  0.00000000000E+00  0.00000000000E+00  0.23102602357E+04  0.23102602357E+04  0.50400001928E-02 0. -1.
        1   -1    0    0  501    0  0.00000000000E+00  0.00000000000E+00 -0.16247044563E+04  0.16247044563E+04  0.50400001928E-02 0.  1.
    10030    2    1    2    0    0  0.00000000000E+00  0.00000000000E+00  0.68555577942E+03  0.39349646920E+04  0.38747852070E+04 0.  0.
        1    1    3    3  502    0  0.16978782328E+04  0.87777870936E+03  0.66424463144E+03  0.20234887908E+04  0.50400001928E-02 0. -1.
       -1    1    3    3    0  502 -0.16978782328E+04 -0.87777870936E+03  0.21311147983E+02  0.19114759012E+04  0.50400001928E-02 0.  1.
</event>
<event>
 5   0  0.3665303E-07  0.3825182E+04  0.7818609E-02  0.8040772E-01
        2   -1    0    0  501    0  0.00000000000E+00  0.00000000000E+00  0.12070401354E+04  0.12070401354E+04  0.25500000920E-02 0.  1.
       -2   -1    0    0    0  501  0.00000000000E+00  0.00000000000E+00 -0.30305579780E+04  0.30305579780E+04  0.25500000920E-02 0. -1.
    10030    2    1    2    0    0  0.00000000000E+00  0.00000000000E+00 -0.18235178426E+04  0.42375981134E+04  0.38251824073E+04 0.  0.
        2    1    3    3  502    0 -0.10443517058E+04  0.14472119157E+04 -0.16735886582E+04  0.24466286623E+04  0.25500000920E-02 0. -1.
       -2    1    3    3    0  502  0.10443517058E+04 -0.14472119157E+04 -0.14992918432E+03  0.17909694511E+04  0.25500000920E-02 0.  1.
</event>
<event>
 5   0  0.1187925E-07  0.3923269E+04  0.7818609E-02  0.8020207E-01
       -3   -1    0    0    0  501  0.00000000000E+00  0.00000000000E+00  0.22670557346E+04  0.22670557369E+04  0.10100000352E+00 0.  1.
        3   -1    0    0  501    0  0.00000000000E+00  0.00000000000E+00 -0.16973604904E+04  0.16973604934E+04  0.10100000352E+00 0. -1.
    10030    2    1    2    0    0  0.00000000000E+00  0.00000000000E+00  0.56969524426E+03  0.39644162302E+04  0.39232694752E+04 0.  0.
        3    1    3    3  502    0 -0.31491825541E+03 -0.14459002728E+04  0.15860679383E+04  0.21691963078E+04  0.10100000352E+00 0.  1.
       -3    1    3    3    0  502  0.31491825541E+03  0.14459002728E+04 -0.10163726941E+04  0.17952199224E+04  0.10100000352E+00 0. -1.
</event>
<event>
 5   0  0.1187925E-07  0.3764437E+04  0.7818609E-02  0.8053830E-01
        1   -1    0    0  501    0  0.00000000000E+00  0.00000000000E+00  0.21329232926E+04  0.21329232926E+04  0.50400001928E-02 0.  1.
       -1   -1    0    0    0  501  0.00000000000E+00  0.00000000000E+00 -0.16609820791E+04  0.16609820791E+04  0.50400001928E-02 0. -1.
    10030    2    1    2    0    0  0.00000000000E+00  0.00000000000E+00  0.47194121355E+03  0.37939053717E+04  0.37644374693E+04 0.  0.
        1    1    3    3  502    0  0.39726884300E+03  0.78427624313E+03 -0.14413396543E+04  0.16883044033E+04  0.50400001928E-02 0. -1.
       -1    1    3    3    0  502 -0.39726884300E+03 -0.78427624313E+03  0.19132808678E+04  0.21056009684E+04  0.50400001928E-02 0.  1.
</event>
<event>
 5   0  0.1187925E-07  0.3844468E+04  0.7818609E-02  0.8036679E-01
       -1   -1    0    0    0  501  0.00000000000E+00  0.00000000000E+00  0.16691158513E+04  0.16691158513E+04  0.50400001928E-02 0.  1.
        1   -1    0    0  501    0  0.00000000000E+00  0.00000000000E+00 -0.22137370183E+04  0.22137370183E+04  0.50400001928E-02 0. -1.
    10030    2    1    2    0    0  0.00000000000E+00  0.00000000000E+00 -0.54462116694E+03  0.38828528696E+04  0.38444679985E+04 0.  0.
        3    1    3    3  502    0  0.11690060382E+04  0.66917843953E+03 -0.16573556266E+04  0.21356972128E+04  0.10100000352E+00 0. -1.
       -3    1    3    3    0  502 -0.11690060382E+04 -0.66917843953E+03  0.11127344597E+04  0.17471556569E+04  0.10100000352E+00 0.  1.
</event>
<event>
 5   0  0.3810833E-07  0.3830569E+04  0.7818609E-02  0.8039627E-01
       -2   -1    0    0    0  501  0.00000000000E+00  0.00000000000E+00  0.28162369227E+04  0.28162369227E+04  0.25500000920E-02 0. -1.
        2   -1    0    0  501    0  0.00000000000E+00  0.00000000000E+00 -0.13025590036E+04  0.13025590036E+04  0.25500000920E-02 0.  1.
    10030    2    1    2    0    0  0.00000000000E+00  0.00000000000E+00  0.15136779191E+04  0.41187959263E+04  0.38305690230E+04 0.  0.
        3    1    3    3  502    0  0.15612849347E+04 -0.21252053439E+03  0.19275910118E+04  0.24896551456E+04  0.10100000352E+00 0. -1.
       -3    1    3    3    0  502 -0.15612849347E+04  0.21252053439E+03 -0.41391309272E+03  0.16291407807E+04  0.10100000352E+00 0.  1.
</event>
<event>
 5   0  0.3610483E-07  0.3924705E+04  0.7818609E-02  0.8019911E-01
       -2   -1    0    0    0  501  0.00000000000E+00  0.00000000000E+00  0.18440499680E+04  0.18440499681E+04  0.25500000920E-02 0. -1.
        2   -1    0    0  501    0  0.00000000000E+00  0.00000000000E+00 -0.20882446830E+04  0.20882446830E+04  0.25500000920E-02 0.  1.
    10030    2    1    2    0    0  0.00000000000E+00  0.00000000000E+00 -0.24419471499E+03  0.39322946511E+04  0.39247051054E+04 0.  0.
        4    1    3    3  502    0  0.16021714342E+04 -0.84211763823E+03  0.63746527461E+03  0.19189786373E+04  0.12699999809E+01 0.  1.
       -4    1    3    3    0  502 -0.16021714342E+04  0.84211763823E+03 -0.88165998960E+03  0.20133160138E+04  0.12699999809E+01 0. -1.
</event>
<event>
 5   0  0.1187925E-07  0.3916550E+04  0.7818609E-02  0.8021596E-01
       -1   -1    0    0    0  501  0.00000000000E+00  0.00000000000E+00  0.15569915663E+04  0.15569915663E+04  0.50400001928E-02 0. -1.
        1   -1    0    0  501    0  0.00000000000E+00  0.00000000000E+00 -0.24629811976E+04  0.24629811976E+04  0.50400001928E-02 0.  1.
    10030    2    1    2    0    0  0.00000000000E+00  0.00000000000E+00 -0.90598963129E+03  0.40199727639E+04  0.39165499882E+04 0.  0.
        1    1    3    3  502    0 -0.93199121726E+03 -0.13028545662E+04 -0.16091512139E+04  0.22705517565E+04  0.50400001928E-02 0.  1.
       -1    1    3    3    0  502  0.93199121726E+03  0.13028545662E+04  0.70316158260E+03  0.17494210074E+04  0.50400001928E-02 0. -1.
</event>
<event>
 5   0  0.1187925E-07  0.3879221E+04  0.7818609E-02  0.8029365E-01
       -1   -1    0    0    0  501  0.00000000000E+00  0.00000000000E+00  0.24386527870E+04  0.24386527870E+04  0.50400001928E-02 0.  1.
        1   -1    0    0  501    0  0.00000000000E+00  0.00000000000E+00 -0.15426918397E+04  0.15426918397E+04  0.50400001928E-02 0. -1.
    10030    2    1    2    0    0  0.00000000000E+00  0.00000000000E+00  0.89596094734E+03  0.39813446267E+04  0.38792214447E+04 0.  0.
        5    1    3    3  502    0  0.25406983922E+03 -0.23904646789E+03 -0.15102244595E+04  0.15499982920E+04  0.46999998093E+01 0. -1.
       -5    1    3    3    0  502 -0.25406983922E+03  0.23904646789E+03  0.24061854069E+04  0.24313463347E+04  0.46999998093E+01 0.  1.
</event>
<event>
 5   0  0.3810833E-07  0.3745038E+04  0.7818609E-02  0.8058053E-01
       -2   -1    0    0    0  501  0.00000000000E+00  0.00000000000E+00  0.19969415919E+04  0.19969415919E+04  0.25500000920E-02 0.  1.
        2   -1    0    0  501    0  0.00000000000E+00  0.00000000000E+00 -0.17558490634E+04  0.17558490634E+04  0.25500000920E-02 0. -1.
    10030    2    1    2    0    0  0.00000000000E+00  0.00000000000E+00  0.24109252847E+03  0.37527906553E+04  0.37450383303E+04 0.  0.
        3    1    3    3  502    0 -0.65845427688E+03 -0.78872517242E+03  0.16892511495E+04  0.19771744709E+04  0.10100000352E+00 0.  1.
       -3    1    3    3    0  502  0.65845427688E+03  0.78872517242E+03 -0.14481586210E+04  0.17756161844E+04  0.10100000352E+00 0. -1.
</event>
<event>
 5   0  0.1187925E-07  0.3500945E+04  0.7818609E-02  0.8113566E-01
        1   -1    0    0  501    0  0.00000000000E+00  0.00000000000E+00  0.17392499784E+04  0.17392499784E+04  0.50400001928E-02 0. -1.
       -1   -1    0    0    0  501  0.00000000000E+00  0.00000000000E+00 -0.17617674217E+04  0.17617674217E+04  0.50400001928E-02 0.  1.
    10030    2    1    2    0    0  0.00000000000E+00  0.00000000000E+00 -0.22517443328E+02  0.35010174002E+04  0.35009449869E+04 0.  0.
        4    1    3    3  502    0  0.10117508070E+03  0.28120740804E+03 -0.17360663625E+04  0.17616021206E+04  0.12699999809E+01 0.  1.
       -4    1    3    3    0  502 -0.10117508070E+03 -0.28120740804E+03  0.17135489192E+04  0.17394152795E+04  0.12699999809E+01 0. -1.
</event>
<event>
 5   0  0.3810833E-07  0.3794872E+04  0.7818609E-02  0.8047256E-01
       -2   -1    0    0    0  501  0.00000000000E+00  0.00000000000E+00  0.13478159023E+04  0.13478159024E+04  0.25500000920E-02 0.  1.
        2   -1    0    0  501    0  0.00000000000E+00  0.00000000000E+00 -0.26711829543E+04  0.26711829543E+04  0.25500000920E-02 0. -1.
    10030    2    1    2    0    0  0.00000000000E+00  0.00000000000E+00 -0.13233670520E+04  0.40189988567E+04  0.37948717311E+04 0.  0.
        3    1    3    3  502    0 -0.95359166093E+03 -0.60438528778E+03  0.95339045262E+03  0.14776914418E+04  0.10100000352E+00 0.  1.
       -3    1    3    3    0  502  0.95359166093E+03  0.60438528778E+03 -0.22767575046E+04  0.25413074148E+04  0.10100000352E+00 0. -1.
</event>
<event>
 5   0  0.1187925E-07  0.4038766E+04  0.7818609E-02  0.7996772E-01
        3   -1    0    0  501    0  0.00000000000E+00  0.00000000000E+00  0.19288028303E+04  0.19288028329E+04  0.10100000352E+00 0. -1.
       -3   -1    0    0    0  501  0.00000000000E+00  0.00000000000E+00 -0.21142170078E+04  0.21142170102E+04  0.10100000352E+00 0.  1.
    10030    2    1    2    0    0  0.00000000000E+00  0.00000000000E+00 -0.18541417752E+03  0.40430198431E+04  0.40387660287E+04 0.  0.
        1    1    3    3  502    0  0.20142416377E+04  0.13926283957E+03 -0.56004524914E+02  0.20198267303E+04  0.50400001928E-02 0.  1.
       -1    1    3    3    0  502 -0.20142416377E+04 -0.13926283957E+03 -0.12940965261E+03  0.20231931128E+04  0.50400001928E-02 0. -1.
</event>
<event>
 5   0  0.1187925E-07  0.3944945E+04  0.7818609E-02  0.8015746E-01
        1   -1    0    0  501    0  0.00000000000E+00  0.00000000000E+00  0.19855653726E+04  0.19855653726E+04  0.50400001928E-02 0.  1.
       -1   -1    0    0    0  501  0.00000000000E+00  0.00000000000E+00 -0.19594658417E+04  0.19594658417E+04  0.50400001928E-02 0. -1.
    10030    2    1    2    0    0  0.00000000000E+00  0.00000000000E+00  0.26099530839E+02  0.39450312143E+04  0.39449448788E+04 0.  0.
        2    1    3    3  502    0  0.11885660424E+04 -0.85934385284E+03  0.13319745427E+04  0.19812413475E+04  0.25500000920E-02 0.  1.
       -2    1    3    3    0  502 -0.11885660424E+04  0.85934385284E+03 -0.13058750118E+04  0.19637898668E+04  0.25500000920E-02 0. -1.
</event>
<event>
 5   0  0.3832389E-07  0.3926290E+04  0.7818609E-02  0.8019583E-01
        2   -1    0    0  501    0  0.00000000000E+00  0.00000000000E+00  0.23620949249E+04  0.23620949249E+04  0.25500000920E-02 0. -1.
       -2   -1    0    0    0  501  0.00000000000E+00  0.00000000000E+00 -0.16315764580E+04  0.16315764580E+04  0.25500000920E-02 0.  1.
    10030    2    1    2    0    0  0.00000000000E+00  0.00000000000E+00  0.73051846686E+03  0.39936713829E+04  0.39262900917E+04 0.  0.
        5    1    3    3  502    0  0.81339554917E+03 -0.35271736902E+02 -0.14517512166E+04  0.16644699155E+04  0.46999998093E+01 0.  1.
       -5    1    3    3    0  502 -0.81339554917E+03  0.35271736902E+02  0.21822696834E+04  0.23292014674E+04  0.46999998093E+01 0. -1.
</event>
<event>
 5   0  0.1187925E-07  0.3938204E+04  0.7818609E-02  0.8017130E-01
        1   -1    0    0  501    0  0.00000000000E+00  0.00000000000E+00  0.23445056708E+04  0.23445056708E+04  0.50400001928E-02 0. -1.
       -1   -1    0    0    0  501  0.00000000000E+00  0.00000000000E+00 -0.16538083136E+04  0.16538083136E+04  0.50400001928E-02 0.  1.
    10030    2    1    2    0    0  0.00000000000E+00  0.00000000000E+00  0.69069735725E+03  0.39983139844E+04  0.39382041439E+04 0.  0.
        1    1    3    3  502    0  0.95311123030E+03 -0.98184998042E+03  0.17829100365E+04  0.22474916239E+04  0.50400001928E-02 0. -1.
       -1    1    3    3    0  502 -0.95311123030E+03  0.98184998042E+03 -0.10922126792E+04  0.17508223605E+04  0.50400001928E-02 0.  1.
</event>
<event>
 5   0  0.1187925E-07  0.3903271E+04  0.7818609E-02  0.8024349E-01
        1   -1    0    0  501    0  0.00000000000E+00  0.00000000000E+00  0.18564422428E+04  0.18564422429E+04  0.50400001928E-02 0. -1.
       -1   -1    0    0    0  501  0.00000000000E+00  0.00000000000E+00 -0.20517099114E+04  0.20517099114E+04  0.50400001928E-02 0.  1.
    10030    2    1    2    0    0  0.00000000000E+00  0.00000000000E+00 -0.19526766851E+03  0.39081521542E+04  0.39032709102E+04 0.  0.
        1    1    3    3  502    0  0.56730836177E+03 -0.18615849699E+04 -0.24459467361E+03  0.19614188568E+04  0.50400001928E-02 0. -1.
       -1    1    3    3    0  502 -0.56730836177E+03  0.18615849699E+04  0.49327005103E+02  0.19467332974E+04  0.50400001928E-02 0.  1.
</event>
<event>
 5   0  0.3810833E-07  0.3923922E+04  0.7818609E-02  0.8020072E-01
        2   -1    0    0  501    0  0.00000000000E+00  0.00000000000E+00  0.22684337657E+04  0.22684337657E+04  0.25500000920E-02 0. -1.
       -2   -1    0    0    0  501  0.00000000000E+00  0.00000000000E+00 -0.16968937473E+04  0.16968937473E+04  0.25500000920E-02 0.  1.
    10030    2    1    2    0    0  0.00000000000E+00  0.00000000000E+00  0.57154001839E+03  0.39653275130E+04  0.39239220548E+04 0.  0.
        3    1    3    3  502    0  0.15194673413E+04  0.12073327478E+04  0.57665755141E+03  0.20245906517E+04  0.10100000352E+00 0. -1.
       -3    1    3    3    0  502 -0.15194673413E+04 -0.12073327478E+04 -0.51175330174E+01  0.19407368612E+04  0.10100000352E+00 0.  1.
</event>
<event>
 5   0  0.1187925E-07  0.3849803E+04  0.7818609E-02  0.8035551E-01
        1   -1    0    0  501    0  0.00000000000E+00  0.00000000000E+00  0.27846794677E+04  0.27846794677E+04  0.50400001928E-02 0. -1.
       -1   -1    0    0    0  501  0.00000000000E+00  0.00000000000E+00 -0.13305825921E+04  0.13305825921E+04  0.50400001928E-02 0.  1.
    10030    2    1    2    0    0  0.00000000000E+00  0.00000000000E+00  0.14540968756E+04  0.41152620598E+04  0.38498031245E+04 0.  0.
        4    1    3    3  502    0  0.37770608038E+03 -0.48477550715E+02 -0.12899155919E+04  0.13449519706E+04  0.12699999809E+01 0.  1.
       -4    1    3    3    0  502 -0.37770608038E+03  0.48477550715E+02  0.27440124675E+04  0.27703100893E+04  0.12699999809E+01 0. -1.
</event>
<event>
 5   0  0.1187925E-07  0.3895306E+04  0.7818609E-02  0.8026006E-01
        1   -1    0    0  501    0  0.00000000000E+00  0.00000000000E+00  0.32190402720E+04  0.32190402720E+04  0.50400001928E-02 0.  1.
       -1   -1    0    0    0  501  0.00000000000E+00  0.00000000000E+00 -0.11784110247E+04  0.11784110248E+04  0.50400001928E-02 0. -1.
    10030    2    1    2    0    0  0.00000000000E+00  0.00000000000E+00  0.20406292472E+04  0.43974512968E+04  0.38953061732E+04 0.  0.
        1    1    3    3  502    0  0.75687138942E+03 -0.11282264496E+04  0.25957830087E+04  0.29298188766E+04  0.50400001928E-02 0.  1.
       -1    1    3    3    0  502 -0.75687138942E+03  0.11282264496E+04 -0.55515376147E+03  0.14676324201E+04  0.50400001928E-02 0. -1.
</event>
<event>
 5   0  0.3832389E-07  0.3660055E+04  0.7818609E-02  0.8076872E-01
        2   -1    0    0  501    0  0.00000000000E+00  0.00000000000E+00  0.26967765192E+04  0.26967765192E+04  0.25500000920E-02 0.  1.
       -2   -1    0    0    0  501  0.00000000000E+00  0.00000000000E+00 -0.12418533305E+04  0.12418533305E+04  0.25500000920E-02 0. -1.
    10030    2    1    2    0    0  0.00000000000E+00  0.00000000000E+00  0.14549231887E+04  0.39386298497E+04  0.36600551373E+04 0.  0.
        5    1    3    3  502    0 -0.15751634144E+04 -0.51570347631E+03  0.15623255798E+04  0.22777122656E+04  0.46999998093E+01 0.  1.
       -5    1    3    3    0  502  0.15751634144E+04  0.51570347631E+03 -0.10740239110E+03  0.16609175841E+04  0.46999998093E+01 0. -1.
</event>
<event>
 5   0  0.1187925E-07  0.3824583E+04  0.7818609E-02  0.8040900E-01
       -1   -1    0    0    0  501  0.00000000000E+00  0.00000000000E+00  0.12361558088E+04  0.12361558088E+04  0.50400001928E-02 0. -1.
        1   -1    0    0  501    0  0.00000000000E+00  0.00000000000E+00 -0.29582509502E+04  0.29582509502E+04  0.50400001928E-02 0.  1.
    10030    2    1    2    0    0  0.00000000000E+00  0.00000000000E+00 -0.17220951414E+04  0.41944067590E+04  0.38245831647E+04 0.  0.
        5    1    3    3  502    0  0.22605749856E+03  0.14343901955E+04 -0.22256569489E+04  0.26574702575E+04  0.46999998093E+01 0.  1.
       -5    1    3    3    0  502 -0.22605749856E+03 -0.14343901955E+04  0.50356180750E+03  0.15369365015E+04  0.46999998093E+01 0. -1.
</event>
<event>
 5   0  0.3810833E-07  0.3803719E+04  0.7818609E-02  0.8045357E-01
        2   -1    0    0  501    0  0.00000000000E+00  0.00000000000E+00  0.27263228838E+04  0.27263228838E+04  0.25500000920E-02 0. -1.
       -2   -1    0    0    0  501  0.00000000000E+00  0.00000000000E+00 -0.13267211209E+04  0.13267211209E+04  0.25500000920E-02 0.  1.
    10030    2    1    2    0    0  0.00000000000E+00  0.00000000000E+00  0.13996017629E+04  0.40530440046E+04  0.38037193126E+04 0.  0.
        3    1    3    3  502    0  0.12140569914E+04  0.13046210679E+04  0.14074878614E+04  0.22709012747E+04  0.10100000352E+00 0. -1.
       -3    1    3    3    0  502 -0.12140569914E+04 -0.13046210679E+04 -0.78860985036E+01  0.17821427300E+04  0.10100000352E+00 0.  1.
</event>
<event>
 5   0  0.1187925E-07  0.3789199E+04  0.7818609E-02  0.8048477E-01
       -1   -1    0    0    0  501  0.00000000000E+00  0.00000000000E+00  0.15860449861E+04  0.15860449861E+04  0.50400001928E-02 0. -1.
        1   -1    0    0  501    0  0.00000000000E+00  0.00000000000E+00 -0.22631812041E+04  0.22631812041E+04  0.50400001928E-02 0.  1.
    10030    2    1    2    0    0  0.00000000000E+00  0.00000000000E+00 -0.67713621795E+03  0.38492261902E+04  0.37891989663E+04 0.  0.
        2    1    3    3  502    0 -0.22835379357E+03 -0.37662332522E+03 -0.22104521946E+04  0.22539053860E+04  0.25500000920E-02 0.  1.
       -2    1    3    3    0  502  0.22835379357E+03  0.37662332522E+03  0.15333159767E+04  0.15953208043E+04  0.25500000920E-02 0. -1.
</event>
<event>
 5   0  0.1187925E-07  0.3853903E+04  0.7818609E-02  0.8034685E-01
        1   -1    0    0  501    0  0.00000000000E+00  0.00000000000E+00  0.22133777451E+04  0.22133777451E+04  0.50400001928E-02 0. -1.
       -1   -1    0    0    0  501  0.00000000000E+00  0.00000000000E+00 -0.16775909485E+04  0.16775909485E+04  0.50400001928E-02 0.  1.
    10030    2    1    2    0    0  0.00000000000E+00  0.00000000000E+00  0.53578679668E+03  0.38909686936E+04  0.38539032011E+04 0.  0.
        4    1    3    3  502    0  0.15108498143E+04  0.21823100154E+03 -0.91936240941E+03  0.17819990977E+04  0.12699999809E+01 0.  1.
       -4    1    3    3    0  502 -0.15108498143E+04 -0.21823100154E+03  0.14551492061E+04  0.21089695959E+04  0.12699999809E+01 0. -1.
</event>
<event>
 5   0  0.1187925E-07  0.3857923E+04  0.7818609E-02  0.8033838E-01
        1   -1    0    0  501    0  0.00000000000E+00  0.00000000000E+00  0.27846906659E+04  0.27846906659E+04  0.50400001928E-02 0. -1.
       -1   -1    0    0    0  501  0.00000000000E+00  0.00000000000E+00 -0.13361962298E+04  0.13361962298E+04  0.50400001928E-02 0.  1.
    10030    2    1    2    0    0  0.00000000000E+00  0.00000000000E+00  0.14484944361E+04  0.41208868957E+04  0.38579233631E+04 0.  0.
        1    1    3    3  502    0  0.66561989512E+03 -0.16800585496E+04  0.14449570572E+04  0.23137734272E+04  0.50400001928E-02 0.  1.
       -1    1    3    3    0  502 -0.66561989512E+03  0.16800585496E+04  0.35373788474E+01  0.18071134685E+04  0.50400001928E-02 0. -1.
</event>
<event>
 5   0  0.1187925E-07  0.3891573E+04  0.7818609E-02  0.8026784E-01
       -1   -1    0    0    0  501  0.00000000000E+00  0.00000000000E+00  0.17033202635E+04  0.17033202635E+04  0.50400001928E-02 0.  1.
        1   -1    0    0  501    0  0.00000000000E+00  0.00000000000E+00 -0.22227676304E+04  0.22227676304E+04  0.50400001928E-02 0. -1.
    10030    2    1    2    0    0  0.00000000000E+00  0.00000000000E+00 -0.51944736688E+03  0.39260878939E+04  0.38915730217E+04 0.  0.
        4    1    3    3  502    0  0.98358339228E+03  0.46077616674E+03  0.13690087676E+04  0.17475518831E+04  0.12699999809E+01 0.  1.
       -4    1    3    3    0  502 -0.98358339228E+03 -0.46077616674E+03 -0.18884561345E+04  0.21785360108E+04  0.12699999809E+01 0. -1.
</event>
<event>
 5   0  0.3665303E-07  0.3933154E+04  0.7818609E-02  0.8018169E-01
        2   -1    0    0  501    0  0.00000000000E+00  0.00000000000E+00  0.19873656593E+04  0.19873656593E+04  0.25500000920E-02 0. -1.
       -2   -1    0    0    0  501  0.00000000000E+00  0.00000000000E+00 -0.19460060459E+04  0.19460060459E+04  0.25500000920E-02 0.  1.
    10030    2    1    2    0    0  0.00000000000E+00  0.00000000000E+00  0.41359613368E+02  0.39333717052E+04  0.39331542499E+04 0.  0.
        2    1    3    3  502    0 -0.40360933329E+03  0.18684501067E+04  0.48267860835E+03  0.19715437947E+04  0.25500000920E-02 0. -1.
       -2    1    3    3    0  502  0.40360933329E+03 -0.18684501067E+04 -0.44131899498E+03  0.19618279106E+04  0.25500000920E-02 0.  1.
</event>
<event>
 5   0  0.3680814E-07  0.3626800E+04  0.7818609E-02  0.8084380E-01
        2   -1    0    0  501    0  0.00000000000E+00  0.00000000000E+00  0.11624752932E+04  0.11624752932E+04  0.25500000920E-02 0. -1.
       -2   -1    0    0    0  501  0.00000000000E+00  0.00000000000E+00 -0.28288086485E+04  0.28288086485E+04  0.25500000920E-02 0.  1.
    10030    2    1    2    0    0  0.00000000000E+00  0.00000000000E+00 -0.16663333553E+04  0.39912839418E+04  0.36268003327E+04 0.  0.
        1    1    3    3  502    0  0.85070990739E+03 -0.12034357475E+04  0.32964566222E+03  0.15101758863E+04  0.50400001928E-02 0. -1.
       -1    1    3    3    0  502 -0.85070990739E+03  0.12034357475E+04 -0.19959790175E+04  0.24811080555E+04  0.50400001928E-02 0.  1.
</event>
<event>
 5   0  0.3810833E-07  0.3931879E+04  0.7818609E-02  0.8018431E-01
       -2   -1    0    0    0  501  0.00000000000E+00  0.00000000000E+00  0.14677621201E+04  0.14677621201E+04  0.25500000920E-02 0.  1.
        2   -1    0    0  501    0  0.00000000000E+00  0.00000000000E+00 -0.26332050536E+04  0.26332050536E+04  0.25500000920E-02 0. -1.
    10030    2    1    2    0    0  0.00000000000E+00  0.00000000000E+00 -0.11654429335E+04  0.41009671737E+04  0.39318792617E+04 0.  0.
        3    1    3    3  502    0 -0.86998372347E+03 -0.13205992475E+04  0.63543642796E+03  0.17042985407E+04  0.10100000352E+00 0.  1.
       -3    1    3    3    0  502  0.86998372347E+03  0.13205992475E+04 -0.18008793615E+04  0.23966686330E+04  0.10100000352E+00 0. -1.
</event>
<event>
 5   0  0.3680814E-07  0.3885821E+04  0.7818609E-02  0.8027985E-01
       -2   -1    0    0    0  501  0.00000000000E+00  0.00000000000E+00  0.14603639587E+04  0.14603639587E+04  0.25500000920E-02 0.  1.
        2   -1    0    0  501    0  0.00000000000E+00  0.00000000000E+00 -0.25849039671E+04  0.25849039671E+04  0.25500000920E-02 0. -1.
    10030    2    1    2    0    0  0.00000000000E+00  0.00000000000E+00 -0.11245400083E+04  0.40452679258E+04  0.38858206805E+04 0.  0.
        1    1    3    3  502    0 -0.13362493662E+04  0.65633429484E+02  0.90445307255E+03  0.16149010732E+04  0.50400001928E-02 0.  1.
       -1    1    3    3    0  502  0.13362493662E+04 -0.65633429484E+02 -0.20289930809E+04  0.24303668526E+04  0.50400001928E-02 0. -1.
</event>
<event>
 5   0  0.3610483E-07  0.3887920E+04  0.7818609E-02  0.8027546E-01
       -2   -1    0    0    0  501  0.00000000000E+00  0.00000000000E+00  0.24598797315E+04  0.24598797315E+04  0.25500000920E-02 0.  1.
        2   -1    0    0  501    0  0.00000000000E+00  0.00000000000E+00 -0.15362460724E+04  0.15362460724E+04  0.25500000920E-02 0. -1.
    10030    2    1    2    0    0  0.00000000000E+00  0.00000000000E+00  0.92363365908E+03  0.39961258038E+04  0.38879200486E+04 0.  0.
        4    1    3    3  502    0  0.53471940952E+03 -0.66033836238E+03  0.22589078283E+04  0.24134286377E+04  0.12699999809E+01 0.  1.
       -4    1    3    3    0  502 -0.53471940952E+03  0.66033836238E+03 -0.13352741692E+04  0.15826971661E+04  0.12699999809E+01 0. -1.
</event>
<event>
 5   0  0.1187925E-07  0.3882458E+04  0.7818609E-02  0.8028687E-01
       -1   -1    0    0    0  501  0.00000000000E+00  0.00000000000E+00  0.15505093654E+04  0.15505093654E+04  0.50400001928E-02 0. -1.
        1   -1    0    0  501    0  0.00000000000E+00  0.00000000000E+00 -0.24304079405E+04  0.24304079405E+04  0.50400001928E-02 0.  1.
    10030    2    1    2    0    0  0.00000000000E+00  0.00000000000E+00 -0.87989857509E+03  0.39809173059E+04  0.38824581252E+04 0.  0.
        3    1    3    3  502    0  0.10022225001E+04  0.12790006521E+04 -0.15289944105E+04  0.22311693179E+04  0.10100000352E+00 0.  1.
       -3    1    3    3    0  502 -0.10022225001E+04 -0.12790006521E+04  0.64909583543E+03  0.17497479880E+04  0.10100000352E+00 0. -1.
</event>
<event>
 5   0  0.1187925E-07  0.3881219E+04  0.7818609E-02  0.8028947E-01
        1   -1    0    0  501    0  0.00000000000E+00  0.00000000000E+00  0.13613350112E+04  0.13613350112E+04  0.50400001928E-02 0.  1.
       -1   -1    0    0    0  501  0.00000000000E+00  0.00000000000E+00 -0.27663763586E+04  0.27663763586E+04  0.50400001928E-02 0. -1.
    10030    2    1    2    0    0  0.00000000000E+00  0.00000000000E+00 -0.14050413474E+04  0.41277113698E+04  0.38812188761E+04 0.  0.
        1    1    3    3  502    0  0.13457904418E+04  0.12850220279E+04 -0.11659430083E+03  0.18644108336E+04  0.50400001928E-02 0. -1.
       -1    1    3    3    0  502 -0.13457904418E+04 -0.12850220279E+04 -0.12884470466E+04  0.22633005362E+04  0.50400001928E-02 0.  1.
</event>
<event>
 5   0  0.1187925E-07  0.2844918E+04  0.7818609E-02  0.8289457E-01
        3   -1    0    0  501    0  0.00000000000E+00  0.00000000000E+00  0.10807042714E+04  0.10807042762E+04  0.10100000352E+00 0.  1.
       -3   -1    0    0    0  501  0.00000000000E+00  0.00000000000E+00 -0.18722883123E+04  0.18722883150E+04  0.10100000352E+00 0. -1.
    10030    2    1    2    0    0  0.00000000000E+00  0.00000000000E+00 -0.79158404086E+03  0.29529925912E+04  0.28449182677E+04 0.  0.
        3    1    3    3  502    0  0.70330285967E+03  0.24764264784E+03 -0.16531848847E+04  0.18135550906E+04  0.10100000352E+00 0. -1.
       -3    1    3    3    0  502 -0.70330285967E+03 -0.24764264784E+03  0.86160084383E+03  0.11394375006E+04  0.10100000352E+00 0.  1.
</event>
<event>
 5   0  0.1187925E-07  0.3928061E+04  0.7818609E-02  0.8019218E-01
        1   -1    0    0  501    0  0.00000000000E+00  0.00000000000E+00  0.16538536941E+04  0.16538536941E+04  0.50400001928E-02 0.  1.
       -1   -1    0    0    0  501  0.00000000000E+00  0.00000000000E+00 -0.23323801866E+04  0.23323801866E+04  0.50400001928E-02 0. -1.
    10030    2    1    2    0    0  0.00000000000E+00  0.00000000000E+00 -0.67852649251E+03  0.39862338806E+04  0.39280608893E+04 0.  0.
        1    1    3    3  502    0 -0.87545043141E+03 -0.16541844665E+04  0.26510326639E+03  0.18902432249E+04  0.50400001928E-02 0.  1.
       -1    1    3    3    0  502  0.87545043141E+03  0.16541844665E+04 -0.94362975890E+03  0.20959906558E+04  0.50400001928E-02 0. -1.
</event>
<event>
 5   0  0.1187925E-07  0.3890514E+04  0.7818609E-02  0.8027005E-01
        1   -1    0    0  501    0  0.00000000000E+00  0.00000000000E+00  0.16323531968E+04  0.16323531968E+04  0.50400001928E-02 0.  1.
       -1   -1    0    0    0  501  0.00000000000E+00  0.00000000000E+00 -0.23181407386E+04  0.23181407386E+04  0.50400001928E-02 0. -1.
    10030    2    1    2    0    0  0.00000000000E+00  0.00000000000E+00 -0.68578754177E+03  0.39504939354E+04  0.38905138197E+04 0.  0.
        4    1    3    3  502    0  0.12222287738E+04  0.51081838789E+03 -0.17893709863E+04  0.22263487464E+04  0.12699999809E+01 0. -1.
       -4    1    3    3    0  502 -0.12222287738E+04 -0.51081838789E+03  0.11035834445E+04  0.17241451890E+04  0.12699999809E+01 0.  1.
</event>
<event>
 5   0  0.1187925E-07  0.4183601E+04  0.7818609E-02  0.7968499E-01
       -1   -1    0    0    0  501  0.00000000000E+00  0.00000000000E+00  0.13843127112E+04  0.13843127112E+04  0.50400001928E-02 0.  1.
        1   -1    0    0  501    0  0.00000000000E+00  0.00000000000E+00 -0.31608681259E+04  0.31608681259E+04  0.50400001928E-02 0. -1.
    10030    2    1    2    0    0  0.00000000000E+00  0.00000000000E+00 -0.17765554146E+04  0.45451808371E+04  0.41836012836E+04 0.  0.
        3    1    3    3  502    0  0.43608593915E+03 -0.27339913444E+03  0.13144428176E+04  0.14116224580E+04  0.10100000352E+00 0.  1.
       -3    1    3    3    0  502 -0.43608593915E+03  0.27339913444E+03 -0.30909982322E+04  0.31335583791E+04  0.10100000352E+00 0. -1.
</event>
<event>
 5   0  0.3610483E-07  0.3795297E+04  0.7818609E-02  0.8047165E-01
        2   -1    0    0  501    0  0.00000000000E+00  0.00000000000E+00  0.23574522947E+04  0.23574522947E+04  0.25500000920E-02 0. -1.
       -2   -1    0    0    0  501  0.00000000000E+00  0.00000000000E+00 -0.15275261620E+04  0.15275261620E+04  0.25500000920E-02 0.  1.
    10030    2    1    2    0    0  0.00000000000E+00  0.00000000000E+00  0.82992613266E+03  0.38849784567E+04  0.37952971193E+04 0.  0.
        4    1    3    3  502    0  0.12512848694E+04  0.89828740179E+03  0.15495004538E+04  0.21848540798E+04  0.12699999809E+01 0. -1.
       -4    1    3    3    0  502 -0.12512848694E+04 -0.89828740179E+03 -0.71957432116E+03  0.17001243770E+04  0.12699999809E+01 0.  1.
</event>
<event>
 5   0  0.1187925E-07  0.3877567E+04  0.7818609E-02  0.8029711E-01
        1   -1    0    0  501    0  0.00000000000E+00  0.00000000000E+00  0.22193565896E+04  0.22193565896E+04  0.50400001928E-02 0.  1.
       -1   -1    0    0    0  501  0.00000000000E+00  0.00000000000E+00 -0.16936810244E+04  0.16936810244E+04  0.50400001928E-02 0. -1.
    10030    2    1    2    0    0  0.00000000000E+00  0.00000000000E+00  0.52567556521E+03  0.39130376141E+04  0.38775673520E+04 0.  0.
        2    1    3    3  502    0 -0.12214768997E+04  0.76132627537E+03  0.15736651541E+04  0.21326147170E+04  0.25500000920E-02 0.  1.
       -2    1    3    3    0  502  0.12214768997E+04 -0.76132627537E+03 -0.10479895889E+04  0.17804228971E+04  0.25500000920E-02 0. -1.
</event>
<event>
 5   0  0.1187925E-07  0.3888544E+04  0.7818609E-02  0.8027416E-01
        1   -1    0    0  501    0  0.00000000000E+00  0.00000000000E+00  0.23406285318E+04  0.23406285318E+04  0.50400001928E-02 0.  1.
       -1   -1    0    0    0  501  0.00000000000E+00  0.00000000000E+00 -0.16150339574E+04  0.16150339574E+04  0.50400001928E-02 0. -1.
    10030    2    1    2    0    0  0.00000000000E+00  0.00000000000E+00  0.72559457439E+03  0.39556624891E+04  0.38885444888E+04 0.  0.
        3    1    3    3  502    0 -0.25561419562E+03  0.83262469390E+03 -0.14054787909E+04  0.16534730538E+04  0.10100000352E+00 0. -1.
       -3    1    3    3    0  502  0.25561419562E+03 -0.83262469390E+03  0.21310733653E+04  0.23021894353E+04  0.10100000352E+00 0.  1.
</event>
<event>
 5   0  0.3832389E-07  0.3718060E+04  0.7818609E-02  0.8063971E-01
       -2   -1    0    0    0  501  0.00000000000E+00  0.00000000000E+00  0.12642440708E+04  0.12642440708E+04  0.25500000920E-02 0.  1.
        2   -1    0    0  501    0  0.00000000000E+00  0.00000000000E+00 -0.27336427305E+04  0.27336427305E+04  0.25500000920E-02 0. -1.
    10030    2    1    2    0    0  0.00000000000E+00  0.00000000000E+00 -0.14693986597E+04  0.39978868013E+04  0.37180595013E+04 0.  0.
        5    1    3    3  502    0  0.61043594293E+03 -0.15151631217E+04 -0.16889709945E+04  0.23496800710E+04  0.46999998093E+01 0. -1.
       -5    1    3    3    0  502 -0.61043594293E+03  0.15151631217E+04  0.21957233480E+03  0.16482067304E+04  0.46999998093E+01 0.  1.
</event>
<event>
 5   0  0.1187925E-07  0.3747204E+04  0.7818609E-02  0.8057581E-01
        1   -1    0    0  501    0  0.00000000000E+00  0.00000000000E+00  0.29186414078E+04  0.29186414078E+04  0.50400001928E-02 0.  1.
       -1   -1    0    0    0  501  0.00000000000E+00  0.00000000000E+00 -0.12027463071E+04  0.12027463071E+04  0.50400001928E-02 0. -1.
    10030    2    1    2    0    0  0.00000000000E+00  0.00000000000E+00  0.17158951007E+04  0.41213877149E+04  0.37472043846E+04 0.  0.
        2    1    3    3  502    0  0.10219854265E+04  0.14092614322E+04  0.16198816820E+04  0.23779168740E+04  0.25500000920E-02 0.  1.
       -2    1    3    3    0  502 -0.10219854265E+04 -0.14092614322E+04  0.96013418762E+02  0.17434708408E+04  0.25500000920E-02 0. -1.
</event>
<event>
 5   0  0.1187925E-07  0.3883619E+04  0.7818609E-02  0.8028445E-01
        1   -1    0    0  501    0  0.00000000000E+00  0.00000000000E+00  0.13104656308E+04  0.13104656308E+04  0.50400001928E-02 0. -1.
       -1   -1    0    0    0  501  0.00000000000E+00  0.00000000000E+00 -0.28773162120E+04  0.28773162120E+04  0.50400001928E-02 0.  1.
    10030    2    1    2    0    0  0.00000000000E+00  0.00000000000E+00 -0.15668505812E+04  0.41877818428E+04  0.38836189333E+04 0.  0.
        5    1    3    3  502    0  0.82433584978E+03  0.96176145916E+03 -0.23704562890E+04  0.26876755395E+04  0.46999998093E+01 0.  1.
       -5    1    3    3    0  502 -0.82433584978E+03 -0.96176145916E+03  0.80360570784E+03  0.15001063033E+04  0.46999998093E+01 0. -1.
</event>
<event>
 5   0  0.1187925E-07  0.3897854E+04  0.7818609E-02  0.8025476E-01
       -1   -1    0    0    0  501  0.00000000000E+00  0.00000000000E+00  0.17932331751E+04  0.17932331751E+04  0.50400001928E-02 0.  1.
        1   -1    0    0  501    0  0.00000000000E+00  0.00000000000E+00 -0.21181382802E+04  0.21181382802E+04  0.50400001928E-02 0. -1.
    10030    2    1    2    0    0  0.00000000000E+00  0.00000000000E+00 -0.32490510504E+03  0.39113714553E+04  0.38978536830E+04 0.  0.
        5    1    3    3  502    0  0.76680805014E+03 -0.60219377261E+01  0.16354817937E+04  0.18063370774E+04  0.46999998093E+01 0.  1.
       -5    1    3    3    0  502 -0.76680805014E+03  0.60219377261E+01 -0.19603868988E+04  0.21050343779E+04  0.46999998093E+01 0. -1.
</event>
<event>
 5   0  0.3665303E-07  0.3786371E+04  0.7818609E-02  0.8049086E-01
       -2   -1    0    0    0  501  0.00000000000E+00  0.00000000000E+00  0.17293301872E+04  0.17293301872E+04  0.25500000920E-02 0.  1.
        2   -1    0    0  501    0  0.00000000000E+00  0.00000000000E+00 -0.20725664767E+04  0.20725664767E+04  0.25500000920E-02 0. -1.
    10030    2    1    2    0    0  0.00000000000E+00  0.00000000000E+00 -0.34323628948E+03  0.38018966638E+04  0.37863712301E+04 0.  0.
        2    1    3    3  502    0  0.81163942377E+03  0.11966664210E+04  0.10554330264E+04  0.17901698105E+04  0.25500000920E-02 0. -1.
       -2    1    3    3    0  502 -0.81163942377E+03 -0.11966664210E+04 -0.13986693159E+04  0.20117268533E+04  0.25500000920E-02 0.  1.
</event>
<event>
 5   0  0.3665303E-07  0.3871613E+04  0.7818609E-02  0.8030959E-01
       -2   -1    0    0    0  501  0.00000000000E+00  0.00000000000E+00  0.15010707646E+04  0.15010707646E+04  0.25500000920E-02 0.  1.
        2   -1    0    0  501    0  0.00000000000E+00  0.00000000000E+00 -0.24964491911E+04  0.24964491911E+04  0.25500000920E-02 0. -1.
    10030    2    1    2    0    0  0.00000000000E+00  0.00000000000E+00 -0.99537842653E+03  0.39975199557E+04  0.38716130468E+04 0.  0.
        2    1    3    3  502    0  0.13636114054E+03  0.18433399493E+04 -0.10915908277E+04  0.21466408793E+04  0.25500000920E-02 0. -1.
       -2    1    3    3    0  502 -0.13636114054E+03 -0.18433399493E+04  0.96212401153E+02  0.18508790764E+04  0.25500000920E-02 0.  1.
</event>
<event>
 5   0  0.3810833E-07  0.3847732E+04  0.7818609E-02  0.8035989E-01
        2   -1    0    0  501    0  0.00000000000E+00  0.00000000000E+00  0.28394343594E+04  0.28394343594E+04  0.25500000920E-02 0. -1.
       -2   -1    0    0    0  501  0.00000000000E+00  0.00000000000E+00 -0.13035203724E+04  0.13035203724E+04  0.25500000920E-02 0.  1.
    10030    2    1    2    0    0  0.00000000000E+00  0.00000000000E+00  0.15359139871E+04  0.41429547318E+04  0.38477320767E+04 0.  0.
        3    1    3    3  502    0 -0.12840031154E+04  0.14325870639E+04  0.78631911618E+03  0.20782847396E+04  0.10100000352E+00 0. -1.
       -3    1    3    3    0  502  0.12840031154E+04 -0.14325870639E+04  0.74959487088E+03  0.20646699922E+04  0.10100000352E+00 0.  1.
</event>
<event>
 5   0  0.3610483E-07  0.3955277E+04  0.7818609E-02  0.8013630E-01
       -2   -1    0    0    0  501  0.00000000000E+00  0.00000000000E+00  0.18483637418E+04  0.18483637418E+04  0.25500000920E-02 0. -1.
        2   -1    0    0  501    0  0.00000000000E+00  0.00000000000E+00 -0.21159545605E+04  0.21159545605E+04  0.25500000920E-02 0.  1.
    10030    2    1    2    0    0  0.00000000000E+00  0.00000000000E+00 -0.26759081875E+03  0.39643183023E+04  0.39552768241E+04 0.  0.
        4    1    3    3  502    0  0.37715662614E+02 -0.14773501056E+04  0.11833876429E+04  0.18932495166E+04  0.12699999809E+01 0. -1.
       -4    1    3    3    0  502 -0.37715662614E+02  0.14773501056E+04 -0.14509784617E+04  0.20710687857E+04  0.12699999809E+01 0.  1.
</event>
<event>
 5   0  0.1187925E-07  0.3169959E+04  0.7818609E-02  0.8196796E-01
       -1   -1    0    0    0  501  0.00000000000E+00  0.00000000000E+00  0.17734001022E+04  0.17734001022E+04  0.50400001928E-02 0. -1.
        1   -1    0    0  501    0  0.00000000000E+00  0.00000000000E+00 -0.14165783167E+04  0.14165783167E+04  0.50400001928E-02 0.  1.
    10030    2    1    2    0    0  0.00000000000E+00  0.00000000000E+00  0.35682178547E+03  0.31899784189E+04  0.31699590733E+04 0.  0.
        1    1    3    3  502    0 -0.17580684745E+03  0.11479476775E+04 -0.90704292669E+03  0.14735734758E+04  0.50400001928E-02 0.  1.
       -1    1    3    3    0  502  0.17580684745E+03 -0.11479476775E+04  0.12638647122E+04  0.17164049430E+04  0.50400001928E-02 0. -1.
</event>
<event>
 5   0  0.3610483E-07  0.3919540E+04  0.7818609E-02  0.8020978E-01
       -2   -1    0    0    0  501  0.00000000000E+00  0.00000000000E+00  0.16019610838E+04  0.16019610838E+04  0.25500000920E-02 0. -1.
        2   -1    0    0  501    0  0.00000000000E+00  0.00000000000E+00 -0.23974977213E+04  0.23974977213E+04  0.25500000920E-02 0.  1.
    10030    2    1    2    0    0  0.00000000000E+00  0.00000000000E+00 -0.79553663745E+03  0.39994588051E+04  0.39195397934E+04 0.  0.
        4    1    3    3  502    0 -0.64165121507E+02 -0.57819028184E+03 -0.23073634057E+04  0.23795690080E+04  0.12699999809E+01 0.  1.
       -4    1    3    3    0  502  0.64165121507E+02  0.57819028184E+03  0.15118267682E+04  0.16198897971E+04  0.12699999809E+01 0. -1.
</event>
<event>
 5   0  0.1187925E-07  0.3223402E+04  0.7818609E-02  0.8182664E-01
       -1   -1    0    0    0  501  0.00000000000E+00  0.00000000000E+00  0.18985438818E+04  0.18985438818E+04  0.50400001928E-02 0.  1.
        1   -1    0    0  501    0  0.00000000000E+00  0.00000000000E+00 -0.13681963531E+04  0.13681963531E+04  0.50400001928E-02 0. -1.
    10030    2    1    2    0    0  0.00000000000E+00  0.00000000000E+00  0.53034752874E+03  0.32667402349E+04  0.32234024355E+04 0.  0.
        4    1    3    3  502    0 -0.11398226524E+04  0.66408104325E+03 -0.67322346893E+03  0.14810235524E+04  0.12699999809E+01 0.  1.
       -4    1    3    3    0  502  0.11398226524E+04 -0.66408104325E+03  0.12035709977E+04  0.17857166825E+04  0.12699999809E+01 0. -1.
</event>
<event>
 5   0  0.3680814E-07  0.3865722E+04  0.7818609E-02  0.8032196E-01
       -2   -1    0    0    0  501  0.00000000000E+00  0.00000000000E+00  0.20385429555E+04  0.20385429555E+04  0.25500000920E-02 0.  1.
        2   -1    0    0  501    0  0.00000000000E+00  0.00000000000E+00 -0.18326580866E+04  0.18326580866E+04  0.25500000920E-02 0. -1.
    10030    2    1    2    0    0  0.00000000000E+00  0.00000000000E+00  0.20588486888E+03  0.38712010420E+04  0.38657223036E+04 0.  0.
        1    1    3    3  502    0  0.11396196756E+04  0.14425050243E+03 -0.14537416198E+04  0.18528102735E+04  0.50400001928E-02 0. -1.
       -1    1    3    3    0  502 -0.11396196756E+04 -0.14425050243E+03  0.16596264887E+04  0.20183907685E+04  0.50400001928E-02 0.  1.
</event>
<event>
 5   0  0.1187925E-07  0.3893859E+04  0.7818609E-02  0.8026308E-01
        1   -1    0    0  501    0  0.00000000000E+00  0.00000000000E+00  0.17957006655E+04  0.17957006655E+04  0.50400001928E-02 0. -1.
       -1   -1    0    0    0  501  0.00000000000E+00  0.00000000000E+00 -0.21108943682E+04  0.21108943682E+04  0.50400001928E-02 0.  1.
    10030    2    1    2    0    0  0.00000000000E+00  0.00000000000E+00 -0.31519370266E+03  0.39065950338E+04  0.38938589712E+04 0.  0.
        3    1    3    3  502    0  0.41135725705E+03  0.15461406762E+04  0.95543190354E+03  0.18634956174E+04  0.10100000352E+00 0. -1.
       -3    1    3    3    0  502 -0.41135725705E+03 -0.15461406762E+04 -0.12706256062E+04  0.20430994163E+04  0.10100000352E+00 0.  1.
</event>
<event>
 5   0  0.3810833E-07  0.3896241E+04  0.7818609E-02  0.8025811E-01
       -2   -1    0    0    0  501  0.00000000000E+00  0.00000000000E+00  0.21450748634E+04  0.21450748634E+04  0.25500000920E-02 0.  1.
        2   -1    0    0  501    0  0.00000000000E+00  0.00000000000E+00 -0.17692498749E+04  0.17692498749E+04  0.25500000920E-02 0. -1.
    10030    2    1    2    0    0  0.00000000000E+00  0.00000000000E+00  0.37582498844E+03  0.39143247383E+04  0.38962409750E+04 0.  0.
        3    1    3    3  502    0 -0.75714133902E+03 -0.10777843074E+03 -0.16121329192E+04  0.17843351022E+04  0.10100000352E+00 0. -1.
       -3    1    3    3    0  502  0.75714133902E+03  0.10777843074E+03  0.19879579076E+04  0.21299896362E+04  0.10100000352E+00 0.  1.
</event>
<event>
 5   0  0.1187925E-07  0.3868144E+04  0.7818609E-02  0.8031687E-01
       -1   -1    0    0    0  501  0.00000000000E+00  0.00000000000E+00  0.16702814542E+04  0.16702814542E+04  0.50400001928E-02 0.  1.
        1   -1    0    0  501    0  0.00000000000E+00  0.00000000000E+00 -0.22395234133E+04  0.22395234133E+04  0.50400001928E-02 0. -1.
    10030    2    1    2    0    0  0.00000000000E+00  0.00000000000E+00 -0.56924195911E+03  0.39098048675E+04  0.38681439598E+04 0.  0.
        5    1    3    3  502    0  0.13353493490E+04  0.63961622555E+03  0.97310605780E+03  0.17717856218E+04  0.46999998093E+01 0. -1.
       -5    1    3    3    0  502 -0.13353493490E+04 -0.63961622555E+03 -0.15423480169E+04  0.21380192457E+04  0.46999998093E+01 0.  1.
</event>
<event>
 5   0  0.3680814E-07  0.3867301E+04  0.7818609E-02  0.8031864E-01
        2   -1    0    0  501    0  0.00000000000E+00  0.00000000000E+00  0.23637779423E+04  0.23637779423E+04  0.25500000920E-02 0. -1.
       -2   -1    0    0    0  501  0.00000000000E+00  0.00000000000E+00 -0.15817919845E+04  0.15817919845E+04  0.25500000920E-02 0.  1.
    10030    2    1    2    0    0  0.00000000000E+00  0.00000000000E+00  0.78198595785E+03  0.39455699268E+04  0.38673013859E+04 0.  0.
        1    1    3    3  502    0 -0.22452861794E+03  0.13567051093E+04  0.17778957919E+04  0.22476599611E+04  0.50400001928E-02 0. -1.
       -1    1    3    3    0  502  0.22452861794E+03 -0.13567051093E+04 -0.99590983406E+03  0.16979099657E+04  0.50400001928E-02 0.  1.
</event>
<event>
 5   0  0.3810833E-07  0.2987373E+04  0.7818609E-02  0.8247346E-01
       -2   -1    0    0    0  501  0.00000000000E+00  0.00000000000E+00  0.10621384989E+04  0.10621384989E+04  0.25500000920E-02 0.  1.
        2   -1    0    0  501    0  0.00000000000E+00  0.00000000000E+00 -0.21005734549E+04  0.21005734549E+04  0.25500000920E-02 0. -1.
    10030    2    1    2    0    0  0.00000000000E+00  0.00000000000E+00 -0.10384349560E+04  0.31627119538E+04  0.29873733856E+04 0.  0.
        3    1    3    3  502    0  0.99823214148E+03 -0.22550321670E+03  0.63265865965E+03  0.12031525667E+04  0.10100000352E+00 0.  1.
       -3    1    3    3    0  502 -0.99823214148E+03  0.22550321670E+03 -0.16710936157E+04  0.19595593871E+04  0.10100000352E+00 0. -1.
</event>
<event>
 5   0  0.1187925E-07  0.3907868E+04  0.7818609E-02  0.8023395E-01
        3   -1    0    0  501    0  0.00000000000E+00  0.00000000000E+00  0.23292169043E+04  0.23292169064E+04  0.10100000352E+00 0. -1.
       -3   -1    0    0    0  501  0.00000000000E+00  0.00000000000E+00 -0.16391167568E+04  0.16391167600E+04  0.10100000352E+00 0.  1.
    10030    2    1    2    0    0  0.00000000000E+00  0.00000000000E+00  0.69010014742E+03  0.39683336664E+04  0.39078682007E+04 0.  0.
        3    1    3    3  502    0  0.13912890932E+04 -0.13329700860E+04  0.67467050621E+03  0.20414884014E+04  0.10100000352E+00 0. -1.
       -3    1    3    3    0  502 -0.13912890932E+04  0.13329700860E+04  0.15429641210E+02  0.19268452650E+04  0.10100000352E+00 0.  1.
</event>
<event>
 5   0  0.1187925E-07  0.3901835E+04  0.7818609E-02  0.8024648E-01
        1   -1    0    0  501    0  0.00000000000E+00  0.00000000000E+00  0.31035748573E+04  0.31035748573E+04  0.50400001928E-02 0. -1.
       -1   -1    0    0    0  501  0.00000000000E+00  0.00000000000E+00 -0.12263529428E+04  0.12263529428E+04  0.50400001928E-02 0.  1.
    10030    2    1    2    0    0  0.00000000000E+00  0.00000000000E+00  0.18772219145E+04  0.43299278001E+04  0.39018345221E+04 0.  0.
        4    1    3    3  502    0  0.17053655393E+04 -0.48128923771E+03  0.18443496209E+04  0.25576430732E+04  0.12699999809E+01 0. -1.
       -4    1    3    3    0  502 -0.17053655393E+04  0.48128923771E+03  0.32872293610E+02  0.17722847270E+04  0.12699999809E+01 0.  1.
</event>
<event>
 5   0  0.1187925E-07  0.3903954E+04  0.7818609E-02  0.8024207E-01
        1   -1    0    0  501    0  0.00000000000E+00  0.00000000000E+00  0.19769541825E+04  0.19769541825E+04  0.50400001928E-02 0. -1.
       -1   -1    0    0    0  501  0.00000000000E+00  0.00000000000E+00 -0.19273157314E+04  0.19273157314E+04  0.50400001928E-02 0.  1.
    10030    2    1    2    0    0  0.00000000000E+00  0.00000000000E+00  0.49638451084E+02  0.39042699139E+04  0.39039543523E+04 0.  0.
        2    1    3    3  502    0 -0.14532174769E+04 -0.12343314659E+04  0.44294355266E+03  0.19574509429E+04  0.25500000920E-02 0. -1.
       -2    1    3    3    0  502  0.14532174769E+04  0.12343314659E+04 -0.39330510158E+03  0.19468189710E+04  0.25500000920E-02 0.  1.
</event>
<event>
 5   0  0.3610483E-07  0.3903960E+04  0.7818609E-02  0.8024206E-01
        2   -1    0    0  501    0  0.00000000000E+00  0.00000000000E+00  0.25098213952E+04  0.25098213952E+04  0.25500000920E-02 0. -1.
       -2   -1    0    0    0  501  0.00000000000E+00  0.00000000000E+00 -0.15181265066E+04  0.15181265066E+04  0.25500000920E-02 0.  1.
    10030    2    1    2    0    0  0.00000000000E+00  0.00000000000E+00  0.99169488866E+03  0.40279479018E+04  0.39039602390E+04 0.  0.
        4    1    3    3  502    0  0.51517473053E+02 -0.11486667364E+04  0.21233267260E+04  0.24146650533E+04  0.12699999809E+01 0. -1.
       -4    1    3    3    0  502 -0.51517473053E+02  0.11486667364E+04 -0.11316318373E+04  0.16132828485E+04  0.12699999809E+01 0.  1.
</event>
<event>
 5   0  0.3680814E-07  0.3924830E+04  0.7818609E-02  0.8019885E-01
        2   -1    0    0  501    0  0.00000000000E+00  0.00000000000E+00  0.20277050115E+04  0.20277050115E+04  0.25500000920E-02 0. -1.
       -2   -1    0    0    0  501  0.00000000000E+00  0.00000000000E+00 -0.18992269212E+04  0.18992269212E+04  0.25500000920E-02 0.  1.
    10030    2    1    2    0    0  0.00000000000E+00  0.00000000000E+00  0.12847809037E+03  0.39269319327E+04  0.39248296503E+04 0.  0.
        1    1    3    3  502    0  0.10950291670E+04 -0.16239320811E+04 -0.57595080293E+02  0.19594798988E+04  0.50400001928E-02 0. -1.
       -1    1    3    3    0  502 -0.10950291670E+04  0.16239320811E+04  0.18607317067E+03  0.19674520338E+04  0.50400001928E-02 0.  1.
</event>
<event>
 5   0  0.1187925E-07  0.3845180E+04  0.7818609E-02  0.8036528E-01
        1   -1    0    0  501    0  0.00000000000E+00  0.00000000000E+00  0.21058763833E+04  0.21058763833E+04  0.50400001928E-02 0. -1.
       -1   -1    0    0    0  501  0.00000000000E+00  0.00000000000E+00 -0.17552564435E+04  0.17552564436E+04  0.50400001928E-02 0.  1.
    10030    2    1    2    0    0  0.00000000000E+00  0.00000000000E+00  0.35061993977E+03  0.38611328269E+04  0.38451804073E+04 0.  0.
        1    1    3    3  502    0 -0.29060420089E+03 -0.10026229519E+04  0.17965202200E+04  0.20777845139E+04  0.50400001928E-02 0. -1.
       -1    1    3    3    0  502  0.29060420089E+03  0.10026229519E+04 -0.14459002802E+04  0.17833483130E+04  0.50400001928E-02 0.  1.
</event>
<event>
 5   0  0.3832389E-07  0.3913073E+04  0.7818609E-02  0.8022316E-01
       -2   -1    0    0    0  501  0.00000000000E+00  0.00000000000E+00  0.16512276935E+04  0.16512276935E+04  0.25500000920E-02 0.  1.
        2   -1    0    0  501    0  0.00000000000E+00  0.00000000000E+00 -0.23182960766E+04  0.23182960766E+04  0.25500000920E-02 0. -1.
    10030    2    1    2    0    0  0.00000000000E+00  0.00000000000E+00 -0.66706838304E+03  0.39695237701E+04  0.39130727994E+04 0.  0.
        5    1    3    3  502    0 -0.56173154695E+03  0.10126437162E+04  0.12662462288E+04  0.17159228504E+04  0.46999998093E+01 0.  1.
       -5    1    3    3    0  502  0.56173154695E+03 -0.10126437162E+04 -0.19333146118E+04  0.22536009196E+04  0.46999998093E+01 0. -1.
</event>
<event>
 5   0  0.1187925E-07  0.3924970E+04  0.7818609E-02  0.8019856E-01
       -1   -1    0    0    0  501  0.00000000000E+00  0.00000000000E+00  0.23119757081E+04  0.23119757081E+04  0.50400001928E-02 0.  1.
        1   -1    0    0  501    0  0.00000000000E+00  0.00000000000E+00 -0.16658250646E+04  0.16658250646E+04  0.50400001928E-02 0. -1.
    10030    2    1    2    0    0  0.00000000000E+00  0.00000000000E+00  0.64615064350E+03  0.39778007727E+04  0.39249698512E+04 0.  0.
        4    1    3    3  502    0 -0.55963067194E+03  0.12918462314E+04  0.17086990462E+04  0.22139799497E+04  0.12699999809E+01 0.  1.
       -4    1    3    3    0  502  0.55963067194E+03 -0.12918462314E+04 -0.10625484027E+04  0.17638208230E+04  0.12699999809E+01 0. -1.
</event>
<event>
 5   0  0.1187925E-07  0.3909170E+04  0.7818609E-02  0.8023125E-01
        1   -1    0    0  501    0  0.00000000000E+00  0.00000000000E+00  0.14438276165E+04  0.14438276165E+04  0.50400001928E-02 0. -1.
       -1   -1    0    0    0  501  0.00000000000E+00  0.00000000000E+00 -0.26460238854E+04  0.26460238854E+04  0.50400001928E-02 0.  1.
    10030    2    1    2    0    0  0.00000000000E+00  0.00000000000E+00 -0.12021962689E+04  0.40898515019E+04  0.39091699168E+04 0.  0.
        5    1    3    3  502    0 -0.56474368575E+03  0.10147232206E+04 -0.22459547324E+04  0.25284250819E+04  0.46999998093E+01 0.  1.
       -5    1    3    3    0  502  0.56474368575E+03 -0.10147232206E+04  0.10437584635E+04  0.15614264200E+04  0.46999998093E+01 0. -1.
</event>
<event>
 5   0  0.1187925E-07  0.3787947E+04  0.7818609E-02  0.8048746E-01
        1   -1    0    0  501    0  0.00000000000E+00  0.00000000000E+00  0.12837147975E+04  0.12837147975E+04  0.50400001928E-02 0. -1.
       -1   -1    0    0    0  501  0.00000000000E+00  0.00000000000E+00 -0.27943394564E+04  0.27943394564E+04  0.50400001928E-02 0.  1.
    10030    2    1    2    0    0  0.00000000000E+00  0.00000000000E+00 -0.15106246588E+04  0.40780542539E+04  0.37879466255E+04 0.  0.
        2    1    3    3  502    0 -0.10182755972E+04  0.78079533548E+01  0.96392293803E+03  0.14021745920E+04  0.25500000920E-02 0. -1.
       -2    1    3    3    0  502  0.10182755972E+04 -0.78079533548E+01 -0.24745475969E+04  0.26758796619E+04  0.25500000920E-02 0.  1.
</event>
<event>
 5   0  0.3610483E-07  0.3885984E+04  0.7818609E-02  0.8027951E-01
       -2   -1    0    0    0  501  0.00000000000E+00  0.00000000000E+00  0.17296910192E+04  0.17296910192E+04  0.25500000920E-02 0.  1.
        2   -1    0    0  501    0  0.00000000000E+00  0.00000000000E+00 -0.21825969306E+04  0.21825969306E+04  0.25500000920E-02 0. -1.
    10030    2    1    2    0    0  0.00000000000E+00  0.00000000000E+00 -0.45290591146E+03  0.39122879498E+04  0.38859842045E+04 0.  0.
        4    1    3    3  502    0  0.10741595161E+04 -0.10525985625E+04  0.10120914064E+04  0.18127639194E+04  0.12699999809E+01 0.  1.
       -4    1    3    3    0  502 -0.10741595161E+04  0.10525985625E+04 -0.14649973179E+04  0.20995240304E+04  0.12699999809E+01 0. -1.
</event>
<event>
 5   0  0.1187925E-07  0.3743474E+04  0.7818609E-02  0.8058395E-01
       -1   -1    0    0    0  501  0.00000000000E+00  0.00000000000E+00  0.18591154608E+04  0.18591154608E+04  0.50400001928E-02 0.  1.
        1   -1    0    0  501    0  0.00000000000E+00  0.00000000000E+00 -0.18844438515E+04  0.18844438515E+04  0.50400001928E-02 0. -1.
    10030    2    1    2    0    0  0.00000000000E+00  0.00000000000E+00 -0.25328390710E+02  0.37435593123E+04  0.37434736272E+04 0.  0.
        1    1    3    3  502    0 -0.10803533702E+04  0.25984750722E+03 -0.15189239429E+04  0.18819707957E+04  0.50400001928E-02 0. -1.
       -1    1    3    3    0  502  0.10803533702E+04 -0.25984750722E+03  0.14935955522E+04  0.18615885166E+04  0.50400001928E-02 0.  1.
</event>
<event>
 5   0  0.1187925E-07  0.3899634E+04  0.7818609E-02  0.8025105E-01
       -1   -1    0    0    0  501  0.00000000000E+00  0.00000000000E+00  0.17713956690E+04  0.17713956690E+04  0.50400001928E-02 0.  1.
        1   -1    0    0  501    0  0.00000000000E+00  0.00000000000E+00 -0.21462090342E+04  0.21462090342E+04  0.50400001928E-02 0. -1.
    10030    2    1    2    0    0  0.00000000000E+00  0.00000000000E+00 -0.37481336517E+03  0.39176047032E+04  0.38996335151E+04 0.  0.
        3    1    3    3  502    0  0.12850122824E+04  0.29822853345E+03 -0.16298468755E+04  0.20968065414E+04  0.10100000352E+00 0. -1.
       -3    1    3    3    0  502 -0.12850122824E+04 -0.29822853345E+03  0.12550335104E+04  0.18207981619E+04  0.10100000352E+00 0.  1.
</event>
<event>
 5   0  0.3665303E-07  0.3905799E+04  0.7818609E-02  0.8023824E-01
       -2   -1    0    0    0  501  0.00000000000E+00  0.00000000000E+00  0.19099711874E+04  0.19099711874E+04  0.25500000920E-02 0.  1.
        2   -1    0    0  501    0  0.00000000000E+00  0.00000000000E+00 -0.19967925388E+04  0.19967925388E+04  0.25500000920E-02 0. -1.
    10030    2    1    2    0    0  0.00000000000E+00  0.00000000000E+00 -0.86821351464E+02  0.39067637262E+04  0.39057988767E+04 0.  0.
        2    1    3    3  502    0  0.42542918874E+03  0.17034010271E+04 -0.89875416771E+03  0.19723904552E+04  0.25500000920E-02 0. -1.
       -2    1    3    3    0  502 -0.42542918874E+03 -0.17034010271E+04  0.81193281624E+03  0.19343732710E+04  0.25500000920E-02 0.  1.
</event>
<event>
 5   0  0.3610483E-07  0.4027427E+04  0.7818609E-02  0.7999036E-01
       -2   -1    0    0    0  501  0.00000000000E+00  0.00000000000E+00  0.12639225515E+04  0.12639225515E+04  0.25500000920E-02 0.  1.
        2   -1    0    0  501    0  0.00000000000E+00  0.00000000000E+00 -0.32082989869E+04  0.32082989869E+04  0.25500000920E-02 0. -1.
    10030    2    1    2    0    0  0.00000000000E+00  0.00000000000E+00 -0.19443764354E+04  0.44722215385E+04  0.40274266929E+04 0.  0.
        4    1    3    3  502    0  0.45216914980E+03  0.10044591391E+04 -0.28440792108E+04  0.30499480770E+04  0.12699999809E+01 0. -1.
       -4    1    3    3    0  502 -0.45216914980E+03 -0.10044591391E+04  0.89970277539E+03  0.14222734615E+04  0.12699999809E+01 0.  1.
</event>
<event>
 5   0  0.1187925E-07  0.3915711E+04  0.7818609E-02  0.8021769E-01
       -1   -1    0    0    0  501  0.00000000000E+00  0.00000000000E+00  0.16951989593E+04  0.16951989593E+04  0.50400001928E-02 0.  1.
        1   -1    0    0  501    0  0.00000000000E+00  0.00000000000E+00 -0.22612086773E+04  0.22612086774E+04  0.50400001928E-02 0. -1.
    10030    2    1    2    0    0  0.00000000000E+00  0.00000000000E+00 -0.56600971807E+03  0.39564076366E+04  0.39157112236E+04 0.  0.
        5    1    3    3  502    0  0.24506554159E+03  0.11233105025E+04  0.13181710977E+04  0.17491371409E+04  0.46999998093E+01 0.  1.
       -5    1    3    3    0  502 -0.24506554159E+03 -0.11233105025E+04 -0.18841808158E+04  0.22072704957E+04  0.46999998093E+01 0. -1.
</event>
<event>
 5   0  0.3610483E-07  0.3912591E+04  0.7818609E-02  0.8022416E-01
       -2   -1    0    0    0  501  0.00000000000E+00  0.00000000000E+00  0.17422375665E+04  0.17422375665E+04  0.25500000920E-02 0.  1.
        2   -1    0    0  501    0  0.00000000000E+00  0.00000000000E+00 -0.21966537123E+04  0.21966537123E+04  0.25500000920E-02 0. -1.
    10030    2    1    2    0    0  0.00000000000E+00  0.00000000000E+00 -0.45441614580E+03  0.39388912788E+04  0.39125912734E+04 0.  0.
        4    1    3    3  502    0 -0.71188845781E+02 -0.19486908692E+04 -0.38519301884E+03  0.19876718115E+04  0.12699999809E+01 0. -1.
       -4    1    3    3    0  502  0.71188845781E+02  0.19486908692E+04 -0.69223126966E+02  0.19512194673E+04  0.12699999809E+01 0.  1.
</event>
<event>
 5   0  0.1187925E-07  0.3892763E+04  0.7818609E-02  0.8026536E-01
        1   -1    0    0  501    0  0.00000000000E+00  0.00000000000E+00  0.15313585719E+04  0.15313585719E+04  0.50400001928E-02 0.  1.
       -1   -1    0    0    0  501  0.00000000000E+00  0.00000000000E+00 -0.24738817818E+04  0.24738817818E+04  0.50400001928E-02 0. -1.
    10030    2    1    2    0    0  0.00000000000E+00  0.00000000000E+00 -0.94252320993E+03  0.40052403537E+04  0.38927625525E+04 0.  0.
        2    1    3    3  502    0 -0.76522649440E+03 -0.17665145889E+04 -0.17617397161E+03  0.19331794146E+04  0.25500000920E-02 0.  1.
       -2    1    3    3    0  502  0.76522649440E+03  0.17665145889E+04 -0.76634923832E+03  0.20720609392E+04  0.25500000920E-02 0. -1.
</event>
<event>
 5   0  0.3832389E-07  0.3846139E+04  0.7818609E-02  0.8036325E-01
        2   -1    0    0  501    0  0.00000000000E+00  0.00000000000E+00  0.19558878763E+04  0.19558878763E+04  0.25500000920E-02 0. -1.
       -2   -1    0    0    0  501  0.00000000000E+00  0.00000000000E+00 -0.18908022382E+04  0.18908022382E+04  0.25500000920E-02 0.  1.
    10030    2    1    2    0    0  0.00000000000E+00  0.00000000000E+00  0.65085638186E+02  0.38466901145E+04  0.38461394536E+04 0.  0.
        5    1    3    3  502    0  0.10804994592E+04 -0.10015952793E+04 -0.12035560131E+04  0.19024303802E+04  0.46999998093E+01 0.  1.
       -5    1    3    3    0  502 -0.10804994592E+04  0.10015952793E+04  0.12686416513E+04  0.19442597343E+04  0.46999998093E+01 0. -1.
</event>
<event>
 5   0  0.1187925E-07  0.3888415E+04  0.7818609E-02  0.8027443E-01
        1   -1    0    0  501    0  0.00000000000E+00  0.00000000000E+00  0.19558777782E+04  0.19558777782E+04  0.50400001928E-02 0. -1.
       -1   -1    0    0    0  501  0.00000000000E+00  0.00000000000E+00 -0.19326072595E+04  0.19326072595E+04  0.50400001928E-02 0.  1.
    10030    2    1    2    0    0  0.00000000000E+00  0.00000000000E+00  0.23270518776E+02  0.38884850377E+04  0.38884154062E+04 0.  0.
        4    1    3    3  502    0 -0.18259065931E+04 -0.44382372704E+03 -0.48740032218E+03  0.19412560558E+04  0.12699999809E+01 0. -1.
       -4    1    3    3    0  502  0.18259065931E+04  0.44382372704E+03  0.51067084096E+03  0.19472289819E+04  0.12699999809E+01 0.  1.
</event>
<event>
 5   0  0.3680814E-07  0.3845905E+04  0.7818609E-02  0.8036375E-01
       -2   -1    0    0    0  501  0.00000000000E+00  0.00000000000E+00  0.15251823835E+04  0.15251823835E+04  0.25500000920E-02 0. -1.
        2   -1    0    0  501    0  0.00000000000E+00  0.00000000000E+00 -0.24244615045E+04  0.24244615045E+04  0.25500000920E-02 0.  1.
    10030    2    1    2    0    0  0.00000000000E+00  0.00000000000E+00 -0.89927912091E+03  0.39496438880E+04  0.38459048226E+04 0.  0.
        1    1    3    3  502    0  0.11439044126E+04  0.69870918755E+03 -0.18656105846E+04  0.22972189028E+04  0.50400001928E-02 0.  1.
       -1    1    3    3    0  502 -0.11439044126E+04 -0.69870918755E+03  0.96633146366E+03  0.16524249852E+04  0.50400001928E-02 0. -1.
</event>
<event>
 5   0  0.3832389E-07  0.3643301E+04  0.7818609E-02  0.8080644E-01
       -2   -1    0    0    0  501  0.00000000000E+00  0.00000000000E+00  0.13444658001E+04  0.13444658001E+04  0.25500000920E-02 0.  1.
        2   -1    0    0  501    0  0.00000000000E+00  0.00000000000E+00 -0.24682005761E+04  0.24682005761E+04  0.25500000920E-02 0. -1.
    10030    2    1    2    0    0  0.00000000000E+00  0.00000000000E+00 -0.11237347760E+04  0.38126663762E+04  0.36433013942E+04 0.  0.
        5    1    3    3  502    0 -0.81720943949E+03 -0.16239306101E+04 -0.68303987125E+03  0.19420472317E+04  0.46999998093E+01 0. -1.
       -5    1    3    3    0  502  0.81720943949E+03  0.16239306101E+04 -0.44069490473E+03  0.18706191445E+04  0.46999998093E+01 0.  1.
</event>
<event>
 5   0  0.3665303E-07  0.2790183E+04  0.7818609E-02  0.8306323E-01
       -2   -1    0    0    0  501  0.00000000000E+00  0.00000000000E+00  0.15057240255E+04  0.15057240255E+04  0.25500000920E-02 0. -1.
        2   -1    0    0  501    0  0.00000000000E+00  0.00000000000E+00 -0.12925874116E+04  0.12925874116E+04  0.25500000920E-02 0.  1.
    10030    2    1    2    0    0  0.00000000000E+00  0.00000000000E+00  0.21313661388E+03  0.27983114371E+04  0.27901827328E+04 0.  0.
        2    1    3    3  502    0 -0.72123444813E+03  0.67324639578E+03 -0.88263174069E+03  0.13238121575E+04  0.25500000920E-02 0.  1.
       -2    1    3    3    0  502  0.72123444813E+03 -0.67324639578E+03  0.10957683546E+04  0.14744992796E+04  0.25500000920E-02 0. -1.
</event>
<event>
 5   0  0.3610483E-07  0.3865253E+04  0.7818609E-02  0.8032295E-01
        2   -1    0    0  501    0  0.00000000000E+00  0.00000000000E+00  0.16691755295E+04  0.16691755295E+04  0.25500000920E-02 0.  1.
       -2   -1    0    0    0  501  0.00000000000E+00  0.00000000000E+00 -0.22376588561E+04  0.22376588561E+04  0.25500000920E-02 0. -1.
    10030    2    1    2    0    0  0.00000000000E+00  0.00000000000E+00 -0.56848332665E+03  0.39068343856E+04  0.38652531125E+04 0.  0.
        4    1    3    3  502    0  0.16058526524E+04  0.29080491667E+03  0.76213109425E+03  0.18011595316E+04  0.12699999809E+01 0.  1.
       -4    1    3    3    0  502 -0.16058526524E+04 -0.29080491667E+03 -0.13306144209E+04  0.21056748540E+04  0.12699999809E+01 0. -1.
</event>
<event>
 5   0  0.3832389E-07  0.3896325E+04  0.7818609E-02  0.8025794E-01
        2   -1    0    0  501    0  0.00000000000E+00  0.00000000000E+00  0.20593140416E+04  0.20593140416E+04  0.25500000920E-02 0. -1.
       -2   -1    0    0    0  501  0.00000000000E+00  0.00000000000E+00 -0.18430099325E+04  0.18430099325E+04  0.25500000920E-02 0.  1.
    10030    2    1    2    0    0  0.00000000000E+00  0.00000000000E+00  0.21630410910E+03  0.39023239741E+04  0.38963245413E+04 0.  0.
        5    1    3    3  502    0  0.15989459554E+04  0.75196986752E+03  0.92991973203E+03  0.19967122096E+04  0.46999998093E+01 0. -1.
       -5    1    3    3    0  502 -0.15989459554E+04 -0.75196986752E+03 -0.71361562293E+03  0.19056117645E+04  0.46999998093E+01 0.  1.
</event>
<event>
 5   0  0.1187925E-07  0.3923890E+04  0.7818609E-02  0.8020079E-01
       -1   -1    0    0    0  501  0.00000000000E+00  0.00000000000E+00  0.16513139935E+04  0.16513139935E+04  0.50400001928E-02 0. -1.
        1   -1    0    0  501    0  0.00000000000E+00  0.00000000000E+00 -0.23310088133E+04  0.23310088133E+04  0.50400001928E-02 0.  1.
    10030    2    1    2    0    0  0.00000000000E+00  0.00000000000E+00 -0.67969481984E+03  0.39823228068E+04  0.39238896378E+04 0.  0.
        4    1    3    3  502    0  0.10889343758E+04  0.91837738845E+03 -0.17090226619E+04  0.22248494722E+04  0.12699999809E+01 0.  1.
       -4    1    3    3    0  502 -0.10889343758E+04 -0.91837738845E+03  0.10293278420E+04  0.17574733346E+04  0.12699999809E+01 0. -1.
</event>
<event>
 5   0  0.1187925E-07  0.2908615E+04  0.7818609E-02  0.8270319E-01
       -1   -1    0    0    0  501  0.00000000000E+00  0.00000000000E+00  0.84762774253E+03  0.84762774254E+03  0.50400001928E-02 0. -1.
        1   -1    0    0  501    0  0.00000000000E+00  0.00000000000E+00 -0.24952104443E+04  0.24952104443E+04  0.50400001928E-02 0.  1.
    10030    2    1    2    0    0  0.00000000000E+00  0.00000000000E+00 -0.16475827017E+04  0.33428381868E+04  0.29086145128E+04 0.  0.
        2    1    3    3  502    0  0.10526587718E+04 -0.76307083934E+03 -0.15727203747E+04  0.20405433033E+04  0.25500000920E-02 0.  1.
       -2    1    3    3    0  502 -0.10526587718E+04  0.76307083934E+03 -0.74862327039E+02  0.13022948835E+04  0.25500000920E-02 0. -1.
</event>
<event>
 5   0  0.3832389E-07  0.3850042E+04  0.7818609E-02  0.8035501E-01
       -2   -1    0    0    0  501  0.00000000000E+00  0.00000000000E+00  0.15518581589E+04  0.15518581589E+04  0.25500000920E-02 0. -1.
        2   -1    0    0  501    0  0.00000000000E+00  0.00000000000E+00 -0.23879148572E+04  0.23879148572E+04  0.25500000920E-02 0.  1.
    10030    2    1    2    0    0  0.00000000000E+00  0.00000000000E+00 -0.83605669829E+03  0.39397730161E+04  0.38500416382E+04 0.  0.
        5    1    3    3  502    0  0.17255087044E+04 -0.83765476722E+03 -0.58504147229E+03  0.20053282555E+04  0.46999998093E+01 0. -1.
       -5    1    3    3    0  502 -0.17255087044E+04  0.83765476722E+03 -0.25101522600E+03  0.19344447606E+04  0.46999998093E+01 0.  1.
</event>
<event>
 5   0  0.1187925E-07  0.3882429E+04  0.7818609E-02  0.8028694E-01
        1   -1    0    0  501    0  0.00000000000E+00  0.00000000000E+00  0.14385590373E+04  0.14385590373E+04  0.50400001928E-02 0.  1.
       -1   -1    0    0    0  501  0.00000000000E+00  0.00000000000E+00 -0.26195056969E+04  0.26195056969E+04  0.50400001928E-02 0. -1.
    10030    2    1    2    0    0  0.00000000000E+00  0.00000000000E+00 -0.11809466596E+04  0.40580647342E+04  0.38824289271E+04 0.  0.
        3    1    3    3  502    0 -0.12247180885E+04 -0.82970913112E+02  0.98138454001E+03  0.15716024289E+04  0.10100000352E+00 0.  1.
       -3    1    3    3    0  502  0.12247180885E+04  0.82970913112E+02 -0.21623311996E+04  0.24864623053E+04  0.10100000352E+00 0. -1.
</event>
<event>
 5   0  0.3680814E-07  0.3437686E+04  0.7818609E-02  0.8128718E-01
       -2   -1    0    0    0  501  0.00000000000E+00  0.00000000000E+00  0.23592126538E+04  0.23592126538E+04  0.25500000920E-02 0.  1.
        2   -1    0    0  501    0  0.00000000000E+00  0.00000000000E+00 -0.12522910920E+04  0.12522910920E+04  0.25500000920E-02 0. -1.
    10030    2    1    2    0    0  0.00000000000E+00  0.00000000000E+00  0.11069215618E+04  0.36115037459E+04  0.34376858441E+04 0.  0.
        1    1    3    3  502    0 -0.25808547578E+03  0.67085884833E+03  0.21937388243E+04  0.23084951238E+04  0.50400001928E-02 0.  1.
       -1    1    3    3    0  502  0.25808547578E+03 -0.67085884833E+03 -0.10868172625E+04  0.13030086221E+04  0.50400001928E-02 0. -1.
</event>
<event>
 5   0  0.1187925E-07  0.3940921E+04  0.7818609E-02  0.8016572E-01
        1   -1    0    0  501    0  0.00000000000E+00  0.00000000000E+00  0.21407312865E+04  0.21407312865E+04  0.50400001928E-02 0. -1.
       -1   -1    0    0    0  501  0.00000000000E+00  0.00000000000E+00 -0.18137330055E+04  0.18137330055E+04  0.50400001928E-02 0.  1.
    10030    2    1    2    0    0  0.00000000000E+00  0.00000000000E+00  0.32699828098E+03  0.39544642919E+04  0.39409212071E+04 0.  0.
        1    1    3    3  502    0 -0.97979220591E+03  0.40128219786E+03  0.18310448572E+04  0.21151230315E+04  0.50400001928E-02 0. -1.
       -1    1    3    3    0  502  0.97979220591E+03 -0.40128219786E+03 -0.15040465762E+04  0.18393412605E+04  0.50400001928E-02 0.  1.
</event>
<event>
 5   0  0.3680814E-07  0.3229704E+04  0.7818609E-02  0.8181016E-01
        2   -1    0    0  501    0  0.00000000000E+00  0.00000000000E+00  0.28745072623E+04  0.28745072623E+04  0.25500000920E-02 0. -1.
       -2   -1    0    0    0  501  0.00000000000E+00  0.00000000000E+00 -0.90719815723E+03  0.90719815724E+03  0.25500000920E-02 0.  1.
    10030    2    1    2    0    0  0.00000000000E+00  0.00000000000E+00  0.19673091051E+04  0.37817054196E+04  0.32297044393E+04 0.  0.
        1    1    3    3  502    0  0.65203250227E+03  0.89933689116E+03 -0.38876152281E+03  0.11768979350E+04  0.50400001928E-02 0.  1.
       -1    1    3    3    0  502 -0.65203250227E+03 -0.89933689116E+03  0.23560706279E+04  0.26048074845E+04  0.50400001928E-02 0. -1.
</event>
<event>
 5   0  0.3680814E-07  0.3977213E+04  0.7818609E-02  0.8009159E-01
        2   -1    0    0  501    0  0.00000000000E+00  0.00000000000E+00  0.28881831322E+04  0.28881831322E+04  0.25500000920E-02 0.  1.
       -2   -1    0    0    0  501  0.00000000000E+00  0.00000000000E+00 -0.13692192892E+04  0.13692192892E+04  0.25500000920E-02 0. -1.
    10030    2    1    2    0    0  0.00000000000E+00  0.00000000000E+00  0.15189638430E+04  0.42574024213E+04  0.39772131224E+04 0.  0.
        1    1    3    3  502    0 -0.10538119828E+03  0.14787981530E+04 -0.65925910935E+03  0.16225201840E+04  0.50400001928E-02 0. -1.
       -1    1    3    3    0  502  0.10538119828E+03 -0.14787981530E+04  0.21782229523E+04  0.26348822373E+04  0.50400001928E-02 0.  1.
</event>
<event>
 5   0  0.3832389E-07  0.3821248E+04  0.7818609E-02  0.8041611E-01
       -2   -1    0    0    0  501  0.00000000000E+00  0.00000000000E+00  0.14783918558E+04  0.14783918558E+04  0.25500000920E-02 0.  1.
        2   -1    0    0  501    0  0.00000000000E+00  0.00000000000E+00 -0.24692257985E+04  0.24692257985E+04  0.25500000920E-02 0. -1.
    10030    2    1    2    0    0  0.00000000000E+00  0.00000000000E+00 -0.99083394272E+03  0.39476176544E+04  0.38212476030E+04 0.  0.
        5    1    3    3  502    0 -0.13903232904E+04  0.21000199728E+03 -0.18317810505E+04  0.23092300876E+04  0.46999998093E+01 0. -1.
       -5    1    3    3    0  502  0.13903232904E+04 -0.21000199728E+03  0.84094710776E+03  0.16383875667E+04  0.46999998093E+01 0.  1.
</event>
<event>
 5   0  0.3810833E-07  0.3993348E+04  0.7818609E-02  0.8005890E-01
        2   -1    0    0  501    0  0.00000000000E+00  0.00000000000E+00  0.25567236621E+04  0.25567236621E+04  0.25500000920E-02 0. -1.
       -2   -1    0    0    0  501  0.00000000000E+00  0.00000000000E+00 -0.15593030313E+04  0.15593030313E+04  0.25500000920E-02 0.  1.
    10030    2    1    2    0    0  0.00000000000E+00  0.00000000000E+00  0.99742063077E+03  0.41160266934E+04  0.39933479471E+04 0.  0.
        3    1    3    3  502    0  0.14594081539E+04  0.44956345481E+03 -0.82716983996E+03  0.17367180007E+04  0.10100000352E+00 0.  1.
       -3    1    3    3    0  502 -0.14594081539E+04 -0.44956345481E+03  0.18245904707E+04  0.23793086928E+04  0.10100000352E+00 0. -1.
</event>
<event>
 5   0  0.1187925E-07  0.3991369E+04  0.7818609E-02  0.8006290E-01
        1   -1    0    0  501    0  0.00000000000E+00  0.00000000000E+00  0.14300575832E+04  0.14300575832E+04  0.50400001928E-02 0. -1.
       -1   -1    0    0    0  501  0.00000000000E+00  0.00000000000E+00 -0.27850317854E+04  0.27850317854E+04  0.50400001928E-02 0.  1.
    10030    2    1    2    0    0  0.00000000000E+00  0.00000000000E+00 -0.13549742022E+04  0.42150893687E+04  0.39913685995E+04 0.  0.
        2    1    3    3  502    0 -0.18349843422E+04  0.51289471320E+03 -0.13045070074E+04  0.23091052500E+04  0.25500000920E-02 0.  1.
       -2    1    3    3    0  502  0.18349843422E+04 -0.51289471320E+03 -0.50467194831E+02  0.19059841187E+04  0.25500000920E-02 0. -1.
</event>
<event>
 5   0  0.1187925E-07  0.3882512E+04  0.7818609E-02  0.8028676E-01
       -1   -1    0    0    0  501  0.00000000000E+00  0.00000000000E+00  0.26887921749E+04  0.26887921750E+04  0.50400001928E-02 0. -1.
        1   -1    0    0  501    0  0.00000000000E+00  0.00000000000E+00 -0.14015494452E+04  0.14015494452E+04  0.50400001928E-02 0.  1.
    10030    2    1    2    0    0  0.00000000000E+00  0.00000000000E+00  0.12872427297E+04  0.40903416202E+04  0.38825121667E+04 0.  0.
        3    1    3    3  502    0 -0.77892537146E+03  0.12793910349E+04 -0.65735294899E+03  0.16357503062E+04  0.10100000352E+00 0.  1.
       -3    1    3    3    0  502  0.77892537146E+03 -0.12793910349E+04  0.19445956787E+04  0.24545913139E+04  0.10100000352E+00 0. -1.
</event>
<event>
 5   0  0.1187925E-07  0.3845964E+04  0.7818609E-02  0.8036362E-01
       -1   -1    0    0    0  501  0.00000000000E+00  0.00000000000E+00  0.32048956293E+04  0.32048956293E+04  0.50400001928E-02 0. -1.
        1   -1    0    0  501    0  0.00000000000E+00  0.00000000000E+00 -0.11538158972E+04  0.11538158972E+04  0.50400001928E-02 0.  1.
    10030    2    1    2    0    0  0.00000000000E+00  0.00000000000E+00  0.20510797322E+04  0.43587115265E+04  0.38459638719E+04 0.  0.
        2    1    3    3  502    0  0.12643422263E+03 -0.19186164071E+04  0.10572929975E+04  0.21942978405E+04  0.25500000920E-02 0. -1.
       -2    1    3    3    0  502 -0.12643422263E+03  0.19186164071E+04  0.99378673463E+03  0.21644136860E+04  0.25500000920E-02 0.  1.
</event>
<event>
 5   0  0.1187925E-07  0.3171505E+04  0.7818609E-02  0.8196383E-01
       -1   -1    0    0    0  501  0.00000000000E+00  0.00000000000E+00  0.24518718137E+04  0.24518718137E+04  0.50400001928E-02 0.  1.
        1   -1    0    0  501    0  0.00000000000E+00  0.00000000000E+00 -0.10255882736E+04  0.10255882736E+04  0.50400001928E-02 0. -1.
    10030    2    1    2    0    0  0.00000000000E+00  0.00000000000E+00  0.14262835400E+04  0.34774600873E+04  0.31715049932E+04 0.  0.
        1    1    3    3  502    0 -0.48939850736E+03  0.10970522848E+03 -0.93633139176E+03  0.10621970681E+04  0.50400001928E-02 0. -1.
       -1    1    3    3    0  502  0.48939850736E+03 -0.10970522848E+03  0.23626149318E+04  0.24152630192E+04  0.50400001928E-02 0.  1.
</event>
<event>
 5   0  0.3610483E-07  0.3876989E+04  0.7818609E-02  0.8029832E-01
       -2   -1    0    0    0  501  0.00000000000E+00  0.00000000000E+00  0.23774180102E+04  0.23774180102E+04  0.25500000920E-02 0. -1.
        2   -1    0    0  501    0  0.00000000000E+00  0.00000000000E+00 -0.15806059176E+04  0.15806059176E+04  0.25500000920E-02 0.  1.
    10030    2    1    2    0    0  0.00000000000E+00  0.00000000000E+00  0.79681209266E+03  0.39580239278E+04  0.38769890253E+04 0.  0.
        4    1    3    3  502    0  0.73419067138E+03 -0.10312344932E+04 -0.11003659721E+04  0.16772857262E+04  0.12699999809E+01 0.  1.
       -4    1    3    3    0  502 -0.73419067138E+03  0.10312344932E+04  0.18971780648E+04  0.22807382016E+04  0.12699999809E+01 0. -1.
</event>
<event>
 5   0  0.1187925E-07  0.3875685E+04  0.7818609E-02  0.8030105E-01
       -1   -1    0    0    0  501  0.00000000000E+00  0.00000000000E+00  0.17198827066E+04  0.17198827066E+04  0.50400001928E-02 0. -1.
        1   -1    0    0  501    0  0.00000000000E+00  0.00000000000E+00 -0.21834240999E+04  0.21834240999E+04  0.50400001928E-02 0.  1.
    10030    2    1    2    0    0  0.00000000000E+00  0.00000000000E+00 -0.46354139323E+03  0.39033068065E+04  0.38756848946E+04 0.  0.
        3    1    3    3  502    0  0.35517652518E+03  0.18678652538E+03 -0.21411181757E+04  0.21784000144E+04  0.10100000352E+00 0.  1.
       -3    1    3    3    0  502 -0.35517652518E+03 -0.18678652538E+03  0.16775767825E+04  0.17249067921E+04  0.10100000352E+00 0. -1.
</event>
<event>
 5   0  0.3665303E-07  0.3852169E+04  0.7818609E-02  0.8035051E-01
        2   -1    0    0  501    0  0.00000000000E+00  0.00000000000E+00  0.16775835241E+04  0.16775835241E+04  0.25500000920E-02 0. -1.
       -2   -1    0    0    0  501  0.00000000000E+00  0.00000000000E+00 -0.22113960562E+04  0.22113960562E+04  0.25500000920E-02 0.  1.
    10030    2    1    2    0    0  0.00000000000E+00  0.00000000000E+00 -0.53381253211E+03  0.38889795803E+04  0.38521690457E+04 0.  0.
        2    1    3    3  502    0  0.98471956767E+03  0.40406966455E+03 -0.18875048571E+04  0.21669378179E+04  0.25500000920E-02 0.  1.
       -2    1    3    3    0  502 -0.98471956767E+03 -0.40406966455E+03  0.13536923250E+04  0.17220417624E+04  0.25500000920E-02 0. -1.
</event>
<event>
 5   0  0.1187925E-07  0.3533678E+04  0.7818609E-02  0.8105855E-01
        1   -1    0    0  501    0  0.00000000000E+00  0.00000000000E+00  0.15626029543E+04  0.15626029543E+04  0.50400001928E-02 0.  1.
       -1   -1    0    0    0  501  0.00000000000E+00  0.00000000000E+00 -0.19977689090E+04  0.19977689090E+04  0.50400001928E-02 0. -1.
    10030    2    1    2    0    0  0.00000000000E+00  0.00000000000E+00 -0.43516595476E+03  0.35603718633E+04  0.35336777438E+04 0.  0.
        5    1    3    3  502    0 -0.13269425874E+04  0.10146509323E+04  0.36244311524E+03  0.17092923233E+04  0.46999998093E+01 0.  1.
       -5    1    3    3    0  502  0.13269425874E+04 -0.10146509323E+04 -0.79760906999E+03  0.18510795400E+04  0.46999998093E+01 0. -1.
</event>
<event>
 5   0  0.3610483E-07  0.2903186E+04  0.7818609E-02  0.8271930E-01
        2   -1    0    0  501    0  0.00000000000E+00  0.00000000000E+00  0.22997916284E+04  0.22997916284E+04  0.25500000920E-02 0.  1.
       -2   -1    0    0    0  501  0.00000000000E+00  0.00000000000E+00 -0.91622332316E+03  0.91622332317E+03  0.25500000920E-02 0. -1.
    10030    2    1    2    0    0  0.00000000000E+00  0.00000000000E+00  0.13835683053E+04  0.32160149516E+04  0.29031863381E+04 0.  0.
        4    1    3    3  502    0 -0.66716002552E+03 -0.12884048583E+04  0.74171345719E+03  0.16294876630E+04  0.12699999809E+01 0.  1.
       -4    1    3    3    0  502  0.66716002552E+03  0.12884048583E+04  0.64185484806E+03  0.15865272886E+04  0.12699999809E+01 0. -1.
</event>
<event>
 5   0  0.3680814E-07  0.3924307E+04  0.7818609E-02  0.8019993E-01
       -2   -1    0    0    0  501  0.00000000000E+00  0.00000000000E+00  0.14005099906E+04  0.14005099906E+04  0.25500000920E-02 0. -1.
        2   -1    0    0  501    0  0.00000000000E+00  0.00000000000E+00 -0.27490315716E+04  0.27490315717E+04  0.25500000920E-02 0.  1.
    10030    2    1    2    0    0  0.00000000000E+00  0.00000000000E+00 -0.13485215810E+04  0.41495415623E+04  0.39243069098E+04 0.  0.
        1    1    3    3  502    0 -0.17557156904E+04  0.19063609441E+03  0.22989920709E+03  0.17809360885E+04  0.50400001928E-02 0. -1.
       -1    1    3    3    0  502  0.17557156904E+04 -0.19063609441E+03 -0.15784207881E+04  0.23686054738E+04  0.50400001928E-02 0.  1.
</event>
<event>
 5   0  0.3680814E-07  0.3708780E+04  0.7818609E-02  0.8066019E-01
        2   -1    0    0  501    0  0.00000000000E+00  0.00000000000E+00  0.23887159074E+04  0.23887159074E+04  0.25500000920E-02 0. -1.
       -2   -1    0    0    0  501  0.00000000000E+00  0.00000000000E+00 -0.14395858945E+04  0.14395858945E+04  0.25500000920E-02 0.  1.
    10030    2    1    2    0    0  0.00000000000E+00  0.00000000000E+00  0.94913001291E+03  0.38283018018E+04  0.37087797056E+04 0.  0.
        1    1    3    3  502    0  0.37705966737E+03  0.17977194712E+04  0.73731171516E+03  0.19792922612E+04  0.50400001928E-02 0.  1.
       -1    1    3    3    0  502 -0.37705966737E+03 -0.17977194712E+04  0.21181829775E+03  0.18490095406E+04  0.50400001928E-02 0. -1.
</event>
<event>
 5   0  0.1187925E-07  0.3872539E+04  0.7818609E-02  0.8030765E-01
        1   -1    0    0  501    0  0.00000000000E+00  0.00000000000E+00  0.17484052397E+04  0.17484052397E+04  0.50400001928E-02 0.  1.
       -1   -1    0    0    0  501  0.00000000000E+00  0.00000000000E+00 -0.21443197724E+04  0.21443197725E+04  0.50400001928E-02 0. -1.
    10030    2    1    2    0    0  0.00000000000E+00  0.00000000000E+00 -0.39591453275E+03  0.38927250122E+04  0.38725391803E+04 0.  0.
        4    1    3    3  502    0 -0.10083276932E+04  0.60020559730E+03 -0.17461695841E+04  0.21038254027E+04  0.12699999809E+01 0. -1.
       -4    1    3    3    0  502  0.10083276932E+04 -0.60020559730E+03  0.13502550513E+04  0.17888996094E+04  0.12699999809E+01 0.  1.
</event>
<event>
 5   0  0.3610483E-07  0.3147821E+04  0.7818609E-02  0.8202735E-01
       -2   -1    0    0    0  501  0.00000000000E+00  0.00000000000E+00  0.11850639948E+04  0.11850639948E+04  0.25500000920E-02 0.  1.
        2   -1    0    0  501    0  0.00000000000E+00  0.00000000000E+00 -0.20903458534E+04  0.20903458534E+04  0.25500000920E-02 0. -1.
    10030    2    1    2    0    0  0.00000000000E+00  0.00000000000E+00 -0.90528185861E+03  0.32754098482E+04  0.31478205842E+04 0.  0.
        4    1    3    3  502    0  0.11988754406E+04  0.28435137181E+03 -0.14716373883E+04  0.19193426583E+04  0.12699999809E+01 0. -1.
       -4    1    3    3    0  502 -0.11988754406E+04 -0.28435137181E+03  0.56635552964E+03  0.13560671899E+04  0.12699999809E+01 0.  1.
</event>
<event>
 5   0  0.3610483E-07  0.3964821E+04  0.7818609E-02  0.8011681E-01
        2   -1    0    0  501    0  0.00000000000E+00  0.00000000000E+00  0.20623264821E+04  0.20623264821E+04  0.25500000920E-02 0.  1.
       -2   -1    0    0    0  501  0.00000000000E+00  0.00000000000E+00 -0.19055915542E+04  0.19055915542E+04  0.25500000920E-02 0. -1.
    10030    2    1    2    0    0  0.00000000000E+00  0.00000000000E+00  0.15673492793E+03  0.39679180363E+04  0.39648212702E+04 0.  0.
        4    1    3    3  502    0  0.14084544915E+04 -0.48148593027E+03 -0.12319976261E+04  0.19321988819E+04  0.12699999809E+01 0. -1.
       -4    1    3    3    0  502 -0.14084544915E+04  0.48148593027E+03  0.13887325541E+04  0.20357191543E+04  0.12699999809E+01 0.  1.
</event>
<event>
 5   0  0.1187925E-07  0.3964102E+04  0.7818609E-02  0.8011828E-01
       -1   -1    0    0    0  501  0.00000000000E+00  0.00000000000E+00  0.16518614229E+04  0.16518614229E+04  0.50400001928E-02 0.  1.
        1   -1    0    0  501    0  0.00000000000E+00  0.00000000000E+00 -0.23782421502E+04  0.23782421502E+04  0.50400001928E-02 0. -1.
    10030    2    1    2    0    0  0.00000000000E+00  0.00000000000E+00 -0.72638072731E+03  0.40301035730E+04  0.39641021491E+04 0.  0.
        2    1    3    3  502    0 -0.15062015601E+04  0.59226362397E+03 -0.15264026034E+04  0.22247076768E+04  0.25500000920E-02 0. -1.
       -2    1    3    3    0  502  0.15062015601E+04 -0.59226362397E+03  0.80002187607E+03  0.18053958962E+04  0.25500000920E-02 0.  1.
</event>
<event>
 5   0  0.3610483E-07  0.3851468E+04  0.7818609E-02  0.8035199E-01
        2   -1    0    0  501    0  0.00000000000E+00  0.00000000000E+00  0.12033029060E+04  0.12033029060E+04  0.25500000920E-02 0.  1.
       -2   -1    0    0    0  501  0.00000000000E+00  0.00000000000E+00 -0.30818938259E+04  0.30818938259E+04  0.25500000920E-02 0. -1.
    10030    2    1    2    0    0  0.00000000000E+00  0.00000000000E+00 -0.18785909199E+04  0.42851967319E+04  0.38514681858E+04 0.  0.
        4    1    3    3  502    0  0.67970953645E+03 -0.16608753415E+04 -0.17164848682E+04  0.24833110699E+04  0.12699999809E+01 0.  1.
       -4    1    3    3    0  502 -0.67970953645E+03  0.16608753415E+04 -0.16210605166E+03  0.18018856620E+04  0.12699999809E+01 0. -1.
</event>
<event>
 5   0  0.1187925E-07  0.3935139E+04  0.7818609E-02  0.8017760E-01
       -1   -1    0    0    0  501  0.00000000000E+00  0.00000000000E+00  0.21203646158E+04  0.21203646158E+04  0.50400001928E-02 0. -1.
        1   -1    0    0  501    0  0.00000000000E+00  0.00000000000E+00 -0.18257850026E+04  0.18257850026E+04  0.50400001928E-02 0.  1.
    10030    2    1    2    0    0  0.00000000000E+00  0.00000000000E+00  0.29457961318E+03  0.39461496184E+04  0.39351390906E+04 0.  0.
        5    1    3    3  502    0 -0.11436604180E+04  0.14827077618E+04 -0.45849179886E+03  0.19278532824E+04  0.46999998093E+01 0. -1.
       -5    1    3    3    0  502  0.11436604180E+04 -0.14827077618E+04  0.75307141204E+03  0.20182963361E+04  0.46999998093E+01 0.  1.
</event>
<event>
 5   0  0.1187925E-07  0.3900009E+04  0.7818609E-02  0.8025027E-01
       -1   -1    0    0    0  501  0.00000000000E+00  0.00000000000E+00  0.18080743158E+04  0.18080743158E+04  0.50400001928E-02 0.  1.
        1   -1    0    0  501    0  0.00000000000E+00  0.00000000000E+00 -0.21030757820E+04  0.21030757820E+04  0.50400001928E-02 0. -1.
    10030    2    1    2    0    0  0.00000000000E+00  0.00000000000E+00 -0.29500146620E+03  0.39111500978E+04  0.39000088747E+04 0.  0.
        5    1    3    3  502    0 -0.17813784501E+04 -0.35772217464E+03  0.56249128240E+03  0.19020233620E+04  0.46999998093E+01 0.  1.
       -5    1    3    3    0  502  0.17813784501E+04  0.35772217464E+03 -0.85749274860E+03  0.20091267358E+04  0.46999998093E+01 0. -1.
</event>
<event>
 5   0  0.1187925E-07  0.3907793E+04  0.7818609E-02  0.8023410E-01
        1   -1    0    0  501    0  0.00000000000E+00  0.00000000000E+00  0.21127117210E+04  0.21127117210E+04  0.50400001928E-02 0.  1.
       -1   -1    0    0    0  501  0.00000000000E+00  0.00000000000E+00 -0.18070199797E+04  0.18070199797E+04  0.50400001928E-02 0. -1.
    10030    2    1    2    0    0  0.00000000000E+00  0.00000000000E+00  0.30569174134E+03  0.39197317007E+04  0.39077933882E+04 0.  0.
        5    1    3    3  502    0 -0.48252363656E+02 -0.18599694929E+04 -0.44552952717E+03  0.19131997948E+04  0.46999998093E+01 0. -1.
       -5    1    3    3    0  502  0.48252363656E+02  0.18599694929E+04  0.75122126851E+03  0.20065319059E+04  0.46999998093E+01 0.  1.
</event>
<event>
 5   0  0.1187925E-07  0.3905018E+04  0.7818609E-02  0.8023986E-01
       -1   -1    0    0    0  501  0.00000000000E+00  0.00000000000E+00  0.33223213322E+04  0.33223213322E+04  0.50400001928E-02 0. -1.
        1   -1    0    0  501    0  0.00000000000E+00  0.00000000000E+00 -0.11474780396E+04  0.11474780397E+04  0.50400001928E-02 0.  1.
    10030    2    1    2    0    0  0.00000000000E+00  0.00000000000E+00  0.21748432926E+04  0.44697993719E+04  0.39050176796E+04 0.  0.
        2    1    3    3  502    0 -0.11845294588E+04 -0.40114973657E+03  0.28037020977E+04  0.30699799026E+04  0.25500000920E-02 0. -1.
       -2    1    3    3    0  502  0.11845294588E+04  0.40114973657E+03 -0.62885880510E+03  0.13998194693E+04  0.25500000920E-02 0.  1.
</event>
<event>
 5   0  0.3680814E-07  0.3778929E+04  0.7818609E-02  0.8050692E-01
       -2   -1    0    0    0  501  0.00000000000E+00  0.00000000000E+00  0.17146626722E+04  0.17146626722E+04  0.25500000920E-02 0.  1.
        2   -1    0    0  501    0  0.00000000000E+00  0.00000000000E+00 -0.20820866050E+04  0.20820866050E+04  0.25500000920E-02 0. -1.
    10030    2    1    2    0    0  0.00000000000E+00  0.00000000000E+00 -0.36742393283E+03  0.37967492772E+04  0.37789290450E+04 0.  0.
        1    1    3    3  502    0 -0.18875782282E+04  0.56584675156E+02 -0.24663949075E+03  0.19044643424E+04  0.50400001928E-02 0. -1.
       -1    1    3    3    0  502  0.18875782282E+04 -0.56584675156E+02 -0.12078444208E+03  0.18922849348E+04  0.50400001928E-02 0.  1.
</event>
<event>
 5   0  0.3832389E-07  0.2930490E+04  0.7818609E-02  0.8263863E-01
        2   -1    0    0  501    0  0.00000000000E+00  0.00000000000E+00  0.23388512934E+04  0.23388512934E+04  0.25500000920E-02 0. -1.
       -2   -1    0    0    0  501  0.00000000000E+00  0.00000000000E+00 -0.91794747034E+03  0.91794747035E+03  0.25500000920E-02 0.  1.
    10030    2    1    2    0    0  0.00000000000E+00  0.00000000000E+00  0.14209038230E+04  0.32567987637E+04  0.29304898077E+04 0.  0.
        5    1    3    3  502    0  0.20516744187E+02  0.23818858931E+03 -0.89611758819E+03  0.92747159672E+03  0.46999998093E+01 0.  1.
       -5    1    3    3    0  502 -0.20516744187E+02 -0.23818858931E+03  0.23170214112E+04  0.23293271670E+04  0.46999998093E+01 0. -1.
</event>
<event>
 5   0  0.3665303E-07  0.3655512E+04  0.7818609E-02  0.8077893E-01
       -2   -1    0    0    0  501  0.00000000000E+00  0.00000000000E+00  0.20425929332E+04  0.20425929332E+04  0.25500000920E-02 0.  1.
        2   -1    0    0  501    0  0.00000000000E+00  0.00000000000E+00 -0.16355154028E+04  0.16355154028E+04  0.25500000920E-02 0. -1.
    10030    2    1    2    0    0  0.00000000000E+00  0.00000000000E+00  0.40707753032E+03  0.36781083360E+04  0.36555121140E+04 0.  0.
        2    1    3    3  502    0  0.64382931986E+03  0.11460941047E+03  0.19208521911E+04  0.20291191809E+04  0.25500000920E-02 0.  1.
       -2    1    3    3    0  502 -0.64382931986E+03 -0.11460941047E+03 -0.15137746608E+04  0.16489891551E+04  0.25500000920E-02 0. -1.
</event>
<event>
 5   0  0.1187925E-07  0.2947042E+04  0.7818609E-02  0.8259017E-01
        1   -1    0    0  501    0  0.00000000000E+00  0.00000000000E+00  0.14526811170E+04  0.14526811170E+04  0.50400001928E-02 0.  1.
       -1   -1    0    0    0  501  0.00000000000E+00  0.00000000000E+00 -0.14946596767E+04  0.14946596767E+04  0.50400001928E-02 0. -1.
    10030    2    1    2    0    0  0.00000000000E+00  0.00000000000E+00 -0.41978559641E+02  0.29473407937E+04  0.29470418312E+04 0.  0.
        2    1    3    3  502    0 -0.53687516822E+03  0.37729049838E+03  0.12984931971E+04  0.14548771939E+04  0.25500000920E-02 0.  1.
       -2    1    3    3    0  502  0.53687516822E+03 -0.37729049838E+03 -0.13404717567E+04  0.14924635999E+04  0.25500000920E-02 0. -1.
</event>
<event>
 5   0  0.3680814E-07  0.3885305E+04  0.7818609E-02  0.8028092E-01
        2   -1    0    0  501    0  0.00000000000E+00  0.00000000000E+00  0.15387954905E+04  0.15387954905E+04  0.25500000920E-02 0. -1.
       -2   -1    0    0    0  501  0.00000000000E+00  0.00000000000E+00 -0.24525024413E+04  0.24525024413E+04  0.25500000920E-02 0.  1.
    10030    2    1    2    0    0  0.00000000000E+00  0.00000000000E+00 -0.91370695076E+03  0.39912979318E+04  0.38853054949E+04 0.  0.
        1    1    3    3  502    0  0.14549141800E+04  0.70870042958E+03 -0.15608181392E+04  0.22483738198E+04  0.50400001928E-02 0.  1.
       -1    1    3    3    0  502 -0.14549141800E+04 -0.70870042958E+03  0.64711118840E+03  0.17429241120E+04  0.50400001928E-02 0. -1.
</event>
<event>
 5   0  0.1187925E-07  0.3925375E+04  0.7818609E-02  0.8019772E-01
       -1   -1    0    0    0  501  0.00000000000E+00  0.00000000000E+00  0.15046724785E+04  0.15046724785E+04  0.50400001928E-02 0. -1.
        1   -1    0    0  501    0  0.00000000000E+00  0.00000000000E+00 -0.25601206909E+04  0.25601206909E+04  0.50400001928E-02 0.  1.
    10030    2    1    2    0    0  0.00000000000E+00  0.00000000000E+00 -0.10554482124E+04  0.40647931695E+04  0.39253754702E+04 0.  0.
        2    1    3    3  502    0  0.91307919530E+02 -0.19010702565E+04 -0.10240575745E+04  0.21612725816E+04  0.25500000920E-02 0.  1.
       -2    1    3    3    0  502 -0.91307919530E+02  0.19010702565E+04 -0.31390637924E+02  0.19035205879E+04  0.25500000920E-02 0. -1.
</event>
<event>
 5   0  0.1187925E-07  0.3693993E+04  0.7818609E-02  0.8069294E-01
        1   -1    0    0  501    0  0.00000000000E+00  0.00000000000E+00  0.20834479481E+04  0.20834479481E+04  0.50400001928E-02 0. -1.
       -1   -1    0    0    0  501  0.00000000000E+00  0.00000000000E+00 -0.16373798681E+04  0.16373798681E+04  0.50400001928E-02 0.  1.
    10030    2    1    2    0    0  0.00000000000E+00  0.00000000000E+00  0.44606807998E+03  0.37208278162E+04  0.36939928134E+04 0.  0.
        1    1    3    3  502    0 -0.33433175780E+03 -0.10553553475E+04 -0.12661659300E+04  0.16818825156E+04  0.50400001928E-02 0.  1.
       -1    1    3    3    0  502  0.33433175780E+03  0.10553553475E+04  0.17122340100E+04  0.20389453006E+04  0.50400001928E-02 0. -1.
</event>
<event>
 5   0  0.1187925E-07  0.3824574E+04  0.7818609E-02  0.8040902E-01
        1   -1    0    0  501    0  0.00000000000E+00  0.00000000000E+00  0.15642691812E+04  0.15642691813E+04  0.50400001928E-02 0. -1.
       -1   -1    0    0    0  501  0.00000000000E+00  0.00000000000E+00 -0.23377320048E+04  0.23377320048E+04  0.50400001928E-02 0.  1.
    10030    2    1    2    0    0  0.00000000000E+00  0.00000000000E+00 -0.77346282358E+03  0.39020011861E+04  0.38245742922E+04 0.  0.
        3    1    3    3  502    0 -0.81444832445E+03  0.16919494054E+04 -0.75574874939E+03  0.20241479803E+04  0.10100000352E+00 0. -1.
       -3    1    3    3    0  502  0.81444832445E+03 -0.16919494054E+04 -0.17714074191E+02  0.18778532058E+04  0.10100000352E+00 0.  1.
</event>
<event>
 5   0  0.1187925E-07  0.3601768E+04  0.7818609E-02  0.8090087E-01
        1   -1    0    0  501    0  0.00000000000E+00  0.00000000000E+00  0.17184002112E+04  0.17184002112E+04  0.50400001928E-02 0.  1.
       -1   -1    0    0    0  501  0.00000000000E+00  0.00000000000E+00 -0.18873273253E+04  0.18873273253E+04  0.50400001928E-02 0. -1.
    10030    2    1    2    0    0  0.00000000000E+00  0.00000000000E+00 -0.16892711405E+03  0.36057275365E+04  0.36017682738E+04 0.  0.
        2    1    3    3  502    0 -0.87960897717E+03 -0.91272952316E+03  0.11961597880E+04  0.17428669982E+04  0.25500000920E-02 0.  1.
       -2    1    3    3    0  502  0.87960897717E+03  0.91272952316E+03 -0.13650869020E+04  0.18628605383E+04  0.25500000920E-02 0. -1.
</event>
<event>
 5   0  0.1187925E-07  0.4073058E+04  0.7818609E-02  0.7989969E-01
       -1   -1    0    0    0  501  0.00000000000E+00  0.00000000000E+00  0.16580327009E+04  0.16580327009E+04  0.50400001928E-02 0.  1.
        1   -1    0    0  501    0  0.00000000000E+00  0.00000000000E+00 -0.25014281003E+04  0.25014281003E+04  0.50400001928E-02 0. -1.
    10030    2    1    2    0    0  0.00000000000E+00  0.00000000000E+00 -0.84339539944E+03  0.41594608012E+04  0.40730576177E+04 0.  0.
        3    1    3    3  502    0  0.15350013511E+04  0.94896887121E+03  0.54208021433E+03  0.18843094320E+04  0.10100000352E+00 0.  1.
       -3    1    3    3    0  502 -0.15350013511E+04 -0.94896887121E+03 -0.13854756138E+04  0.22751513693E+04  0.10100000352E+00 0. -1.
</event>
<event>
 5   0  0.1187925E-07  0.3855872E+04  0.7818609E-02  0.8034270E-01
       -1   -1    0    0    0  501  0.00000000000E+00  0.00000000000E+00  0.27614112755E+04  0.27614112755E+04  0.50400001928E-02 0. -1.
        1   -1    0    0  501    0  0.00000000000E+00  0.00000000000E+00 -0.13460280737E+04  0.13460280737E+04  0.50400001928E-02 0.  1.
    10030    2    1    2    0    0  0.00000000000E+00  0.00000000000E+00  0.14153832019E+04  0.41074393492E+04  0.38558719376E+04 0.  0.
        1    1    3    3  502    0 -0.13079800674E+04  0.28241100314E+02 -0.80079422014E+03  0.15339102971E+04  0.50400001928E-02 0.  1.
       -1    1    3    3    0  502  0.13079800674E+04 -0.28241100314E+02  0.22161774220E+04  0.25735290521E+04  0.50400001928E-02 0. -1.
</event>
<event>
 5   0  0.1187925E-07  0.3900112E+04  0.7818609E-02  0.8025006E-01
        1   -1    0    0  501    0  0.00000000000E+00  0.00000000000E+00  0.24541061151E+04  0.24541061151E+04  0.50400001928E-02 0. -1.
       -1   -1    0    0    0  501  0.00000000000E+00  0.00000000000E+00 -0.15495328545E+04  0.15495328545E+04  0.50400001928E-02 0.  1.
    10030    2    1    2    0    0  0.00000000000E+00  0.00000000000E+00  0.90457326060E+03  0.40036389696E+04  0.39001118208E+04 0.  0.
        2    1    3    3  502    0 -0.58819138015E+03 -0.95873278816E+03  0.20875501713E+04  0.23712872826E+04  0.25500000920E-02 0. -1.
       -2    1    3    3    0  502  0.58819138015E+03  0.95873278816E+03 -0.11829769107E+04  0.16323516870E+04  0.25500000920E-02 0.  1.
</event>
<event>
 5   0  0.3665303E-07  0.3909881E+04  0.7818609E-02  0.8022977E-01
        2   -1    0    0  501    0  0.00000000000E+00  0.00000000000E+00  0.17914123784E+04  0.17914123784E+04  0.25500000920E-02 0. -1.
       -2   -1    0    0    0  501  0.00000000000E+00  0.00000000000E+00 -0.21333958383E+04  0.21333958383E+04  0.25500000920E-02 0.  1.
    10030    2    1    2    0    0  0.00000000000E+00  0.00000000000E+00 -0.34198345993E+03  0.39248082168E+04  0.39098806697E+04 0.  0.
        2    1    3    3  502    0  0.53428782849E+03 -0.70534817741E+03  0.15788826244E+04  0.18099309038E+04  0.25500000920E-02 0. -1.
       -2    1    3    3    0  502 -0.53428782849E+03  0.70534817741E+03 -0.19208660843E+04  0.21148773129E+04  0.25500000920E-02 0.  1.
</event>
<event>
 5   0  0.1187925E-07  0.2865485E+04  0.7818609E-02  0.8283221E-01
        1   -1    0    0  501    0  0.00000000000E+00  0.00000000000E+00  0.27071931000E+04  0.27071931000E+04  0.50400001928E-02 0. -1.
       -1   -1    0    0    0  501  0.00000000000E+00  0.00000000000E+00 -0.75825804248E+03  0.75825804250E+03  0.50400001928E-02 0.  1.
    10030    2    1    2    0    0  0.00000000000E+00  0.00000000000E+00  0.19489350575E+04  0.34654511425E+04  0.28654849088E+04 0.  0.
        2    1    3    3  502    0 -0.11680047309E+04  0.82751715864E+03  0.10483409700E+04  0.17742712557E+04  0.25500000920E-02 0.  1.
       -2    1    3    3    0  502  0.11680047309E+04 -0.82751715864E+03  0.90059408747E+03  0.16911798868E+04  0.25500000920E-02 0. -1.
</event>
<event>
 5   0  0.1187925E-07  0.3925881E+04  0.7818609E-02  0.8019668E-01
       -1   -1    0    0    0  501  0.00000000000E+00  0.00000000000E+00  0.27158024687E+04  0.27158024687E+04  0.50400001928E-02 0. -1.
        1   -1    0    0  501    0  0.00000000000E+00  0.00000000000E+00 -0.14187836544E+04  0.14187836544E+04  0.50400001928E-02 0.  1.
    10030    2    1    2    0    0  0.00000000000E+00  0.00000000000E+00  0.12970188143E+04  0.41345861230E+04  0.39258813793E+04 0.  0.
        5    1    3    3  502    0 -0.11563355013E+04 -0.79305136275E+03 -0.79822590662E+03  0.16134524919E+04  0.46999998093E+01 0.  1.
       -5    1    3    3    0  502  0.11563355013E+04  0.79305136275E+03  0.20952447209E+04  0.25211336312E+04  0.46999998093E+01 0. -1.
</event>
<event>
 5   0  0.3810833E-07  0.3770712E+04  0.7818609E-02  0.8052469E-01
       -2   -1    0    0    0  501  0.00000000000E+00  0.00000000000E+00  0.16410397054E+04  0.16410397054E+04  0.25500000920E-02 0. -1.
        2   -1    0    0  501    0  0.00000000000E+00  0.00000000000E+00 -0.21660457821E+04  0.21660457821E+04  0.25500000920E-02 0.  1.
    10030    2    1    2    0    0  0.00000000000E+00  0.00000000000E+00 -0.52500607675E+03  0.38070854875E+04  0.37707119392E+04 0.  0.
        3    1    3    3  502    0  0.50864367641E+03  0.12016168953E+04  0.11114937798E+04  0.17140653387E+04  0.10100000352E+00 0. -1.
       -3    1    3    3    0  502 -0.50864367641E+03 -0.12016168953E+04 -0.16364998565E+04  0.20930201488E+04  0.10100000352E+00 0.  1.
</event>
<event>
 5   0  0.3810833E-07  0.3924135E+04  0.7818609E-02  0.8020028E-01
       -2   -1    0    0    0  501  0.00000000000E+00  0.00000000000E+00  0.12754194044E+04  0.12754194044E+04  0.25500000920E-02 0.  1.
        2   -1    0    0  501    0  0.00000000000E+00  0.00000000000E+00 -0.30183869114E+04  0.30183869114E+04  0.25500000920E-02 0. -1.
    10030    2    1    2    0    0  0.00000000000E+00  0.00000000000E+00 -0.17429675069E+04  0.42938063158E+04  0.39241351847E+04 0.  0.
        3    1    3    3  502    0 -0.83996988558E+03  0.17731732222E+04 -0.87593409681E+03  0.21487096679E+04  0.10100000352E+00 0.  1.
       -3    1    3    3    0  502  0.83996988558E+03 -0.17731732222E+04 -0.86703341014E+03  0.21450966480E+04  0.10100000352E+00 0. -1.
</event>
<event>
 5   0  0.3610483E-07  0.3832281E+04  0.7818609E-02  0.8039263E-01
       -2   -1    0    0    0  501  0.00000000000E+00  0.00000000000E+00  0.14064264464E+04  0.14064264464E+04  0.25500000920E-02 0.  1.
        2   -1    0    0  501    0  0.00000000000E+00  0.00000000000E+00 -0.26105836284E+04  0.26105836284E+04  0.25500000920E-02 0. -1.
    10030    2    1    2    0    0  0.00000000000E+00  0.00000000000E+00 -0.12041571819E+04  0.40170100748E+04  0.38322807077E+04 0.  0.
        4    1    3    3  502    0 -0.28550038835E+03  0.10282674934E+04 -0.22702534656E+04  0.25085647133E+04  0.12699999809E+01 0. -1.
       -4    1    3    3    0  502  0.28550038835E+03 -0.10282674934E+04  0.10660962837E+04  0.15084453615E+04  0.12699999809E+01 0.  1.
</event>
<event>
 5   0  0.3810833E-07  0.3841639E+04  0.7818609E-02  0.8037278E-01
        2   -1    0    0  501    0  0.00000000000E+00  0.00000000000E+00  0.14279913432E+04  0.14279913432E+04  0.25500000920E-02 0. -1.
       -2   -1    0    0    0  501  0.00000000000E+00  0.00000000000E+00 -0.25837319167E+04  0.25837319167E+04  0.25500000920E-02 0.  1.
    10030    2    1    2    0    0  0.00000000000E+00  0.00000000000E+00 -0.11557405735E+04  0.40117232599E+04  0.38416386140E+04 0.  0.
        3    1    3    3  502    0 -0.50736282314E+02  0.71346964428E+03 -0.24394724479E+04  0.25421720906E+04  0.10100000352E+00 0.  1.
       -3    1    3    3    0  502  0.50736282314E+02 -0.71346964428E+03  0.12837318744E+04  0.14695511693E+04  0.10100000352E+00 0. -1.
</event>
<event>
 5   0  0.3680814E-07  0.3911632E+04  0.7818609E-02  0.8022614E-01
       -2   -1    0    0    0  501  0.00000000000E+00  0.00000000000E+00  0.20393748445E+04  0.20393748445E+04  0.25500000920E-02 0. -1.
        2   -1    0    0  501    0  0.00000000000E+00  0.00000000000E+00 -0.18756808216E+04  0.18756808216E+04  0.25500000920E-02 0.  1.
    10030    2    1    2    0    0  0.00000000000E+00  0.00000000000E+00  0.16369402284E+03  0.39150556661E+04  0.39116320297E+04 0.  0.
        1    1    3    3  502    0  0.18262487470E+04  0.66243036031E+03  0.30835862524E+03  0.19669986045E+04  0.50400001928E-02 0. -1.
       -1    1    3    3    0  502 -0.18262487470E+04 -0.66243036031E+03 -0.14466460241E+03  0.19480570616E+04  0.50400001928E-02 0.  1.
</event>
<event>
 5   0  0.3810833E-07  0.3157177E+04  0.7818609E-02  0.8200219E-01
        2   -1    0    0  501    0  0.00000000000E+00  0.00000000000E+00  0.23665245910E+04  0.23665245910E+04  0.25500000920E-02 0.  1.
       -2   -1    0    0    0  501  0.00000000000E+00  0.00000000000E+00 -0.10529965448E+04  0.10529965448E+04  0.25500000920E-02 0. -1.
    10030    2    1    2    0    0  0.00000000000E+00  0.00000000000E+00  0.13135280462E+04  0.34195211358E+04  0.31571773580E+04 0.  0.
        3    1    3    3  502    0  0.10889246373E+04  0.40119615063E+03  0.18158405219E+04  0.21549923499E+04  0.10100000352E+00 0.  1.
       -3    1    3    3    0  502 -0.10889246373E+04 -0.40119615063E+03 -0.50231247571E+03  0.12645287859E+04  0.10100000352E+00 0. -1.
</event>
<event>
 5   0  0.3832389E-07  0.3838393E+04  0.7818609E-02  0.8037966E-01
        2   -1    0    0  501    0  0.00000000000E+00  0.00000000000E+00  0.17469024178E+04  0.17469024178E+04  0.25500000920E-02 0. -1.
       -2   -1    0    0    0  501  0.00000000000E+00  0.00000000000E+00 -0.21084837256E+04  0.21084837256E+04  0.25500000920E-02 0.  1.
    10030    2    1    2    0    0  0.00000000000E+00  0.00000000000E+00 -0.36158130773E+03  0.38553861434E+04  0.38383930587E+04 0.  0.
        5    1    3    3  502    0 -0.15730722321E+04 -0.10830380347E+04  0.91645397525E+01  0.19098779308E+04  0.46999998093E+01 0.  1.
       -5    1    3    3    0  502  0.15730722321E+04  0.10830380347E+04 -0.37074584748E+03  0.19455082126E+04  0.46999998093E+01 0. -1.
</event>
<event>
 5   0  0.1187925E-07  0.3873654E+04  0.7818609E-02  0.8030531E-01
       -1   -1    0    0    0  501  0.00000000000E+00  0.00000000000E+00  0.26904377234E+04  0.26904377234E+04  0.50400001928E-02 0. -1.
        1   -1    0    0  501    0  0.00000000000E+00  0.00000000000E+00 -0.13943079569E+04  0.13943079569E+04  0.50400001928E-02 0.  1.
    10030    2    1    2    0    0  0.00000000000E+00  0.00000000000E+00  0.12961297665E+04  0.40847456803E+04  0.38736539470E+04 0.  0.
        3    1    3    3  502    0 -0.43913786535E+03 -0.18027868844E+04  0.12336805979E+04  0.22281944356E+04  0.10100000352E+00 0. -1.
       -3    1    3    3    0  502  0.43913786535E+03  0.18027868844E+04  0.62449168693E+02  0.18565512447E+04  0.10100000352E+00 0.  1.
</event>
<event>
 5   0  0.1187925E-07  0.3906877E+04  0.7818609E-02  0.8023601E-01
       -1   -1    0    0    0  501  0.00000000000E+00  0.00000000000E+00  0.21754166337E+04  0.21754166337E+04  0.50400001928E-02 0.  1.
        1   -1    0    0  501    0  0.00000000000E+00  0.00000000000E+00 -0.17541105032E+04  0.17541105032E+04  0.50400001928E-02 0. -1.
    10030    2    1    2    0    0  0.00000000000E+00  0.00000000000E+00  0.42130613049E+03  0.39295271369E+04  0.39068765868E+04 0.  0.
        1    1    3    3  502    0 -0.56704716094E+02  0.16520043242E+03  0.21675471646E+04  0.21745729048E+04  0.50400001928E-02 0.  1.
       -1    1    3    3    0  502  0.56704716094E+02 -0.16520043242E+03 -0.17462410341E+04  0.17549542321E+04  0.50400001928E-02 0. -1.
</event>
<event>
 5   0  0.1187925E-07  0.3126490E+04  0.7818609E-02  0.8208505E-01
       -1   -1    0    0    0  501  0.00000000000E+00  0.00000000000E+00  0.11513769628E+04  0.11513769628E+04  0.50400001928E-02 0.  1.
        1   -1    0    0  501    0  0.00000000000E+00  0.00000000000E+00 -0.21224449365E+04  0.21224449365E+04  0.50400001928E-02 0. -1.
    10030    2    1    2    0    0  0.00000000000E+00  0.00000000000E+00 -0.97106797373E+03  0.32738218994E+04  0.31264895361E+04 0.  0.
        3    1    3    3  502    0 -0.11301254187E+04  0.46585451389E+03 -0.15058917779E+04  0.19395654016E+04  0.10100000352E+00 0. -1.
       -3    1    3    3    0  502  0.11301254187E+04 -0.46585451389E+03  0.53482380420E+03  0.13342564978E+04  0.10100000352E+00 0.  1.
</event>
<event>
 5   0  0.1187925E-07  0.3949858E+04  0.7818609E-02  0.8014739E-01
        1   -1    0    0  501    0  0.00000000000E+00  0.00000000000E+00  0.15708435063E+04  0.15708435063E+04  0.50400001928E-02 0.  1.
       -1   -1    0    0    0  501  0.00000000000E+00  0.00000000000E+00 -0.24829622825E+04  0.24829622825E+04  0.50400001928E-02 0. -1.
    10030    2    1    2    0    0  0.00000000000E+00  0.00000000000E+00 -0.91211877624E+03  0.40538057889E+04  0.39498583154E+04 0.  0.
        1    1    3    3  502    0 -0.86842916716E+03  0.42416097459E+03  0.13115499192E+04  0.16291853613E+04  0.50400001928E-02 0.  1.
       -1    1    3    3    0  502  0.86842916716E+03 -0.42416097459E+03 -0.22236686955E+04  0.24246204276E+04  0.50400001928E-02 0. -1.
</event>
<event>
 5   0  0.1187925E-07  0.3951747E+04  0.7818609E-02  0.8014352E-01
       -1   -1    0    0    0  501  0.00000000000E+00  0.00000000000E+00  0.19400844705E+04  0.19400844705E+04  0.50400001928E-02 0.  1.
        1   -1    0    0  501    0  0.00000000000E+00  0.00000000000E+00 -0.20123231688E+04  0.20123231688E+04  0.50400001928E-02 0. -1.
    10030    2    1    2    0    0  0.00000000000E+00  0.00000000000E+00 -0.72238698273E+02  0.39524076393E+04  0.39517474259E+04 0.  0.
        4    1    3    3  502    0 -0.29708961829E+03  0.93410911520E+03  0.16797584931E+04  0.19448424842E+04  0.12699999809E+01 0. -1.
       -4    1    3    3    0  502  0.29708961829E+03 -0.93410911520E+03 -0.17519971914E+04  0.20075651551E+04  0.12699999809E+01 0.  1.
</event>
<event>
 5   0  0.3610483E-07  0.3907652E+04  0.7818609E-02  0.8023440E-01
        2   -1    0    0  501    0  0.00000000000E+00  0.00000000000E+00  0.18604008580E+04  0.18604008580E+04  0.25500000920E-02 0. -1.
       -2   -1    0    0    0  501  0.00000000000E+00  0.00000000000E+00 -0.20519427702E+04  0.20519427702E+04  0.25500000920E-02 0.  1.
    10030    2    1    2    0    0  0.00000000000E+00  0.00000000000E+00 -0.19154191224E+03  0.39123436282E+04  0.39076520266E+04 0.  0.
        4    1    3    3  502    0 -0.88576074555E+03 -0.47264602112E+03  0.15823882645E+04  0.18740118975E+04  0.12699999809E+01 0. -1.
       -4    1    3    3    0  502  0.88576074555E+03  0.47264602112E+03 -0.17739301767E+04  0.20383317307E+04  0.12699999809E+01 0.  1.
</event>
<event>
 5   0  0.3810833E-07  0.3881526E+04  0.7818609E-02  0.8028882E-01
       -2   -1    0    0    0  501  0.00000000000E+00  0.00000000000E+00  0.12710461695E+04  0.12710461695E+04  0.25500000920E-02 0. -1.
        2   -1    0    0  501    0  0.00000000000E+00  0.00000000000E+00 -0.29633551203E+04  0.29633551203E+04  0.25500000920E-02 0.  1.
    10030    2    1    2    0    0  0.00000000000E+00  0.00000000000E+00 -0.16923089508E+04  0.42344012897E+04  0.38815260784E+04 0.  0.
        3    1    3    3  502    0 -0.80901321547E+03 -0.71539562816E+03 -0.26052869674E+04  0.28202506059E+04  0.10100000352E+00 0.  1.
       -3    1    3    3    0  502  0.80901321547E+03  0.71539562816E+03  0.91297801656E+03  0.14141506838E+04  0.10100000352E+00 0. -1.
</event>
<event>
 5   0  0.1187925E-07  0.3883532E+04  0.7818609E-02  0.8028463E-01
        1   -1    0    0  501    0  0.00000000000E+00  0.00000000000E+00  0.25025899552E+04  0.25025899552E+04  0.50400001928E-02 0.  1.
       -1   -1    0    0    0  501  0.00000000000E+00  0.00000000000E+00 -0.15066214299E+04  0.15066214300E+04  0.50400001928E-02 0. -1.
    10030    2    1    2    0    0  0.00000000000E+00  0.00000000000E+00  0.99596852523E+03  0.40092113851E+04  0.38835322359E+04 0.  0.
        1    1    3    3  502    0 -0.52279624207E+03 -0.97202226460E+03 -0.11513130872E+04  0.15948871491E+04  0.50400001928E-02 0. -1.
       -1    1    3    3    0  502  0.52279624207E+03  0.97202226460E+03  0.21472816124E+04  0.24143242360E+04  0.50400001928E-02 0.  1.
</event>
<event>
 5   0  0.3810833E-07  0.3929795E+04  0.7818609E-02  0.8018861E-01
       -2   -1    0    0    0  501  0.00000000000E+00  0.00000000000E+00  0.29453813709E+04  0.29453813709E+04  0.25500000920E-02 0. -1.
        2   -1    0    0  501    0  0.00000000000E+00  0.00000000000E+00 -0.13108054356E+04  0.13108054356E+04  0.25500000920E-02 0.  1.
    10030    2    1    2    0    0  0.00000000000E+00  0.00000000000E+00  0.16345759353E+04  0.42561868065E+04  0.39297948602E+04 0.  0.
        3    1    3    3  502    0 -0.37566510879E+03  0.19285869178E+04  0.80015899918E+03  0.21215150736E+04  0.10100000352E+00 0.  1.
       -3    1    3    3    0  502  0.37566510879E+03 -0.19285869178E+04  0.83441693616E+03  0.21346717329E+04  0.10100000352E+00 0. -1.
</event>
<event>
 5   0  0.3680814E-07  0.3979023E+04  0.7818609E-02  0.8008792E-01
       -2   -1    0    0    0  501  0.00000000000E+00  0.00000000000E+00  0.20197219885E+04  0.20197219885E+04  0.25500000920E-02 0.  1.
        2   -1    0    0  501    0  0.00000000000E+00  0.00000000000E+00 -0.19597529249E+04  0.19597529249E+04  0.25500000920E-02 0. -1.
    10030    2    1    2    0    0  0.00000000000E+00  0.00000000000E+00  0.59969063607E+02  0.39794749133E+04  0.39790230330E+04 0.  0.
        1    1    3    3  502    0  0.64855161338E+03 -0.54279604892E+03 -0.17710279436E+04  0.19625969334E+04  0.50400001928E-02 0. -1.
       -1    1    3    3    0  502 -0.64855161338E+03  0.54279604892E+03  0.18309970072E+04  0.20168779800E+04  0.50400001928E-02 0.  1.
</event>
<event>
 5   0  0.3665303E-07  0.3875351E+04  0.7818609E-02  0.8030175E-01
       -2   -1    0    0    0  501  0.00000000000E+00  0.00000000000E+00  0.16571038801E+04  0.16571038801E+04  0.25500000920E-02 0.  1.
        2   -1    0    0  501    0  0.00000000000E+00  0.00000000000E+00 -0.22657514837E+04  0.22657514837E+04  0.25500000920E-02 0. -1.
    10030    2    1    2    0    0  0.00000000000E+00  0.00000000000E+00 -0.60864760358E+03  0.39228553638E+04  0.38753506035E+04 0.  0.
        2    1    3    3  502    0 -0.72309621602E+03  0.14752949016E+04  0.73550847887E+03  0.18000933050E+04  0.25500000920E-02 0.  1.
       -2    1    3    3    0  502  0.72309621602E+03 -0.14752949016E+04 -0.13441560824E+04  0.21227620588E+04  0.25500000920E-02 0. -1.
</event>
<event>
 5   0  0.1187925E-07  0.3967353E+04  0.7818609E-02  0.8011165E-01
       -1   -1    0    0    0  501  0.00000000000E+00  0.00000000000E+00  0.28133996524E+04  0.28133996524E+04  0.50400001928E-02 0. -1.
        1   -1    0    0  501    0  0.00000000000E+00  0.00000000000E+00 -0.13986537976E+04  0.13986537976E+04  0.50400001928E-02 0.  1.
    10030    2    1    2    0    0  0.00000000000E+00  0.00000000000E+00  0.14147458548E+04  0.42120534500E+04  0.39673528242E+04 0.  0.
        2    1    3    3  502    0 -0.92503544694E+03 -0.13423597971E+04 -0.49253602845E+03  0.17030009226E+04  0.25500000920E-02 0.  1.
       -2    1    3    3    0  502  0.92503544694E+03  0.13423597971E+04  0.19072818832E+04  0.25090525274E+04  0.25500000920E-02 0. -1.
</event>
<event>
 5   0  0.1187925E-07  0.3887245E+04  0.7818609E-02  0.8027687E-01
       -1   -1    0    0    0  501  0.00000000000E+00  0.00000000000E+00  0.26994968518E+04  0.26994968518E+04  0.50400001928E-02 0.  1.
        1   -1    0    0  501    0  0.00000000000E+00  0.00000000000E+00 -0.13993974907E+04  0.13993974907E+04  0.50400001928E-02 0. -1.
    10030    2    1    2    0    0  0.00000000000E+00  0.00000000000E+00  0.13000993611E+04  0.40988943424E+04  0.38872453591E+04 0.  0.
        4    1    3    3  502    0 -0.95318272403E+03 -0.16753615628E+04  0.91318405131E+03  0.21329089047E+04  0.12699999809E+01 0. -1.
       -4    1    3    3    0  502  0.95318272403E+03  0.16753615628E+04  0.38691530981E+03  0.19659854377E+04  0.12699999809E+01 0.  1.
</event>
<event>
 5   0  0.3832389E-07  0.3947717E+04  0.7818609E-02  0.8015178E-01
        2   -1    0    0  501    0  0.00000000000E+00  0.00000000000E+00  0.18651832016E+04  0.18651832016E+04  0.25500000920E-02 0. -1.
       -2   -1    0    0    0  501  0.00000000000E+00  0.00000000000E+00 -0.20888658113E+04  0.20888658113E+04  0.25500000920E-02 0.  1.
    10030    2    1    2    0    0  0.00000000000E+00  0.00000000000E+00 -0.22368260971E+03  0.39540490130E+04  0.39477170222E+04 0.  0.
        5    1    3    3  502    0 -0.63446015810E+03 -0.10492797248E+04 -0.16611150162E+04  0.20646677263E+04  0.46999998093E+01 0.  1.
       -5    1    3    3    0  502  0.63446015810E+03  0.10492797248E+04  0.14374324065E+04  0.18893812866E+04  0.46999998093E+01 0. -1.
</event>
<event>
 5   0  0.3832389E-07  0.3933558E+04  0.7818609E-02  0.8018086E-01
       -2   -1    0    0    0  501  0.00000000000E+00  0.00000000000E+00  0.14020052404E+04  0.14020052404E+04  0.25500000920E-02 0. -1.
        2   -1    0    0  501    0  0.00000000000E+00  0.00000000000E+00 -0.27590617646E+04  0.27590617646E+04  0.25500000920E-02 0.  1.
    10030    2    1    2    0    0  0.00000000000E+00  0.00000000000E+00 -0.13570565242E+04  0.41610670050E+04  0.39335577040E+04 0.  0.
        5    1    3    3  502    0 -0.12079027530E+04 -0.67643112662E+03 -0.21563279525E+04  0.25624910651E+04  0.46999998093E+01 0.  1.
       -5    1    3    3    0  502  0.12079027530E+04  0.67643112662E+03  0.79927142832E+03  0.15985759400E+04  0.46999998093E+01 0. -1.
</event>
<event>
 5   0  0.1187925E-07  0.3967741E+04  0.7818609E-02  0.8011086E-01
       -1   -1    0    0    0  501  0.00000000000E+00  0.00000000000E+00  0.16229118728E+04  0.16229118728E+04  0.50400001928E-02 0. -1.
        1   -1    0    0  501    0  0.00000000000E+00  0.00000000000E+00 -0.24251116507E+04  0.24251116507E+04  0.50400001928E-02 0.  1.
    10030    2    1    2    0    0  0.00000000000E+00  0.00000000000E+00 -0.80219977790E+03  0.40480235236E+04  0.39677411664E+04 0.  0.
        5    1    3    3  502    0 -0.16405967981E+03  0.15706826985E+04 -0.16261286446E+04  0.22667766049E+04  0.46999998093E+01 0.  1.
       -5    1    3    3    0  502  0.16405967981E+03 -0.15706826985E+04  0.82392886669E+03  0.17812469187E+04  0.46999998093E+01 0. -1.
</event>
<event>
 5   0  0.1187925E-07  0.3923630E+04  0.7818609E-02  0.8020132E-01
       -1   -1    0    0    0  501  0.00000000000E+00  0.00000000000E+00  0.13370818973E+04  0.13370818973E+04  0.50400001928E-02 0. -1.
        1   -1    0    0  501    0  0.00000000000E+00  0.00000000000E+00 -0.28784467668E+04  0.28784467668E+04  0.50400001928E-02 0.  1.
    10030    2    1    2    0    0  0.00000000000E+00  0.00000000000E+00 -0.15413648695E+04  0.42155286641E+04  0.39236304944E+04 0.  0.
        4    1    3    3  502    0 -0.48998169102E+03 -0.18050912402E+03  0.12610468902E+04  0.13648833187E+04  0.12699999809E+01 0. -1.
       -4    1    3    3    0  502  0.48998169102E+03  0.18050912402E+03 -0.28024117597E+04  0.28506453454E+04  0.12699999809E+01 0.  1.
</event>
<event>
 5   0  0.1187925E-07  0.2884370E+04  0.7818609E-02  0.8277543E-01
        1   -1    0    0  501    0  0.00000000000E+00  0.00000000000E+00  0.27366064329E+04  0.27366064329E+04  0.50400001928E-02 0. -1.
       -1   -1    0    0    0  501  0.00000000000E+00  0.00000000000E+00 -0.76002794359E+03  0.76002794361E+03  0.50400001928E-02 0.  1.
    10030    2    1    2    0    0  0.00000000000E+00  0.00000000000E+00  0.19765784893E+04  0.34966343765E+04  0.28843698512E+04 0.  0.
        3    1    3    3  502    0 -0.15916764242E+03 -0.23591013676E+03 -0.72565161625E+03  0.77946020385E+03  0.10100000352E+00 0.  1.
       -3    1    3    3    0  502  0.15916764242E+03  0.23591013676E+03  0.27022301055E+04  0.27171741727E+04  0.10100000352E+00 0. -1.
</event>
<event>
 5   0  0.1187925E-07  0.3915698E+04  0.7818609E-02  0.8021772E-01
       -1   -1    0    0    0  501  0.00000000000E+00  0.00000000000E+00  0.24477127646E+04  0.24477127646E+04  0.50400001928E-02 0.  1.
        1   -1    0    0  501    0  0.00000000000E+00  0.00000000000E+00 -0.15660220832E+04  0.15660220832E+04  0.50400001928E-02 0. -1.
    10030    2    1    2    0    0  0.00000000000E+00  0.00000000000E+00  0.88169068133E+03  0.40137348478E+04  0.39156977630E+04 0.  0.
        5    1    3    3  502    0 -0.11345100265E+04  0.72689185247E+02 -0.11930369923E+04  0.16479551185E+04  0.46999998093E+01 0. -1.
       -5    1    3    3    0  502  0.11345100265E+04 -0.72689185247E+02  0.20747276736E+04  0.23657797293E+04  0.46999998093E+01 0.  1.
</event>
<event>
 5   0  0.1187925E-07  0.3980087E+04  0.7818609E-02  0.8008576E-01
        1   -1    0    0  501    0  0.00000000000E+00  0.00000000000E+00  0.18543484970E+04  0.18543484970E+04  0.50400001928E-02 0.  1.
       -1   -1    0    0    0  501  0.00000000000E+00  0.00000000000E+00 -0.21356680278E+04  0.21356680278E+04  0.50400001928E-02 0. -1.
    10030    2    1    2    0    0  0.00000000000E+00  0.00000000000E+00 -0.28131953084E+03  0.39900165248E+04  0.39800868320E+04 0.  0.
        1    1    3    3  502    0  0.46702274044E+03 -0.16787449862E+04 -0.11042955575E+04  0.20629502289E+04  0.50400001928E-02 0. -1.
       -1    1    3    3    0  502 -0.46702274044E+03  0.16787449862E+04  0.82297602661E+03  0.19270662960E+04  0.50400001928E-02 0.  1.
</event>
<event>
 5   0  0.3680814E-07  0.3858708E+04  0.7818609E-02  0.8033672E-01
       -2   -1    0    0    0  501  0.00000000000E+00  0.00000000000E+00  0.18488152005E+04  0.18488152005E+04  0.25500000920E-02 0.  1.
        2   -1    0    0  501    0  0.00000000000E+00  0.00000000000E+00 -0.20134016077E+04  0.20134016077E+04  0.25500000920E-02 0. -1.
    10030    2    1    2    0    0  0.00000000000E+00  0.00000000000E+00 -0.16458640717E+03  0.38622168082E+04  0.38587083316E+04 0.  0.
        1    1    3    3  502    0  0.19220488974E+04  0.11573121024E+02  0.85195718384E+02  0.19239709488E+04  0.50400001928E-02 0.  1.
       -1    1    3    3    0  502 -0.19220488974E+04 -0.11573121024E+02 -0.24978212555E+03  0.19382458594E+04  0.50400001928E-02 0. -1.
</event>
<event>
 5   0  0.1187925E-07  0.3917956E+04  0.7818609E-02  0.8021305E-01
        1   -1    0    0  501    0  0.00000000000E+00  0.00000000000E+00  0.17518018027E+04  0.17518018027E+04  0.50400001928E-02 0. -1.
       -1   -1    0    0    0  501  0.00000000000E+00  0.00000000000E+00 -0.21906558005E+04  0.21906558005E+04  0.50400001928E-02 0.  1.
    10030    2    1    2    0    0  0.00000000000E+00  0.00000000000E+00 -0.43885399780E+03  0.39424576032E+04  0.39179559877E+04 0.  0.
        1    1    3    3  502    0 -0.70950240990E+03 -0.68551905036E+03  0.14835706844E+04  0.17816599040E+04  0.50400001928E-02 0. -1.
       -1    1    3    3    0  502  0.70950240990E+03  0.68551905036E+03 -0.19224246822E+04  0.21607976992E+04  0.50400001928E-02 0.  1.
</event>
<event>
 5   0  0.3610483E-07  0.4603946E+04  0.7818609E-02  0.7892687E-01
       -2   -1    0    0    0  501  0.00000000000E+00  0.00000000000E+00  0.20193083169E+04  0.20193083169E+04  0.25500000920E-02 0. -1.
        2   -1    0    0  501    0  0.00000000000E+00  0.00000000000E+00 -0.26242054212E+04  0.26242054212E+04  0.25500000920E-02 0.  1.
    10030    2    1    2    0    0  0.00000000000E+00  0.00000000000E+00 -0.60489710424E+03  0.46435137381E+04  0.46039460607E+04 0.  0.
        4    1    3    3  502    0  0.14976668711E+04  0.17346860538E+04 -0.52095872560E+03  0.23502215574E+04  0.12699999809E+01 0.  1.
       -4    1    3    3    0  502 -0.14976668711E+04 -0.17346860538E+04 -0.83938378643E+02  0.22932921808E+04  0.12699999809E+01 0. -1.
</event>
<event>
 5   0  0.3832389E-07  0.3842580E+04  0.7818609E-02  0.8037079E-01
        2   -1    0    0  501    0  0.00000000000E+00  0.00000000000E+00  0.23548569052E+04  0.23548569052E+04  0.25500000920E-02 0.  1.
       -2   -1    0    0    0  501  0.00000000000E+00  0.00000000000E+00 -0.15675497843E+04  0.15675497843E+04  0.25500000920E-02 0. -1.
    10030    2    1    2    0    0  0.00000000000E+00  0.00000000000E+00  0.78730712093E+03  0.39224066895E+04  0.38425800883E+04 0.  0.
        5    1    3    3  502    0  0.88450378870E+03  0.61024631622E+03  0.20194062215E+04  0.22875251028E+04  0.46999998093E+01 0.  1.
       -5    1    3    3    0  502 -0.88450378870E+03 -0.61024631622E+03 -0.12320991006E+04  0.16348815866E+04  0.46999998093E+01 0. -1.
</event>
<event>
 5   0  0.1187925E-07  0.3879524E+04  0.7818609E-02  0.8029301E-01
       -1   -1    0    0    0  501  0.00000000000E+00  0.00000000000E+00  0.21011322203E+04  0.21011322203E+04  0.50400001928E-02 0.  1.
        1   -1    0    0  501    0  0.00000000000E+00  0.00000000000E+00 -0.17907852691E+04  0.17907852691E+04  0.50400001928E-02 0. -1.
    10030    2    1    2    0    0  0.00000000000E+00  0.00000000000E+00  0.31034695120E+03  0.38919174894E+04  0.38795240062E+04 0.  0.
        2    1    3    3  502    0  0.12524829220E+04  0.11078899239E+04 -0.83109644395E+03  0.18673122001E+04  0.25500000920E-02 0. -1.
       -2    1    3    3    0  502 -0.12524829220E+04 -0.11078899239E+04  0.11414433951E+04  0.20246052894E+04  0.25500000920E-02 0.  1.
</event>
<event>
 5   0  0.1187925E-07  0.3901985E+04  0.7818609E-02  0.8024617E-01
        1   -1    0    0  501    0  0.00000000000E+00  0.00000000000E+00  0.25933305669E+04  0.25933305669E+04  0.50400001928E-02 0. -1.
       -1   -1    0    0    0  501  0.00000000000E+00  0.00000000000E+00 -0.14677540394E+04  0.14677540394E+04  0.50400001928E-02 0.  1.
    10030    2    1    2    0    0  0.00000000000E+00  0.00000000000E+00  0.11255765275E+04  0.40610846063E+04  0.39019848360E+04 0.  0.
        1    1    3    3  502    0 -0.18552771057E+04  0.50848130712E+03  0.90126398473E+03  0.21243547606E+04  0.50400001928E-02 0. -1.
       -1    1    3    3    0  502  0.18552771057E+04 -0.50848130712E+03  0.22431254274E+03  0.19367298457E+04  0.50400001928E-02 0.  1.
</event>
<event>
 5   0  0.3665303E-07  0.3884172E+04  0.7818609E-02  0.8028329E-01
       -2   -1    0    0    0  501  0.00000000000E+00  0.00000000000E+00  0.22971336547E+04  0.22971336547E+04  0.25500000920E-02 0.  1.
        2   -1    0    0  501    0  0.00000000000E+00  0.00000000000E+00 -0.16419149267E+04  0.16419149267E+04  0.25500000920E-02 0. -1.
    10030    2    1    2    0    0  0.00000000000E+00  0.00000000000E+00  0.65521872804E+03  0.39390485814E+04  0.38841720025E+04 0.  0.
        2    1    3    3  502    0  0.16091292931E+04  0.54545601338E+03 -0.62636071249E+03  0.18108415410E+04  0.25500000920E-02 0. -1.
       -2    1    3    3    0  502 -0.16091292931E+04 -0.54545601338E+03  0.12815794405E+04  0.21282070404E+04  0.25500000920E-02 0.  1.
</event>
<event>
 5   0  0.1187925E-07  0.3907326E+04  0.7818609E-02  0.8023507E-01
        1   -1    0    0  501    0  0.00000000000E+00  0.00000000000E+00  0.28455897324E+04  0.28455897324E+04  0.50400001928E-02 0. -1.
       -1   -1    0    0    0  501  0.00000000000E+00  0.00000000000E+00 -0.13413031746E+04  0.13413031746E+04  0.50400001928E-02 0.  1.
    10030    2    1    2    0    0  0.00000000000E+00  0.00000000000E+00  0.15042865578E+04  0.41868929071E+04  0.39073257053E+04 0.  0.
        3    1    3    3  502    0  0.27895329976E+03 -0.83604610410E+03 -0.11161703416E+04  0.14221899568E+04  0.10100000352E+00 0.  1.
       -3    1    3    3    0  502 -0.27895329976E+03  0.83604610410E+03  0.26204568994E+04  0.27647029503E+04  0.10100000352E+00 0. -1.
</event>
<event>
 5   0  0.1187925E-07  0.3945556E+04  0.7818609E-02  0.8015621E-01
        1   -1    0    0  501    0  0.00000000000E+00  0.00000000000E+00  0.19636246358E+04  0.19636246358E+04  0.50400001928E-02 0.  1.
       -1   -1    0    0    0  501  0.00000000000E+00  0.00000000000E+00 -0.19819740243E+04  0.19819740243E+04  0.50400001928E-02 0. -1.
    10030    2    1    2    0    0  0.00000000000E+00  0.00000000000E+00 -0.18349388567E+02  0.39455986601E+04  0.39455559921E+04 0.  0.
        3    1    3    3  502    0  0.10332607645E+04 -0.12412504282E+04 -0.11421135008E+04  0.19780681717E+04  0.10100000352E+00 0. -1.
       -3    1    3    3    0  502 -0.10332607645E+04  0.12412504282E+04  0.11237641122E+04  0.19675304884E+04  0.10100000352E+00 0.  1.
</event>
<event>
 5   0  0.3665303E-07  0.3326298E+04  0.7818609E-02  0.8156236E-01
        2   -1    0    0  501    0  0.00000000000E+00  0.00000000000E+00  0.17124980676E+04  0.17124980676E+04  0.25500000920E-02 0.  1.
       -2   -1    0    0    0  501  0.00000000000E+00  0.00000000000E+00 -0.16152218347E+04  0.16152218347E+04  0.25500000920E-02 0. -1.
    10030    2    1    2    0    0  0.00000000000E+00  0.00000000000E+00  0.97276232871E+02  0.33277199023E+04  0.33262978043E+04 0.  0.
        2    1    3    3  502    0 -0.62228934438E+03 -0.78739716333E+03 -0.12781362349E+04  0.16250755539E+04  0.25500000920E-02 0. -1.
       -2    1    3    3    0  502  0.62228934438E+03  0.78739716333E+03  0.13754124677E+04  0.17026443485E+04  0.25500000920E-02 0.  1.
</event>
<event>
 5   0  0.1187925E-07  0.3990302E+04  0.7818609E-02  0.8006506E-01
        1   -1    0    0  501    0  0.00000000000E+00  0.00000000000E+00  0.20618015114E+04  0.20618015114E+04  0.50400001928E-02 0.  1.
       -1   -1    0    0    0  501  0.00000000000E+00  0.00000000000E+00 -0.19306549844E+04  0.19306549845E+04  0.50400001928E-02 0. -1.
    10030    2    1    2    0    0  0.00000000000E+00  0.00000000000E+00  0.13114652692E+03  0.39924564958E+04  0.39903019259E+04 0.  0.
        5    1    3    3  502    0 -0.10161300703E+04 -0.34977751464E+03 -0.16163283376E+04  0.19409801685E+04  0.46999998093E+01 0. -1.
       -5    1    3    3    0  502  0.10161300703E+04  0.34977751464E+03  0.17474748645E+04  0.20514763273E+04  0.46999998093E+01 0.  1.
</event>
<event>
 5   0  0.3810833E-07  0.3866996E+04  0.7818609E-02  0.8031929E-01
       -2   -1    0    0    0  501  0.00000000000E+00  0.00000000000E+00  0.17603596822E+04  0.17603596822E+04  0.25500000920E-02 0.  1.
        2   -1    0    0  501    0  0.00000000000E+00  0.00000000000E+00 -0.21236649095E+04  0.21236649095E+04  0.25500000920E-02 0. -1.
    10030    2    1    2    0    0  0.00000000000E+00  0.00000000000E+00 -0.36330522732E+03  0.38840245917E+04  0.38669957772E+04 0.  0.
        3    1    3    3  502    0  0.57199436994E+03 -0.85497020337E+03 -0.18260127340E+04  0.20958230180E+04  0.10100000352E+00 0. -1.
       -3    1    3    3    0  502 -0.57199436994E+03  0.85497020337E+03  0.14627075067E+04  0.17882015737E+04  0.10100000352E+00 0.  1.
</event>
<event>
 5   0  0.3810833E-07  0.3775223E+04  0.7818609E-02  0.8051493E-01
       -2   -1    0    0    0  501  0.00000000000E+00  0.00000000000E+00  0.17095705619E+04  0.17095705619E+04  0.25500000920E-02 0.  1.
        2   -1    0    0  501    0  0.00000000000E+00  0.00000000000E+00 -0.20841945019E+04  0.20841945019E+04  0.25500000920E-02 0. -1.
    10030    2    1    2    0    0  0.00000000000E+00  0.00000000000E+00 -0.37462393998E+03  0.37937650639E+04  0.37752232071E+04 0.  0.
        3    1    3    3  502    0 -0.49584887789E+02 -0.53696260331E+02 -0.20827720138E+04  0.20840540351E+04  0.10100000352E+00 0. -1.
       -3    1    3    3    0  502  0.49584887789E+02  0.53696260331E+02  0.17081480738E+04  0.17097110288E+04  0.10100000352E+00 0.  1.
</event>
<event>
 5   0  0.3665303E-07  0.3365543E+04  0.7818609E-02  0.8146415E-01
       -2   -1    0    0    0  501  0.00000000000E+00  0.00000000000E+00  0.20052638940E+04  0.20052638940E+04  0.25500000920E-02 0.  1.
        2   -1    0    0  501    0  0.00000000000E+00  0.00000000000E+00 -0.14121435448E+04  0.14121435448E+04  0.25500000920E-02 0. -1.
    10030    2    1    2    0    0  0.00000000000E+00  0.00000000000E+00  0.59312034920E+03  0.34174074389E+04  0.33655433223E+04 0.  0.
        2    1    3    3  502    0  0.13209805951E+04 -0.10381258844E+04  0.39302618227E+03  0.17254462218E+04  0.25500000920E-02 0.  1.
       -2    1    3    3    0  502 -0.13209805951E+04  0.10381258844E+04  0.20009416693E+03  0.16919612171E+04  0.25500000920E-02 0. -1.
</event>
<event>
 5   0  0.1187925E-07  0.3852787E+04  0.7818609E-02  0.8034921E-01
        1   -1    0    0  501    0  0.00000000000E+00  0.00000000000E+00  0.24937841393E+04  0.24937841393E+04  0.50400001928E-02 0. -1.
       -1   -1    0    0    0  501  0.00000000000E+00  0.00000000000E+00 -0.14880965429E+04  0.14880965429E+04  0.50400001928E-02 0.  1.
    10030    2    1    2    0    0  0.00000000000E+00  0.00000000000E+00  0.10056875964E+04  0.39818806823E+04  0.38527868130E+04 0.  0.
        4    1    3    3  502    0 -0.52291115212E+03 -0.14754269304E+04 -0.65757255947E+03  0.16978586466E+04  0.12699999809E+01 0.  1.
       -4    1    3    3    0  502  0.52291115212E+03  0.14754269304E+04  0.16632601559E+04  0.22840220356E+04  0.12699999809E+01 0. -1.
</event>
<event>
 5   0  0.3680814E-07  0.3914119E+04  0.7818609E-02  0.8022099E-01
        2   -1    0    0  501    0  0.00000000000E+00  0.00000000000E+00  0.22832510817E+04  0.22832510817E+04  0.25500000920E-02 0. -1.
       -2   -1    0    0    0  501  0.00000000000E+00  0.00000000000E+00 -0.16774683940E+04  0.16774683940E+04  0.25500000920E-02 0.  1.
    10030    2    1    2    0    0  0.00000000000E+00  0.00000000000E+00  0.60578268767E+03  0.39607194757E+04  0.39141188153E+04 0.  0.
        1    1    3    3  502    0  0.64358856407E+03  0.12644745324E+04 -0.10611109037E+04  0.17717388162E+04  0.50400001928E-02 0.  1.
       -1    1    3    3    0  502 -0.64358856407E+03 -0.12644745324E+04  0.16668935913E+04  0.21889806595E+04  0.50400001928E-02 0. -1.
</event>
<event>
 5   0  0.3665303E-07  0.3947414E+04  0.7818609E-02  0.8015240E-01
       -2   -1    0    0    0  501  0.00000000000E+00  0.00000000000E+00  0.17914882788E+04  0.17914882788E+04  0.25500000920E-02 0. -1.
        2   -1    0    0  501    0  0.00000000000E+00  0.00000000000E+00 -0.21744597331E+04  0.21744597331E+04  0.25500000920E-02 0.  1.
    10030    2    1    2    0    0  0.00000000000E+00  0.00000000000E+00 -0.38297145423E+03  0.39659480119E+04  0.39474139001E+04 0.  0.
        2    1    3    3  502    0  0.80856384311E+03  0.34070327295E+03 -0.19677417350E+04  0.21544980260E+04  0.25500000920E-02 0.  1.
       -2    1    3    3    0  502 -0.80856384311E+03 -0.34070327295E+03  0.15847702808E+04  0.18114499859E+04  0.25500000920E-02 0. -1.
</event>
<event>
 5   0  0.3610483E-07  0.3808051E+04  0.7818609E-02  0.8044429E-01
       -2   -1    0    0    0  501  0.00000000000E+00  0.00000000000E+00  0.12579445641E+04  0.12579445641E+04  0.25500000920E-02 0. -1.
        2   -1    0    0  501    0  0.00000000000E+00  0.00000000000E+00 -0.28819345287E+04  0.28819345287E+04  0.25500000920E-02 0.  1.
    10030    2    1    2    0    0  0.00000000000E+00  0.00000000000E+00 -0.16239899645E+04  0.41398790928E+04  0.38080514043E+04 0.  0.
        4    1    3    3  502    0  0.13854753065E+04 -0.10545151368E+04 -0.16497042991E+04  0.23985557918E+04  0.12699999809E+01 0.  1.
       -4    1    3    3    0  502 -0.13854753065E+04  0.10545151368E+04  0.25714334586E+02  0.17413233010E+04  0.12699999809E+01 0. -1.
</event>
<event>
 5   0  0.3810833E-07  0.3911349E+04  0.7818609E-02  0.8022673E-01
       -2   -1    0    0    0  501  0.00000000000E+00  0.00000000000E+00  0.17876216405E+04  0.17876216405E+04  0.25500000920E-02 0. -1.
        2   -1    0    0  501    0  0.00000000000E+00  0.00000000000E+00 -0.21395263478E+04  0.21395263478E+04  0.25500000920E-02 0.  1.
    10030    2    1    2    0    0  0.00000000000E+00  0.00000000000E+00 -0.35190470728E+03  0.39271479883E+04  0.39113494345E+04 0.  0.
        3    1    3    3  502    0  0.18544591983E+03 -0.87368168107E+03  0.15708893067E+04  0.18070426373E+04  0.10100000352E+00 0. -1.
       -3    1    3    3    0  502 -0.18544591983E+03  0.87368168107E+03 -0.19227940139E+04  0.21201053510E+04  0.10100000352E+00 0.  1.
</event>
<event>
 5   0  0.1187925E-07  0.3918506E+04  0.7818609E-02  0.8021191E-01
       -1   -1    0    0    0  501  0.00000000000E+00  0.00000000000E+00  0.14863719992E+04  0.14863719992E+04  0.50400001928E-02 0. -1.
        1   -1    0    0  501    0  0.00000000000E+00  0.00000000000E+00 -0.25825778098E+04  0.25825778099E+04  0.50400001928E-02 0.  1.
    10030    2    1    2    0    0  0.00000000000E+00  0.00000000000E+00 -0.10962058106E+04  0.40689498091E+04  0.39185055020E+04 0.  0.
        2    1    3    3  502    0  0.82556291323E+03  0.12921567896E+04 -0.18145375284E+04  0.23756619572E+04  0.25500000920E-02 0.  1.
       -2    1    3    3    0  502 -0.82556291323E+03 -0.12921567896E+04  0.71833171779E+03  0.16932878519E+04  0.25500000920E-02 0. -1.
</event>
<event>
 5   0  0.3680814E-07  0.3888433E+04  0.7818609E-02  0.8027439E-01
       -2   -1    0    0    0  501  0.00000000000E+00  0.00000000000E+00  0.21146777541E+04  0.21146777541E+04  0.25500000920E-02 0.  1.
        2   -1    0    0  501    0  0.00000000000E+00  0.00000000000E+00 -0.17874963116E+04  0.17874963116E+04  0.25500000920E-02 0. -1.
    10030    2    1    2    0    0  0.00000000000E+00  0.00000000000E+00  0.32718144245E+03  0.39021740657E+04  0.38884334562E+04 0.  0.
        1    1    3    3  502    0  0.64983847045E+03  0.17162399097E+04 -0.48071326453E+03  0.18970647612E+04  0.50400001928E-02 0.  1.
       -1    1    3    3    0  502 -0.64983847045E+03 -0.17162399097E+04  0.80789470698E+03  0.20051093045E+04  0.50400001928E-02 0. -1.
</event>
<event>
 5   0  0.3610483E-07  0.4021397E+04  0.7818609E-02  0.8000244E-01
       -2   -1    0    0    0  501  0.00000000000E+00  0.00000000000E+00  0.17555474883E+04  0.17555474883E+04  0.25500000920E-02 0. -1.
        2   -1    0    0  501    0  0.00000000000E+00  0.00000000000E+00 -0.23029330658E+04  0.23029330658E+04  0.25500000920E-02 0.  1.
    10030    2    1    2    0    0  0.00000000000E+00  0.00000000000E+00 -0.54738557752E+03  0.40584805540E+04  0.40213969509E+04 0.  0.
        4    1    3    3  502    0 -0.10824640483E+04  0.10323606051E+03 -0.19805966800E+04  0.22594581036E+04  0.12699999809E+01 0.  1.
       -4    1    3    3    0  502  0.10824640483E+04 -0.10323606051E+03  0.14332111025E+04  0.17990224505E+04  0.12699999809E+01 0. -1.
</event>
<event>
 5   0  0.1187925E-07  0.3424849E+04  0.7818609E-02  0.8131834E-01
        1   -1    0    0  501    0  0.00000000000E+00  0.00000000000E+00  0.16513259884E+04  0.16513259884E+04  0.50400001928E-02 0. -1.
       -1   -1    0    0    0  501  0.00000000000E+00  0.00000000000E+00 -0.17757832730E+04  0.17757832730E+04  0.50400001928E-02 0.  1.
    10030    2    1    2    0    0  0.00000000000E+00  0.00000000000E+00 -0.12445728461E+03  0.34271092614E+04  0.34248486498E+04 0.  0.
        1    1    3    3  502    0  0.42646464620E+03  0.97375754497E+03  0.12811630688E+04  0.16647686505E+04  0.50400001928E-02 0. -1.
       -1    1    3    3    0  502 -0.42646464620E+03 -0.97375754497E+03 -0.14056203534E+04  0.17623406109E+04  0.50400001928E-02 0.  1.
</event>
<event>
 5   0  0.1187925E-07  0.3887571E+04  0.7818609E-02  0.8027619E-01
        1   -1    0    0  501    0  0.00000000000E+00  0.00000000000E+00  0.26707179817E+04  0.26707179817E+04  0.50400001928E-02 0. -1.
       -1   -1    0    0    0  501  0.00000000000E+00  0.00000000000E+00 -0.14147139197E+04  0.14147139197E+04  0.50400001928E-02 0.  1.
    10030    2    1    2    0    0  0.00000000000E+00  0.00000000000E+00  0.12560040620E+04  0.40854319014E+04  0.38875709147E+04 0.  0.
        2    1    3    3  502    0  0.37050737816E+03 -0.87736844371E+03 -0.11527162459E+04  0.14952611300E+04  0.25500000920E-02 0.  1.
       -2    1    3    3    0  502 -0.37050737816E+03  0.87736844371E+03  0.24087203079E+04  0.25901707714E+04  0.25500000920E-02 0. -1.
</event>
<event>
 5   0  0.1187925E-07  0.3815912E+04  0.7818609E-02  0.8042749E-01
       -1   -1    0    0    0  501  0.00000000000E+00  0.00000000000E+00  0.27712752721E+04  0.27712752721E+04  0.50400001928E-02 0.  1.
        1   -1    0    0  501    0  0.00000000000E+00  0.00000000000E+00 -0.13135815215E+04  0.13135815215E+04  0.50400001928E-02 0. -1.
    10030    2    1    2    0    0  0.00000000000E+00  0.00000000000E+00  0.14576937506E+04  0.40848567936E+04  0.38159119427E+04 0.  0.
        5    1    3    3  502    0 -0.12278748666E+03 -0.10793367343E+04  0.24079071579E+04  0.26416062394E+04  0.46999998093E+01 0.  1.
       -5    1    3    3    0  502  0.12278748666E+03  0.10793367343E+04 -0.95021340731E+03  0.14432505543E+04  0.46999998093E+01 0. -1.
</event>
<event>
 5   0  0.1187925E-07  0.3862804E+04  0.7818609E-02  0.8032810E-01
       -1   -1    0    0    0  501  0.00000000000E+00  0.00000000000E+00  0.21000445073E+04  0.21000445073E+04  0.50400001928E-02 0. -1.
        1   -1    0    0  501    0  0.00000000000E+00  0.00000000000E+00 -0.17763023747E+04  0.17763023747E+04  0.50400001928E-02 0.  1.
    10030    2    1    2    0    0  0.00000000000E+00  0.00000000000E+00  0.32374213265E+03  0.38763468820E+04  0.38628041862E+04 0.  0.
        3    1    3    3  502    0 -0.13753396914E+04 -0.11837906989E+04  0.82554769557E+03  0.19936019395E+04  0.10100000352E+00 0. -1.
       -3    1    3    3    0  502  0.13753396914E+04  0.11837906989E+04 -0.50180556291E+03  0.18827449425E+04  0.10100000352E+00 0.  1.
</event>
<event>
 5   0  0.3610483E-07  0.3776154E+04  0.7818609E-02  0.8051292E-01
        2   -1    0    0  501    0  0.00000000000E+00  0.00000000000E+00  0.22838418283E+04  0.22838418283E+04  0.25500000920E-02 0. -1.
       -2   -1    0    0    0  501  0.00000000000E+00  0.00000000000E+00 -0.15608941655E+04  0.15608941655E+04  0.25500000920E-02 0.  1.
    10030    2    1    2    0    0  0.00000000000E+00  0.00000000000E+00  0.72294766279E+03  0.38447359938E+04  0.37761543320E+04 0.  0.
        4    1    3    3  502    0  0.58094658503E+03  0.47045946420E+02  0.21899522095E+04  0.22661872272E+04  0.12699999809E+01 0. -1.
       -4    1    3    3    0  502 -0.58094658503E+03 -0.47045946420E+02 -0.14670045467E+04  0.15785487667E+04  0.12699999809E+01 0.  1.
</event>
<event>
 5   0  0.1187925E-07  0.3606583E+04  0.7818609E-02  0.8088985E-01
       -1   -1    0    0    0  501  0.00000000000E+00  0.00000000000E+00  0.26667260740E+04  0.26667260740E+04  0.50400001928E-02 0.  1.
        1   -1    0    0  501    0  0.00000000000E+00  0.00000000000E+00 -0.12194205831E+04  0.12194205832E+04  0.50400001928E-02 0. -1.
    10030    2    1    2    0    0  0.00000000000E+00  0.00000000000E+00  0.14473054908E+04  0.38861466572E+04  0.36065832386E+04 0.  0.
        1    1    3    3  502    0  0.35402151294E+03  0.15074607712E+04  0.17194602958E+04  0.23139388318E+04  0.50400001928E-02 0.  1.
       -1    1    3    3    0  502 -0.35402151294E+03 -0.15074607712E+04 -0.27215480498E+03  0.15722078254E+04  0.50400001928E-02 0. -1.
</event>
<event>
 5   0  0.3832389E-07  0.3498914E+04  0.7818609E-02  0.8114047E-01
        2   -1    0    0  501    0  0.00000000000E+00  0.00000000000E+00  0.25239829640E+04  0.25239829640E+04  0.25500000920E-02 0. -1.
       -2   -1    0    0    0  501  0.00000000000E+00  0.00000000000E+00 -0.12126069171E+04  0.12126069171E+04  0.25500000920E-02 0.  1.
    10030    2    1    2    0    0  0.00000000000E+00  0.00000000000E+00  0.13113760469E+04  0.37365898812E+04  0.34989136605E+04 0.  0.
        5    1    3    3  502    0 -0.11274208304E+04 -0.71780951799E+03 -0.54981786861E+03  0.14452162508E+04  0.46999998093E+01 0.  1.
       -5    1    3    3    0  502  0.11274208304E+04  0.71780951799E+03  0.18611939155E+04  0.22913736304E+04  0.46999998093E+01 0. -1.
</event>
<event>
 5   0  0.3832389E-07  0.3908179E+04  0.7818609E-02  0.8023330E-01
        2   -1    0    0  501    0  0.00000000000E+00  0.00000000000E+00  0.23585678972E+04  0.23585678972E+04  0.25500000920E-02 0.  1.
       -2   -1    0    0    0  501  0.00000000000E+00  0.00000000000E+00 -0.16189760841E+04  0.16189760841E+04  0.25500000920E-02 0. -1.
    10030    2    1    2    0    0  0.00000000000E+00  0.00000000000E+00  0.73959181312E+03  0.39775439813E+04  0.39081786132E+04 0.  0.
        5    1    3    3  502    0  0.14518070638E+04 -0.61998790514E+03 -0.80230173566E+03  0.17708300082E+04  0.46999998093E+01 0. -1.
       -5    1    3    3    0  502 -0.14518070638E+04  0.61998790514E+03  0.15418935488E+04  0.22067139730E+04  0.46999998093E+01 0.  1.
</event>
<event>
 5   0  0.3832389E-07  0.3975768E+04  0.7818609E-02  0.8009453E-01
        2   -1    0    0  501    0  0.00000000000E+00  0.00000000000E+00  0.23251544374E+04  0.23251544374E+04  0.25500000920E-02 0. -1.
       -2   -1    0    0    0  501  0.00000000000E+00  0.00000000000E+00 -0.16995360320E+04  0.16995360320E+04  0.25500000920E-02 0.  1.
    10030    2    1    2    0    0  0.00000000000E+00  0.00000000000E+00  0.62561840538E+03  0.40246904694E+04  0.39757684773E+04 0.  0.
        5    1    3    3  502    0  0.11812975093E+04 -0.51391386312E+03 -0.12197853219E+04  0.17741109283E+04  0.46999998093E+01 0. -1.
       -5    1    3    3    0  502 -0.11812975093E+04  0.51391386312E+03  0.18454037273E+04  0.22505795411E+04  0.46999998093E+01 0.  1.
</event>
<event>
 5   0  0.3665303E-07  0.3398694E+04  0.7818609E-02  0.8138227E-01
        2   -1    0    0  501    0  0.00000000000E+00  0.00000000000E+00  0.27788993717E+04  0.27788993717E+04  0.25500000920E-02 0. -1.
       -2   -1    0    0    0  501  0.00000000000E+00  0.00000000000E+00 -0.10391814601E+04  0.10391814601E+04  0.25500000920E-02 0.  1.
    10030    2    1    2    0    0  0.00000000000E+00  0.00000000000E+00  0.17397179116E+04  0.38180808318E+04  0.33986942826E+04 0.  0.
        2    1    3    3  502    0  0.11268521545E+04  0.31035028410E+03 -0.51591667080E+03  0.12776083470E+04  0.25500000920E-02 0.  1.
       -2    1    3    3    0  502 -0.11268521545E+04 -0.31035028410E+03  0.22556345824E+04  0.25404724849E+04  0.25500000920E-02 0. -1.
</event>
<event>
 5   0  0.1187925E-07  0.3884094E+04  0.7818609E-02  0.8028346E-01
       -1   -1    0    0    0  501  0.00000000000E+00  0.00000000000E+00  0.26172095995E+04  0.26172095995E+04  0.50400001928E-02 0.  1.
        1   -1    0    0  501    0  0.00000000000E+00  0.00000000000E+00 -0.14410561012E+04  0.14410561012E+04  0.50400001928E-02 0. -1.
    10030    2    1    2    0    0  0.00000000000E+00  0.00000000000E+00  0.11761534983E+04  0.40582657007E+04  0.38840936453E+04 0.  0.
        4    1    3    3  502    0 -0.86486035710E+03 -0.56636784862E+03  0.23058142544E+04  0.25269620032E+04  0.12699999809E+01 0.  1.
       -4    1    3    3    0  502  0.86486035710E+03  0.56636784862E+03 -0.11296607560E+04  0.15313036975E+04  0.12699999809E+01 0. -1.
</event>
<event>
 5   0  0.3680814E-07  0.3794558E+04  0.7818609E-02  0.8047324E-01
        2   -1    0    0  501    0  0.00000000000E+00  0.00000000000E+00  0.25383546664E+04  0.25383546664E+04  0.25500000920E-02 0.  1.
       -2   -1    0    0    0  501  0.00000000000E+00  0.00000000000E+00 -0.14181109365E+04  0.14181109365E+04  0.25500000920E-02 0. -1.
    10030    2    1    2    0    0  0.00000000000E+00  0.00000000000E+00  0.11202437299E+04  0.39564656029E+04  0.37945584792E+04 0.  0.
        1    1    3    3  502    0 -0.72887591667E+03 -0.92311355494E+03 -0.99211307886E+03  0.15387290530E+04  0.50400001928E-02 0. -1.
       -1    1    3    3    0  502  0.72887591667E+03  0.92311355494E+03  0.21123568087E+04  0.24177365499E+04  0.50400001928E-02 0.  1.
</event>
<event>
 5   0  0.3832389E-07  0.4000961E+04  0.7818609E-02  0.8004353E-01
        2   -1    0    0  501    0  0.00000000000E+00  0.00000000000E+00  0.15674264593E+04  0.15674264593E+04  0.25500000920E-02 0.  1.
       -2   -1    0    0    0  501  0.00000000000E+00  0.00000000000E+00 -0.25531799556E+04  0.25531799556E+04  0.25500000920E-02 0. -1.
    10030    2    1    2    0    0  0.00000000000E+00  0.00000000000E+00 -0.98575349639E+03  0.41206064149E+04  0.40009607935E+04 0.  0.
        5    1    3    3  502    0 -0.46150074480E+03  0.11413489997E+04 -0.21168104614E+04  0.24487893123E+04  0.46999998093E+01 0. -1.
       -5    1    3    3    0  502  0.46150074480E+03 -0.11413489997E+04  0.11310569650E+04  0.16718171026E+04  0.46999998093E+01 0.  1.
</event>
<event>
 5   0  0.3610483E-07  0.3114642E+04  0.7818609E-02  0.8211731E-01
        2   -1    0    0  501    0  0.00000000000E+00  0.00000000000E+00  0.29919418069E+04  0.29919418069E+04  0.25500000920E-02 0.  1.
       -2   -1    0    0    0  501  0.00000000000E+00  0.00000000000E+00 -0.81059330760E+03  0.81059330761E+03  0.25500000920E-02 0. -1.
    10030    2    1    2    0    0  0.00000000000E+00  0.00000000000E+00  0.21813484993E+04  0.38025351145E+04  0.31146415559E+04 0.  0.
        4    1    3    3  502    0  0.67911858753E+03  0.96349504536E+02 -0.61624118133E+03  0.92208464331E+03  0.12699999809E+01 0. -1.
       -4    1    3    3    0  502 -0.67911858753E+03 -0.96349504536E+02  0.27975896806E+04  0.28804504712E+04  0.12699999809E+01 0.  1.
</event>
<event>
 5   0  0.3810833E-07  0.3787578E+04  0.7818609E-02  0.8048826E-01
        2   -1    0    0  501    0  0.00000000000E+00  0.00000000000E+00  0.18853216659E+04  0.18853216659E+04  0.25500000920E-02 0.  1.
       -2   -1    0    0    0  501  0.00000000000E+00  0.00000000000E+00 -0.19022943319E+04  0.19022943319E+04  0.25500000920E-02 0. -1.
    10030    2    1    2    0    0  0.00000000000E+00  0.00000000000E+00 -0.16972666072E+02  0.37876159978E+04  0.37875779696E+04 0.  0.
        3    1    3    3  502    0 -0.83242104661E+03  0.10722555258E+04 -0.13290222142E+04  0.18997254453E+04  0.10100000352E+00 0. -1.
       -3    1    3    3    0  502  0.83242104661E+03 -0.10722555258E+04  0.13120495481E+04  0.18878905525E+04  0.10100000352E+00 0.  1.
</event>
<event>
 5   0  0.3832389E-07  0.3934879E+04  0.7818609E-02  0.8017814E-01
       -2   -1    0    0    0  501  0.00000000000E+00  0.00000000000E+00  0.31575694884E+04  0.31575694884E+04  0.25500000920E-02 0.  1.
        2   -1    0    0  501    0  0.00000000000E+00  0.00000000000E+00 -0.12258855815E+04  0.12258855815E+04  0.25500000920E-02 0. -1.
    10030    2    1    2    0    0  0.00000000000E+00  0.00000000000E+00  0.19316839069E+04  0.43834550699E+04  0.39348793671E+04 0.  0.
        5    1    3    3  502    0 -0.14705620606E+04 -0.74303118228E+03  0.21636631269E+04  0.27195787042E+04  0.46999998093E+01 0.  1.
       -5    1    3    3    0  502  0.14705620606E+04  0.74303118228E+03 -0.23197922000E+03  0.16638763657E+04  0.46999998093E+01 0. -1.
</event>
<event>
 5   0  0.1187925E-07  0.3757356E+04  0.7818609E-02  0.8055369E-01
       -1   -1    0    0    0  501  0.00000000000E+00  0.00000000000E+00  0.20594736859E+04  0.20594736859E+04  0.50400001928E-02 0.  1.
        1   -1    0    0  501    0  0.00000000000E+00  0.00000000000E+00 -0.17137536769E+04  0.17137536769E+04  0.50400001928E-02 0. -1.
    10030    2    1    2    0    0  0.00000000000E+00  0.00000000000E+00  0.34572000902E+03  0.37732273628E+04  0.37573557733E+04 0.  0.
        4    1    3    3  502    0 -0.31826099318E+03  0.14922328749E+04  0.12735647799E+04  0.19874651882E+04  0.12699999809E+01 0.  1.
       -4    1    3    3    0  502  0.31826099318E+03 -0.14922328749E+04 -0.92784477087E+03  0.17857621746E+04  0.12699999809E+01 0. -1.
</event>
<event>
 5   0  0.1187925E-07  0.3812266E+04  0.7818609E-02  0.8043528E-01
       -1   -1    0    0    0  501  0.00000000000E+00  0.00000000000E+00  0.27852551483E+04  0.27852551483E+04  0.50400001928E-02 0.  1.
        1   -1    0    0  501    0  0.00000000000E+00  0.00000000000E+00 -0.13044918848E+04  0.13044918848E+04  0.50400001928E-02 0. -1.
    10030    2    1    2    0    0  0.00000000000E+00  0.00000000000E+00  0.14807632636E+04  0.40897470331E+04  0.38122658554E+04 0.  0.
        3    1    3    3  502    0 -0.11514981041E+04  0.81916509163E+03 -0.63193126516E+03  0.15480040262E+04  0.10100000352E+00 0. -1.
       -3    1    3    3    0  502  0.11514981041E+04 -0.81916509163E+03  0.21126945287E+04  0.25417430069E+04  0.10100000352E+00 0.  1.
</event>
<event>
 5   0  0.1187925E-07  0.3893968E+04  0.7818609E-02  0.8026285E-01
        1   -1    0    0  501    0  0.00000000000E+00  0.00000000000E+00  0.17557700075E+04  0.17557700075E+04  0.50400001928E-02 0. -1.
       -1   -1    0    0    0  501  0.00000000000E+00  0.00000000000E+00 -0.21590222112E+04  0.21590222112E+04  0.50400001928E-02 0.  1.
    10030    2    1    2    0    0  0.00000000000E+00  0.00000000000E+00 -0.40325220376E+03  0.39147922187E+04  0.38939678704E+04 0.  0.
        5    1    3    3  502    0 -0.87866138865E+03 -0.57535089220E+03  0.14465465287E+04  0.17876222853E+04  0.46999998093E+01 0. -1.
       -5    1    3    3    0  502  0.87866138865E+03  0.57535089220E+03 -0.18497987325E+04  0.21271699334E+04  0.46999998093E+01 0.  1.
</event>
<event>
 5   0  0.3680814E-07  0.2869207E+04  0.7818609E-02  0.8282099E-01
       -2   -1    0    0    0  501  0.00000000000E+00  0.00000000000E+00  0.88632133448E+03  0.88632133449E+03  0.25500000920E-02 0. -1.
        2   -1    0    0  501    0  0.00000000000E+00  0.00000000000E+00 -0.23220552714E+04  0.23220552714E+04  0.25500000920E-02 0.  1.
    10030    2    1    2    0    0  0.00000000000E+00  0.00000000000E+00 -0.14357339369E+04  0.32083766059E+04  0.28692069475E+04 0.  0.
        1    1    3    3  502    0  0.97824545763E+03 -0.98702504015E+03 -0.11162143947E+04  0.17824469642E+04  0.50400001928E-02 0.  1.
       -1    1    3    3    0  502 -0.97824545763E+03  0.98702504015E+03 -0.31951954229E+03  0.14259296417E+04  0.50400001928E-02 0. -1.
</event>
<event>
 5   0  0.3832389E-07  0.3872903E+04  0.7818609E-02  0.8030689E-01
       -2   -1    0    0    0  501  0.00000000000E+00  0.00000000000E+00  0.15410594512E+04  0.15410594512E+04  0.25500000920E-02 0.  1.
        2   -1    0    0  501    0  0.00000000000E+00  0.00000000000E+00 -0.24332895634E+04  0.24332895634E+04  0.25500000920E-02 0. -1.
    10030    2    1    2    0    0  0.00000000000E+00  0.00000000000E+00 -0.89223011223E+03  0.39743490146E+04  0.38729027249E+04 0.  0.
        5    1    3    3  502    0  0.59872543532E+03 -0.15462428206E+04  0.58032649260E+03  0.17567412829E+04  0.46999998093E+01 0.  1.
       -5    1    3    3    0  502 -0.59872543532E+03  0.15462428206E+04 -0.14725566048E+04  0.22176077316E+04  0.46999998093E+01 0. -1.
</event>
<event>
 5   0  0.1187925E-07  0.2886113E+04  0.7818609E-02  0.8277021E-01
        1   -1    0    0  501    0  0.00000000000E+00  0.00000000000E+00  0.10024601139E+04  0.10024601139E+04  0.50400001928E-02 0. -1.
       -1   -1    0    0    0  501  0.00000000000E+00  0.00000000000E+00 -0.20773013656E+04  0.20773013656E+04  0.50400001928E-02 0.  1.
    10030    2    1    2    0    0  0.00000000000E+00  0.00000000000E+00 -0.10748412516E+04  0.30797614795E+04  0.28861127931E+04 0.  0.
        5    1    3    3  502    0  0.13432249116E+04  0.16266888578E+02  0.25083998719E+02  0.13435658047E+04  0.46999998093E+01 0. -1.
       -5    1    3    3    0  502 -0.13432249116E+04 -0.16266888578E+02 -0.10999252504E+04  0.17361956748E+04  0.46999998093E+01 0.  1.
</event>
<event>
 5   0  0.1187925E-07  0.3883810E+04  0.7818609E-02  0.8028405E-01
        1   -1    0    0  501    0  0.00000000000E+00  0.00000000000E+00  0.22101425295E+04  0.22101425295E+04  0.50400001928E-02 0. -1.
       -1   -1    0    0    0  501  0.00000000000E+00  0.00000000000E+00 -0.17062221466E+04  0.17062221466E+04  0.50400001928E-02 0.  1.
    10030    2    1    2    0    0  0.00000000000E+00  0.00000000000E+00  0.50392038290E+03  0.39163646762E+04  0.38838095376E+04 0.  0.
        1    1    3    3  502    0  0.92614547255E+02  0.83167249867E+03  0.20190008783E+04  0.21855482483E+04  0.50400001928E-02 0. -1.
       -1    1    3    3    0  502 -0.92614547255E+02 -0.83167249867E+03 -0.15150804954E+04  0.17308164278E+04  0.50400001928E-02 0.  1.
</event>
<event>
 5   0  0.3665303E-07  0.3892986E+04  0.7818609E-02  0.8026490E-01
        2   -1    0    0  501    0  0.00000000000E+00  0.00000000000E+00  0.23553469550E+04  0.23553469550E+04  0.25500000920E-02 0.  1.
       -2   -1    0    0    0  501  0.00000000000E+00  0.00000000000E+00 -0.16086102453E+04  0.16086102453E+04  0.25500000920E-02 0. -1.
    10030    2    1    2    0    0  0.00000000000E+00  0.00000000000E+00  0.74673670969E+03  0.39639572004E+04  0.38929861254E+04 0.  0.
        2    1    3    3  502    0 -0.74657336063E+03 -0.67963577485E+03  0.20679066419E+04  0.23011984810E+04  0.25500000920E-02 0.  1.
       -2    1    3    3    0  502  0.74657336063E+03  0.67963577485E+03 -0.13211699322E+04  0.16627587194E+04  0.25500000920E-02 0. -1.
</event>
<event>
 5   0  0.1187925E-07  0.4062502E+04  0.7818609E-02  0.7992055E-01
       -1   -1    0    0    0  501  0.00000000000E+00  0.00000000000E+00  0.28461507199E+04  0.28461507199E+04  0.50400001928E-02 0.  1.
        1   -1    0    0  501    0  0.00000000000E+00  0.00000000000E+00 -0.14496707140E+04  0.14496707140E+04  0.50400001928E-02 0. -1.
    10030    2    1    2    0    0  0.00000000000E+00  0.00000000000E+00  0.13964800059E+04  0.42958214339E+04  0.40625023550E+04 0.  0.
        1    1    3    3  502    0 -0.18459948638E+04 -0.77020338780E+03  0.10722050336E+04  0.22694787794E+04  0.50400001928E-02 0.  1.
       -1    1    3    3    0  502  0.18459948638E+04  0.77020338780E+03  0.32427497229E+03  0.20263426545E+04  0.50400001928E-02 0. -1.
</event>
<event>
 5   0  0.3610483E-07  0.3911762E+04  0.7818609E-02  0.8022587E-01
        2   -1    0    0  501    0  0.00000000000E+00  0.00000000000E+00  0.24753151925E+04  0.24753151925E+04  0.25500000920E-02 0.  1.
       -2   -1    0    0    0  501  0.00000000000E+00  0.00000000000E+00 -0.15454480749E+04  0.15454480749E+04  0.25500000920E-02 0. -1.
    10030    2    1    2    0    0  0.00000000000E+00  0.00000000000E+00  0.92986711758E+03  0.40207632674E+04  0.39117623133E+04 0.  0.
        4    1    3    3  502    0 -0.53455383153E+03 -0.61761331438E+03  0.22916075692E+04  0.24328298068E+04  0.12699999809E+01 0.  1.
       -4    1    3    3    0  502  0.53455383153E+03  0.61761331438E+03 -0.13617404516E+04  0.15879334606E+04  0.12699999809E+01 0. -1.
</event>
<event>
 5   0  0.3680814E-07  0.3861901E+04  0.7818609E-02  0.8033000E-01
        2   -1    0    0  501    0  0.00000000000E+00  0.00000000000E+00  0.27787951253E+04  0.27787951253E+04  0.25500000920E-02 0.  1.
       -2   -1    0    0    0  501  0.00000000000E+00  0.00000000000E+00 -0.13417939746E+04  0.13417939746E+04  0.25500000920E-02 0. -1.
    10030    2    1    2    0    0  0.00000000000E+00  0.00000000000E+00  0.14370011507E+04  0.41205890999E+04  0.38619013741E+04 0.  0.
        1    1    3    3  502    0  0.17141592454E+04  0.19539513901E+03 -0.20679675412E+03  0.17376092991E+04  0.50400001928E-02 0. -1.
       -1    1    3    3    0  502 -0.17141592454E+04 -0.19539513901E+03  0.16437979048E+04  0.23829798008E+04  0.50400001928E-02 0.  1.
</event>
<event>
 5   0  0.3832389E-07  0.3806308E+04  0.7818609E-02  0.8044803E-01
        2   -1    0    0  501    0  0.00000000000E+00  0.00000000000E+00  0.24001513379E+04  0.24001513379E+04  0.25500000920E-02 0.  1.
       -2   -1    0    0    0  501  0.00000000000E+00  0.00000000000E+00 -0.15090696051E+04  0.15090696051E+04  0.25500000920E-02 0. -1.
    10030    2    1    2    0    0  0.00000000000E+00  0.00000000000E+00  0.89108173273E+03  0.39092209430E+04  0.38063081492E+04 0.  0.
        5    1    3    3  502    0 -0.10223591745E+04 -0.11656192740E+04  0.15790509418E+04  0.22129867917E+04  0.46999998093E+01 0.  1.
       -5    1    3    3    0  502  0.10223591745E+04  0.11656192740E+04 -0.68796920903E+03  0.16962341513E+04  0.46999998093E+01 0. -1.
</event>
<event>
 5   0  0.1187925E-07  0.3637765E+04  0.7818609E-02  0.8081896E-01
       -1   -1    0    0    0  501  0.00000000000E+00  0.00000000000E+00  0.21227033288E+04  0.21227033288E+04  0.50400001928E-02 0.  1.
        1   -1    0    0  501    0  0.00000000000E+00  0.00000000000E+00 -0.15585469192E+04  0.15585469192E+04  0.50400001928E-02 0. -1.
    10030    2    1    2    0    0  0.00000000000E+00  0.00000000000E+00  0.56415640959E+03  0.36812502481E+04  0.36377645518E+04 0.  0.
        1    1    3    3  502    0  0.12492315267E+04 -0.68240247197E+03 -0.86374694411E+03  0.16650259231E+04  0.50400001928E-02 0. -1.
       -1    1    3    3    0  502 -0.12492315267E+04  0.68240247197E+03  0.14279033537E+04  0.20162243250E+04  0.50400001928E-02 0.  1.
</event>
<event>
 5   0  0.3610483E-07  0.3941113E+04  0.7818609E-02  0.8016532E-01
       -2   -1    0    0    0  501  0.00000000000E+00  0.00000000000E+00  0.18531881621E+04  0.18531881621E+04  0.25500000920E-02 0. -1.
        2   -1    0    0  501    0  0.00000000000E+00  0.00000000000E+00 -0.20953582910E+04  0.20953582910E+04  0.25500000920E-02 0.  1.
    10030    2    1    2    0    0  0.00000000000E+00  0.00000000000E+00 -0.24217012891E+03  0.39485464531E+04  0.39411131322E+04 0.  0.
        4    1    3    3  502    0 -0.14839316839E+03 -0.57253636804E+03  0.17621605121E+04  0.18587710210E+04  0.12699999809E+01 0. -1.
       -4    1    3    3    0  502  0.14839316839E+03  0.57253636804E+03 -0.20043306410E+04  0.20897754321E+04  0.12699999809E+01 0.  1.
</event>
<event>
 5   0  0.1187925E-07  0.3867691E+04  0.7818609E-02  0.8031783E-01
        1   -1    0    0  501    0  0.00000000000E+00  0.00000000000E+00  0.23849587037E+04  0.23849587037E+04  0.50400001928E-02 0.  1.
       -1   -1    0    0    0  501  0.00000000000E+00  0.00000000000E+00 -0.15680599816E+04  0.15680599816E+04  0.50400001928E-02 0. -1.
    10030    2    1    2    0    0  0.00000000000E+00  0.00000000000E+00  0.81689872205E+03  0.39530186853E+04  0.38676909396E+04 0.  0.
        4    1    3    3  502    0 -0.18948173624E+04 -0.27187696561E+03  0.68929652416E+03  0.20345469354E+04  0.12699999809E+01 0.  1.
       -4    1    3    3    0  502  0.18948173624E+04  0.27187696561E+03  0.12760219789E+03  0.19184717499E+04  0.12699999809E+01 0. -1.
</event>
<event>
 5   0  0.3610483E-07  0.3914912E+04  0.7818609E-02  0.8021935E-01
       -2   -1    0    0    0  501  0.00000000000E+00  0.00000000000E+00  0.15226391533E+04  0.15226391533E+04  0.25500000920E-02 0. -1.
        2   -1    0    0  501    0  0.00000000000E+00  0.00000000000E+00 -0.25164419985E+04  0.25164419985E+04  0.25500000920E-02 0.  1.
    10030    2    1    2    0    0  0.00000000000E+00  0.00000000000E+00 -0.99380284515E+03  0.40390811518E+04  0.39149115515E+04 0.  0.
        4    1    3    3  502    0  0.12763678048E+04  0.70063592203E+03  0.85288503313E+03  0.16874299870E+04  0.12699999809E+01 0. -1.
       -4    1    3    3    0  502 -0.12763678048E+04 -0.70063592203E+03 -0.18466878783E+04  0.23516511648E+04  0.12699999809E+01 0.  1.
</event>
<event>
 5   0  0.1187925E-07  0.4197088E+04  0.7818609E-02  0.7965926E-01
        1   -1    0    0  501    0  0.00000000000E+00  0.00000000000E+00  0.18891419494E+04  0.18891419494E+04  0.50400001928E-02 0.  1.
       -1   -1    0    0    0  501  0.00000000000E+00  0.00000000000E+00 -0.23311573229E+04  0.23311573229E+04  0.50400001928E-02 0. -1.
    10030    2    1    2    0    0  0.00000000000E+00  0.00000000000E+00 -0.44201537346E+03  0.42202992723E+04  0.41970880807E+04 0.  0.
        2    1    3    3  502    0 -0.14507522450E+04  0.12790389095E+04  0.59790676592E+03  0.20243801790E+04  0.25500000920E-02 0.  1.
       -2    1    3    3    0  502  0.14507522450E+04 -0.12790389095E+04 -0.10399221394E+04  0.21959190933E+04  0.25500000920E-02 0. -1.
</event>
<event>
 5   0  0.3680814E-07  0.3860043E+04  0.7818609E-02  0.8033391E-01
        2   -1    0    0  501    0  0.00000000000E+00  0.00000000000E+00  0.18100787367E+04  0.18100787367E+04  0.25500000920E-02 0. -1.
       -2   -1    0    0    0  501  0.00000000000E+00  0.00000000000E+00 -0.20579124777E+04  0.20579124777E+04  0.25500000920E-02 0.  1.
    10030    2    1    2    0    0  0.00000000000E+00  0.00000000000E+00 -0.24783374101E+03  0.38679912144E+04  0.38600433251E+04 0.  0.
        1    1    3    3  502    0 -0.14870548876E+04 -0.11658465917E+04 -0.51773129512E+03  0.19592284727E+04  0.50400001928E-02 0.  1.
       -1    1    3    3    0  502  0.14870548876E+04  0.11658465917E+04  0.26989755410E+03  0.19087627417E+04  0.50400001928E-02 0. -1.
</event>
<event>
 5   0  0.1187925E-07  0.3634299E+04  0.7818609E-02  0.8082680E-01
        1   -1    0    0  501    0  0.00000000000E+00  0.00000000000E+00  0.14473180987E+04  0.14473180987E+04  0.50400001928E-02 0. -1.
       -1   -1    0    0    0  501  0.00000000000E+00  0.00000000000E+00 -0.22814831393E+04  0.22814831393E+04  0.50400001928E-02 0.  1.
    10030    2    1    2    0    0  0.00000000000E+00  0.00000000000E+00 -0.83416504062E+03  0.37288012381E+04  0.36342987436E+04 0.  0.
        3    1    3    3  502    0 -0.14472872218E+04  0.94311426670E+03 -0.99559445239E+03  0.19938187345E+04  0.10100000352E+00 0.  1.
       -3    1    3    3    0  502  0.14472872218E+04 -0.94311426670E+03  0.16142941177E+03  0.17349825035E+04  0.10100000352E+00 0. -1.
</event>
<event>
 5   0  0.1187925E-07  0.3914593E+04  0.7818609E-02  0.8022001E-01
       -1   -1    0    0    0  501  0.00000000000E+00  0.00000000000E+00  0.25974521788E+04  0.25974521788E+04  0.50400001928E-02 0.  1.
        1   -1    0    0  501    0  0.00000000000E+00  0.00000000000E+00 -0.14749102786E+04  0.14749102787E+04  0.50400001928E-02 0. -1.
    10030    2    1    2    0    0  0.00000000000E+00  0.00000000000E+00  0.11225419002E+04  0.40723624575E+04  0.39145926566E+04 0.  0.
        1    1    3    3  502    0 -0.18247626546E+03 -0.24820096095E+03 -0.14495321053E+04  0.14819057422E+04  0.50400001928E-02 0. -1.
       -1    1    3    3    0  502  0.18247626546E+03  0.24820096095E+03  0.25720740054E+04  0.25904567153E+04  0.50400001928E-02 0.  1.
</event>
<event>
 5   0  0.1187925E-07  0.3526167E+04  0.7818609E-02  0.8107617E-01
        1   -1    0    0  501    0  0.00000000000E+00  0.00000000000E+00  0.11638051761E+04  0.11638051761E+04  0.50400001928E-02 0. -1.
       -1   -1    0    0    0  501  0.00000000000E+00  0.00000000000E+00 -0.26709486358E+04  0.26709486358E+04  0.50400001928E-02 0.  1.
    10030    2    1    2    0    0  0.00000000000E+00  0.00000000000E+00 -0.15071434598E+04  0.38347538119E+04  0.35261672379E+04 0.  0.
        3    1    3    3  502    0  0.22105373286E+03  0.82407725328E+03  0.92433682527E+03  0.12579215591E+04  0.10100000352E+00 0. -1.
       -3    1    3    3    0  502 -0.22105373286E+03 -0.82407725328E+03 -0.24314802850E+04  0.25768322528E+04  0.10100000352E+00 0.  1.
</event>
<event>
 5   0  0.3810833E-07  0.3033576E+04  0.7818609E-02  0.8234208E-01
        2   -1    0    0  501    0  0.00000000000E+00  0.00000000000E+00  0.19409822713E+04  0.19409822713E+04  0.25500000920E-02 0.  1.
       -2   -1    0    0    0  501  0.00000000000E+00  0.00000000000E+00 -0.11852995636E+04  0.11852995636E+04  0.25500000920E-02 0. -1.
    10030    2    1    2    0    0  0.00000000000E+00  0.00000000000E+00  0.75568270773E+03  0.31262818349E+04  0.30335757377E+04 0.  0.
        3    1    3    3  502    0 -0.12169913650E+04  0.17977043355E+03 -0.53655058413E+03  0.13421147234E+04  0.10100000352E+00 0. -1.
       -3    1    3    3    0  502  0.12169913650E+04 -0.17977043355E+03  0.12922332919E+04  0.17841671116E+04  0.10100000352E+00 0.  1.
</event>
<event>
 5   0  0.3665303E-07  0.3898859E+04  0.7818609E-02  0.8025267E-01
        2   -1    0    0  501    0  0.00000000000E+00  0.00000000000E+00  0.23256315990E+04  0.23256315990E+04  0.25500000920E-02 0.  1.
       -2   -1    0    0    0  501  0.00000000000E+00  0.00000000000E+00 -0.16340828930E+04  0.16340828930E+04  0.25500000920E-02 0. -1.
    10030    2    1    2    0    0  0.00000000000E+00  0.00000000000E+00  0.69154870594E+03  0.39597144920E+04  0.38988587106E+04 0.  0.
        2    1    3    3  502    0  0.20550635108E+03 -0.10684288955E+04 -0.12970339228E+04  0.16929471823E+04  0.25500000920E-02 0. -1.
       -2    1    3    3    0  502 -0.20550635108E+03  0.10684288955E+04  0.19885826288E+04  0.22667673097E+04  0.25500000920E-02 0.  1.
</event>
<event>
 5   0  0.1187925E-07  0.3760943E+04  0.7818609E-02  0.8054589E-01
        1   -1    0    0  501    0  0.00000000000E+00  0.00000000000E+00  0.24144968747E+04  0.24144968747E+04  0.50400001928E-02 0. -1.
       -1   -1    0    0    0  501  0.00000000000E+00  0.00000000000E+00 -0.14645591159E+04  0.14645591159E+04  0.50400001928E-02 0.  1.
    10030    2    1    2    0    0  0.00000000000E+00  0.00000000000E+00  0.94993775884E+03  0.38790559906E+04  0.37609431839E+04 0.  0.
        4    1    3    3  502    0 -0.14429849688E+04 -0.82878569429E+03  0.13783057407E+04  0.21607451666E+04  0.12699999809E+01 0. -1.
       -4    1    3    3    0  502  0.14429849688E+04  0.82878569429E+03 -0.42836798184E+03  0.17183108240E+04  0.12699999809E+01 0.  1.
</event>
<event>
 5   0  0.3610483E-07  0.3705041E+04  0.7818609E-02  0.8066846E-01
       -2   -1    0    0    0  501  0.00000000000E+00  0.00000000000E+00  0.17590833328E+04  0.17590833328E+04  0.25500000920E-02 0. -1.
        2   -1    0    0  501    0  0.00000000000E+00  0.00000000000E+00 -0.19509206350E+04  0.19509206350E+04  0.25500000920E-02 0.  1.
    10030    2    1    2    0    0  0.00000000000E+00  0.00000000000E+00 -0.19183730218E+03  0.37100039678E+04  0.37050408757E+04 0.  0.
        4    1    3    3  502    0 -0.88818820677E+03  0.76867440410E+03  0.13385126564E+04  0.17808302486E+04  0.12699999809E+01 0. -1.
       -4    1    3    3    0  502  0.88818820677E+03 -0.76867440410E+03 -0.15303499586E+04  0.19291737192E+04  0.12699999809E+01 0.  1.
</event>
<event>
 5   0  0.3832389E-07  0.3882516E+04  0.7818609E-02  0.8028675E-01
        2   -1    0    0  501    0  0.00000000000E+00  0.00000000000E+00  0.16338759648E+04  0.16338759648E+04  0.25500000920E-02 0. -1.
       -2   -1    0    0    0  501  0.00000000000E+00  0.00000000000E+00 -0.23064685894E+04  0.23064685894E+04  0.25500000920E-02 0.  1.
    10030    2    1    2    0    0  0.00000000000E+00  0.00000000000E+00 -0.67259262467E+03  0.39403445542E+04  0.38825164993E+04 0.  0.
        5    1    3    3  502    0  0.10973515486E+04  0.13628174744E+04  0.51706617613E+03  0.18245085393E+04  0.46999998093E+01 0. -1.
       -5    1    3    3    0  502 -0.10973515486E+04 -0.13628174744E+04 -0.11896588008E+04  0.21158360149E+04  0.46999998093E+01 0.  1.
</event>
<event>
 5   0  0.1187925E-07  0.3889074E+04  0.7818609E-02  0.8027305E-01
        1   -1    0    0  501    0  0.00000000000E+00  0.00000000000E+00  0.15119959695E+04  0.15119959695E+04  0.50400001928E-02 0. -1.
       -1   -1    0    0    0  501  0.00000000000E+00  0.00000000000E+00 -0.25008160003E+04  0.25008160003E+04  0.50400001928E-02 0.  1.
    10030    2    1    2    0    0  0.00000000000E+00  0.00000000000E+00 -0.98882003080E+03  0.40128119697E+04  0.38890737781E+04 0.  0.
        4    1    3    3  502    0  0.31799293903E+03 -0.14840269946E+03  0.14790538646E+04  0.15201134226E+04  0.12699999809E+01 0. -1.
       -4    1    3    3    0  502 -0.31799293903E+03  0.14840269946E+03 -0.24678738954E+04  0.24926985471E+04  0.12699999809E+01 0.  1.
</event>
<event>
 5   0  0.3610483E-07  0.3822877E+04  0.7818609E-02  0.8041263E-01
       -2   -1    0    0    0  501  0.00000000000E+00  0.00000000000E+00  0.11348469355E+04  0.11348469356E+04  0.25500000920E-02 0.  1.
        2   -1    0    0  501    0  0.00000000000E+00  0.00000000000E+00 -0.32194625124E+04  0.32194625124E+04  0.25500000920E-02 0. -1.
    10030    2    1    2    0    0  0.00000000000E+00  0.00000000000E+00 -0.20846155768E+04  0.43543094479E+04  0.38228770141E+04 0.  0.
        4    1    3    3  502    0 -0.91770985623E+03 -0.13981195690E+04 -0.20965361338E+04  0.26818641059E+04  0.12699999809E+01 0. -1.
       -4    1    3    3    0  502  0.91770985623E+03  0.13981195690E+04  0.11920556966E+02  0.16724453420E+04  0.12699999809E+01 0.  1.
</event>
<event>
 5   0  0.1187925E-07  0.3723703E+04  0.7818609E-02  0.8062729E-01
       -1   -1    0    0    0  501  0.00000000000E+00  0.00000000000E+00  0.12152032937E+04  0.12152032937E+04  0.50400001928E-02 0.  1.
        1   -1    0    0  501    0  0.00000000000E+00  0.00000000000E+00 -0.28526010714E+04  0.28526010714E+04  0.50400001928E-02 0. -1.
    10030    2    1    2    0    0  0.00000000000E+00  0.00000000000E+00 -0.16373977777E+04  0.40678043650E+04  0.37237025754E+04 0.  0.
        1    1    3    3  502    0  0.34027027169E+03 -0.14677601296E+04 -0.20135693804E+04  0.25148688446E+04  0.50400001928E-02 0. -1.
       -1    1    3    3    0  502 -0.34027027169E+03  0.14677601296E+04  0.37617160268E+03  0.15529355204E+04  0.50400001928E-02 0.  1.
</event>
<event>
 5   0  0.3680814E-07  0.3927708E+04  0.7818609E-02  0.8019291E-01
        2   -1    0    0  501    0  0.00000000000E+00  0.00000000000E+00  0.22091427643E+04  0.22091427643E+04  0.25500000920E-02 0. -1.
       -2   -1    0    0    0  501  0.00000000000E+00  0.00000000000E+00 -0.17458002589E+04  0.17458002589E+04  0.25500000920E-02 0.  1.
    10030    2    1    2    0    0  0.00000000000E+00  0.00000000000E+00  0.46334250540E+03  0.39549430232E+04  0.39277077334E+04 0.  0.
        1    1    3    3  502    0  0.14090618741E+04 -0.14111379291E+02 -0.11456834514E+04  0.18161071188E+04  0.50400001928E-02 0.  1.
       -1    1    3    3    0  502 -0.14090618741E+04  0.14111379291E+02  0.16090259568E+04  0.21388359044E+04  0.50400001928E-02 0. -1.
</event>
<event>
 5   0  0.1187925E-07  0.3901529E+04  0.7818609E-02  0.8024711E-01
       -1   -1    0    0    0  501  0.00000000000E+00  0.00000000000E+00  0.14981881296E+04  0.14981881296E+04  0.50400001928E-02 0. -1.
        1   -1    0    0  501    0  0.00000000000E+00  0.00000000000E+00 -0.25400564517E+04  0.25400564517E+04  0.50400001928E-02 0.  1.
    10030    2    1    2    0    0  0.00000000000E+00  0.00000000000E+00 -0.10418683221E+04  0.40382445813E+04  0.39015291486E+04 0.  0.
        4    1    3    3  502    0 -0.11511731960E+04  0.10944433417E+04 -0.16930814642E+04  0.23215366490E+04  0.12699999809E+01 0.  1.
       -4    1    3    3    0  502  0.11511731960E+04 -0.10944433417E+04  0.65121314201E+03  0.17167079323E+04  0.12699999809E+01 0. -1.
</event>
<event>
 5   0  0.3665303E-07  0.3858721E+04  0.7818609E-02  0.8033670E-01
        2   -1    0    0  501    0  0.00000000000E+00  0.00000000000E+00  0.20130163227E+04  0.20130163227E+04  0.25500000920E-02 0. -1.
       -2   -1    0    0    0  501  0.00000000000E+00  0.00000000000E+00 -0.18491811964E+04  0.18491811964E+04  0.25500000920E-02 0.  1.
    10030    2    1    2    0    0  0.00000000000E+00  0.00000000000E+00  0.16383512628E+03  0.38621975192E+04  0.38587209965E+04 0.  0.
        2    1    3    3  502    0  0.73100148198E+02 -0.19209988934E+04 -0.82094502180E+02  0.19241413377E+04  0.25500000920E-02 0. -1.
       -2    1    3    3    0  502 -0.73100148198E+02  0.19209988934E+04  0.24592962846E+03  0.19380561814E+04  0.25500000920E-02 0.  1.
</event>
<event>
 5   0  0.3665303E-07  0.3909467E+04  0.7818609E-02  0.8023063E-01
        2   -1    0    0  501    0  0.00000000000E+00  0.00000000000E+00  0.22690452667E+04  0.22690452667E+04  0.25500000920E-02 0.  1.
       -2   -1    0    0    0  501  0.00000000000E+00  0.00000000000E+00 -0.16839602962E+04  0.16839602962E+04  0.25500000920E-02 0. -1.
    10030    2    1    2    0    0  0.00000000000E+00  0.00000000000E+00  0.58508497049E+03  0.39530055629E+04  0.39094665311E+04 0.  0.
        2    1    3    3  502    0  0.17874867383E+04  0.29594359414E+03 -0.44931137325E+03  0.18667008761E+04  0.25500000920E-02 0. -1.
       -2    1    3    3    0  502 -0.17874867383E+04 -0.29594359414E+03  0.10343963437E+04  0.20863046869E+04  0.25500000920E-02 0.  1.
</event>
<event>
 5   0  0.1187925E-07  0.3863864E+04  0.7818609E-02  0.8032587E-01
        1   -1    0    0  501    0  0.00000000000E+00  0.00000000000E+00  0.21134797275E+04  0.21134797275E+04  0.50400001928E-02 0. -1.
       -1   -1    0    0    0  501  0.00000000000E+00  0.00000000000E+00 -0.17659788928E+04  0.17659788929E+04  0.50400001928E-02 0.  1.
    10030    2    1    2    0    0  0.00000000000E+00  0.00000000000E+00  0.34750083464E+03  0.38794586203E+04  0.38638636566E+04 0.  0.
        4    1    3    3  502    0 -0.24194757491E+03  0.25069014051E+03 -0.17341757288E+04  0.17688276476E+04  0.12699999809E+01 0.  1.
       -4    1    3    3    0  502  0.24194757491E+03 -0.25069014051E+03  0.20816765634E+04  0.21106309728E+04  0.12699999809E+01 0. -1.
</event>
<event>
 5   0  0.1187925E-07  0.3814353E+04  0.7818609E-02  0.8043082E-01
       -1   -1    0    0    0  501  0.00000000000E+00  0.00000000000E+00  0.15107883032E+04  0.15107883032E+04  0.50400001928E-02 0.  1.
        1   -1    0    0  501    0  0.00000000000E+00  0.00000000000E+00 -0.24075657278E+04  0.24075657278E+04  0.50400001928E-02 0. -1.
    10030    2    1    2    0    0  0.00000000000E+00  0.00000000000E+00 -0.89677742458E+03  0.39183540310E+04  0.38143529678E+04 0.  0.
        5    1    3    3  502    0  0.16479635207E+04 -0.89053181111E+03 -0.80189711224E+02  0.18749088383E+04  0.46999998093E+01 0.  1.
       -5    1    3    3    0  502 -0.16479635207E+04  0.89053181111E+03 -0.81658771336E+03  0.20434451927E+04  0.46999998093E+01 0. -1.
</event>
<event>
 5   0  0.1187925E-07  0.3903111E+04  0.7818609E-02  0.8024383E-01
        1   -1    0    0  501    0  0.00000000000E+00  0.00000000000E+00  0.25102549716E+04  0.25102549717E+04  0.50400001928E-02 0.  1.
       -1   -1    0    0    0  501  0.00000000000E+00  0.00000000000E+00 -0.15172037762E+04  0.15172037762E+04  0.50400001928E-02 0. -1.
    10030    2    1    2    0    0  0.00000000000E+00  0.00000000000E+00  0.99305119544E+03  0.40274587479E+04  0.39031107195E+04 0.  0.
        2    1    3    3  502    0 -0.17366299544E+04  0.48619927135E+03  0.12661393241E+04  0.22034931627E+04  0.25500000920E-02 0.  1.
       -2    1    3    3    0  502  0.17366299544E+04 -0.48619927135E+03 -0.27308812865E+03  0.18239655852E+04  0.25500000920E-02 0. -1.
</event>
<event>
 5   0  0.3810833E-07  0.3868649E+04  0.7818609E-02  0.8031581E-01
       -2   -1    0    0    0  501  0.00000000000E+00  0.00000000000E+00  0.26933660143E+04  0.26933660143E+04  0.25500000920E-02 0. -1.
        2   -1    0    0  501    0  0.00000000000E+00  0.00000000000E+00 -0.13891954015E+04  0.13891954015E+04  0.25500000920E-02 0.  1.
    10030    2    1    2    0    0  0.00000000000E+00  0.00000000000E+00  0.13041706128E+04  0.40825614158E+04  0.38686492121E+04 0.  0.
        3    1    3    3  502    0 -0.60657783625E+03  0.10626102793E+04 -0.92893157456E+03  0.15362262716E+04  0.10100000352E+00 0.  1.
       -3    1    3    3    0  502  0.60657783625E+03 -0.10626102793E+04  0.22331021874E+04  0.25463351442E+04  0.10100000352E+00 0. -1.
</event>
<event>
 5   0  0.1187925E-07  0.3869186E+04  0.7818609E-02  0.8031469E-01
       -1   -1    0    0    0  501  0.00000000000E+00  0.00000000000E+00  0.12563070903E+04  0.12563070903E+04  0.50400001928E-02 0. -1.
        1   -1    0    0  501    0  0.00000000000E+00  0.00000000000E+00 -0.29790879201E+04  0.29790879201E+04  0.50400001928E-02 0.  1.
    10030    2    1    2    0    0  0.00000000000E+00  0.00000000000E+00 -0.17227808298E+04  0.42353950104E+04  0.38691855870E+04 0.  0.
        2    1    3    3  502    0  0.69509944252E+03 -0.16221502239E+04  0.61582295433E+01  0.17648151483E+04  0.25500000920E-02 0. -1.
       -2    1    3    3    0  502 -0.69509944252E+03  0.16221502239E+04 -0.17289390593E+04  0.24705798621E+04  0.25500000920E-02 0.  1.
</event>
<event>
 5   0  0.1187925E-07  0.3352590E+04  0.7818609E-02  0.8149641E-01
        1   -1    0    0  501    0  0.00000000000E+00  0.00000000000E+00  0.28164180892E+04  0.28164180892E+04  0.50400001928E-02 0.  1.
       -1   -1    0    0    0  501  0.00000000000E+00  0.00000000000E+00 -0.99770876759E+03  0.99770876760E+03  0.50400001928E-02 0. -1.
    10030    2    1    2    0    0  0.00000000000E+00  0.00000000000E+00  0.18187093216E+04  0.38141268568E+04  0.33525900559E+04 0.  0.
        1    1    3    3  502    0  0.12634791050E+04  0.72551657136E+03 -0.33749844738E+02  0.14573581564E+04  0.50400001928E-02 0. -1.
       -1    1    3    3    0  502 -0.12634791050E+04 -0.72551657136E+03  0.18524591663E+04  0.23567687003E+04  0.50400001928E-02 0.  1.
</event>
<event>
 5   0  0.3680814E-07  0.3951553E+04  0.7818609E-02  0.8014392E-01
        2   -1    0    0  501    0  0.00000000000E+00  0.00000000000E+00  0.21082820336E+04  0.21082820336E+04  0.25500000920E-02 0. -1.
       -2   -1    0    0    0  501  0.00000000000E+00  0.00000000000E+00 -0.18515991287E+04  0.18515991287E+04  0.25500000920E-02 0.  1.
    10030    2    1    2    0    0  0.00000000000E+00  0.00000000000E+00  0.25668290483E+03  0.39598811623E+04  0.39515532017E+04 0.  0.
        1    1    3    3  502    0  0.75562974671E+02  0.18645530626E+04 -0.52219946295E+03  0.19377719592E+04  0.50400001928E-02 0.  1.
       -1    1    3    3    0  502 -0.75562974671E+02 -0.18645530626E+04  0.77888236779E+03  0.20221092031E+04  0.50400001928E-02 0. -1.
</event>
<event>
 5   0  0.1187925E-07  0.3855507E+04  0.7818609E-02  0.8034347E-01
       -3   -1    0    0    0  501  0.00000000000E+00  0.00000000000E+00  0.19664501078E+04  0.19664501104E+04  0.10100000352E+00 0.  1.
        3   -1    0    0  501    0  0.00000000000E+00  0.00000000000E+00 -0.18898185199E+04  0.18898185226E+04  0.10100000352E+00 0. -1.
    10030    2    1    2    0    0  0.00000000000E+00  0.00000000000E+00  0.76631587952E+02  0.38562686330E+04  0.38555071482E+04 0.  0.
        1    1    3    3  502    0  0.10029543575E+04  0.19568301927E+03  0.16732714936E+04  0.19606240789E+04  0.50400001928E-02 0.  1.
       -1    1    3    3    0  502 -0.10029543575E+04 -0.19568301927E+03 -0.15966399057E+04  0.18956445541E+04  0.50400001928E-02 0. -1.
</event>
<event>
 5   0  0.1187925E-07  0.3941269E+04  0.7818609E-02  0.8016500E-01
       -1   -1    0    0    0  501  0.00000000000E+00  0.00000000000E+00  0.27924591891E+04  0.27924591891E+04  0.50400001928E-02 0.  1.
        1   -1    0    0  501    0  0.00000000000E+00  0.00000000000E+00 -0.13906742822E+04  0.13906742822E+04  0.50400001928E-02 0. -1.
    10030    2    1    2    0    0  0.00000000000E+00  0.00000000000E+00  0.14017849069E+04  0.41831334713E+04  0.39412694293E+04 0.  0.
        5    1    3    3  502    0  0.12130615373E+03 -0.16855762189E+03 -0.13790219976E+04  0.13945790098E+04  0.46999998093E+01 0. -1.
       -5    1    3    3    0  502 -0.12130615373E+03  0.16855762189E+03  0.27808069045E+04  0.27885544615E+04  0.46999998093E+01 0.  1.
</event>
<event>
 5   0  0.3665303E-07  0.3616707E+04  0.7818609E-02  0.8086675E-01
       -2   -1    0    0    0  501  0.00000000000E+00  0.00000000000E+00  0.13016911361E+04  0.13016911361E+04  0.25500000920E-02 0. -1.
        2   -1    0    0  501    0  0.00000000000E+00  0.00000000000E+00 -0.25122265195E+04  0.25122265195E+04  0.25500000920E-02 0.  1.
    10030    2    1    2    0    0  0.00000000000E+00  0.00000000000E+00 -0.12105353833E+04  0.38139176556E+04  0.36167073381E+04 0.  0.
        2    1    3    3  502    0 -0.61930652130E+03  0.16720172241E+04 -0.92331018193E+03  0.20079053407E+04  0.25500000920E-02 0.  1.
       -2    1    3    3    0  502  0.61930652130E+03 -0.16720172241E+04 -0.28722520142E+03  0.18060123149E+04  0.25500000920E-02 0. -1.
</event>
<event>
 5   0  0.3665303E-07  0.3920568E+04  0.7818609E-02  0.8020765E-01
        2   -1    0    0  501    0  0.00000000000E+00  0.00000000000E+00  0.28023103846E+04  0.28023103846E+04  0.25500000920E-02 0. -1.
       -2   -1    0    0    0  501  0.00000000000E+00  0.00000000000E+00 -0.13712661156E+04  0.13712661156E+04  0.25500000920E-02 0.  1.
    10030    2    1    2    0    0  0.00000000000E+00  0.00000000000E+00  0.14310442690E+04  0.41735765002E+04  0.39205679567E+04 0.  0.
        2    1    3    3  502    0 -0.63062890784E+03  0.81055944037E+03  0.24930108643E+04  0.26962571456E+04  0.25500000920E-02 0. -1.
       -2    1    3    3    0  502  0.63062890784E+03 -0.81055944037E+03 -0.10619665953E+04  0.14773193545E+04  0.25500000920E-02 0.  1.
</event>
<event>
 5   0  0.1187925E-07  0.3392271E+04  0.7818609E-02  0.8139806E-01
       -1   -1    0    0    0  501  0.00000000000E+00  0.00000000000E+00  0.16587481263E+04  0.16587481263E+04  0.50400001928E-02 0. -1.
        1   -1    0    0  501    0  0.00000000000E+00  0.00000000000E+00 -0.17343652973E+04  0.17343652973E+04  0.50400001928E-02 0.  1.
    10030    2    1    2    0    0  0.00000000000E+00  0.00000000000E+00 -0.75617170912E+02  0.33931134236E+04  0.33922707364E+04 0.  0.
        3    1    3    3  502    0  0.36617988696E+03  0.80190895567E+03 -0.14872128865E+04  0.17288573865E+04  0.10100000352E+00 0.  1.
       -3    1    3    3    0  502 -0.36617988696E+03 -0.80190895567E+03  0.14115957156E+04  0.16642560372E+04  0.10100000352E+00 0. -1.
</event>
<event>
 5   0  0.3832389E-07  0.3947406E+04  0.7818609E-02  0.8015241E-01
       -2   -1    0    0    0  501  0.00000000000E+00  0.00000000000E+00  0.18716995732E+04  0.18716995732E+04  0.25500000920E-02 0. -1.
        2   -1    0    0  501    0  0.00000000000E+00  0.00000000000E+00 -0.20812649299E+04  0.20812649299E+04  0.25500000920E-02 0.  1.
    10030    2    1    2    0    0  0.00000000000E+00  0.00000000000E+00 -0.20956535674E+03  0.39529645032E+04  0.39474055688E+04 0.  0.
        5    1    3    3  502    0 -0.18253031603E+04 -0.25051986773E+03 -0.81358504040E+03  0.20140592194E+04  0.46999998093E+01 0.  1.
       -5    1    3    3    0  502  0.18253031603E+04  0.25051986773E+03  0.60401968366E+03  0.19389052838E+04  0.46999998093E+01 0. -1.
</event>
<event>
 5   0  0.1187925E-07  0.3935451E+04  0.7818609E-02  0.8017696E-01
        1   -1    0    0  501    0  0.00000000000E+00  0.00000000000E+00  0.18158703961E+04  0.18158703961E+04  0.50400001928E-02 0. -1.
       -1   -1    0    0    0  501  0.00000000000E+00  0.00000000000E+00 -0.21322800815E+04  0.21322800815E+04  0.50400001928E-02 0.  1.
    10030    2    1    2    0    0  0.00000000000E+00  0.00000000000E+00 -0.31640968539E+03  0.39481504776E+04  0.39354513217E+04 0.  0.
        4    1    3    3  502    0  0.17298998060E+03 -0.84401916015E+03  0.16165850775E+04  0.18318413692E+04  0.12699999809E+01 0. -1.
       -4    1    3    3    0  502 -0.17298998060E+03  0.84401916015E+03 -0.19329947629E+04  0.21163091084E+04  0.12699999809E+01 0.  1.
</event>
<event>
 5   0  0.3665303E-07  0.3931150E+04  0.7818609E-02  0.8018582E-01
        2   -1    0    0  501    0  0.00000000000E+00  0.00000000000E+00  0.12291583405E+04  0.12291583405E+04  0.25500000920E-02 0.  1.
       -2   -1    0    0    0  501  0.00000000000E+00  0.00000000000E+00 -0.31431961207E+04  0.31431961207E+04  0.25500000920E-02 0. -1.
    10030    2    1    2    0    0  0.00000000000E+00  0.00000000000E+00 -0.19140377802E+04  0.43723544612E+04  0.39311503291E+04 0.  0.
        2    1    3    3  502    0 -0.20985682469E+02  0.14570621200E+04 -0.24241612116E+04  0.28284320746E+04  0.25500000920E-02 0. -1.
       -2    1    3    3    0  502  0.20985682469E+02 -0.14570621200E+04  0.51012343141E+03  0.15439223866E+04  0.25500000920E-02 0.  1.
</event>
<event>
 5   0  0.1187925E-07  0.3258478E+04  0.7818609E-02  0.8173542E-01
       -1   -1    0    0    0  501  0.00000000000E+00  0.00000000000E+00  0.21371362796E+04  0.21371362796E+04  0.50400001928E-02 0.  1.
        1   -1    0    0  501    0  0.00000000000E+00  0.00000000000E+00 -0.12420451969E+04  0.12420451969E+04  0.50400001928E-02 0. -1.
    10030    2    1    2    0    0  0.00000000000E+00  0.00000000000E+00  0.89509108275E+03  0.33791814765E+04  0.32584780811E+04 0.  0.
        5    1    3    3  502    0 -0.14755873826E+04 -0.54077655688E+03  0.19785852062E+01  0.15715671837E+04  0.46999998093E+01 0. -1.
       -5    1    3    3    0  502  0.14755873826E+04  0.54077655688E+03  0.89311249755E+03  0.18076142928E+04  0.46999998093E+01 0.  1.
</event>
<event>
 5   0  0.1187925E-07  0.3810680E+04  0.7818609E-02  0.8043867E-01
       -3   -1    0    0    0  501  0.00000000000E+00  0.00000000000E+00  0.13360093285E+04  0.13360093323E+04  0.10100000352E+00 0.  1.
        3   -1    0    0  501    0  0.00000000000E+00  0.00000000000E+00 -0.27172867408E+04  0.27172867427E+04  0.10100000352E+00 0. -1.
    10030    2    1    2    0    0  0.00000000000E+00  0.00000000000E+00 -0.13812774123E+04  0.40532960750E+04  0.38106799632E+04 0.  0.
        1    1    3    3  502    0 -0.55945695934E+03 -0.84105782699E+03 -0.24090295610E+04  0.26122392278E+04  0.50400001928E-02 0. -1.
       -1    1    3    3    0  502  0.55945695934E+03  0.84105782699E+03  0.10277521487E+04  0.14410568472E+04  0.50400001928E-02 0.  1.
</event>
<event>
 5   0  0.1187925E-07  0.3869926E+04  0.7818609E-02  0.8031313E-01
        1   -1    0    0  501    0  0.00000000000E+00  0.00000000000E+00  0.13907300892E+04  0.13907300892E+04  0.50400001928E-02 0.  1.
       -1   -1    0    0    0  501  0.00000000000E+00  0.00000000000E+00 -0.26921705731E+04  0.26921705731E+04  0.50400001928E-02 0. -1.
    10030    2    1    2    0    0  0.00000000000E+00  0.00000000000E+00 -0.13014404839E+04  0.40829006623E+04  0.38699264185E+04 0.  0.
        2    1    3    3  502    0  0.86283723927E+03  0.11179933081E+04 -0.20462724886E+04  0.24862880437E+04  0.25500000920E-02 0. -1.
       -2    1    3    3    0  502 -0.86283723927E+03 -0.11179933081E+04  0.74483200476E+03  0.15966126186E+04  0.25500000920E-02 0.  1.
</event>
<event>
 5   0  0.1187925E-07  0.3933378E+04  0.7818609E-02  0.8018123E-01
        1   -1    0    0  501    0  0.00000000000E+00  0.00000000000E+00  0.22223304026E+04  0.22223304026E+04  0.50400001928E-02 0.  1.
       -1   -1    0    0    0  501  0.00000000000E+00  0.00000000000E+00 -0.17404544467E+04  0.17404544467E+04  0.50400001928E-02 0. -1.
    10030    2    1    2    0    0  0.00000000000E+00  0.00000000000E+00  0.48187595596E+03  0.39627848493E+04  0.39333775976E+04 0.  0.
        5    1    3    3  502    0  0.12134451671E+04 -0.86065059712E+03  0.15368964670E+04  0.21389814080E+04  0.46999998093E+01 0.  1.
       -5    1    3    3    0  502 -0.12134451671E+04  0.86065059712E+03 -0.10550205110E+04  0.18238034413E+04  0.46999998093E+01 0. -1.
</event>
<event>
 5   0  0.3665303E-07  0.3889840E+04  0.7818609E-02  0.8027146E-01
        2   -1    0    0  501    0  0.00000000000E+00  0.00000000000E+00  0.17211735889E+04  0.17211735889E+04  0.25500000920E-02 0. -1.
       -2   -1    0    0    0  501  0.00000000000E+00  0.00000000000E+00 -0.21977524407E+04  0.21977524407E+04  0.25500000920E-02 0.  1.
    10030    2    1    2    0    0  0.00000000000E+00  0.00000000000E+00 -0.47657885185E+03  0.39189260296E+04  0.38898398197E+04 0.  0.
        2    1    3    3  502    0  0.15870272307E+04 -0.14343435716E+03 -0.13617441006E+04  0.20960858382E+04  0.25500000920E-02 0.  1.
       -2    1    3    3    0  502 -0.15870272307E+04  0.14343435716E+03  0.88516524873E+03  0.18228401914E+04  0.25500000920E-02 0. -1.
</event>
<event>
 5   0  0.3665303E-07  0.3878893E+04  0.7818609E-02  0.8029433E-01
       -2   -1    0    0    0  501  0.00000000000E+00  0.00000000000E+00  0.26805060102E+04  0.26805060102E+04  0.25500000920E-02 0. -1.
        2   -1    0    0  501    0  0.00000000000E+00  0.00000000000E+00 -0.14032619378E+04  0.14032619378E+04  0.25500000920E-02 0.  1.
    10030    2    1    2    0    0  0.00000000000E+00  0.00000000000E+00  0.12772440724E+04  0.40837679480E+04  0.38788926554E+04 0.  0.
        2    1    3    3  502    0  0.17624902602E+04 -0.60172004852E+03  0.12085196406E+04  0.22201258199E+04  0.25500000920E-02 0. -1.
       -2    1    3    3    0  502 -0.17624902602E+04  0.60172004852E+03  0.68724431717E+02  0.18636421281E+04  0.25500000920E-02 0.  1.
</event>
<event>
 5   0  0.1187925E-07  0.3875934E+04  0.7818609E-02  0.8030053E-01
       -1   -1    0    0    0  501  0.00000000000E+00  0.00000000000E+00  0.16000805837E+04  0.16000805838E+04  0.50400001928E-02 0. -1.
        1   -1    0    0  501    0  0.00000000000E+00  0.00000000000E+00 -0.23472041227E+04  0.23472041227E+04  0.50400001928E-02 0.  1.
    10030    2    1    2    0    0  0.00000000000E+00  0.00000000000E+00 -0.74712353899E+03  0.39472847065E+04  0.38759338193E+04 0.  0.
        4    1    3    3  502    0  0.14151639567E+04  0.52144444262E+03  0.86585491835E+03  0.17390513747E+04  0.12699999809E+01 0. -1.
       -4    1    3    3    0  502 -0.14151639567E+04 -0.52144444262E+03 -0.16129784573E+04  0.22082333319E+04  0.12699999809E+01 0.  1.
</event>
<event>
 5   0  0.3610483E-07  0.3881886E+04  0.7818609E-02  0.8028807E-01
       -2   -1    0    0    0  501  0.00000000000E+00  0.00000000000E+00  0.14626723833E+04  0.14626723833E+04  0.25500000920E-02 0.  1.
        2   -1    0    0  501    0  0.00000000000E+00  0.00000000000E+00 -0.25756006754E+04  0.25756006754E+04  0.25500000920E-02 0. -1.
    10030    2    1    2    0    0  0.00000000000E+00  0.00000000000E+00 -0.11129282921E+04  0.40382730586E+04  0.38818861282E+04 0.  0.
        4    1    3    3  502    0  0.14646157350E+04  0.49201568969E+02 -0.18804255307E+04  0.23840138076E+04  0.12699999809E+01 0. -1.
       -4    1    3    3    0  502 -0.14646157350E+04 -0.49201568969E+02  0.76749723856E+03  0.16542592510E+04  0.12699999809E+01 0.  1.
</event>
<event>
 5   0  0.1187925E-07  0.3826362E+04  0.7818609E-02  0.8040521E-01
        3   -1    0    0  501    0  0.00000000000E+00  0.00000000000E+00  0.16123094317E+04  0.16123094349E+04  0.10100000352E+00 0. -1.
       -3   -1    0    0    0  501  0.00000000000E+00  0.00000000000E+00 -0.22701980899E+04  0.22701980922E+04  0.10100000352E+00 0.  1.
    10030    2    1    2    0    0  0.00000000000E+00  0.00000000000E+00 -0.65788865823E+03  0.38825075270E+04  0.38263621380E+04 0.  0.
        1    1    3    3  502    0  0.51104590741E+03 -0.17502019993E+04 -0.91700581010E+03  0.20409004419E+04  0.50400001928E-02 0.  1.
       -1    1    3    3    0  502 -0.51104590741E+03  0.17502019993E+04  0.25911715187E+03  0.18416070852E+04  0.50400001928E-02 0. -1.
</event>
<event>
 5   0  0.1187925E-07  0.3162468E+04  0.7818609E-02  0.8198800E-01
       -1   -1    0    0    0  501  0.00000000000E+00  0.00000000000E+00  0.13855146351E+04  0.13855146351E+04  0.50400001928E-02 0. -1.
        1   -1    0    0  501    0  0.00000000000E+00  0.00000000000E+00 -0.18046008900E+04  0.18046008900E+04  0.50400001928E-02 0.  1.
    10030    2    1    2    0    0  0.00000000000E+00  0.00000000000E+00 -0.41908625492E+03  0.31901155251E+04  0.31624679879E+04 0.  0.
        3    1    3    3  502    0 -0.13444516454E+04 -0.82608536831E+03 -0.31208649800E+03  0.16085289102E+04  0.10100000352E+00 0. -1.
       -3    1    3    3    0  502  0.13444516454E+04  0.82608536831E+03 -0.10699975692E+03  0.15815866150E+04  0.10100000352E+00 0.  1.
</event>
<event>
 5   0  0.3665303E-07  0.3960936E+04  0.7818609E-02  0.8012474E-01
        2   -1    0    0  501    0  0.00000000000E+00  0.00000000000E+00  0.20522276357E+04  0.20522276357E+04  0.25500000920E-02 0. -1.
       -2   -1    0    0    0  501  0.00000000000E+00  0.00000000000E+00 -0.19112180305E+04  0.19112180305E+04  0.25500000920E-02 0.  1.
    10030    2    1    2    0    0  0.00000000000E+00  0.00000000000E+00  0.14100960519E+03  0.39634456662E+04  0.39609364852E+04 0.  0.
        2    1    3    3  502    0  0.18829443781E+04  0.55426709048E+03 -0.19341011357E+03  0.19723333924E+04  0.25500000920E-02 0. -1.
       -2    1    3    3    0  502 -0.18829443781E+04 -0.55426709048E+03  0.33441971876E+03  0.19911122738E+04  0.25500000920E-02 0.  1.
</event>
<event>
 5   0  0.1187925E-07  0.3882209E+04  0.7818609E-02  0.8028740E-01
       -1   -1    0    0    0  501  0.00000000000E+00  0.00000000000E+00  0.19413607519E+04  0.19413607519E+04  0.50400001928E-02 0. -1.
        1   -1    0    0  501    0  0.00000000000E+00  0.00000000000E+00 -0.19408484576E+04  0.19408484576E+04  0.50400001928E-02 0.  1.
    10030    2    1    2    0    0  0.00000000000E+00  0.00000000000E+00  0.51229432603E+00  0.38822092095E+04  0.38822091757E+04 0.  0.
        1    1    3    3  502    0  0.70196223751E+03  0.10355270719E+04 -0.14839337867E+04  0.19409087518E+04  0.50400001928E-02 0.  1.
       -1    1    3    3    0  502 -0.70196223751E+03 -0.10355270719E+04  0.14844460810E+04  0.19413004577E+04  0.50400001928E-02 0. -1.
</event>
<event>
 5   0  0.3665303E-07  0.3919221E+04  0.7818609E-02  0.8021044E-01
       -2   -1    0    0    0  501  0.00000000000E+00  0.00000000000E+00  0.16465702241E+04  0.16465702241E+04  0.25500000920E-02 0.  1.
        2   -1    0    0  501    0  0.00000000000E+00  0.00000000000E+00 -0.23321643823E+04  0.23321643823E+04  0.25500000920E-02 0. -1.
    10030    2    1    2    0    0  0.00000000000E+00  0.00000000000E+00 -0.68559415827E+03  0.39787346064E+04  0.39192205498E+04 0.  0.
        2    1    3    3  502    0 -0.14473098978E+04 -0.13181847788E+04 -0.43219898125E+03  0.20047725583E+04  0.25500000920E-02 0. -1.
       -2    1    3    3    0  502  0.14473098978E+04  0.13181847788E+04 -0.25339517702E+03  0.19739620480E+04  0.25500000920E-02 0.  1.
</event>
<event>
 5   0  0.3665303E-07  0.3971919E+04  0.7818609E-02  0.8010235E-01
        2   -1    0    0  501    0  0.00000000000E+00  0.00000000000E+00  0.32122292830E+04  0.32122292830E+04  0.25500000920E-02 0. -1.
       -2   -1    0    0    0  501  0.00000000000E+00  0.00000000000E+00 -0.12278185732E+04  0.12278185732E+04  0.25500000920E-02 0.  1.
    10030    2    1    2    0    0  0.00000000000E+00  0.00000000000E+00  0.19844107099E+04  0.44400478562E+04  0.39719188184E+04 0.  0.
        2    1    3    3  502    0  0.10734257433E+04  0.18592182132E+03 -0.86398876879E+03  0.13904266765E+04  0.25500000920E-02 0.  1.
       -2    1    3    3    0  502 -0.10734257433E+04 -0.18592182132E+03  0.28483994787E+04  0.30496211798E+04  0.25500000920E-02 0. -1.
</event>
<event>
 5   0  0.1187925E-07  0.3037528E+04  0.7818609E-02  0.8233095E-01
       -1   -1    0    0    0  501  0.00000000000E+00  0.00000000000E+00  0.15004333949E+04  0.15004333949E+04  0.50400001928E-02 0.  1.
        1   -1    0    0  501    0  0.00000000000E+00  0.00000000000E+00 -0.15373182058E+04  0.15373182058E+04  0.50400001928E-02 0. -1.
    10030    2    1    2    0    0  0.00000000000E+00  0.00000000000E+00 -0.36884810964E+02  0.30377516007E+04  0.30375276621E+04 0.  0.
        3    1    3    3  502    0  0.62231000203E+03  0.12176306461E+04 -0.67936133819E+03  0.15269007718E+04  0.10100000352E+00 0. -1.
       -3    1    3    3    0  502 -0.62231000203E+03 -0.12176306461E+04  0.64247652723E+03  0.15108508289E+04  0.10100000352E+00 0.  1.
</event>
<event>
 5   0  0.1187925E-07  0.3871893E+04  0.7818609E-02  0.8030900E-01
        1   -1    0    0  501    0  0.00000000000E+00  0.00000000000E+00  0.20163905318E+04  0.20163905318E+04  0.50400001928E-02 0.  1.
       -1   -1    0    0    0  501  0.00000000000E+00  0.00000000000E+00 -0.18587118331E+04  0.18587118331E+04  0.50400001928E-02 0. -1.
    10030    2    1    2    0    0  0.00000000000E+00  0.00000000000E+00  0.15767869868E+03  0.38751023649E+04  0.38718930469E+04 0.  0.
        1    1    3    3  502    0  0.15368767696E+04  0.59192142345E+03  0.10972916673E+04  0.19789922132E+04  0.50400001928E-02 0.  1.
       -1    1    3    3    0  502 -0.15368767696E+04 -0.59192142345E+03 -0.93961296864E+03  0.18961101517E+04  0.50400001928E-02 0. -1.
</event>
<event>
 5   0  0.1187925E-07  0.2833210E+04  0.7818609E-02  0.8293032E-01
       -1   -1    0    0    0  501  0.00000000000E+00  0.00000000000E+00  0.98671660902E+03  0.98671660903E+03  0.50400001928E-02 0. -1.
        1   -1    0    0  501    0  0.00000000000E+00  0.00000000000E+00 -0.20337849195E+04  0.20337849195E+04  0.50400001928E-02 0.  1.
    10030    2    1    2    0    0  0.00000000000E+00  0.00000000000E+00 -0.10470683105E+04  0.30205015285E+04  0.28332097411E+04 0.  0.
        3    1    3    3  502    0 -0.53163257230E+03 -0.33307532562E+03 -0.18776132535E+04  0.19796474192E+04  0.10100000352E+00 0.  1.
       -3    1    3    3    0  502  0.53163257230E+03  0.33307532562E+03  0.83054494297E+03  0.10408541094E+04  0.10100000352E+00 0. -1.
</event>
<event>
 5   0  0.1187925E-07  0.3241779E+04  0.7818609E-02  0.8177870E-01
       -3   -1    0    0    0  501  0.00000000000E+00  0.00000000000E+00  0.14114501083E+04  0.14114501119E+04  0.10100000352E+00 0. -1.
        3   -1    0    0  501    0  0.00000000000E+00  0.00000000000E+00 -0.18614073196E+04  0.18614073223E+04  0.10100000352E+00 0.  1.
    10030    2    1    2    0    0  0.00000000000E+00  0.00000000000E+00 -0.44995721132E+03  0.32728574342E+04  0.32417794948E+04 0.  0.
        5    1    3    3  502    0  0.77130497465E+03 -0.67353315296E+03  0.10435313005E+04  0.14620321259E+04  0.46999998093E+01 0. -1.
       -5    1    3    3    0  502 -0.77130497465E+03  0.67353315296E+03 -0.14934885119E+04  0.18108253083E+04  0.46999998093E+01 0.  1.
</event>
<event>
 5   0  0.1187925E-07  0.3855926E+04  0.7818609E-02  0.8034259E-01
       -1   -1    0    0    0  501  0.00000000000E+00  0.00000000000E+00  0.17569337975E+04  0.17569337976E+04  0.50400001928E-02 0.  1.
        1   -1    0    0  501    0  0.00000000000E+00  0.00000000000E+00 -0.21156410304E+04  0.21156410304E+04  0.50400001928E-02 0. -1.
    10030    2    1    2    0    0  0.00000000000E+00  0.00000000000E+00 -0.35870723289E+03  0.38725748280E+04  0.38559259484E+04 0.  0.
        4    1    3    3  502    0 -0.11406251347E+04  0.98458278894E+02 -0.17372831613E+04  0.20805946568E+04  0.12699999809E+01 0. -1.
       -4    1    3    3    0  502  0.11406251347E+04 -0.98458278894E+02  0.13785759284E+04  0.17919801712E+04  0.12699999809E+01 0.  1.
</event>
<event>
 5   0  0.1187925E-07  0.3843478E+04  0.7818609E-02  0.8036889E-01
        1   -1    0    0  501    0  0.00000000000E+00  0.00000000000E+00  0.25904953090E+04  0.25904953090E+04  0.50400001928E-02 0.  1.
       -1   -1    0    0    0  501  0.00000000000E+00  0.00000000000E+00 -0.14256270714E+04  0.14256270714E+04  0.50400001928E-02 0. -1.
    10030    2    1    2    0    0  0.00000000000E+00  0.00000000000E+00  0.11648682375E+04  0.40161223804E+04  0.38434777173E+04 0.  0.
        4    1    3    3  502    0  0.14016549833E+04 -0.11557565319E+04  0.12372146446E+04  0.21979789678E+04  0.12699999809E+01 0.  1.
       -4    1    3    3    0  502 -0.14016549833E+04  0.11557565319E+04 -0.72346407050E+02  0.18181434126E+04  0.12699999809E+01 0. -1.
</event>
<event>
 5   0  0.3680814E-07  0.2958632E+04  0.7818609E-02  0.8255643E-01
       -2   -1    0    0    0  501  0.00000000000E+00  0.00000000000E+00  0.11564065564E+04  0.11564065564E+04  0.25500000920E-02 0. -1.
        2   -1    0    0  501    0  0.00000000000E+00  0.00000000000E+00 -0.18923935521E+04  0.18923935521E+04  0.25500000920E-02 0.  1.
    10030    2    1    2    0    0  0.00000000000E+00  0.00000000000E+00 -0.73598699575E+03  0.30488001085E+04  0.29586323266E+04 0.  0.
        1    1    3    3  502    0 -0.18866119751E+03  0.91226512991E+03 -0.15521696157E+04  0.18102627519E+04  0.50400001928E-02 0.  1.
       -1    1    3    3    0  502  0.18866119751E+03 -0.91226512991E+03  0.81618261999E+03  0.12385373567E+04  0.50400001928E-02 0. -1.
</event>
<event>
 5   0  0.3810833E-07  0.3816849E+04  0.7818609E-02  0.8042549E-01
        2   -1    0    0  501    0  0.00000000000E+00  0.00000000000E+00  0.18253758926E+04  0.18253758926E+04  0.25500000920E-02 0. -1.
       -2   -1    0    0    0  501  0.00000000000E+00  0.00000000000E+00 -0.19952513048E+04  0.19952513048E+04  0.25500000920E-02 0.  1.
    10030    2    1    2    0    0  0.00000000000E+00  0.00000000000E+00 -0.16987541224E+03  0.38206271974E+04  0.38168487690E+04 0.  0.
        3    1    3    3  502    0 -0.15918940324E+04  0.73977799561E+03  0.66459292093E+03  0.18769874411E+04  0.10100000352E+00 0. -1.
       -3    1    3    3    0  502  0.15918940324E+04 -0.73977799561E+03 -0.83446833317E+03  0.19436397563E+04  0.10100000352E+00 0.  1.
</event>
<event>
 5   0  0.1187925E-07  0.3916500E+04  0.7818609E-02  0.8021606E-01
       -3   -1    0    0    0  501  0.00000000000E+00  0.00000000000E+00  0.14941735123E+04  0.14941735157E+04  0.10100000352E+00 0.  1.
        3   -1    0    0  501    0  0.00000000000E+00  0.00000000000E+00 -0.25664639671E+04  0.25664639690E+04  0.10100000352E+00 0. -1.
    10030    2    1    2    0    0  0.00000000000E+00  0.00000000000E+00 -0.10722904548E+04  0.40606374847E+04  0.39164997080E+04 0.  0.
        1    1    3    3  502    0 -0.32218944806E+03  0.17224066875E+03  0.14585267256E+04  0.15035867443E+04  0.50400001928E-02 0.  1.
       -1    1    3    3    0  502  0.32218944806E+03 -0.17224066875E+03 -0.25308171804E+04  0.25570507404E+04  0.50400001928E-02 0. -1.
</event>
<event>
 5   0  0.3665303E-07  0.3886270E+04  0.7818609E-02  0.8027891E-01
        2   -1    0    0  501    0  0.00000000000E+00  0.00000000000E+00  0.19540280731E+04  0.19540280731E+04  0.25500000920E-02 0. -1.
       -2   -1    0    0    0  501  0.00000000000E+00  0.00000000000E+00 -0.19323030627E+04  0.19323030627E+04  0.25500000920E-02 0.  1.
    10030    2    1    2    0    0  0.00000000000E+00  0.00000000000E+00  0.21725010381E+02  0.38863311358E+04  0.38862704128E+04 0.  0.
        2    1    3    3  502    0  0.18289554193E+04 -0.62107776224E+03 -0.20117598796E+03  0.19419802498E+04  0.25500000920E-02 0.  1.
       -2    1    3    3    0  502 -0.18289554193E+04  0.62107776224E+03  0.22290099834E+03  0.19443508860E+04  0.25500000920E-02 0. -1.
</event>
<event>
 5   0  0.3610483E-07  0.3807339E+04  0.7818609E-02  0.8044582E-01
       -2   -1    0    0    0  501  0.00000000000E+00  0.00000000000E+00  0.16784625678E+04  0.16784625679E+04  0.25500000920E-02 0. -1.
        2   -1    0    0  501    0  0.00000000000E+00  0.00000000000E+00 -0.21590934637E+04  0.21590934637E+04  0.25500000920E-02 0.  1.
    10030    2    1    2    0    0  0.00000000000E+00  0.00000000000E+00 -0.48063089587E+03  0.38375560316E+04  0.38073389969E+04 0.  0.
        4    1    3    3  502    0  0.14302365266E+04  0.92282278788E+03 -0.10995939120E+04  0.20263974941E+04  0.12699999809E+01 0.  1.
       -4    1    3    3    0  502 -0.14302365266E+04 -0.92282278788E+03  0.61896301614E+03  0.18111585375E+04  0.12699999809E+01 0. -1.
</event>
<event>
 5   0  0.1187925E-07  0.3731018E+04  0.7818609E-02  0.8061122E-01
       -1   -1    0    0    0  501  0.00000000000E+00  0.00000000000E+00  0.15258485084E+04  0.15258485084E+04  0.50400001928E-02 0.  1.
        1   -1    0    0  501    0  0.00000000000E+00  0.00000000000E+00 -0.22807789844E+04  0.22807789844E+04  0.50400001928E-02 0. -1.
    10030    2    1    2    0    0  0.00000000000E+00  0.00000000000E+00 -0.75493047606E+03  0.38066274928E+04  0.37310176689E+04 0.  0.
        4    1    3    3  502    0  0.97559343763E+03  0.13661201288E+03  0.12388345662E+04  0.15827691218E+04  0.12699999809E+01 0.  1.
       -4    1    3    3    0  502 -0.97559343763E+03 -0.13661201288E+03 -0.19937650423E+04  0.22238583710E+04  0.12699999809E+01 0. -1.
</event>
<event>
 5   0  0.3832389E-07  0.3537022E+04  0.7818609E-02  0.8105072E-01
       -2   -1    0    0    0  501  0.00000000000E+00  0.00000000000E+00  0.16999869070E+04  0.16999869070E+04  0.25500000920E-02 0. -1.
        2   -1    0    0  501    0  0.00000000000E+00  0.00000000000E+00 -0.18397970517E+04  0.18397970517E+04  0.25500000920E-02 0.  1.
    10030    2    1    2    0    0  0.00000000000E+00  0.00000000000E+00 -0.13981014472E+03  0.35397839587E+04  0.35370218543E+04 0.  0.
        5    1    3    3  502    0  0.14404784528E+04  0.22012503413E+03  0.93296309685E+03  0.17302818943E+04  0.46999998093E+01 0. -1.
       -5    1    3    3    0  502 -0.14404784528E+04 -0.22012503413E+03 -0.10727732416E+04  0.18095020645E+04  0.46999998093E+01 0.  1.
</event>
<event>
 5   0  0.3680814E-07  0.3534100E+04  0.7818609E-02  0.8105756E-01
        2   -1    0    0  501    0  0.00000000000E+00  0.00000000000E+00  0.21239198437E+04  0.21239198437E+04  0.25500000920E-02 0. -1.
       -2   -1    0    0    0  501  0.00000000000E+00  0.00000000000E+00 -0.14701429010E+04  0.14701429010E+04  0.25500000920E-02 0.  1.
    10030    2    1    2    0    0  0.00000000000E+00  0.00000000000E+00  0.65377694270E+03  0.35940627447E+04  0.35340999876E+04 0.  0.
        1    1    3    3  502    0 -0.56839414446E+03  0.15139313597E+04 -0.39752156187E+03  0.16652577751E+04  0.50400001928E-02 0. -1.
       -1    1    3    3    0  502  0.56839414446E+03 -0.15139313597E+04  0.10512985046E+04  0.19288049697E+04  0.50400001928E-02 0.  1.
</event>
<event>
 5   0  0.1187925E-07  0.3883108E+04  0.7818609E-02  0.8028552E-01
        1   -1    0    0  501    0  0.00000000000E+00  0.00000000000E+00  0.20430568677E+04  0.20430568678E+04  0.50400001928E-02 0. -1.
       -1   -1    0    0    0  501  0.00000000000E+00  0.00000000000E+00 -0.18450935777E+04  0.18450935777E+04  0.50400001928E-02 0.  1.
    10030    2    1    2    0    0  0.00000000000E+00  0.00000000000E+00  0.19796329003E+03  0.38881504455E+04  0.38831075729E+04 0.  0.
        4    1    3    3  502    0  0.45099271303E+03  0.20564924988E+03  0.19786364722E+04  0.20397769346E+04  0.12699999809E+01 0. -1.
       -4    1    3    3    0  502 -0.45099271303E+03 -0.20564924988E+03 -0.17806731821E+04  0.18483735109E+04  0.12699999809E+01 0.  1.
</event>
<event>
 5   0  0.1187925E-07  0.3875325E+04  0.7818609E-02  0.8030181E-01
        1   -1    0    0  501    0  0.00000000000E+00  0.00000000000E+00  0.13739103714E+04  0.13739103714E+04  0.50400001928E-02 0.  1.
       -1   -1    0    0    0  501  0.00000000000E+00  0.00000000000E+00 -0.27327376110E+04  0.27327376110E+04  0.50400001928E-02 0. -1.
    10030    2    1    2    0    0  0.00000000000E+00  0.00000000000E+00 -0.13588272396E+04  0.41066479824E+04  0.38753253004E+04 0.  0.
        3    1    3    3  502    0 -0.77647539615E+03  0.49137388731E+03  0.11283381959E+04  0.14551664622E+04  0.10100000352E+00 0.  1.
       -3    1    3    3    0  502  0.77647539615E+03 -0.49137388731E+03 -0.24871654356E+04  0.26514815202E+04  0.10100000352E+00 0. -1.
</event>
<event>
 5   0  0.3610483E-07  0.3706582E+04  0.7818609E-02  0.8066505E-01
        2   -1    0    0  501    0  0.00000000000E+00  0.00000000000E+00  0.27556209857E+04  0.27556209857E+04  0.25500000920E-02 0. -1.
       -2   -1    0    0    0  501  0.00000000000E+00  0.00000000000E+00 -0.12464292561E+04  0.12464292561E+04  0.25500000920E-02 0.  1.
    10030    2    1    2    0    0  0.00000000000E+00  0.00000000000E+00  0.15091917295E+04  0.40020502418E+04  0.37065815061E+04 0.  0.
        4    1    3    3  502    0  0.63541569179E+03 -0.16217666903E+03 -0.11169674637E+04  0.12952498992E+04  0.12699999809E+01 0.  1.
       -4    1    3    3    0  502 -0.63541569179E+03  0.16217666903E+03  0.26261591933E+04  0.27068003426E+04  0.12699999809E+01 0. -1.
</event>
<event>
 5   0  0.3810833E-07  0.3890994E+04  0.7818609E-02  0.8026905E-01
       -2   -1    0    0    0  501  0.00000000000E+00  0.00000000000E+00  0.21526418087E+04  0.21526418087E+04  0.25500000920E-02 0.  1.
        2   -1    0    0  501    0  0.00000000000E+00  0.00000000000E+00 -0.17582855912E+04  0.17582855912E+04  0.25500000920E-02 0. -1.
    10030    2    1    2    0    0  0.00000000000E+00  0.00000000000E+00  0.39435621753E+03  0.39109273999E+04  0.38909942561E+04 0.  0.
        3    1    3    3  502    0  0.10850074618E+04 -0.15898258137E+04  0.48177480836E+03  0.19841608519E+04  0.10100000352E+00 0. -1.
       -3    1    3    3    0  502 -0.10850074618E+04  0.15898258137E+04 -0.87418590835E+02  0.19267665480E+04  0.10100000352E+00 0.  1.
</event>
<event>
 5   0  0.3665303E-07  0.3931313E+04  0.7818609E-02  0.8018548E-01
        2   -1    0    0  501    0  0.00000000000E+00  0.00000000000E+00  0.26639089615E+04  0.26639089615E+04  0.25500000920E-02 0. -1.
       -2   -1    0    0    0  501  0.00000000000E+00  0.00000000000E+00 -0.14504270071E+04  0.14504270071E+04  0.25500000920E-02 0.  1.
    10030    2    1    2    0    0  0.00000000000E+00  0.00000000000E+00  0.12134819544E+04  0.41143359685E+04  0.39313130133E+04 0.  0.
        2    1    3    3  502    0 -0.14354323705E+04 -0.12837600057E+04  0.19431370071E+03  0.19355267130E+04  0.25500000920E-02 0. -1.
       -2    1    3    3    0  502  0.14354323705E+04  0.12837600057E+04  0.10191682537E+04  0.21788092555E+04  0.25500000920E-02 0.  1.
</event>
<event>
 5   0  0.3665303E-07  0.3916839E+04  0.7818609E-02  0.8021536E-01
        2   -1    0    0  501    0  0.00000000000E+00  0.00000000000E+00  0.26772224936E+04  0.26772224936E+04  0.25500000920E-02 0. -1.
       -2   -1    0    0    0  501  0.00000000000E+00  0.00000000000E+00 -0.14326065140E+04  0.14326065140E+04  0.25500000920E-02 0.  1.
    10030    2    1    2    0    0  0.00000000000E+00  0.00000000000E+00  0.12446159796E+04  0.41098290076E+04  0.39168387170E+04 0.  0.
        2    1    3    3  502    0 -0.57744502835E+03  0.18585525851E+04  0.85158270205E+03  0.21243477990E+04  0.25500000920E-02 0.  1.
       -2    1    3    3    0  502  0.57744502835E+03 -0.18585525851E+04  0.39303327759E+03  0.19854812086E+04  0.25500000920E-02 0. -1.
</event>
<event>
 5   0  0.3610483E-07  0.3910142E+04  0.7818609E-02  0.8022923E-01
        2   -1    0    0  501    0  0.00000000000E+00  0.00000000000E+00  0.14079604825E+04  0.14079604825E+04  0.25500000920E-02 0. -1.
       -2   -1    0    0    0  501  0.00000000000E+00  0.00000000000E+00 -0.27147794354E+04  0.27147794354E+04  0.25500000920E-02 0.  1.
    10030    2    1    2    0    0  0.00000000000E+00  0.00000000000E+00 -0.13068189529E+04  0.41227399178E+04  0.39101417691E+04 0.  0.
        4    1    3    3  502    0  0.54424428478E+03 -0.14588042414E+04 -0.19000616404E+04  0.24565316009E+04  0.12699999809E+01 0.  1.
       -4    1    3    3    0  502 -0.54424428478E+03  0.14588042414E+04  0.59324268746E+03  0.16662083169E+04  0.12699999809E+01 0. -1.
</event>
<event>
 5   0  0.3832389E-07  0.3291702E+04  0.7818609E-02  0.8165010E-01
        2   -1    0    0  501    0  0.00000000000E+00  0.00000000000E+00  0.14312943770E+04  0.14312943770E+04  0.25500000920E-02 0. -1.
       -2   -1    0    0    0  501  0.00000000000E+00  0.00000000000E+00 -0.18925700751E+04  0.18925700751E+04  0.25500000920E-02 0.  1.
    10030    2    1    2    0    0  0.00000000000E+00  0.00000000000E+00 -0.46127569803E+03  0.33238644521E+04  0.32917016308E+04 0.  0.
        5    1    3    3  502    0  0.43810030447E+03  0.83575113676E+03  0.11310152415E+04  0.14729661930E+04  0.46999998093E+01 0. -1.
       -5    1    3    3    0  502 -0.43810030447E+03 -0.83575113676E+03 -0.15922909395E+04  0.18508982591E+04  0.46999998093E+01 0.  1.
</event>
<event>
 5   0  0.3832389E-07  0.3836561E+04  0.7818609E-02  0.8038354E-01
        2   -1    0    0  501    0  0.00000000000E+00  0.00000000000E+00  0.16395443834E+04  0.16395443834E+04  0.25500000920E-02 0. -1.
       -2   -1    0    0    0  501  0.00000000000E+00  0.00000000000E+00 -0.22444036703E+04  0.22444036703E+04  0.25500000920E-02 0.  1.
    10030    2    1    2    0    0  0.00000000000E+00  0.00000000000E+00 -0.60485928683E+03  0.38839480537E+04  0.38365606638E+04 0.  0.
        5    1    3    3  502    0  0.44557676640E+03  0.15491346781E+04  0.75032854786E+03  0.17780247258E+04  0.46999998093E+01 0. -1.
       -5    1    3    3    0  502 -0.44557676640E+03 -0.15491346781E+04 -0.13551878347E+04  0.21059233279E+04  0.46999998093E+01 0.  1.
</event>
<event>
 5   0  0.3810833E-07  0.3875392E+04  0.7818609E-02  0.8030167E-01
       -2   -1    0    0    0  501  0.00000000000E+00  0.00000000000E+00  0.15413004622E+04  0.15413004622E+04  0.25500000920E-02 0.  1.
        2   -1    0    0  501    0  0.00000000000E+00  0.00000000000E+00 -0.24360376882E+04  0.24360376882E+04  0.25500000920E-02 0. -1.
    10030    2    1    2    0    0  0.00000000000E+00  0.00000000000E+00 -0.89473722598E+03  0.39773381504E+04  0.38753921168E+04 0.  0.
        3    1    3    3  502    0 -0.11917377148E+04 -0.61562908572E+03 -0.18825202314E+04  0.23115190642E+04  0.10100000352E+00 0. -1.
       -3    1    3    3    0  502  0.11917377148E+04  0.61562908572E+03  0.98778300543E+03  0.16658190863E+04  0.10100000352E+00 0.  1.
</event>
<event>
 5   0  0.1187925E-07  0.3826857E+04  0.7818609E-02  0.8040416E-01
        1   -1    0    0  501    0  0.00000000000E+00  0.00000000000E+00  0.24422004780E+04  0.24422004780E+04  0.50400001928E-02 0.  1.
       -1   -1    0    0    0  501  0.00000000000E+00  0.00000000000E+00 -0.14991433820E+04  0.14991433820E+04  0.50400001928E-02 0. -1.
    10030    2    1    2    0    0  0.00000000000E+00  0.00000000000E+00  0.94305709598E+03  0.39413438600E+04  0.38268570311E+04 0.  0.
        1    1    3    3  502    0  0.15821106575E+04 -0.68595623807E+03  0.13255515690E+04  0.21750165644E+04  0.50400001928E-02 0.  1.
       -1    1    3    3    0  502 -0.15821106575E+04  0.68595623807E+03 -0.38249447305E+03  0.17663272956E+04  0.50400001928E-02 0. -1.
</event>
<event>
 5   0  0.1187925E-07  0.3831711E+04  0.7818609E-02  0.8039384E-01
        1   -1    0    0  501    0  0.00000000000E+00  0.00000000000E+00  0.19944404623E+04  0.19944404623E+04  0.50400001928E-02 0. -1.
       -1   -1    0    0    0  501  0.00000000000E+00  0.00000000000E+00 -0.18403668664E+04  0.18403668664E+04  0.50400001928E-02 0.  1.
    10030    2    1    2    0    0  0.00000000000E+00  0.00000000000E+00  0.15407359592E+03  0.38348073288E+04  0.38317109202E+04 0.  0.
        1    1    3    3  502    0 -0.11209680060E+04 -0.13411982201E+04 -0.70789298729E+03  0.18858670201E+04  0.50400001928E-02 0.  1.
       -1    1    3    3    0  502  0.11209680060E+04  0.13411982201E+04  0.86196658321E+03  0.19489403086E+04  0.50400001928E-02 0. -1.
</event>
<event>
 5   0  0.3665303E-07  0.3749901E+04  0.7818609E-02  0.8056992E-01
       -2   -1    0    0    0  501  0.00000000000E+00  0.00000000000E+00  0.12920084868E+04  0.12920084868E+04  0.25500000920E-02 0.  1.
        2   -1    0    0  501    0  0.00000000000E+00  0.00000000000E+00 -0.27209097185E+04  0.27209097185E+04  0.25500000920E-02 0. -1.
    10030    2    1    2    0    0  0.00000000000E+00  0.00000000000E+00 -0.14289012317E+04  0.40129182053E+04  0.37499005044E+04 0.  0.
        2    1    3    3  502    0 -0.12156388829E+04  0.89723443158E+03  0.47366059357E+03  0.15834019947E+04  0.25500000920E-02 0. -1.
       -2    1    3    3    0  502  0.12156388829E+04 -0.89723443158E+03 -0.19025618252E+04  0.24295162106E+04  0.25500000920E-02 0.  1.
</event>
<event>
 5   0  0.3610483E-07  0.3936452E+04  0.7818609E-02  0.8017490E-01
       -2   -1    0    0    0  501  0.00000000000E+00  0.00000000000E+00  0.14412982270E+04  0.14412982270E+04  0.25500000920E-02 0.  1.
        2   -1    0    0  501    0  0.00000000000E+00  0.00000000000E+00 -0.26877945191E+04  0.26877945191E+04  0.25500000920E-02 0. -1.
    10030    2    1    2    0    0  0.00000000000E+00  0.00000000000E+00 -0.12464962921E+04  0.41290927462E+04  0.39364519431E+04 0.  0.
        4    1    3    3  502    0 -0.17743249917E+04  0.74215688460E+03 -0.18458917717E+03  0.19321233902E+04  0.12699999809E+01 0.  1.
       -4    1    3    3    0  502  0.17743249917E+04 -0.74215688460E+03 -0.10619071149E+04  0.21969693560E+04  0.12699999809E+01 0. -1.
</event>
<event>
 5   0  0.1187925E-07  0.3947324E+04  0.7818609E-02  0.8015258E-01
       -1   -1    0    0    0  501  0.00000000000E+00  0.00000000000E+00  0.19187465687E+04  0.19187465687E+04  0.50400001928E-02 0. -1.
        1   -1    0    0  501    0  0.00000000000E+00  0.00000000000E+00 -0.20301489991E+04  0.20301489991E+04  0.50400001928E-02 0.  1.
    10030    2    1    2    0    0  0.00000000000E+00  0.00000000000E+00 -0.11140243034E+03  0.39488955678E+04  0.39473238661E+04 0.  0.
        5    1    3    3  502    0 -0.99150892521E+03 -0.16771762662E+03 -0.17546412848E+04  0.20223766414E+04  0.46999998093E+01 0.  1.
       -5    1    3    3    0  502  0.99150892521E+03  0.16771762662E+03  0.16432388545E+04  0.19265189265E+04  0.46999998093E+01 0. -1.
</event>
<event>
 5   0  0.3610483E-07  0.3897770E+04  0.7818609E-02  0.8025493E-01
        2   -1    0    0  501    0  0.00000000000E+00  0.00000000000E+00  0.29667972784E+04  0.29667972784E+04  0.25500000920E-02 0. -1.
       -2   -1    0    0    0  501  0.00000000000E+00  0.00000000000E+00 -0.12802195638E+04  0.12802195638E+04  0.25500000920E-02 0.  1.
    10030    2    1    2    0    0  0.00000000000E+00  0.00000000000E+00  0.16865777146E+04  0.42470168421E+04  0.38977695763E+04 0.  0.
        4    1    3    3  502    0  0.12967047791E+04 -0.12895644707E+04  0.10933829594E+03  0.18320415618E+04  0.12699999809E+01 0.  1.
       -4    1    3    3    0  502 -0.12967047791E+04  0.12895644707E+04  0.15772394186E+04  0.24149752804E+04  0.12699999809E+01 0. -1.
</event>
<event>
 5   0  0.1187925E-07  0.3910414E+04  0.7818609E-02  0.8022867E-01
        1   -1    0    0  501    0  0.00000000000E+00  0.00000000000E+00  0.11666278335E+04  0.11666278335E+04  0.50400001928E-02 0.  1.
       -1   -1    0    0    0  501  0.00000000000E+00  0.00000000000E+00 -0.32768248419E+04  0.32768248419E+04  0.50400001928E-02 0. -1.
    10030    2    1    2    0    0  0.00000000000E+00  0.00000000000E+00 -0.21101970084E+04  0.44434526753E+04  0.39104143340E+04 0.  0.
        5    1    3    3  502    0 -0.21987847162E+03  0.11263228214E+03  0.11488147805E+04  0.11750872577E+04  0.46999998093E+01 0.  1.
       -5    1    3    3    0  502  0.21987847162E+03 -0.11263228214E+03 -0.32590117889E+04  0.32683654177E+04  0.46999998093E+01 0. -1.
</event>
<event>
 5   0  0.1187925E-07  0.3873590E+04  0.7818609E-02  0.8030545E-01
       -1   -1    0    0    0  501  0.00000000000E+00  0.00000000000E+00  0.13590909480E+04  0.13590909480E+04  0.50400001928E-02 0.  1.
        1   -1    0    0  501    0  0.00000000000E+00  0.00000000000E+00 -0.27600610514E+04  0.27600610514E+04  0.50400001928E-02 0. -1.
    10030    2    1    2    0    0  0.00000000000E+00  0.00000000000E+00 -0.14009701034E+04  0.41191519995E+04  0.38735895451E+04 0.  0.
        4    1    3    3  502    0 -0.23136495025E+03  0.11516325381E+04 -0.23380376734E+04  0.26165261356E+04  0.12699999809E+01 0. -1.
       -4    1    3    3    0  502  0.23136495025E+03 -0.11516325381E+04  0.93706757000E+03  0.15026258639E+04  0.12699999809E+01 0.  1.
</event>
<event>
 5   0  0.1187925E-07  0.3930405E+04  0.7818609E-02  0.8018735E-01
       -1   -1    0    0    0  501  0.00000000000E+00  0.00000000000E+00  0.20554569050E+04  0.20554569051E+04  0.50400001928E-02 0. -1.
        1   -1    0    0  501    0  0.00000000000E+00  0.00000000000E+00 -0.18789113624E+04  0.18789113624E+04  0.50400001928E-02 0.  1.
    10030    2    1    2    0    0  0.00000000000E+00  0.00000000000E+00  0.17654554261E+03  0.39343682675E+04  0.39304052381E+04 0.  0.
        1    1    3    3  502    0 -0.61847672571E+03  0.96271946335E+03 -0.15110487845E+04  0.18954183323E+04  0.50400001928E-02 0.  1.
       -1    1    3    3    0  502  0.61847672571E+03 -0.96271946335E+03  0.16875943271E+04  0.20389499352E+04  0.50400001928E-02 0. -1.
</event>
<event>
 5   0  0.1187925E-07  0.3893245E+04  0.7818609E-02  0.8026436E-01
       -1   -1    0    0    0  501  0.00000000000E+00  0.00000000000E+00  0.13801291519E+04  0.13801291519E+04  0.50400001928E-02 0.  1.
        1   -1    0    0  501    0  0.00000000000E+00  0.00000000000E+00 -0.27456407131E+04  0.27456407131E+04  0.50400001928E-02 0. -1.
    10030    2    1    2    0    0  0.00000000000E+00  0.00000000000E+00 -0.13655115612E+04  0.41257698651E+04  0.38932448107E+04 0.  0.
        1    1    3    3  502    0  0.71835286371E+03 -0.21201481081E+03 -0.25868310322E+04  0.26930792610E+04  0.50400001928E-02 0. -1.
       -1    1    3    3    0  502 -0.71835286371E+03  0.21201481081E+03  0.12213194710E+04  0.14326906041E+04  0.50400001928E-02 0.  1.
</event>
<event>
 5   0  0.1187925E-07  0.3831947E+04  0.7818609E-02  0.8039334E-01
        1   -1    0    0  501    0  0.00000000000E+00  0.00000000000E+00  0.97842091193E+03  0.97842091195E+03  0.50400001928E-02 0. -1.
       -1   -1    0    0    0  501  0.00000000000E+00  0.00000000000E+00 -0.37519170116E+04  0.37519170116E+04  0.50400001928E-02 0.  1.
    10030    2    1    2    0    0  0.00000000000E+00  0.00000000000E+00 -0.27734960996E+04  0.47303379235E+04  0.38319467971E+04 0.  0.
        1    1    3    3  502    0 -0.19054141513E+04 -0.12446296802E+03 -0.11921122241E+04  0.22510499047E+04  0.50400001928E-02 0. -1.
       -1    1    3    3    0  502  0.19054141513E+04  0.12446296802E+03 -0.15813838755E+04  0.24792880188E+04  0.50400001928E-02 0.  1.
</event>
<event>
 5   0  0.1187925E-07  0.3835935E+04  0.7818609E-02  0.8038487E-01
        1   -1    0    0  501    0  0.00000000000E+00  0.00000000000E+00  0.22428353239E+04  0.22428353239E+04  0.50400001928E-02 0. -1.
       -1   -1    0    0    0  501  0.00000000000E+00  0.00000000000E+00 -0.16401560908E+04  0.16401560908E+04  0.50400001928E-02 0.  1.
    10030    2    1    2    0    0  0.00000000000E+00  0.00000000000E+00  0.60267923308E+03  0.38829914146E+04  0.38359353577E+04 0.  0.
        2    1    3    3  502    0 -0.43265827283E+03  0.10171976465E+04 -0.12852792290E+04  0.16952365409E+04  0.25500000920E-02 0.  1.
       -2    1    3    3    0  502  0.43265827283E+03 -0.10171976465E+04  0.18879584621E+04  0.21877548738E+04  0.25500000920E-02 0. -1.
</event>
<event>
 5   0  0.1187925E-07  0.3907489E+04  0.7818609E-02  0.8023474E-01
       -1   -1    0    0    0  501  0.00000000000E+00  0.00000000000E+00  0.18041402653E+04  0.18041402653E+04  0.50400001928E-02 0. -1.
        1   -1    0    0  501    0  0.00000000000E+00  0.00000000000E+00 -0.21157538137E+04  0.21157538137E+04  0.50400001928E-02 0.  1.
    10030    2    1    2    0    0  0.00000000000E+00  0.00000000000E+00 -0.31161354843E+03  0.39198940791E+04  0.39074885269E+04 0.  0.
        5    1    3    3  502    0  0.13216128751E+04  0.13374347255E+04 -0.68824819362E+03  0.20022736832E+04  0.46999998093E+01 0.  1.
       -5    1    3    3    0  502 -0.13216128751E+04 -0.13374347255E+04  0.37663464519E+03  0.19176203958E+04  0.46999998093E+01 0. -1.
</event>
<event>
 5   0  0.3810833E-07  0.3864194E+04  0.7818609E-02  0.8032518E-01
       -2   -1    0    0    0  501  0.00000000000E+00  0.00000000000E+00  0.14374429434E+04  0.14374429434E+04  0.25500000920E-02 0. -1.
        2   -1    0    0  501    0  0.00000000000E+00  0.00000000000E+00 -0.25969722752E+04  0.25969722752E+04  0.25500000920E-02 0.  1.
    10030    2    1    2    0    0  0.00000000000E+00  0.00000000000E+00 -0.11595293318E+04  0.40344152186E+04  0.38641943384E+04 0.  0.
        3    1    3    3  502    0  0.55512362892E+03  0.40575677143E+03  0.13053755823E+04  0.14754003599E+04  0.10100000352E+00 0. -1.
       -3    1    3    3    0  502 -0.55512362892E+03 -0.40575677143E+03 -0.24649049142E+04  0.25590148587E+04  0.10100000352E+00 0.  1.
</event>
<event>
 5   0  0.1187925E-07  0.3946904E+04  0.7818609E-02  0.8015344E-01
       -1   -1    0    0    0  501  0.00000000000E+00  0.00000000000E+00  0.14579796043E+04  0.14579796043E+04  0.50400001928E-02 0. -1.
        1   -1    0    0  501    0  0.00000000000E+00  0.00000000000E+00 -0.26711715860E+04  0.26711715860E+04  0.50400001928E-02 0.  1.
    10030    2    1    2    0    0  0.00000000000E+00  0.00000000000E+00 -0.12131919817E+04  0.41291511903E+04  0.39469044539E+04 0.  0.
        3    1    3    3  502    0  0.13632093316E+04  0.12134155238E+04 -0.13921308501E+04  0.22953747470E+04  0.10100000352E+00 0.  1.
       -3    1    3    3    0  502 -0.13632093316E+04 -0.12134155238E+04  0.17893886836E+03  0.18337764433E+04  0.10100000352E+00 0. -1.
</event>
<event>
 5   0  0.1187925E-07  0.3833358E+04  0.7818609E-02  0.8039034E-01
        1   -1    0    0  501    0  0.00000000000E+00  0.00000000000E+00  0.24598335474E+04  0.24598335474E+04  0.50400001928E-02 0. -1.
       -1   -1    0    0    0  501  0.00000000000E+00  0.00000000000E+00 -0.14934577662E+04  0.14934577662E+04  0.50400001928E-02 0.  1.
    10030    2    1    2    0    0  0.00000000000E+00  0.00000000000E+00  0.96637578115E+03  0.39532913136E+04  0.38333575440E+04 0.  0.
        2    1    3    3  502    0 -0.34571330252E+03  0.17896771489E+04  0.10943465641E+04  0.21260424236E+04  0.25500000920E-02 0. -1.
       -2    1    3    3    0  502  0.34571330252E+03 -0.17896771489E+04 -0.12797078292E+03  0.18272488900E+04  0.25500000920E-02 0.  1.
</event>
<event>
 5   0  0.3832389E-07  0.3865104E+04  0.7818609E-02  0.8032326E-01
       -2   -1    0    0    0  501  0.00000000000E+00  0.00000000000E+00  0.18525881688E+04  0.18525881688E+04  0.25500000920E-02 0. -1.
        2   -1    0    0  501    0  0.00000000000E+00  0.00000000000E+00 -0.20159674324E+04  0.20159674324E+04  0.25500000920E-02 0.  1.
    10030    2    1    2    0    0  0.00000000000E+00  0.00000000000E+00 -0.16337926361E+03  0.38685556012E+04  0.38651040938E+04 0.  0.
        5    1    3    3  502    0 -0.18190041071E+04  0.61097944003E+03  0.14800060434E+03  0.19245773787E+04  0.46999998093E+01 0.  1.
       -5    1    3    3    0  502  0.18190041071E+04 -0.61097944003E+03 -0.31137986794E+03  0.19439782226E+04  0.46999998093E+01 0. -1.
</event>
<event>
 5   0  0.3810833E-07  0.3910186E+04  0.7818609E-02  0.8022914E-01
       -2   -1    0    0    0  501  0.00000000000E+00  0.00000000000E+00  0.20612271676E+04  0.20612271676E+04  0.25500000920E-02 0. -1.
        2   -1    0    0  501    0  0.00000000000E+00  0.00000000000E+00 -0.18544240750E+04  0.18544240750E+04  0.25500000920E-02 0.  1.
    10030    2    1    2    0    0  0.00000000000E+00  0.00000000000E+00  0.20680309259E+03  0.39156512426E+04  0.39101863299E+04 0.  0.
        3    1    3    3  502    0  0.87183040929E+03  0.16863798430E+04 -0.36461021183E+03  0.19331078227E+04  0.10100000352E+00 0.  1.
       -3    1    3    3    0  502 -0.87183040929E+03 -0.16863798430E+04  0.57141330442E+03  0.19825434199E+04  0.10100000352E+00 0. -1.
</event>
<event>
 5   0  0.1187925E-07  0.3773296E+04  0.7818609E-02  0.8051910E-01
       -1   -1    0    0    0  501  0.00000000000E+00  0.00000000000E+00  0.16076543452E+04  0.16076543452E+04  0.50400001928E-02 0. -1.
        1   -1    0    0  501    0  0.00000000000E+00  0.00000000000E+00 -0.22140586573E+04  0.22140586573E+04  0.50400001928E-02 0.  1.
    10030    2    1    2    0    0  0.00000000000E+00  0.00000000000E+00 -0.60640431209E+03  0.38217130026E+04  0.37732961830E+04 0.  0.
        1    1    3    3  502    0 -0.19596514177E+03 -0.91685225378E+03 -0.19614087947E+04  0.21739698369E+04  0.50400001928E-02 0.  1.
       -1    1    3    3    0  502  0.19596514177E+03  0.91685225378E+03  0.13550044826E+04  0.16477431656E+04  0.50400001928E-02 0. -1.
</event>
<event>
 5   0  0.3610483E-07  0.3732834E+04  0.7818609E-02  0.8060724E-01
       -2   -1    0    0    0  501  0.00000000000E+00  0.00000000000E+00  0.14342709807E+04  0.14342709807E+04  0.25500000920E-02 0. -1.
        2   -1    0    0  501    0  0.00000000000E+00  0.00000000000E+00 -0.24287690795E+04  0.24287690795E+04  0.25500000920E-02 0.  1.
    10030    2    1    2    0    0  0.00000000000E+00  0.00000000000E+00 -0.99449809873E+03  0.38630400602E+04  0.37328343170E+04 0.  0.
        4    1    3    3  502    0  0.30738311003E+03  0.13776174829E+04 -0.17609898923E+04  0.22568565128E+04  0.12699999809E+01 0.  1.
       -4    1    3    3    0  502 -0.30738311003E+03 -0.13776174829E+04  0.76649179360E+03  0.16061835474E+04  0.12699999809E+01 0. -1.
</event>
<event>
 5   0  0.3680814E-07  0.3911055E+04  0.7818609E-02  0.8022734E-01
        2   -1    0    0  501    0  0.00000000000E+00  0.00000000000E+00  0.16247273173E+04  0.16247273173E+04  0.25500000920E-02 0. -1.
       -2   -1    0    0    0  501  0.00000000000E+00  0.00000000000E+00 -0.23536802403E+04  0.23536802403E+04  0.25500000920E-02 0.  1.
    10030    2    1    2    0    0  0.00000000000E+00  0.00000000000E+00 -0.72895292304E+03  0.39784075576E+04  0.39110553985E+04 0.  0.
        1    1    3    3  502    0 -0.99348877405E+03  0.72668994279E+03  0.11812276567E+04  0.17059885680E+04  0.50400001928E-02 0. -1.
       -1    1    3    3    0  502  0.99348877405E+03 -0.72668994279E+03 -0.19101805798E+04  0.22724189896E+04  0.50400001928E-02 0.  1.
</event>
<event>
 5   0  0.3810833E-07  0.3909395E+04  0.7818609E-02  0.8023078E-01
        2   -1    0    0  501    0  0.00000000000E+00  0.00000000000E+00  0.22785914617E+04  0.22785914617E+04  0.25500000920E-02 0.  1.
       -2   -1    0    0    0  501  0.00000000000E+00  0.00000000000E+00 -0.16768440500E+04  0.16768440500E+04  0.25500000920E-02 0. -1.
    10030    2    1    2    0    0  0.00000000000E+00  0.00000000000E+00  0.60174741172E+03  0.39554355117E+04  0.39093951117E+04 0.  0.
        3    1    3    3  502    0 -0.14350656565E+04  0.68487706591E+03 -0.84934015081E+03  0.18027336841E+04  0.10100000352E+00 0. -1.
       -3    1    3    3    0  502  0.14350656565E+04 -0.68487706591E+03  0.14510875625E+04  0.21527018275E+04  0.10100000352E+00 0.  1.
</event>
<event>
 5   0  0.1187925E-07  0.3913080E+04  0.7818609E-02  0.8022314E-01
       -1   -1    0    0    0  501  0.00000000000E+00  0.00000000000E+00  0.15985604262E+04  0.15985604262E+04  0.50400001928E-02 0.  1.
        1   -1    0    0  501    0  0.00000000000E+00  0.00000000000E+00 -0.23946851028E+04  0.23946851028E+04  0.50400001928E-02 0. -1.
    10030    2    1    2    0    0  0.00000000000E+00  0.00000000000E+00 -0.79612467653E+03  0.39932455290E+04  0.39130800342E+04 0.  0.
        5    1    3    3  502    0 -0.53975456893E+03  0.16967383309E+04  0.42958357577E+03  0.18316167986E+04  0.46999998093E+01 0.  1.
       -5    1    3    3    0  502  0.53975456893E+03 -0.16967383309E+04 -0.12257082523E+04  0.21616287304E+04  0.46999998093E+01 0. -1.
</event>
<event>
 5   0  0.1187925E-07  0.3745962E+04  0.7818609E-02  0.8057852E-01
        1   -1    0    0  501    0  0.00000000000E+00  0.00000000000E+00  0.18505234090E+04  0.18505234090E+04  0.50400001928E-02 0.  1.
       -1   -1    0    0    0  501  0.00000000000E+00  0.00000000000E+00 -0.18957109160E+04  0.18957109160E+04  0.50400001928E-02 0. -1.
    10030    2    1    2    0    0  0.00000000000E+00  0.00000000000E+00 -0.45187506921E+02  0.37462343250E+04  0.37459617867E+04 0.  0.
        2    1    3    3  502    0 -0.12688270861E+03  0.18681162561E+04  0.23233797613E+02  0.18725643853E+04  0.25500000920E-02 0. -1.
       -2    1    3    3    0  502  0.12688270861E+03 -0.18681162561E+04 -0.68421304534E+02  0.18736699397E+04  0.25500000920E-02 0.  1.
</event>
<event>
 5   0  0.1187925E-07  0.3872449E+04  0.7818609E-02  0.8030784E-01
        1   -1    0    0  501    0  0.00000000000E+00  0.00000000000E+00  0.27545958813E+04  0.27545958813E+04  0.50400001928E-02 0. -1.
       -1   -1    0    0    0  501  0.00000000000E+00  0.00000000000E+00 -0.13609858311E+04  0.13609858311E+04  0.50400001928E-02 0.  1.
    10030    2    1    2    0    0  0.00000000000E+00  0.00000000000E+00  0.13936100502E+04  0.41155817125E+04  0.38724493360E+04 0.  0.
        3    1    3    3  502    0 -0.18494809168E+04 -0.22086326975E+03  0.13482807665E+03  0.18674953457E+04  0.10100000352E+00 0.  1.
       -3    1    3    3    0  502  0.18494809168E+04  0.22086326975E+03  0.12587819735E+04  0.22480863668E+04  0.10100000352E+00 0. -1.
</event>
<event>
 5   0  0.3665303E-07  0.3880062E+04  0.7818609E-02  0.8029189E-01
       -2   -1    0    0    0  501  0.00000000000E+00  0.00000000000E+00  0.13560367530E+04  0.13560367530E+04  0.25500000920E-02 0. -1.
        2   -1    0    0  501    0  0.00000000000E+00  0.00000000000E+00 -0.27755302143E+04  0.27755302143E+04  0.25500000920E-02 0.  1.
    10030    2    1    2    0    0  0.00000000000E+00  0.00000000000E+00 -0.14194934613E+04  0.41315669672E+04  0.38800623601E+04 0.  0.
        2    1    3    3  502    0 -0.56485056163E+03 -0.17891523511E+04 -0.12352961524E+04  0.22463478975E+04  0.25500000920E-02 0.  1.
       -2    1    3    3    0  502  0.56485056163E+03  0.17891523511E+04 -0.18419730890E+03  0.18852190698E+04  0.25500000920E-02 0. -1.
</event>
<event>
 5   0  0.3610483E-07  0.3804777E+04  0.7818609E-02  0.8045131E-01
        2   -1    0    0  501    0  0.00000000000E+00  0.00000000000E+00  0.26412005519E+04  0.26412005519E+04  0.25500000920E-02 0. -1.
       -2   -1    0    0    0  501  0.00000000000E+00  0.00000000000E+00 -0.13702411715E+04  0.13702411715E+04  0.25500000920E-02 0.  1.
    10030    2    1    2    0    0  0.00000000000E+00  0.00000000000E+00  0.12709593805E+04  0.40114417234E+04  0.38047768599E+04 0.  0.
        4    1    3    3  502    0 -0.45882504643E+03  0.72044132896E+03  0.24276713347E+04  0.25735473289E+04  0.12699999809E+01 0. -1.
       -4    1    3    3    0  502  0.45882504643E+03 -0.72044132896E+03 -0.11567119543E+04  0.14378943945E+04  0.12699999809E+01 0.  1.
</event>
<event>
 5   0  0.1187925E-07  0.2985009E+04  0.7818609E-02  0.8248025E-01
        1   -1    0    0  501    0  0.00000000000E+00  0.00000000000E+00  0.26938424837E+04  0.26938424837E+04  0.50400001928E-02 0.  1.
       -1   -1    0    0    0  501  0.00000000000E+00  0.00000000000E+00 -0.82691138342E+03  0.82691138344E+03  0.50400001928E-02 0. -1.
    10030    2    1    2    0    0  0.00000000000E+00  0.00000000000E+00  0.18669311003E+04  0.35207538672E+04  0.29850085527E+04 0.  0.
        2    1    3    3  502    0 -0.59669843242E+02 -0.17088050912E+03 -0.81391859027E+03  0.83380100155E+03  0.25500000920E-02 0. -1.
       -2    1    3    3    0  502  0.59669843242E+02  0.17088050912E+03  0.26808496906E+04  0.26869528656E+04  0.25500000920E-02 0.  1.
</event>
<event>
 5   0  0.1187925E-07  0.3275149E+04  0.7818609E-02  0.8169248E-01
       -1   -1    0    0    0  501  0.00000000000E+00  0.00000000000E+00  0.12136377726E+04  0.12136377726E+04  0.50400001928E-02 0. -1.
        1   -1    0    0  501    0  0.00000000000E+00  0.00000000000E+00 -0.22095970596E+04  0.22095970596E+04  0.50400001928E-02 0.  1.
    10030    2    1    2    0    0  0.00000000000E+00  0.00000000000E+00 -0.99595928696E+03  0.34232348322E+04  0.32751491287E+04 0.  0.
        5    1    3    3  502    0  0.11301772501E+03 -0.65728818559E+03 -0.20612060013E+04  0.21664240201E+04  0.46999998093E+01 0.  1.
       -5    1    3    3    0  502 -0.11301772501E+03  0.65728818559E+03  0.10652467143E+04  0.12568108121E+04  0.46999998093E+01 0. -1.
</event>
<event>
 5   0  0.1187925E-07  0.3817872E+04  0.7818609E-02  0.8042330E-01
        1   -1    0    0  501    0  0.00000000000E+00  0.00000000000E+00  0.22412705480E+04  0.22412705480E+04  0.50400001928E-02 0.  1.
       -1   -1    0    0    0  501  0.00000000000E+00  0.00000000000E+00 -0.16258802614E+04  0.16258802614E+04  0.50400001928E-02 0. -1.
    10030    2    1    2    0    0  0.00000000000E+00  0.00000000000E+00  0.61539028668E+03  0.38671508094E+04  0.38178724675E+04 0.  0.
        2    1    3    3  502    0 -0.33269132942E+03  0.68080622567E+03  0.20824107071E+04  0.22159907470E+04  0.25500000920E-02 0.  1.
       -2    1    3    3    0  502  0.33269132942E+03 -0.68080622567E+03 -0.14670204205E+04  0.16511600624E+04  0.25500000920E-02 0. -1.
</event>
<event>
 5   0  0.3665303E-07  0.3820045E+04  0.7818609E-02  0.8041867E-01
       -2   -1    0    0    0  501  0.00000000000E+00  0.00000000000E+00  0.13759941639E+04  0.13759941639E+04  0.25500000920E-02 0. -1.
        2   -1    0    0  501    0  0.00000000000E+00  0.00000000000E+00 -0.26513093013E+04  0.26513093013E+04  0.25500000920E-02 0.  1.
    10030    2    1    2    0    0  0.00000000000E+00  0.00000000000E+00 -0.12753151374E+04  0.40273034652E+04  0.38200450915E+04 0.  0.
        2    1    3    3  502    0 -0.81297613167E+03 -0.34103542779E+03 -0.24239754241E+04  0.25793201062E+04  0.25500000920E-02 0.  1.
       -2    1    3    3    0  502  0.81297613167E+03  0.34103542779E+03  0.11486602867E+04  0.14479833590E+04  0.25500000920E-02 0. -1.
</event>
<event>
 5   0  0.3810833E-07  0.3913807E+04  0.7818609E-02  0.8022164E-01
        2   -1    0    0  501    0  0.00000000000E+00  0.00000000000E+00  0.21592622476E+04  0.21592622476E+04  0.25500000920E-02 0. -1.
       -2   -1    0    0    0  501  0.00000000000E+00  0.00000000000E+00 -0.17735089505E+04  0.17735089505E+04  0.25500000920E-02 0.  1.
    10030    2    1    2    0    0  0.00000000000E+00  0.00000000000E+00  0.38575329716E+03  0.39327711981E+04  0.39138068029E+04 0.  0.
        3    1    3    3  502    0 -0.92512553344E+03 -0.10701909153E+04  0.15515768131E+04  0.20996562731E+04  0.10100000352E+00 0. -1.
       -3    1    3    3    0  502  0.92512553344E+03  0.10701909153E+04 -0.11658235159E+04  0.18331149250E+04  0.10100000352E+00 0.  1.
</event>
<event>
 5   0  0.3665303E-07  0.3832477E+04  0.7818609E-02  0.8039221E-01
       -2   -1    0    0    0  501  0.00000000000E+00  0.00000000000E+00  0.18626277859E+04  0.18626277859E+04  0.25500000920E-02 0.  1.
        2   -1    0    0  501    0  0.00000000000E+00  0.00000000000E+00 -0.19713921037E+04  0.19713921037E+04  0.25500000920E-02 0. -1.
    10030    2    1    2    0    0  0.00000000000E+00  0.00000000000E+00 -0.10876431774E+03  0.38340198896E+04  0.38324768541E+04 0.  0.
        2    1    3    3  502    0 -0.12544232572E+04 -0.13849514219E+04  0.37040811391E+03  0.19049594011E+04  0.25500000920E-02 0.  1.
       -2    1    3    3    0  502  0.12544232572E+04  0.13849514219E+04 -0.47917243164E+03  0.19290604885E+04  0.25500000920E-02 0. -1.
</event>
<event>
 5   0  0.1187925E-07  0.3832290E+04  0.7818609E-02  0.8039261E-01
       -1   -1    0    0    0  501  0.00000000000E+00  0.00000000000E+00  0.18585207685E+04  0.18585207685E+04  0.50400001928E-02 0. -1.
        1   -1    0    0  501    0  0.00000000000E+00  0.00000000000E+00 -0.19755553927E+04  0.19755553927E+04  0.50400001928E-02 0.  1.
    10030    2    1    2    0    0  0.00000000000E+00  0.00000000000E+00 -0.11703462427E+03  0.38340761612E+04  0.38322895124E+04 0.  0.
        3    1    3    3  502    0 -0.60650264096E+03  0.69368241182E+03  0.16223165299E+04  0.18657308689E+04  0.10100000352E+00 0. -1.
       -3    1    3    3    0  502  0.60650264096E+03 -0.69368241182E+03 -0.17393511541E+04  0.19683452923E+04  0.10100000352E+00 0.  1.
</event>
<event>
 5   0  0.1187925E-07  0.3522173E+04  0.7818609E-02  0.8108555E-01
       -1   -1    0    0    0  501  0.00000000000E+00  0.00000000000E+00  0.15936197787E+04  0.15936197787E+04  0.50400001928E-02 0.  1.
        1   -1    0    0  501    0  0.00000000000E+00  0.00000000000E+00 -0.19461519026E+04  0.19461519026E+04  0.50400001928E-02 0. -1.
    10030    2    1    2    0    0  0.00000000000E+00  0.00000000000E+00 -0.35253212384E+03  0.35397716813E+04  0.35221732861E+04 0.  0.
        5    1    3    3  502    0 -0.15736097316E+04 -0.50217630272E+03 -0.79003464399E+03  0.18310121395E+04  0.46999998093E+01 0. -1.
       -5    1    3    3    0  502  0.15736097316E+04  0.50217630272E+03  0.43750252015E+03  0.17087595418E+04  0.46999998093E+01 0.  1.
</event>
<event>
 5   0  0.3810833E-07  0.3960793E+04  0.7818609E-02  0.8012503E-01
       -2   -1    0    0    0  501  0.00000000000E+00  0.00000000000E+00  0.14566224029E+04  0.14566224029E+04  0.25500000920E-02 0. -1.
        2   -1    0    0  501    0  0.00000000000E+00  0.00000000000E+00 -0.26925093850E+04  0.26925093850E+04  0.25500000920E-02 0.  1.
    10030    2    1    2    0    0  0.00000000000E+00  0.00000000000E+00 -0.12358869821E+04  0.41491317879E+04  0.39607925925E+04 0.  0.
        3    1    3    3  502    0  0.47197958313E+03  0.16495673629E+04 -0.16539772847E+04  0.23831655587E+04  0.10100000352E+00 0. -1.
       -3    1    3    3    0  502 -0.47197958313E+03 -0.16495673629E+04  0.41809030257E+03  0.17659662293E+04  0.10100000352E+00 0.  1.
</event>
<event>
 5   0  0.1187925E-07  0.3868531E+04  0.7818609E-02  0.8031606E-01
       -1   -1    0    0    0  501  0.00000000000E+00  0.00000000000E+00  0.17410801283E+04  0.17410801283E+04  0.50400001928E-02 0.  1.
        1   -1    0    0  501    0  0.00000000000E+00  0.00000000000E+00 -0.21488858892E+04  0.21488858892E+04  0.50400001928E-02 0. -1.
    10030    2    1    2    0    0  0.00000000000E+00  0.00000000000E+00 -0.40780576091E+03  0.38899660174E+04  0.38685307389E+04 0.  0.
        5    1    3    3  502    0 -0.26101007719E+03 -0.11610976783E+04  0.13293694506E+04  0.17842419413E+04  0.46999998093E+01 0.  1.
       -5    1    3    3    0  502  0.26101007719E+03  0.11610976783E+04 -0.17371752115E+04  0.21057240761E+04  0.46999998093E+01 0. -1.
</event>
<event>
 5   0  0.1187925E-07  0.3951470E+04  0.7818609E-02  0.8014409E-01
        1   -1    0    0  501    0  0.00000000000E+00  0.00000000000E+00  0.21157678180E+04  0.21157678180E+04  0.50400001928E-02 0.  1.
       -1   -1    0    0    0  501  0.00000000000E+00  0.00000000000E+00 -0.18449699989E+04  0.18449699989E+04  0.50400001928E-02 0. -1.
    10030    2    1    2    0    0  0.00000000000E+00  0.00000000000E+00  0.27079781909E+03  0.39607378170E+04  0.39514696754E+04 0.  0.
        2    1    3    3  502    0 -0.15612430171E+04  0.79218873789E+03  0.10532351306E+04  0.20431218748E+04  0.25500000920E-02 0.  1.
       -2    1    3    3    0  502  0.15612430171E+04 -0.79218873789E+03 -0.78243731154E+03  0.19176159421E+04  0.25500000920E-02 0. -1.
</event>
<event>
 5   0  0.3832389E-07  0.3472769E+04  0.7818609E-02  0.8120274E-01
        2   -1    0    0  501    0  0.00000000000E+00  0.00000000000E+00  0.23180592271E+04  0.23180592271E+04  0.25500000920E-02 0.  1.
       -2   -1    0    0    0  501  0.00000000000E+00  0.00000000000E+00 -0.13006701791E+04  0.13006701791E+04  0.25500000920E-02 0. -1.
    10030    2    1    2    0    0  0.00000000000E+00  0.00000000000E+00  0.10173890480E+04  0.36187294062E+04  0.34727686419E+04 0.  0.
        5    1    3    3  502    0  0.14452058728E+04  0.40603020748E+03 -0.40063891343E+03  0.15537098098E+04  0.46999998093E+01 0. -1.
       -5    1    3    3    0  502 -0.14452058728E+04 -0.40603020748E+03  0.14180279614E+04  0.20650195964E+04  0.46999998093E+01 0.  1.
</event>
<event>
 5   0  0.1187925E-07  0.3923474E+04  0.7818609E-02  0.8020165E-01
        1   -1    0    0  501    0  0.00000000000E+00  0.00000000000E+00  0.24675391518E+04  0.24675391518E+04  0.50400001928E-02 0. -1.
       -1   -1    0    0    0  501  0.00000000000E+00  0.00000000000E+00 -0.15596152976E+04  0.15596152976E+04  0.50400001928E-02 0.  1.
    10030    2    1    2    0    0  0.00000000000E+00  0.00000000000E+00  0.90792385422E+03  0.40271544494E+04  0.39234738733E+04 0.  0.
        1    1    3    3  502    0  0.19046240807E+04 -0.44679615123E+03  0.30453986850E+03  0.19798899517E+04  0.50400001928E-02 0.  1.
       -1    1    3    3    0  502 -0.19046240807E+04  0.44679615123E+03  0.60338398572E+03  0.20472644977E+04  0.50400001928E-02 0. -1.
</event>
<event>
 5   0  0.3810833E-07  0.3827174E+04  0.7818609E-02  0.8040349E-01
        2   -1    0    0  501    0  0.00000000000E+00  0.00000000000E+00  0.26694134628E+04  0.26694134628E+04  0.25500000920E-02 0. -1.
       -2   -1    0    0    0  501  0.00000000000E+00  0.00000000000E+00 -0.13717673891E+04  0.13717673891E+04  0.25500000920E-02 0.  1.
    10030    2    1    2    0    0  0.00000000000E+00  0.00000000000E+00  0.12976460737E+04  0.40411808520E+04  0.38271735453E+04 0.  0.
        3    1    3    3  502    0 -0.61406760700E+03  0.92727446918E+03  0.22931069611E+04  0.25485793125E+04  0.10100000352E+00 0. -1.
       -3    1    3    3    0  502  0.61406760700E+03 -0.92727446918E+03 -0.99546088732E+03  0.14926015394E+04  0.10100000352E+00 0.  1.
</event>
<event>
 5   0  0.3610483E-07  0.3936175E+04  0.7818609E-02  0.8017547E-01
        2   -1    0    0  501    0  0.00000000000E+00  0.00000000000E+00  0.23696311290E+04  0.23696311290E+04  0.25500000920E-02 0.  1.
       -2   -1    0    0    0  501  0.00000000000E+00  0.00000000000E+00 -0.16345868699E+04  0.16345868699E+04  0.25500000920E-02 0. -1.
    10030    2    1    2    0    0  0.00000000000E+00  0.00000000000E+00  0.73504425914E+03  0.40042179989E+04  0.39361747573E+04 0.  0.
        4    1    3    3  502    0  0.10545167272E+04  0.81253393646E+03  0.18421139055E+04  0.22727961148E+04  0.12699999809E+01 0.  1.
       -4    1    3    3    0  502 -0.10545167272E+04 -0.81253393646E+03 -0.11070696464E+04  0.17314218841E+04  0.12699999809E+01 0. -1.
</event>
<event>
 5   0  0.3810833E-07  0.3721863E+04  0.7818609E-02  0.8063134E-01
        2   -1    0    0  501    0  0.00000000000E+00  0.00000000000E+00  0.23067591744E+04  0.23067591744E+04  0.25500000920E-02 0.  1.
       -2   -1    0    0    0  501  0.00000000000E+00  0.00000000000E+00 -0.15012692142E+04  0.15012692142E+04  0.25500000920E-02 0. -1.
    10030    2    1    2    0    0  0.00000000000E+00  0.00000000000E+00  0.80548996017E+03  0.38080283886E+04  0.37218632608E+04 0.  0.
        3    1    3    3  502    0  0.16666818225E+04 -0.39579504639E+03  0.11466148681E+04  0.20613606385E+04  0.10100000352E+00 0.  1.
       -3    1    3    3    0  502 -0.16666818225E+04  0.39579504639E+03 -0.34112490796E+03  0.17466677501E+04  0.10100000352E+00 0. -1.
</event>
<event>
 5   0  0.1187925E-07  0.3559904E+04  0.7818609E-02  0.8099738E-01
        1   -1    0    0  501    0  0.00000000000E+00  0.00000000000E+00  0.15938042315E+04  0.15938042315E+04  0.50400001928E-02 0.  1.
       -1   -1    0    0    0  501  0.00000000000E+00  0.00000000000E+00 -0.19878406439E+04  0.19878406439E+04  0.50400001928E-02 0. -1.
    10030    2    1    2    0    0  0.00000000000E+00  0.00000000000E+00 -0.39403641244E+03  0.35816448754E+04  0.35599038357E+04 0.  0.
        2    1    3    3  502    0  0.67881697513E+03 -0.16115262547E+03 -0.18445371534E+04  0.19720750404E+04  0.25500000920E-02 0. -1.
       -2    1    3    3    0  502 -0.67881697513E+03  0.16115262547E+03  0.14505007410E+04  0.16095698351E+04  0.25500000920E-02 0.  1.
</event>
<event>
 5   0  0.3610483E-07  0.3873890E+04  0.7818609E-02  0.8030482E-01
        2   -1    0    0  501    0  0.00000000000E+00  0.00000000000E+00  0.17167813750E+04  0.17167813750E+04  0.25500000920E-02 0.  1.
       -2   -1    0    0    0  501  0.00000000000E+00  0.00000000000E+00 -0.21853432619E+04  0.21853432619E+04  0.25500000920E-02 0. -1.
    10030    2    1    2    0    0  0.00000000000E+00  0.00000000000E+00 -0.46856188692E+03  0.39021246369E+04  0.38738903495E+04 0.  0.
        4    1    3    3  502    0 -0.41468930462E+03  0.14902668346E+04 -0.14084925538E+04  0.20920600720E+04  0.12699999809E+01 0. -1.
       -4    1    3    3    0  502  0.41468930462E+03 -0.14902668346E+04  0.93993066688E+03  0.18100645649E+04  0.12699999809E+01 0.  1.
</event>
<event>
 5   0  0.1187925E-07  0.3876890E+04  0.7818609E-02  0.8029853E-01
        1   -1    0    0  501    0  0.00000000000E+00  0.00000000000E+00  0.20515602434E+04  0.20515602434E+04  0.50400001928E-02 0.  1.
       -1   -1    0    0    0  501  0.00000000000E+00  0.00000000000E+00 -0.18315660791E+04  0.18315660791E+04  0.50400001928E-02 0. -1.
    10030    2    1    2    0    0  0.00000000000E+00  0.00000000000E+00  0.21999416429E+03  0.38831263225E+04  0.38768895528E+04 0.  0.
        5    1    3    3  502    0 -0.11392093039E+04 -0.39984242248E+03 -0.14089762054E+04  0.18555074342E+04  0.46999998093E+01 0. -1.
       -5    1    3    3    0  502  0.11392093039E+04  0.39984242248E+03  0.16289703697E+04  0.20276188883E+04  0.46999998093E+01 0.  1.
</event>
<event>
 5   0  0.1187925E-07  0.3726303E+04  0.7818609E-02  0.8062158E-01
        4   -1    0    0  501    0  0.00000000000E+00  0.00000000000E+00  0.14744812401E+04  0.14744817870E+04  0.12699999809E+01 0.  1.
       -4   -1    0    0    0  501  0.00000000000E+00  0.00000000000E+00 -0.23542728305E+04  0.23542731730E+04  0.12699999809E+01 0. -1.
    10030    2    1    2    0    0  0.00000000000E+00  0.00000000000E+00 -0.87979159038E+03  0.38287549600E+04  0.37263026315E+04 0.  0.
        2    1    3    3  502    0  0.16087998463E+04  0.93003622097E+03 -0.30155174776E+03  0.18825880522E+04  0.25500000920E-02 0.  1.
       -2    1    3    3    0  502 -0.16087998463E+04 -0.93003622097E+03 -0.57823984261E+03  0.19461669078E+04  0.25500000920E-02 0. -1.
</event>
<event>
 5   0  0.1187925E-07  0.3889601E+04  0.7818609E-02  0.8027195E-01
        1   -1    0    0  501    0  0.00000000000E+00  0.00000000000E+00  0.20314768626E+04  0.20314768626E+04  0.50400001928E-02 0.  1.
       -1   -1    0    0    0  501  0.00000000000E+00  0.00000000000E+00 -0.18618225164E+04  0.18618225164E+04  0.50400001928E-02 0. -1.
    10030    2    1    2    0    0  0.00000000000E+00  0.00000000000E+00  0.16965434616E+03  0.38932993790E+04  0.38896011952E+04 0.  0.
        2    1    3    3  502    0  0.95546152863E+03 -0.19093310664E+02  0.17802434191E+04  0.20205291184E+04  0.25500000920E-02 0.  1.
       -2    1    3    3    0  502 -0.95546152863E+03  0.19093310664E+02 -0.16105890729E+04  0.18727702606E+04  0.25500000920E-02 0. -1.
</event>
<event>
 5   0  0.1187925E-07  0.3914460E+04  0.7818609E-02  0.8022028E-01
        1   -1    0    0  501    0  0.00000000000E+00  0.00000000000E+00  0.22542948382E+04  0.22542948382E+04  0.50400001928E-02 0. -1.
       -1   -1    0    0    0  501  0.00000000000E+00  0.00000000000E+00 -0.16993117873E+04  0.16993117873E+04  0.50400001928E-02 0.  1.
    10030    2    1    2    0    0  0.00000000000E+00  0.00000000000E+00  0.55498305091E+03  0.39536066255E+04  0.39144602645E+04 0.  0.
        3    1    3    3  502    0 -0.17550714660E+04 -0.23987179284E+03 -0.56326056880E+03  0.18587836900E+04  0.10100000352E+00 0.  1.
       -3    1    3    3    0  502  0.17550714660E+04  0.23987179284E+03  0.11182436197E+04  0.20948229355E+04  0.10100000352E+00 0. -1.
</event>
<event>
 5   0  0.1187925E-07  0.3892948E+04  0.7818609E-02  0.8026498E-01
        1   -1    0    0  501    0  0.00000000000E+00  0.00000000000E+00  0.30060922184E+04  0.30060922184E+04  0.50400001928E-02 0.  1.
       -1   -1    0    0    0  501  0.00000000000E+00  0.00000000000E+00 -0.12603607562E+04  0.12603607562E+04  0.50400001928E-02 0. -1.
    10030    2    1    2    0    0  0.00000000000E+00  0.00000000000E+00  0.17457314622E+04  0.42664529747E+04  0.38929478094E+04 0.  0.
        5    1    3    3  502    0 -0.41679025129E+03  0.16143153470E+04  0.19737361624E+04  0.25836765823E+04  0.46999998093E+01 0.  1.
       -5    1    3    3    0  502  0.41679025129E+03 -0.16143153470E+04 -0.22800470026E+03  0.16827763923E+04  0.46999998093E+01 0. -1.
</event>
<event>
 5   0  0.3832389E-07  0.3956410E+04  0.7818609E-02  0.8013398E-01
       -2   -1    0    0    0  501  0.00000000000E+00  0.00000000000E+00  0.20146153263E+04  0.20146153263E+04  0.25500000920E-02 0. -1.
        2   -1    0    0  501    0  0.00000000000E+00  0.00000000000E+00 -0.19424529463E+04  0.19424529463E+04  0.25500000920E-02 0.  1.
    10030    2    1    2    0    0  0.00000000000E+00  0.00000000000E+00  0.72162380002E+02  0.39570682726E+04  0.39564102296E+04 0.  0.
        5    1    3    3  502    0 -0.15841691981E+04 -0.32246030150E+02 -0.11484474733E+04  0.19569326875E+04  0.46999998093E+01 0.  1.
       -5    1    3    3    0  502  0.15841691981E+04  0.32246030150E+02  0.12206098533E+04  0.20001355851E+04  0.46999998093E+01 0. -1.
</event>
<event>
 5   0  0.1187925E-07  0.3911803E+04  0.7818609E-02  0.8022579E-01
        1   -1    0    0  501    0  0.00000000000E+00  0.00000000000E+00  0.20839869814E+04  0.20839869814E+04  0.50400001928E-02 0. -1.
       -1   -1    0    0    0  501  0.00000000000E+00  0.00000000000E+00 -0.18356879523E+04  0.18356879523E+04  0.50400001928E-02 0.  1.
    10030    2    1    2    0    0  0.00000000000E+00  0.00000000000E+00  0.24829902906E+03  0.39196749338E+04  0.39118025485E+04 0.  0.
        1    1    3    3  502    0 -0.81670466070E+03 -0.10984386228E+04  0.15240925045E+04  0.20485194344E+04  0.50400001928E-02 0.  1.
       -1    1    3    3    0  502  0.81670466070E+03  0.10984386228E+04 -0.12757934754E+04  0.18711554994E+04  0.50400001928E-02 0. -1.
</event>
<event>
 5   0  0.1187925E-07  0.2878699E+04  0.7818609E-02  0.8279243E-01
       -1   -1    0    0    0  501  0.00000000000E+00  0.00000000000E+00  0.10272231500E+04  0.10272231500E+04  0.50400001928E-02 0.  1.
        1   -1    0    0  501    0  0.00000000000E+00  0.00000000000E+00 -0.20168227620E+04  0.20168227620E+04  0.50400001928E-02 0. -1.
    10030    2    1    2    0    0  0.00000000000E+00  0.00000000000E+00 -0.98959961196E+03  0.30440459120E+04  0.28786990330E+04 0.  0.
        5    1    3    3  502    0 -0.12193192021E+04 -0.29541345377E+03  0.25119746115E+03  0.12795040757E+04  0.46999998093E+01 0.  1.
       -5    1    3    3    0  502  0.12193192021E+04  0.29541345377E+03 -0.12407970731E+04  0.17645418363E+04  0.46999998093E+01 0. -1.
</event>
<event>
 5   0  0.1187925E-07  0.3909251E+04  0.7818609E-02  0.8023108E-01
       -1   -1    0    0    0  501  0.00000000000E+00  0.00000000000E+00  0.19017228603E+04  0.19017228603E+04  0.50400001928E-02 0. -1.
        1   -1    0    0  501    0  0.00000000000E+00  0.00000000000E+00 -0.20090000837E+04  0.20090000837E+04  0.50400001928E-02 0.  1.
    10030    2    1    2    0    0  0.00000000000E+00  0.00000000000E+00 -0.10727722343E+03  0.39107229440E+04  0.39092512764E+04 0.  0.
        4    1    3    3  502    0 -0.86720811450E+03 -0.67740592608E+03  0.15624047884E+04  0.19110308837E+04  0.12699999809E+01 0. -1.
       -4    1    3    3    0  502  0.86720811450E+03  0.67740592608E+03 -0.16696820119E+04  0.19996920603E+04  0.12699999809E+01 0.  1.
</event>
<event>
 5   0  0.1187925E-07  0.3956695E+04  0.7818609E-02  0.8013340E-01
       -1   -1    0    0    0  501  0.00000000000E+00  0.00000000000E+00  0.15171263842E+04  0.15171263842E+04  0.50400001928E-02 0.  1.
        1   -1    0    0  501    0  0.00000000000E+00  0.00000000000E+00 -0.25797846712E+04  0.25797846712E+04  0.50400001928E-02 0. -1.
    10030    2    1    2    0    0  0.00000000000E+00  0.00000000000E+00 -0.10626582870E+04  0.40969110555E+04  0.39566952829E+04 0.  0.
        2    1    3    3  502    0  0.19194985284E+04 -0.38991474195E+03 -0.81930607074E+03  0.21231510884E+04  0.25500000920E-02 0. -1.
       -2    1    3    3    0  502 -0.19194985284E+04  0.38991474195E+03 -0.24335221624E+03  0.19737599671E+04  0.25500000920E-02 0.  1.
</event>
<event>
 5   0  0.3665303E-07  0.3507849E+04  0.7818609E-02  0.8111932E-01
       -2   -1    0    0    0  501  0.00000000000E+00  0.00000000000E+00  0.13058164795E+04  0.13058164795E+04  0.25500000920E-02 0. -1.
        2   -1    0    0  501    0  0.00000000000E+00  0.00000000000E+00 -0.23558072282E+04  0.23558072282E+04  0.25500000920E-02 0.  1.
    10030    2    1    2    0    0  0.00000000000E+00  0.00000000000E+00 -0.10499907487E+04  0.36616237076E+04  0.35078494272E+04 0.  0.
        2    1    3    3  502    0 -0.73878472177E+03 -0.70737992638E+03  0.96226665851E+03  0.14043312812E+04  0.25500000920E-02 0. -1.
       -2    1    3    3    0  502  0.73878472177E+03  0.70737992638E+03 -0.20122574072E+04  0.22572924264E+04  0.25500000920E-02 0.  1.
</event>
<event>
 5   0  0.3810833E-07  0.3882622E+04  0.7818609E-02  0.8028653E-01
        2   -1    0    0  501    0  0.00000000000E+00  0.00000000000E+00  0.14049546436E+04  0.14049546436E+04  0.25500000920E-02 0.  1.
       -2   -1    0    0    0  501  0.00000000000E+00  0.00000000000E+00 -0.26824264260E+04  0.26824264260E+04  0.25500000920E-02 0. -1.
    10030    2    1    2    0    0  0.00000000000E+00  0.00000000000E+00 -0.12774717823E+04  0.40873810696E+04  0.38826215182E+04 0.  0.
        3    1    3    3  502    0  0.87545549092E+03  0.16039521467E+04  0.51271188434E+02  0.18280354347E+04  0.10100000352E+00 0. -1.
       -3    1    3    3    0  502 -0.87545549092E+03 -0.16039521467E+04 -0.13287429708E+04  0.22593456349E+04  0.10100000352E+00 0.  1.
</event>
<event>
 5   0  0.3610483E-07  0.2870247E+04  0.7818609E-02  0.8281785E-01
        2   -1    0    0  501    0  0.00000000000E+00  0.00000000000E+00  0.21866243413E+04  0.21866243413E+04  0.25500000920E-02 0. -1.
       -2   -1    0    0    0  501  0.00000000000E+00  0.00000000000E+00 -0.94189937198E+03  0.94189937199E+03  0.25500000920E-02 0.  1.
    10030    2    1    2    0    0  0.00000000000E+00  0.00000000000E+00  0.12447249693E+04  0.31285237133E+04  0.28702474415E+04 0.  0.
        4    1    3    3  502    0  0.27503646539E+02 -0.10271968505E+04  0.17143548990E+04  0.19987256322E+04  0.12699999809E+01 0. -1.
       -4    1    3    3    0  502 -0.27503646539E+02  0.10271968505E+04 -0.46962992965E+03  0.11297980811E+04  0.12699999809E+01 0.  1.
</event>
<event>
 5   0  0.1187925E-07  0.3881476E+04  0.7818609E-02  0.8028893E-01
        1   -1    0    0  501    0  0.00000000000E+00  0.00000000000E+00  0.16090079556E+04  0.16090079556E+04  0.50400001928E-02 0.  1.
       -1   -1    0    0    0  501  0.00000000000E+00  0.00000000000E+00 -0.23408614511E+04  0.23408614511E+04  0.50400001928E-02 0. -1.
    10030    2    1    2    0    0  0.00000000000E+00  0.00000000000E+00 -0.73185349556E+03  0.39498694067E+04  0.38814763674E+04 0.  0.
        5    1    3    3  502    0  0.14064003796E+04  0.13028035139E+04 -0.67321369979E+03  0.20318705174E+04  0.46999998093E+01 0. -1.
       -5    1    3    3    0  502 -0.14064003796E+04 -0.13028035139E+04 -0.58639795774E+02  0.19179988893E+04  0.46999998093E+01 0.  1.
</event>
<event>
 5   0  0.3680814E-07  0.3570538E+04  0.7818609E-02  0.8097274E-01
        2   -1    0    0  501    0  0.00000000000E+00  0.00000000000E+00  0.15860636235E+04  0.15860636235E+04  0.25500000920E-02 0. -1.
       -2   -1    0    0    0  501  0.00000000000E+00  0.00000000000E+00 -0.20094936214E+04  0.20094936214E+04  0.25500000920E-02 0.  1.
    10030    2    1    2    0    0  0.00000000000E+00  0.00000000000E+00 -0.42342999786E+03  0.35955572449E+04  0.35705376260E+04 0.  0.
        1    1    3    3  502    0  0.78884840001E+03 -0.15181355060E+04 -0.72535534929E+03  0.18582673639E+04  0.50400001928E-02 0.  1.
       -1    1    3    3    0  502 -0.78884840001E+03  0.15181355060E+04  0.30192535143E+03  0.17372898810E+04  0.50400001928E-02 0. -1.
</event>
<event>
 5   0  0.3832389E-07  0.3806513E+04  0.7818609E-02  0.8044759E-01
        2   -1    0    0  501    0  0.00000000000E+00  0.00000000000E+00  0.22256351536E+04  0.22256351536E+04  0.25500000920E-02 0. -1.
       -2   -1    0    0    0  501  0.00000000000E+00  0.00000000000E+00 -0.16275734992E+04  0.16275734992E+04  0.25500000920E-02 0.  1.
    10030    2    1    2    0    0  0.00000000000E+00  0.00000000000E+00  0.59806165439E+03  0.38532086528E+04  0.38065127321E+04 0.  0.
        5    1    3    3  502    0  0.66723255718E+03 -0.17596241803E+04  0.11136996352E+02  0.18819199409E+04  0.46999998093E+01 0.  1.
       -5    1    3    3    0  502 -0.66723255718E+03  0.17596241803E+04  0.58692465803E+03  0.19712887119E+04  0.46999998093E+01 0. -1.
</event>
<event>
 5   0  0.1187925E-07  0.3346731E+04  0.7818609E-02  0.8151105E-01
        1   -1    0    0  501    0  0.00000000000E+00  0.00000000000E+00  0.19708793418E+04  0.19708793418E+04  0.50400001928E-02 0.  1.
       -1   -1    0    0    0  501  0.00000000000E+00  0.00000000000E+00 -0.14207629438E+04  0.14207629438E+04  0.50400001928E-02 0. -1.
    10030    2    1    2    0    0  0.00000000000E+00  0.00000000000E+00  0.55011639800E+03  0.33916422856E+04  0.33467311428E+04 0.  0.
        4    1    3    3  502    0 -0.54118872607E+03 -0.15111460218E+04 -0.20426152544E+03  0.16180766113E+04  0.12699999809E+01 0.  1.
       -4    1    3    3    0  502  0.54118872607E+03  0.15111460218E+04  0.75437792345E+03  0.17735656742E+04  0.12699999809E+01 0. -1.
</event>
<event>
 5   0  0.1187925E-07  0.3876411E+04  0.7818609E-02  0.8029953E-01
        1   -1    0    0  501    0  0.00000000000E+00  0.00000000000E+00  0.25847607224E+04  0.25847607224E+04  0.50400001928E-02 0.  1.
       -1   -1    0    0    0  501  0.00000000000E+00  0.00000000000E+00 -0.14533806069E+04  0.14533806069E+04  0.50400001928E-02 0. -1.
    10030    2    1    2    0    0  0.00000000000E+00  0.00000000000E+00  0.11313801154E+04  0.40381413293E+04  0.38764112823E+04 0.  0.
        2    1    3    3  502    0  0.96116183134E+03 -0.31328356318E+03  0.22883657646E+04  0.25017187151E+04  0.25500000920E-02 0.  1.
       -2    1    3    3    0  502 -0.96116183134E+03  0.31328356318E+03 -0.11569856492E+04  0.15364226142E+04  0.25500000920E-02 0. -1.
</event>
<event>
 5   0  0.1187925E-07  0.3910367E+04  0.7818609E-02  0.8022877E-01
       -1   -1    0    0    0  501  0.00000000000E+00  0.00000000000E+00  0.31347459456E+04  0.31347459456E+04  0.50400001928E-02 0. -1.
        1   -1    0    0  501    0  0.00000000000E+00  0.00000000000E+00 -0.12194741352E+04  0.12194741352E+04  0.50400001928E-02 0.  1.
    10030    2    1    2    0    0  0.00000000000E+00  0.00000000000E+00  0.19152718104E+04  0.43542200808E+04  0.39103665307E+04 0.  0.
        2    1    3    3  502    0  0.12228749674E+04 -0.77814896219E+03 -0.50347973618E+03  0.15344154711E+04  0.25500000920E-02 0.  1.
       -2    1    3    3    0  502 -0.12228749674E+04  0.77814896219E+03  0.24187515465E+04  0.28198046097E+04  0.25500000920E-02 0. -1.
</event>
<event>
 5   0  0.1187925E-07  0.3092880E+04  0.7818609E-02  0.8217695E-01
       -1   -1    0    0    0  501  0.00000000000E+00  0.00000000000E+00  0.14902788330E+04  0.14902788330E+04  0.50400001928E-02 0.  1.
        1   -1    0    0  501    0  0.00000000000E+00  0.00000000000E+00 -0.16047172081E+04  0.16047172081E+04  0.50400001928E-02 0. -1.
    10030    2    1    2    0    0  0.00000000000E+00  0.00000000000E+00 -0.11443837519E+03  0.30949960411E+04  0.30928796214E+04 0.  0.
        5    1    3    3  502    0  0.54627136872E+03  0.61704616065E+03 -0.13666617534E+04  0.15959150387E+04  0.46999998093E+01 0. -1.
       -5    1    3    3    0  502 -0.54627136872E+03 -0.61704616065E+03  0.12522233782E+04  0.14990810024E+04  0.46999998093E+01 0.  1.
</event>
<event>
 5   0  0.1187925E-07  0.3868707E+04  0.7818609E-02  0.8031569E-01
       -1   -1    0    0    0  501  0.00000000000E+00  0.00000000000E+00  0.20155326816E+04  0.20155326817E+04  0.50400001928E-02 0. -1.
        1   -1    0    0  501    0  0.00000000000E+00  0.00000000000E+00 -0.18564438805E+04  0.18564438805E+04  0.50400001928E-02 0.  1.
    10030    2    1    2    0    0  0.00000000000E+00  0.00000000000E+00  0.15908880115E+03  0.38719765622E+04  0.38687069224E+04 0.  0.
        2    1    3    3  502    0  0.16202859056E+04 -0.36625119982E+02  0.11363987300E+04  0.19794115006E+04  0.25500000920E-02 0. -1.
       -2    1    3    3    0  502 -0.16202859056E+04  0.36625119982E+02 -0.97730992881E+03  0.18925650616E+04  0.25500000920E-02 0.  1.
</event>
<event>
 5   0  0.3665303E-07  0.3084696E+04  0.7818609E-02  0.8219950E-01
       -2   -1    0    0    0  501  0.00000000000E+00  0.00000000000E+00  0.11774589459E+04  0.11774589460E+04  0.25500000920E-02 0. -1.
        2   -1    0    0  501    0  0.00000000000E+00  0.00000000000E+00 -0.20203146506E+04  0.20203146506E+04  0.25500000920E-02 0.  1.
    10030    2    1    2    0    0  0.00000000000E+00  0.00000000000E+00 -0.84285570461E+03  0.31977735965E+04  0.30846961335E+04 0.  0.
        2    1    3    3  502    0  0.10183234562E+04 -0.48201714993E+03  0.67051972197E+03  0.13110758528E+04  0.25500000920E-02 0. -1.
       -2    1    3    3    0  502 -0.10183234562E+04  0.48201714993E+03 -0.15133754266E+04  0.18866977437E+04  0.25500000920E-02 0.  1.
</event>
<event>
 5   0  0.3665303E-07  0.3765948E+04  0.7818609E-02  0.8053502E-01
        2   -1    0    0  501    0  0.00000000000E+00  0.00000000000E+00  0.16069933973E+04  0.16069933973E+04  0.25500000920E-02 0.  1.
       -2   -1    0    0    0  501  0.00000000000E+00  0.00000000000E+00 -0.22063505853E+04  0.22063505853E+04  0.25500000920E-02 0. -1.
    10030    2    1    2    0    0  0.00000000000E+00  0.00000000000E+00 -0.59935718801E+03  0.38133439827E+04  0.37659478609E+04 0.  0.
        2    1    3    3  502    0  0.70102537940E+03 -0.90776458374E+03  0.12124738370E+04  0.16690014762E+04  0.25500000920E-02 0.  1.
       -2    1    3    3    0  502 -0.70102537940E+03  0.90776458374E+03 -0.18118310250E+04  0.21443425065E+04  0.25500000920E-02 0. -1.
</event>
<event>
 5   0  0.3810833E-07  0.3915102E+04  0.7818609E-02  0.8021896E-01
        2   -1    0    0  501    0  0.00000000000E+00  0.00000000000E+00  0.32989357150E+04  0.32989357150E+04  0.25500000920E-02 0. -1.
       -2   -1    0    0    0  501  0.00000000000E+00  0.00000000000E+00 -0.11615883902E+04  0.11615883902E+04  0.25500000920E-02 0.  1.
    10030    2    1    2    0    0  0.00000000000E+00  0.00000000000E+00  0.21373473248E+04  0.44605241052E+04  0.39151017492E+04 0.  0.
        3    1    3    3  502    0  0.18203600522E+04 -0.71888751701E+03  0.10246154813E+04  0.22091507138E+04  0.10100000352E+00 0. -1.
       -3    1    3    3    0  502 -0.18203600522E+04  0.71888751701E+03  0.11127318435E+04  0.22513733914E+04  0.10100000352E+00 0.  1.
</event>
<event>
 5   0  0.1187925E-07  0.3734342E+04  0.7818609E-02  0.8060394E-01
        1   -1    0    0  501    0  0.00000000000E+00  0.00000000000E+00  0.11336209497E+04  0.11336209497E+04  0.50400001928E-02 0. -1.
       -1   -1    0    0    0  501  0.00000000000E+00  0.00000000000E+00 -0.30753902461E+04  0.30753902461E+04  0.50400001928E-02 0.  1.
    10030    2    1    2    0    0  0.00000000000E+00  0.00000000000E+00 -0.19417692964E+04  0.42090111958E+04  0.37343416081E+04 0.  0.
        1    1    3    3  502    0  0.12460454875E+04 -0.82197050473E+03 -0.22350883276E+04  0.26877285391E+04  0.50400001928E-02 0.  1.
       -1    1    3    3    0  502 -0.12460454875E+04  0.82197050473E+03  0.29331903117E+03  0.15212826567E+04  0.50400001928E-02 0. -1.
</event>
<event>
 5   0  0.1187925E-07  0.3867406E+04  0.7818609E-02  0.8031842E-01
       -1   -1    0    0    0  501  0.00000000000E+00  0.00000000000E+00  0.21674380589E+04  0.21674380589E+04  0.50400001928E-02 0. -1.
        1   -1    0    0  501    0  0.00000000000E+00  0.00000000000E+00 -0.17251738092E+04  0.17251738092E+04  0.50400001928E-02 0.  1.
    10030    2    1    2    0    0  0.00000000000E+00  0.00000000000E+00  0.44226424973E+03  0.38926118681E+04  0.38674060414E+04 0.  0.
        2    1    3    3  502    0  0.11578219432E+03 -0.78333780508E+03  0.19967681420E+04  0.21480471704E+04  0.25500000920E-02 0. -1.
       -2    1    3    3    0  502 -0.11578219432E+03  0.78333780508E+03 -0.15545038923E+04  0.17445646977E+04  0.25500000920E-02 0.  1.
</event>
<event>
 5   0  0.1187925E-07  0.3825043E+04  0.7818609E-02  0.8040802E-01
        1   -1    0    0  501    0  0.00000000000E+00  0.00000000000E+00  0.20705691958E+04  0.20705691958E+04  0.50400001928E-02 0.  1.
       -1   -1    0    0    0  501  0.00000000000E+00  0.00000000000E+00 -0.17665377117E+04  0.17665377117E+04  0.50400001928E-02 0. -1.
    10030    2    1    2    0    0  0.00000000000E+00  0.00000000000E+00  0.30403148409E+03  0.38371069075E+04  0.38250430424E+04 0.  0.
        2    1    3    3  502    0 -0.10604782586E+04 -0.15068199551E+04  0.66609474200E+03  0.19592862780E+04  0.25500000920E-02 0. -1.
       -2    1    3    3    0  502  0.10604782586E+04  0.15068199551E+04 -0.36206325792E+03  0.18778206295E+04  0.25500000920E-02 0.  1.
</event>
<event>
 5   0  0.3810833E-07  0.3880662E+04  0.7818609E-02  0.8029063E-01
        2   -1    0    0  501    0  0.00000000000E+00  0.00000000000E+00  0.24469823033E+04  0.24469823033E+04  0.25500000920E-02 0.  1.
       -2   -1    0    0    0  501  0.00000000000E+00  0.00000000000E+00 -0.15385829128E+04  0.15385829128E+04  0.25500000920E-02 0. -1.
    10030    2    1    2    0    0  0.00000000000E+00  0.00000000000E+00  0.90839939048E+03  0.39855652161E+04  0.38806623970E+04 0.  0.
        3    1    3    3  502    0  0.14465606796E+04 -0.26867800266E+03  0.17533688235E+04  0.22888922889E+04  0.10100000352E+00 0.  1.
       -3    1    3    3    0  502 -0.14465606796E+04  0.26867800266E+03 -0.84496943306E+03  0.16966729272E+04  0.10100000352E+00 0. -1.
</event>
<event>
 5   0  0.3665303E-07  0.3887143E+04  0.7818609E-02  0.8027708E-01
       -2   -1    0    0    0  501  0.00000000000E+00  0.00000000000E+00  0.19429500530E+04  0.19429500530E+04  0.25500000920E-02 0.  1.
        2   -1    0    0  501    0  0.00000000000E+00  0.00000000000E+00 -0.19441933979E+04  0.19441933979E+04  0.25500000920E-02 0. -1.
    10030    2    1    2    0    0  0.00000000000E+00  0.00000000000E+00 -0.12433449075E+01  0.38871434509E+04  0.38871432521E+04 0.  0.
        2    1    3    3  502    0  0.89403049202E+02  0.12486527723E+03 -0.19381166549E+04  0.19441914542E+04  0.25500000920E-02 0. -1.
       -2    1    3    3    0  502 -0.89403049202E+02 -0.12486527723E+03  0.19368733100E+04  0.19429519967E+04  0.25500000920E-02 0.  1.
</event>
<event>
 5   0  0.3665303E-07  0.3753049E+04  0.7818609E-02  0.8056306E-01
        2   -1    0    0  501    0  0.00000000000E+00  0.00000000000E+00  0.27573412376E+04  0.27573412376E+04  0.25500000920E-02 0. -1.
       -2   -1    0    0    0  501  0.00000000000E+00  0.00000000000E+00 -0.12770792746E+04  0.12770792746E+04  0.25500000920E-02 0.  1.
    10030    2    1    2    0    0  0.00000000000E+00  0.00000000000E+00  0.14802619631E+04  0.40344205122E+04  0.37530485462E+04 0.  0.
        2    1    3    3  502    0  0.12263595011E+04 -0.64000333331E+03  0.21031769062E+04  0.25173229811E+04  0.25500000920E-02 0.  1.
       -2    1    3    3    0  502 -0.12263595011E+04  0.64000333331E+03 -0.62291494309E+03  0.15170975311E+04  0.25500000920E-02 0. -1.
</event>
<event>
 5   0  0.1187925E-07  0.3850009E+04  0.7818609E-02  0.8035507E-01
       -1   -1    0    0    0  501  0.00000000000E+00  0.00000000000E+00  0.14354869874E+04  0.14354869874E+04  0.50400001928E-02 0.  1.
        1   -1    0    0  501    0  0.00000000000E+00  0.00000000000E+00 -0.25814529818E+04  0.25814529818E+04  0.50400001928E-02 0. -1.
    10030    2    1    2    0    0  0.00000000000E+00  0.00000000000E+00 -0.11459659945E+04  0.40169399692E+04  0.38500089163E+04 0.  0.
        4    1    3    3  502    0 -0.10389270638E+04 -0.95898944616E+03  0.79003249993E+03  0.16196243903E+04  0.12699999809E+01 0.  1.
       -4    1    3    3    0  502  0.10389270638E+04  0.95898944616E+03 -0.19359984944E+04  0.23973155789E+04  0.12699999809E+01 0. -1.
</event>
<event>
 5   0  0.3680814E-07  0.3872358E+04  0.7818609E-02  0.8030803E-01
        2   -1    0    0  501    0  0.00000000000E+00  0.00000000000E+00  0.18722648876E+04  0.18722648876E+04  0.25500000920E-02 0.  1.
       -2   -1    0    0    0  501  0.00000000000E+00  0.00000000000E+00 -0.20022744650E+04  0.20022744650E+04  0.25500000920E-02 0. -1.
    10030    2    1    2    0    0  0.00000000000E+00  0.00000000000E+00 -0.13000957737E+03  0.38745393526E+04  0.38723575125E+04 0.  0.
        1    1    3    3  502    0  0.14870366951E+04  0.12255778127E+04 -0.25344323865E+03  0.19435926998E+04  0.50400001928E-02 0.  1.
       -1    1    3    3    0  502 -0.14870366951E+04 -0.12255778127E+04  0.12343366127E+03  0.19309466529E+04  0.50400001928E-02 0. -1.
</event>
<event>
 5   0  0.3810833E-07  0.3879523E+04  0.7818609E-02  0.8029302E-01
        2   -1    0    0  501    0  0.00000000000E+00  0.00000000000E+00  0.23415848005E+04  0.23415848005E+04  0.25500000920E-02 0.  1.
       -2   -1    0    0    0  501  0.00000000000E+00  0.00000000000E+00 -0.16068921847E+04  0.16068921847E+04  0.25500000920E-02 0. -1.
    10030    2    1    2    0    0  0.00000000000E+00  0.00000000000E+00  0.73469261587E+03  0.39484769852E+04  0.38795228138E+04 0.  0.
        3    1    3    3  502    0 -0.18153868712E+04 -0.47027860070E+01  0.10628833989E+04  0.21036569916E+04  0.10100000352E+00 0. -1.
       -3    1    3    3    0  502  0.18153868712E+04  0.47027860070E+01 -0.32819078302E+03  0.18448199936E+04  0.10100000352E+00 0.  1.
</event>
<event>
 5   0  0.1187925E-07  0.4177678E+04  0.7818609E-02  0.7969632E-01
        1   -1    0    0  501    0  0.00000000000E+00  0.00000000000E+00  0.18502915118E+04  0.18502915119E+04  0.50400001928E-02 0. -1.
       -1   -1    0    0    0  501  0.00000000000E+00  0.00000000000E+00 -0.23581415540E+04  0.23581415540E+04  0.50400001928E-02 0.  1.
    10030    2    1    2    0    0  0.00000000000E+00  0.00000000000E+00 -0.50785004211E+03  0.42084330658E+04  0.41776784467E+04 0.  0.
        2    1    3    3  502    0  0.69415820109E+03 -0.94843163635E+03 -0.19934467152E+04  0.23141322312E+04  0.25500000920E-02 0.  1.
       -2    1    3    3    0  502 -0.69415820109E+03  0.94843163635E+03  0.14855966731E+04  0.18943008346E+04  0.25500000920E-02 0. -1.
</event>
<event>
 5   0  0.3810833E-07  0.3885365E+04  0.7818609E-02  0.8028080E-01
       -2   -1    0    0    0  501  0.00000000000E+00  0.00000000000E+00  0.27538937581E+04  0.27538937581E+04  0.25500000920E-02 0. -1.
        2   -1    0    0  501    0  0.00000000000E+00  0.00000000000E+00 -0.13704290790E+04  0.13704290790E+04  0.25500000920E-02 0.  1.
    10030    2    1    2    0    0  0.00000000000E+00  0.00000000000E+00  0.13834646791E+04  0.41243228371E+04  0.38853654070E+04 0.  0.
        3    1    3    3  502    0 -0.15264923218E+04 -0.57166157077E+03  0.18136350772E+04  0.24384929697E+04  0.10100000352E+00 0. -1.
       -3    1    3    3    0  502  0.15264923218E+04  0.57166157077E+03 -0.43017039811E+03  0.16858298674E+04  0.10100000352E+00 0.  1.
</event>
<event>
 5   0  0.3665303E-07  0.3937316E+04  0.7818609E-02  0.8017313E-01
       -2   -1    0    0    0  501  0.00000000000E+00  0.00000000000E+00  0.19327630876E+04  0.19327630876E+04  0.25500000920E-02 0. -1.
        2   -1    0    0  501    0  0.00000000000E+00  0.00000000000E+00 -0.20052196109E+04  0.20052196109E+04  0.25500000920E-02 0.  1.
    10030    2    1    2    0    0  0.00000000000E+00  0.00000000000E+00 -0.72456523251E+02  0.39379826985E+04  0.39373160637E+04 0.  0.
        2    1    3    3  502    0  0.96117097494E+03 -0.17123840129E+04 -0.17591505892E+03  0.19715615026E+04  0.25500000920E-02 0. -1.
       -2    1    3    3    0  502 -0.96117097494E+03  0.17123840129E+04  0.10345853567E+03  0.19664211958E+04  0.25500000920E-02 0.  1.
</event>
<event>
 5   0  0.3810833E-07  0.3903533E+04  0.7818609E-02  0.8024295E-01
       -2   -1    0    0    0  501  0.00000000000E+00  0.00000000000E+00  0.14380518129E+04  0.14380518129E+04  0.25500000920E-02 0. -1.
        2   -1    0    0  501    0  0.00000000000E+00  0.00000000000E+00 -0.26489956515E+04  0.26489956515E+04  0.25500000920E-02 0.  1.
    10030    2    1    2    0    0  0.00000000000E+00  0.00000000000E+00 -0.12109438386E+04  0.40870474644E+04  0.39035332708E+04 0.  0.
        3    1    3    3  502    0  0.11832494937E+04  0.10569028651E+03  0.10159250287E+04  0.15631229878E+04  0.10100000352E+00 0. -1.
       -3    1    3    3    0  502 -0.11832494937E+04 -0.10569028651E+03 -0.22268688673E+04  0.25239244766E+04  0.10100000352E+00 0.  1.
</event>
<event>
 5   0  0.1187925E-07  0.3831526E+04  0.7818609E-02  0.8039423E-01
        1   -1    0    0  501    0  0.00000000000E+00  0.00000000000E+00  0.18147408696E+04  0.18147408696E+04  0.50400001928E-02 0.  1.
       -1   -1    0    0    0  501  0.00000000000E+00  0.00000000000E+00 -0.20224085718E+04  0.20224085718E+04  0.50400001928E-02 0. -1.
    10030    2    1    2    0    0  0.00000000000E+00  0.00000000000E+00 -0.20766770217E+03  0.38371494414E+04  0.38315258007E+04 0.  0.
        5    1    3    3  502    0 -0.54557587001E+03 -0.64327939001E+03  0.16187674966E+04  0.18253470086E+04  0.46999998093E+01 0.  1.
       -5    1    3    3    0  502  0.54557587001E+03  0.64327939001E+03 -0.18264351988E+04  0.20118024329E+04  0.46999998093E+01 0. -1.
</event>
<event>
 5   0  0.1187925E-07  0.3876417E+04  0.7818609E-02  0.8029952E-01
       -1   -1    0    0    0  501  0.00000000000E+00  0.00000000000E+00  0.26802932109E+04  0.26802932109E+04  0.50400001928E-02 0. -1.
        1   -1    0    0  501    0  0.00000000000E+00  0.00000000000E+00 -0.14015827756E+04  0.14015827756E+04  0.50400001928E-02 0.  1.
    10030    2    1    2    0    0  0.00000000000E+00  0.00000000000E+00  0.12787104354E+04  0.40818759865E+04  0.38764173139E+04 0.  0.
        5    1    3    3  502    0 -0.13493851718E+04 -0.13897677722E+04  0.70869287791E+03  0.20626590818E+04  0.46999998093E+01 0. -1.
       -5    1    3    3    0  502  0.13493851718E+04  0.13897677722E+04  0.57001755747E+03  0.20192169047E+04  0.46999998093E+01 0.  1.
</event>
<event>
 5   0  0.3680814E-07  0.3852081E+04  0.7818609E-02  0.8035070E-01
       -2   -1    0    0    0  501  0.00000000000E+00  0.00000000000E+00  0.13943091572E+04  0.13943091572E+04  0.25500000920E-02 0. -1.
        2   -1    0    0  501    0  0.00000000000E+00  0.00000000000E+00 -0.26605519712E+04  0.26605519712E+04  0.25500000920E-02 0.  1.
    10030    2    1    2    0    0  0.00000000000E+00  0.00000000000E+00 -0.12662428140E+04  0.40548611285E+04  0.38520809840E+04 0.  0.
        1    1    3    3  502    0 -0.21839956814E+03  0.17595198434E+04 -0.14250715058E+04  0.22747389405E+04  0.50400001928E-02 0.  1.
       -1    1    3    3    0  502  0.21839956814E+03 -0.17595198434E+04  0.15882869179E+03  0.17801221880E+04  0.50400001928E-02 0. -1.
</event>
<event>
 5   0  0.1187925E-07  0.2914655E+04  0.7818609E-02  0.8268530E-01
       -1   -1    0    0    0  501  0.00000000000E+00  0.00000000000E+00  0.16803127655E+04  0.16803127656E+04  0.50400001928E-02 0. -1.
        1   -1    0    0  501    0  0.00000000000E+00  0.00000000000E+00 -0.12639337505E+04  0.12639337505E+04  0.50400001928E-02 0.  1.
    10030    2    1    2    0    0  0.00000000000E+00  0.00000000000E+00  0.41637901502E+03  0.29442465161E+04  0.29146553936E+04 0.  0.
        4    1    3    3  502    0  0.26492659100E+03  0.13196664012E+04 -0.35613859581E+03  0.13923152737E+04  0.12699999809E+01 0. -1.
       -4    1    3    3    0  502 -0.26492659100E+03 -0.13196664012E+04  0.77251761083E+03  0.15519312424E+04  0.12699999809E+01 0.  1.
</event>
<event>
 5   0  0.3665303E-07  0.3426978E+04  0.7818609E-02  0.8131317E-01
        2   -1    0    0  501    0  0.00000000000E+00  0.00000000000E+00  0.28234466591E+04  0.28234466591E+04  0.25500000920E-02 0.  1.
       -2   -1    0    0    0  501  0.00000000000E+00  0.00000000000E+00 -0.10398797821E+04  0.10398797821E+04  0.25500000920E-02 0. -1.
    10030    2    1    2    0    0  0.00000000000E+00  0.00000000000E+00  0.17835668770E+04  0.38633264411E+04  0.34269783171E+04 0.  0.
        2    1    3    3  502    0  0.15090780666E+04  0.78376153105E+03  0.65411687319E+03  0.18219406227E+04  0.25500000920E-02 0.  1.
       -2    1    3    3    0  502 -0.15090780666E+04 -0.78376153105E+03  0.11294500038E+04  0.20413858185E+04  0.25500000920E-02 0. -1.
</event>
<event>
 5   0  0.1187925E-07  0.3938488E+04  0.7818609E-02  0.8017072E-01
       -1   -1    0    0    0  501  0.00000000000E+00  0.00000000000E+00  0.13321436882E+04  0.13321436882E+04  0.50400001928E-02 0. -1.
        1   -1    0    0  501    0  0.00000000000E+00  0.00000000000E+00 -0.29110383941E+04  0.29110383941E+04  0.50400001928E-02 0.  1.
    10030    2    1    2    0    0  0.00000000000E+00  0.00000000000E+00 -0.15788947059E+04  0.42431820823E+04  0.39384877417E+04 0.  0.
        1    1    3    3  502    0  0.17568062788E+04  0.66439297171E+03 -0.15194763663E+03  0.18843763972E+04  0.50400001928E-02 0. -1.
       -1    1    3    3    0  502 -0.17568062788E+04 -0.66439297171E+03 -0.14269470692E+04  0.23588056852E+04  0.50400001928E-02 0.  1.
</event>
<event>
 5   0  0.3610483E-07  0.3906513E+04  0.7818609E-02  0.8023676E-01
       -2   -1    0    0    0  501  0.00000000000E+00  0.00000000000E+00  0.29359198384E+04  0.29359198384E+04  0.25500000920E-02 0.  1.
        2   -1    0    0  501    0  0.00000000000E+00  0.00000000000E+00 -0.12994940145E+04  0.12994940145E+04  0.25500000920E-02 0. -1.
    10030    2    1    2    0    0  0.00000000000E+00  0.00000000000E+00  0.16364258239E+04  0.42354138529E+04  0.39065126428E+04 0.  0.
        4    1    3    3  502    0 -0.11686557097E+04  0.14696865645E+04  0.14015388776E+04  0.23430850612E+04  0.12699999809E+01 0.  1.
       -4    1    3    3    0  502  0.11686557097E+04 -0.14696865645E+04  0.23488694637E+03  0.18923287918E+04  0.12699999809E+01 0. -1.
</event>
<event>
 5   0  0.1187925E-07  0.2912021E+04  0.7818609E-02  0.8269310E-01
        1   -1    0    0  501    0  0.00000000000E+00  0.00000000000E+00  0.20861106941E+04  0.20861106941E+04  0.50400001928E-02 0. -1.
       -1   -1    0    0    0  501  0.00000000000E+00  0.00000000000E+00 -0.10162289137E+04  0.10162289138E+04  0.50400001928E-02 0.  1.
    10030    2    1    2    0    0  0.00000000000E+00  0.00000000000E+00  0.10698817803E+04  0.31023396078E+04  0.29120206075E+04 0.  0.
        4    1    3    3  502    0 -0.39812774755E+02  0.11776474699E+04  0.14461324931E+04  0.18654059668E+04  0.12699999809E+01 0. -1.
       -4    1    3    3    0  502  0.39812774755E+02 -0.11776474699E+04 -0.37625071281E+03  0.12369336410E+04  0.12699999809E+01 0.  1.
</event>
<event>
 5   0  0.3832389E-07  0.3921438E+04  0.7818609E-02  0.8020585E-01
        2   -1    0    0  501    0  0.00000000000E+00  0.00000000000E+00  0.25567924148E+04  0.25567924148E+04  0.25500000920E-02 0.  1.
       -2   -1    0    0    0  501  0.00000000000E+00  0.00000000000E+00 -0.15036101827E+04  0.15036101827E+04  0.25500000920E-02 0. -1.
    10030    2    1    2    0    0  0.00000000000E+00  0.00000000000E+00  0.10531822321E+04  0.40604025974E+04  0.39214380576E+04 0.  0.
        5    1    3    3  502    0  0.18039791400E+03 -0.15582047878E+04  0.17446505349E+04  0.23461400528E+04  0.46999998093E+01 0.  1.
       -5    1    3    3    0  502 -0.18039791400E+03  0.15582047878E+04 -0.69146830283E+03  0.17142625447E+04  0.46999998093E+01 0. -1.
</event>
<event>
 5   0  0.1187925E-07  0.3660738E+04  0.7818609E-02  0.8076719E-01
        1   -1    0    0  501    0  0.00000000000E+00  0.00000000000E+00  0.13689748488E+04  0.13689748488E+04  0.50400001928E-02 0. -1.
       -1   -1    0    0    0  501  0.00000000000E+00  0.00000000000E+00 -0.24472703422E+04  0.24472703422E+04  0.50400001928E-02 0.  1.
    10030    2    1    2    0    0  0.00000000000E+00  0.00000000000E+00 -0.10782954933E+04  0.38162451910E+04  0.36607384756E+04 0.  0.
        4    1    3    3  502    0  0.25871528228E+03 -0.12212326296E+04  0.85633773821E+03  0.15138225351E+04  0.12699999809E+01 0. -1.
       -4    1    3    3    0  502 -0.25871528228E+03  0.12212326296E+04 -0.19346332315E+04  0.23024226559E+04  0.12699999809E+01 0.  1.
</event>
<event>
 5   0  0.1187925E-07  0.3864036E+04  0.7818609E-02  0.8032551E-01
       -1   -1    0    0    0  501  0.00000000000E+00  0.00000000000E+00  0.15789983968E+04  0.15789983968E+04  0.50400001928E-02 0. -1.
        1   -1    0    0  501    0  0.00000000000E+00  0.00000000000E+00 -0.23639630410E+04  0.23639630410E+04  0.50400001928E-02 0.  1.
    10030    2    1    2    0    0  0.00000000000E+00  0.00000000000E+00 -0.78496464420E+03  0.39429614379E+04  0.38640361551E+04 0.  0.
        5    1    3    3  502    0 -0.79050743875E+03 -0.14454109152E+04  0.63736780088E+03  0.17664581875E+04  0.46999998093E+01 0.  1.
       -5    1    3    3    0  502  0.79050743875E+03  0.14454109152E+04 -0.14223324451E+04  0.21765032504E+04  0.46999998093E+01 0. -1.
</event>
<event>
 5   0  0.3680814E-07  0.3834481E+04  0.7818609E-02  0.8038796E-01
       -2   -1    0    0    0  501  0.00000000000E+00  0.00000000000E+00  0.13553863779E+04  0.13553863779E+04  0.25500000920E-02 0. -1.
        2   -1    0    0  501    0  0.00000000000E+00  0.00000000000E+00 -0.27120021671E+04  0.27120021671E+04  0.25500000920E-02 0.  1.
    10030    2    1    2    0    0  0.00000000000E+00  0.00000000000E+00 -0.13566157891E+04  0.40673885450E+04  0.38344808223E+04 0.  0.
        1    1    3    3  502    0  0.13233238498E+04 -0.61135116912E+02 -0.21484524217E+04  0.25240386927E+04  0.50400001928E-02 0.  1.
       -1    1    3    3    0  502 -0.13233238498E+04  0.61135116912E+02  0.79183663254E+03  0.15433498523E+04  0.50400001928E-02 0. -1.
</event>
<event>
 5   0  0.1187925E-07  0.3970936E+04  0.7818609E-02  0.8010436E-01
       -1   -1    0    0    0  501  0.00000000000E+00  0.00000000000E+00  0.19878470549E+04  0.19878470549E+04  0.50400001928E-02 0.  1.
        1   -1    0    0  501    0  0.00000000000E+00  0.00000000000E+00 -0.19830915067E+04  0.19830915067E+04  0.50400001928E-02 0. -1.
    10030    2    1    2    0    0  0.00000000000E+00  0.00000000000E+00  0.47555482047E+01  0.39709385617E+04  0.39709357141E+04 0.  0.
        5    1    3    3  502    0 -0.14223578416E+04  0.11475129032E+04 -0.77362073918E+03  0.19845399544E+04  0.46999998093E+01 0. -1.
       -5    1    3    3    0  502  0.14223578416E+04 -0.11475129032E+04  0.77837628738E+03  0.19863986073E+04  0.46999998093E+01 0.  1.
</event>
<event>
 5   0  0.3680814E-07  0.3892816E+04  0.7818609E-02  0.8026525E-01
       -2   -1    0    0    0  501  0.00000000000E+00  0.00000000000E+00  0.21652502762E+04  0.21652502762E+04  0.25500000920E-02 0.  1.
        2   -1    0    0  501    0  0.00000000000E+00  0.00000000000E+00 -0.17496843889E+04  0.17496843889E+04  0.25500000920E-02 0. -1.
    10030    2    1    2    0    0  0.00000000000E+00  0.00000000000E+00  0.41556588732E+03  0.39149346651E+04  0.38928162588E+04 0.  0.
        1    1    3    3  502    0 -0.57104194161E+03  0.18229047873E+04  0.58331300919E+03  0.19973294243E+04  0.50400001928E-02 0.  1.
       -1    1    3    3    0  502  0.57104194161E+03 -0.18229047873E+04 -0.16774712187E+03  0.19176052408E+04  0.50400001928E-02 0. -1.
</event>
<event>
 5   0  0.1187925E-07  0.3912639E+04  0.7818609E-02  0.8022406E-01
        1   -1    0    0  501    0  0.00000000000E+00  0.00000000000E+00  0.23355511919E+04  0.23355511919E+04  0.50400001928E-02 0. -1.
       -1   -1    0    0    0  501  0.00000000000E+00  0.00000000000E+00 -0.16386648579E+04  0.16386648579E+04  0.50400001928E-02 0.  1.
    10030    2    1    2    0    0  0.00000000000E+00  0.00000000000E+00  0.69688633396E+03  0.39742160497E+04  0.39126388343E+04 0.  0.
        3    1    3    3  502    0 -0.14067696015E+03  0.15939536820E+04  0.14916369374E+04  0.21875692242E+04  0.10100000352E+00 0. -1.
       -3    1    3    3    0  502  0.14067696015E+03 -0.15939536820E+04 -0.79475060347E+03  0.17866468256E+04  0.10100000352E+00 0.  1.
</event>
<event>
 5   0  0.1187925E-07  0.3884839E+04  0.7818609E-02  0.8028190E-01
        1   -1    0    0  501    0  0.00000000000E+00  0.00000000000E+00  0.12492657392E+04  0.12492657392E+04  0.50400001928E-02 0.  1.
       -1   -1    0    0    0  501  0.00000000000E+00  0.00000000000E+00 -0.30201682014E+04  0.30201682014E+04  0.50400001928E-02 0. -1.
    10030    2    1    2    0    0  0.00000000000E+00  0.00000000000E+00 -0.17709024622E+04  0.42694339406E+04  0.38848385607E+04 0.  0.
        5    1    3    3  502    0 -0.76241568488E+03  0.86788312717E+03 -0.26016049613E+04  0.28465539277E+04  0.46999998093E+01 0. -1.
       -5    1    3    3    0  502  0.76241568488E+03 -0.86788312717E+03  0.83070249909E+03  0.14228800129E+04  0.46999998093E+01 0.  1.
</event>
<event>
 5   0  0.3610483E-07  0.3731124E+04  0.7818609E-02  0.8061099E-01
        2   -1    0    0  501    0  0.00000000000E+00  0.00000000000E+00  0.26715430198E+04  0.26715430198E+04  0.25500000920E-02 0.  1.
       -2   -1    0    0    0  501  0.00000000000E+00  0.00000000000E+00 -0.13027384226E+04  0.13027384226E+04  0.25500000920E-02 0. -1.
    10030    2    1    2    0    0  0.00000000000E+00  0.00000000000E+00  0.13688045973E+04  0.39742814424E+04  0.37311240877E+04 0.  0.
        4    1    3    3  502    0 -0.10595867670E+04  0.88922207153E+03  0.20177297196E+04  0.24463595083E+04  0.12699999809E+01 0.  1.
       -4    1    3    3    0  502  0.10595867670E+04 -0.88922207153E+03 -0.64892512238E+03  0.15279219341E+04  0.12699999809E+01 0. -1.
</event>
<event>
 5   0  0.3665303E-07  0.3681576E+04  0.7818609E-02  0.8072057E-01
       -2   -1    0    0    0  501  0.00000000000E+00  0.00000000000E+00  0.24206587214E+04  0.24206587214E+04  0.25500000920E-02 0.  1.
        2   -1    0    0  501    0  0.00000000000E+00  0.00000000000E+00 -0.13998256487E+04  0.13998256487E+04  0.25500000920E-02 0. -1.
    10030    2    1    2    0    0  0.00000000000E+00  0.00000000000E+00  0.10208330727E+04  0.38204843701E+04  0.36815758392E+04 0.  0.
        2    1    3    3  502    0  0.48154562283E+03 -0.14033580965E+04  0.16411145409E+04  0.22123645880E+04  0.25500000920E-02 0.  1.
       -2    1    3    3    0  502 -0.48154562283E+03  0.14033580965E+04 -0.62028146820E+03  0.16081197821E+04  0.25500000920E-02 0. -1.
</event>
<event>
 5   0  0.1187925E-07  0.3877929E+04  0.7818609E-02  0.8029635E-01
        1   -1    0    0  501    0  0.00000000000E+00  0.00000000000E+00  0.26171732793E+04  0.26171732793E+04  0.50400001928E-02 0.  1.
       -1   -1    0    0    0  501  0.00000000000E+00  0.00000000000E+00 -0.14365053187E+04  0.14365053187E+04  0.50400001928E-02 0. -1.
    10030    2    1    2    0    0  0.00000000000E+00  0.00000000000E+00  0.11806679607E+04  0.40536785980E+04  0.38779290018E+04 0.  0.
        4    1    3    3  502    0  0.81247427186E+03  0.13632715571E+04 -0.57413517630E+03  0.16876778704E+04  0.12699999809E+01 0. -1.
       -4    1    3    3    0  502 -0.81247427186E+03 -0.13632715571E+04  0.17548031370E+04  0.23660007276E+04  0.12699999809E+01 0.  1.
</event>
<event>
 5   0  0.3832389E-07  0.2998236E+04  0.7818609E-02  0.8244235E-01
       -2   -1    0    0    0  501  0.00000000000E+00  0.00000000000E+00  0.18699872750E+04  0.18699872750E+04  0.25500000920E-02 0.  1.
        2   -1    0    0  501    0  0.00000000000E+00  0.00000000000E+00 -0.12018024265E+04  0.12018024266E+04  0.25500000920E-02 0. -1.
    10030    2    1    2    0    0  0.00000000000E+00  0.00000000000E+00  0.66818484841E+03  0.30717897015E+04  0.29982363113E+04 0.  0.
        5    1    3    3  502    0  0.12594085117E+04  0.41017194937E+03  0.10534441598E+04  0.16923703836E+04  0.46999998093E+01 0.  1.
       -5    1    3    3    0  502 -0.12594085117E+04 -0.41017194937E+03 -0.38525931143E+03  0.13794193179E+04  0.46999998093E+01 0. -1.
</event>
<event>
 5   0  0.1187925E-07  0.3907772E+04  0.7818609E-02  0.8023415E-01
       -1   -1    0    0    0  501  0.00000000000E+00  0.00000000000E+00  0.23390300699E+04  0.23390300699E+04  0.50400001928E-02 0.  1.
        1   -1    0    0  501    0  0.00000000000E+00  0.00000000000E+00 -0.16321594549E+04  0.16321594549E+04  0.50400001928E-02 0. -1.
    10030    2    1    2    0    0  0.00000000000E+00  0.00000000000E+00  0.70687061502E+03  0.39711895248E+04  0.39077717660E+04 0.  0.
        1    1    3    3  502    0 -0.12090885322E+03 -0.18208990935E+04  0.10628892378E+04  0.21118773618E+04  0.50400001928E-02 0.  1.
       -1    1    3    3    0  502  0.12090885322E+03  0.18208990935E+04 -0.35601862274E+03  0.18593121630E+04  0.50400001928E-02 0. -1.
</event>
<event>
 5   0  0.3610483E-07  0.3240115E+04  0.7818609E-02  0.8178302E-01
        2   -1    0    0  501    0  0.00000000000E+00  0.00000000000E+00  0.12915032187E+04  0.12915032187E+04  0.25500000920E-02 0.  1.
       -2   -1    0    0    0  501  0.00000000000E+00  0.00000000000E+00 -0.20321950587E+04  0.20321950587E+04  0.25500000920E-02 0. -1.
    10030    2    1    2    0    0  0.00000000000E+00  0.00000000000E+00 -0.74069184001E+03  0.33236982775E+04  0.32401150964E+04 0.  0.
        4    1    3    3  502    0  0.13856539408E+03 -0.12358446106E+04 -0.14354330914E+04  0.18992056347E+04  0.12699999809E+01 0. -1.
       -4    1    3    3    0  502 -0.13856539408E+03  0.12358446106E+04  0.69474125137E+03  0.14244926428E+04  0.12699999809E+01 0.  1.
</event>
<event>
 5   0  0.1187925E-07  0.3909481E+04  0.7818609E-02  0.8023060E-01
       -1   -1    0    0    0  501  0.00000000000E+00  0.00000000000E+00  0.12665203444E+04  0.12665203444E+04  0.50400001928E-02 0.  1.
        1   -1    0    0  501    0  0.00000000000E+00  0.00000000000E+00 -0.30169358198E+04  0.30169358198E+04  0.50400001928E-02 0. -1.
    10030    2    1    2    0    0  0.00000000000E+00  0.00000000000E+00 -0.17504154754E+04  0.42834561642E+04  0.39094810876E+04 0.  0.
        2    1    3    3  502    0 -0.12868715917E+04 -0.18697537584E+03 -0.24742732870E+04  0.27951791684E+04  0.25500000920E-02 0. -1.
       -2    1    3    3    0  502  0.12868715917E+04  0.18697537584E+03  0.72385781162E+03  0.14882769958E+04  0.25500000920E-02 0.  1.
</event>
<event>
 5   0  0.1187925E-07  0.3918900E+04  0.7818609E-02  0.8021110E-01
        1   -1    0    0  501    0  0.00000000000E+00  0.00000000000E+00  0.20400022079E+04  0.20400022079E+04  0.50400001928E-02 0. -1.
       -1   -1    0    0    0  501  0.00000000000E+00  0.00000000000E+00 -0.18820783352E+04  0.18820783353E+04  0.50400001928E-02 0.  1.
    10030    2    1    2    0    0  0.00000000000E+00  0.00000000000E+00  0.15792387267E+03  0.39220805432E+04  0.39188998249E+04 0.  0.
        2    1    3    3  502    0 -0.72859504715E+03  0.13046230391E+04 -0.11895651111E+04  0.19099626097E+04  0.25500000920E-02 0.  1.
       -2    1    3    3    0  502  0.72859504715E+03 -0.13046230391E+04  0.13474889837E+04  0.20121179335E+04  0.25500000920E-02 0. -1.
</event>
<event>
 5   0  0.3665303E-07  0.3971628E+04  0.7818609E-02  0.8010295E-01
        2   -1    0    0  501    0  0.00000000000E+00  0.00000000000E+00  0.18430718924E+04  0.18430718924E+04  0.25500000920E-02 0.  1.
       -2   -1    0    0    0  501  0.00000000000E+00  0.00000000000E+00 -0.21396115249E+04  0.21396115249E+04  0.25500000920E-02 0. -1.
    10030    2    1    2    0    0  0.00000000000E+00  0.00000000000E+00 -0.29653963244E+03  0.39826834173E+04  0.39716283120E+04 0.  0.
        2    1    3    3  502    0 -0.13385798232E+04  0.14448995674E+04  0.10527217110E+03  0.19724636709E+04  0.25500000920E-02 0.  1.
       -2    1    3    3    0  502  0.13385798232E+04 -0.14448995674E+04 -0.40181180354E+03  0.20102197464E+04  0.25500000920E-02 0. -1.
</event>
<event>
 5   0  0.1187925E-07  0.3885545E+04  0.7818609E-02  0.8028042E-01
        1   -1    0    0  501    0  0.00000000000E+00  0.00000000000E+00  0.19506337534E+04  0.19506337534E+04  0.50400001928E-02 0.  1.
       -1   -1    0    0    0  501  0.00000000000E+00  0.00000000000E+00 -0.19349427916E+04  0.19349427916E+04  0.50400001928E-02 0. -1.
    10030    2    1    2    0    0  0.00000000000E+00  0.00000000000E+00  0.15690961766E+02  0.38855765450E+04  0.38855448628E+04 0.  0.
        5    1    3    3  502    0 -0.13912306656E+04  0.12341421302E+04 -0.55404260094E+03  0.19405192233E+04  0.46999998093E+01 0. -1.
       -5    1    3    3    0  502  0.13912306656E+04 -0.12341421302E+04  0.56973356271E+03  0.19450573217E+04  0.46999998093E+01 0.  1.
</event>
<event>
 5   0  0.1187925E-07  0.3851035E+04  0.7818609E-02  0.8035291E-01
       -1   -1    0    0    0  501  0.00000000000E+00  0.00000000000E+00  0.17515794374E+04  0.17515794375E+04  0.50400001928E-02 0.  1.
        1   -1    0    0  501    0  0.00000000000E+00  0.00000000000E+00 -0.21167278717E+04  0.21167278717E+04  0.50400001928E-02 0. -1.
    10030    2    1    2    0    0  0.00000000000E+00  0.00000000000E+00 -0.36514843429E+03  0.38683073092E+04  0.38510346739E+04 0.  0.
        1    1    3    3  502    0 -0.16791105544E+04 -0.36488290300E+03  0.69026806231E+03  0.18517618056E+04  0.50400001928E-02 0.  1.
       -1    1    3    3    0  502  0.16791105544E+04  0.36488290300E+03 -0.10554164966E+04  0.20165455036E+04  0.50400001928E-02 0. -1.
</event>
<event>
 5   0  0.1187925E-07  0.3848941E+04  0.7818609E-02  0.8035733E-01
       -1   -1    0    0    0  501  0.00000000000E+00  0.00000000000E+00  0.27680662865E+04  0.27680662865E+04  0.50400001928E-02 0. -1.
        1   -1    0    0  501    0  0.00000000000E+00  0.00000000000E+00 -0.13379692735E+04  0.13379692735E+04  0.50400001928E-02 0.  1.
    10030    2    1    2    0    0  0.00000000000E+00  0.00000000000E+00  0.14300970130E+04  0.41060355600E+04  0.38489414848E+04 0.  0.
        5    1    3    3  502    0 -0.71197142176E+03 -0.11669277595E+04 -0.73003368892E+03  0.15497080300E+04  0.46999998093E+01 0.  1.
       -5    1    3    3    0  502  0.71197142176E+03  0.11669277595E+04  0.21601307019E+04  0.25563275300E+04  0.46999998093E+01 0. -1.
</event>
<event>
 5   0  0.3665303E-07  0.3237839E+04  0.7818609E-02  0.8178895E-01
        2   -1    0    0  501    0  0.00000000000E+00  0.00000000000E+00  0.16566968675E+04  0.16566968676E+04  0.25500000920E-02 0.  1.
       -2   -1    0    0    0  501  0.00000000000E+00  0.00000000000E+00 -0.15820032107E+04  0.15820032107E+04  0.25500000920E-02 0. -1.
    10030    2    1    2    0    0  0.00000000000E+00  0.00000000000E+00  0.74693656894E+02  0.32387000782E+04  0.32378386393E+04 0.  0.
        2    1    3    3  502    0  0.10218644012E+04 -0.26858871677E+03 -0.11895817353E+04  0.15910535686E+04  0.25500000920E-02 0. -1.
       -2    1    3    3    0  502 -0.10218644012E+04  0.26858871677E+03  0.12642753922E+04  0.16476465096E+04  0.25500000920E-02 0.  1.
</event>
<event>
 5   0  0.3665303E-07  0.3986026E+04  0.7818609E-02  0.8007372E-01
        2   -1    0    0  501    0  0.00000000000E+00  0.00000000000E+00  0.18665106826E+04  0.18665106826E+04  0.25500000920E-02 0. -1.
       -2   -1    0    0    0  501  0.00000000000E+00  0.00000000000E+00 -0.21280886946E+04  0.21280886946E+04  0.25500000920E-02 0.  1.
    10030    2    1    2    0    0  0.00000000000E+00  0.00000000000E+00 -0.26157801207E+03  0.39945993772E+04  0.39860257310E+04 0.  0.
        2    1    3    3  502    0 -0.17471005759E+04 -0.91449640940E+03 -0.42026351755E+03  0.20162553235E+04  0.25500000920E-02 0.  1.
       -2    1    3    3    0  502  0.17471005759E+04  0.91449640940E+03  0.15868550548E+03  0.19783440537E+04  0.25500000920E-02 0. -1.
</event>
<event>
 5   0  0.1187925E-07  0.3825276E+04  0.7818609E-02  0.8040752E-01
       -1   -1    0    0    0  501  0.00000000000E+00  0.00000000000E+00  0.22467330443E+04  0.22467330443E+04  0.50400001928E-02 0.  1.
        1   -1    0    0  501    0  0.00000000000E+00  0.00000000000E+00 -0.16282236364E+04  0.16282236364E+04  0.50400001928E-02 0. -1.
    10030    2    1    2    0    0  0.00000000000E+00  0.00000000000E+00  0.61850940787E+03  0.38749566807E+04  0.38252758580E+04 0.  0.
        1    1    3    3  502    0 -0.15716799027E+04  0.10337889489E+04  0.65911915180E+03  0.19933226943E+04  0.50400001928E-02 0.  1.
       -1    1    3    3    0  502  0.15716799027E+04 -0.10337889489E+04 -0.40609743928E+02  0.18816339864E+04  0.50400001928E-02 0. -1.
</event>
<event>
 5   0  0.3810833E-07  0.3923242E+04  0.7818609E-02  0.8020213E-01
        2   -1    0    0  501    0  0.00000000000E+00  0.00000000000E+00  0.23120218086E+04  0.23120218086E+04  0.25500000920E-02 0.  1.
       -2   -1    0    0    0  501  0.00000000000E+00  0.00000000000E+00 -0.16643256230E+04  0.16643256230E+04  0.25500000920E-02 0. -1.
    10030    2    1    2    0    0  0.00000000000E+00  0.00000000000E+00  0.64769618556E+03  0.39763474317E+04  0.39232420966E+04 0.  0.
        3    1    3    3  502    0  0.12181423920E+04  0.82089183341E+03  0.16415318662E+04  0.22028075647E+04  0.10100000352E+00 0.  1.
       -3    1    3    3    0  502 -0.12181423920E+04 -0.82089183341E+03 -0.99383568064E+03  0.17735398669E+04  0.10100000352E+00 0. -1.
</event>
<event>
 5   0  0.3810833E-07  0.3926963E+04  0.7818609E-02  0.8019445E-01
        2   -1    0    0  501    0  0.00000000000E+00  0.00000000000E+00  0.12461783944E+04  0.12461783944E+04  0.25500000920E-02 0.  1.
       -2   -1    0    0    0  501  0.00000000000E+00  0.00000000000E+00 -0.30936662329E+04  0.30936662329E+04  0.25500000920E-02 0. -1.
    10030    2    1    2    0    0  0.00000000000E+00  0.00000000000E+00 -0.18474878384E+04  0.43398446273E+04  0.39269632130E+04 0.  0.
        3    1    3    3  502    0 -0.14917340615E+04  0.11733122252E+04 -0.14799796431E+04  0.24067139095E+04  0.10100000352E+00 0. -1.
       -3    1    3    3    0  502  0.14917340615E+04 -0.11733122252E+04 -0.36750819535E+03  0.19331307178E+04  0.10100000352E+00 0.  1.
</event>
<event>
 5   0  0.3610483E-07  0.3505236E+04  0.7818609E-02  0.8112550E-01
       -2   -1    0    0    0  501  0.00000000000E+00  0.00000000000E+00  0.12209710061E+04  0.12209710061E+04  0.25500000920E-02 0. -1.
        2   -1    0    0  501    0  0.00000000000E+00  0.00000000000E+00 -0.25157592757E+04  0.25157592757E+04  0.25500000920E-02 0.  1.
    10030    2    1    2    0    0  0.00000000000E+00  0.00000000000E+00 -0.12947882696E+04  0.37367302817E+04  0.35052355891E+04 0.  0.
        4    1    3    3  502    0  0.25078814347E+03  0.17042855678E+04 -0.30330253050E+03  0.17491363662E+04  0.12699999809E+01 0.  1.
       -4    1    3    3    0  502 -0.25078814347E+03 -0.17042855678E+04 -0.99148573912E+03  0.19875939156E+04  0.12699999809E+01 0. -1.
</event>
<event>
 5   0  0.1187925E-07  0.3829010E+04  0.7818609E-02  0.8039958E-01
        1   -1    0    0  501    0  0.00000000000E+00  0.00000000000E+00  0.13448231514E+04  0.13448231514E+04  0.50400001928E-02 0. -1.
       -1   -1    0    0    0  501  0.00000000000E+00  0.00000000000E+00 -0.27255107373E+04  0.27255107373E+04  0.50400001928E-02 0.  1.
    10030    2    1    2    0    0  0.00000000000E+00  0.00000000000E+00 -0.13806875860E+04  0.40703338887E+04  0.38290102841E+04 0.  0.
        4    1    3    3  502    0 -0.52584447783E+03  0.16077100132E+04  0.26287880114E+03  0.17118267373E+04  0.12699999809E+01 0. -1.
       -4    1    3    3    0  502  0.52584447783E+03 -0.16077100132E+04 -0.16435663871E+04  0.23585071514E+04  0.12699999809E+01 0.  1.
</event>
<event>
 5   0  0.1187925E-07  0.3883795E+04  0.7818609E-02  0.8028408E-01
       -1   -1    0    0    0  501  0.00000000000E+00  0.00000000000E+00  0.16333672204E+04  0.16333672205E+04  0.50400001928E-02 0. -1.
        1   -1    0    0  501    0  0.00000000000E+00  0.00000000000E+00 -0.23087067537E+04  0.23087067537E+04  0.50400001928E-02 0.  1.
    10030    2    1    2    0    0  0.00000000000E+00  0.00000000000E+00 -0.67533953325E+03  0.39420739741E+04  0.38837950168E+04 0.  0.
        4    1    3    3  502    0 -0.16986760491E+04  0.72397454291E+03  0.27245322635E+03  0.18665132820E+04  0.12699999809E+01 0. -1.
       -4    1    3    3    0  502  0.16986760491E+04 -0.72397454291E+03 -0.94779275960E+03  0.20755606921E+04  0.12699999809E+01 0.  1.
</event>
<event>
 5   0  0.3810833E-07  0.3815170E+04  0.7818609E-02  0.8042907E-01
       -2   -1    0    0    0  501  0.00000000000E+00  0.00000000000E+00  0.28835892940E+04  0.28835892940E+04  0.25500000920E-02 0.  1.
        2   -1    0    0  501    0  0.00000000000E+00  0.00000000000E+00 -0.12619276876E+04  0.12619276876E+04  0.25500000920E-02 0. -1.
    10030    2    1    2    0    0  0.00000000000E+00  0.00000000000E+00  0.16216616064E+04  0.41455169817E+04  0.38151703343E+04 0.  0.
        3    1    3    3  502    0  0.62087391695E+03  0.17000556061E+04  0.14656814710E+04  0.23289258616E+04  0.10100000352E+00 0.  1.
       -3    1    3    3    0  502 -0.62087391695E+03 -0.17000556061E+04  0.15598013545E+03  0.18165911200E+04  0.10100000352E+00 0. -1.
</event>
<event>
 5   0  0.1187925E-07  0.2900810E+04  0.7818609E-02  0.8272637E-01
        1   -1    0    0  501    0  0.00000000000E+00  0.00000000000E+00  0.16546010660E+04  0.16546010660E+04  0.50400001928E-02 0. -1.
       -1   -1    0    0    0  501  0.00000000000E+00  0.00000000000E+00 -0.12714089246E+04  0.12714089246E+04  0.50400001928E-02 0.  1.
    10030    2    1    2    0    0  0.00000000000E+00  0.00000000000E+00  0.38319214141E+03  0.29260099906E+04  0.29008099296E+04 0.  0.
        4    1    3    3  502    0 -0.23563799449E+02 -0.30261241891E+03  0.16222060067E+04  0.16503585883E+04  0.12699999809E+01 0. -1.
       -4    1    3    3    0  502  0.23563799449E+02  0.30261241891E+03 -0.12390138653E+04  0.12756514023E+04  0.12699999809E+01 0.  1.
</event>
<event>
 5   0  0.3810833E-07  0.3917885E+04  0.7818609E-02  0.8021320E-01
        2   -1    0    0  501    0  0.00000000000E+00  0.00000000000E+00  0.27546919565E+04  0.27546919565E+04  0.25500000920E-02 0.  1.
       -2   -1    0    0    0  501  0.00000000000E+00  0.00000000000E+00 -0.13930613486E+04  0.13930613486E+04  0.25500000920E-02 0. -1.
    10030    2    1    2    0    0  0.00000000000E+00  0.00000000000E+00  0.13616306080E+04  0.41477533051E+04  0.39178845781E+04 0.  0.
        3    1    3    3  502    0  0.16902682040E+04  0.98593634806E+03  0.58391476018E+03  0.20420659983E+04  0.10100000352E+00 0. -1.
       -3    1    3    3    0  502 -0.16902682040E+04 -0.98593634806E+03  0.77771584777E+03  0.21056873068E+04  0.10100000352E+00 0.  1.
</event>
<event>
 5   0  0.3810833E-07  0.3131978E+04  0.7818609E-02  0.8207016E-01
       -2   -1    0    0    0  501  0.00000000000E+00  0.00000000000E+00  0.11587346497E+04  0.11587346497E+04  0.25500000920E-02 0. -1.
        2   -1    0    0  501    0  0.00000000000E+00  0.00000000000E+00 -0.21163784913E+04  0.21163784913E+04  0.25500000920E-02 0.  1.
    10030    2    1    2    0    0  0.00000000000E+00  0.00000000000E+00 -0.95764384159E+03  0.32751131410E+04  0.31319777073E+04 0.  0.
        3    1    3    3  502    0 -0.63944746181E+03 -0.85213194092E+03 -0.16790115117E+04  0.19884922851E+04  0.10100000352E+00 0.  1.
       -3    1    3    3    0  502  0.63944746181E+03  0.85213194092E+03  0.72136767012E+03  0.12866208559E+04  0.10100000352E+00 0. -1.
</event>
<event>
 5   0  0.1187925E-07  0.3693768E+04  0.7818609E-02  0.8069344E-01
       -1   -1    0    0    0  501  0.00000000000E+00  0.00000000000E+00  0.25013949824E+04  0.25013949824E+04  0.50400001928E-02 0.  1.
        1   -1    0    0  501    0  0.00000000000E+00  0.00000000000E+00 -0.13636309752E+04  0.13636309752E+04  0.50400001928E-02 0. -1.
    10030    2    1    2    0    0  0.00000000000E+00  0.00000000000E+00  0.11377640072E+04  0.38650259576E+04  0.36937675504E+04 0.  0.
        4    1    3    3  502    0  0.43130148970E+03  0.90192751979E+03  0.21937759896E+04  0.24108398809E+04  0.12699999809E+01 0.  1.
       -4    1    3    3    0  502 -0.43130148970E+03 -0.90192751979E+03 -0.10560119823E+04  0.14541860767E+04  0.12699999809E+01 0. -1.
</event>
<event>
 5   0  0.1187925E-07  0.3890814E+04  0.7818609E-02  0.8026942E-01
       -1   -1    0    0    0  501  0.00000000000E+00  0.00000000000E+00  0.22167722414E+04  0.22167722414E+04  0.50400001928E-02 0. -1.
        1   -1    0    0  501    0  0.00000000000E+00  0.00000000000E+00 -0.17072612387E+04  0.17072612387E+04  0.50400001928E-02 0.  1.
    10030    2    1    2    0    0  0.00000000000E+00  0.00000000000E+00  0.50951100268E+03  0.39240334802E+04  0.38908144766E+04 0.  0.
        3    1    3    3  502    0 -0.19388290740E+04 -0.15983553437E+03  0.25280595604E+03  0.19617636039E+04  0.10100000352E+00 0.  1.
       -3    1    3    3    0  502  0.19388290740E+04  0.15983553437E+03  0.25670504663E+03  0.19622698762E+04  0.10100000352E+00 0. -1.
</event>
<event>
 5   0  0.1187925E-07  0.4093505E+04  0.7818609E-02  0.7985945E-01
        1   -1    0    0  501    0  0.00000000000E+00  0.00000000000E+00  0.19068721055E+04  0.19068721056E+04  0.50400001928E-02 0. -1.
       -1   -1    0    0    0  501  0.00000000000E+00  0.00000000000E+00 -0.21968938200E+04  0.21968938200E+04  0.50400001928E-02 0.  1.
    10030    2    1    2    0    0  0.00000000000E+00  0.00000000000E+00 -0.29002171445E+03  0.41037659256E+04  0.40935048769E+04 0.  0.
        4    1    3    3  502    0  0.38105292953E+03 -0.53512962297E+03 -0.20883303711E+04  0.21892214142E+04  0.12699999809E+01 0.  1.
       -4    1    3    3    0  502 -0.38105292953E+03  0.53512962297E+03  0.17983086567E+04  0.19145445114E+04  0.12699999809E+01 0. -1.
</event>
<event>
 5   0  0.3832389E-07  0.3916451E+04  0.7818609E-02  0.8021616E-01
       -2   -1    0    0    0  501  0.00000000000E+00  0.00000000000E+00  0.12562779720E+04  0.12562779720E+04  0.25500000920E-02 0.  1.
        2   -1    0    0  501    0  0.00000000000E+00  0.00000000000E+00 -0.30523870276E+04  0.30523870276E+04  0.25500000920E-02 0. -1.
    10030    2    1    2    0    0  0.00000000000E+00  0.00000000000E+00 -0.17961090555E+04  0.43086649996E+04  0.39164507324E+04 0.  0.
        5    1    3    3  502    0 -0.10580298865E+04  0.44942509602E+03 -0.26421281970E+04  0.28813666301E+04  0.46999998093E+01 0. -1.
       -5    1    3    3    0  502  0.10580298865E+04 -0.44942509602E+03  0.84601914146E+03  0.14272983695E+04  0.46999998093E+01 0.  1.
</event>
<event>
 5   0  0.1187925E-07  0.3886712E+04  0.7818609E-02  0.8027799E-01
       -1   -1    0    0    0  501  0.00000000000E+00  0.00000000000E+00  0.13981663399E+04  0.13981663399E+04  0.50400001928E-02 0. -1.
        1   -1    0    0  501    0  0.00000000000E+00  0.00000000000E+00 -0.27011320346E+04  0.27011320347E+04  0.50400001928E-02 0.  1.
    10030    2    1    2    0    0  0.00000000000E+00  0.00000000000E+00 -0.13029656948E+04  0.40992983746E+04  0.38867116644E+04 0.  0.
        4    1    3    3  502    0 -0.30900898834E+03  0.18294594304E+04 -0.12612228223E+04  0.22434555896E+04  0.12699999809E+01 0.  1.
       -4    1    3    3    0  502  0.30900898834E+03 -0.18294594304E+04 -0.41742872484E+02  0.18558427850E+04  0.12699999809E+01 0. -1.
</event>
<event>
 5   0  0.1187925E-07  0.3925472E+04  0.7818609E-02  0.8019752E-01
        1   -1    0    0  501    0  0.00000000000E+00  0.00000000000E+00  0.18701026405E+04  0.18701026406E+04  0.50400001928E-02 0.  1.
       -1   -1    0    0    0  501  0.00000000000E+00  0.00000000000E+00 -0.20599578977E+04  0.20599578977E+04  0.50400001928E-02 0. -1.
    10030    2    1    2    0    0  0.00000000000E+00  0.00000000000E+00 -0.18985525714E+03  0.39300605382E+04  0.39254720500E+04 0.  0.
        2    1    3    3  502    0  0.43633769569E+03  0.14007699435E+04 -0.14002098852E+04  0.20280864730E+04  0.25500000920E-02 0. -1.
       -2    1    3    3    0  502 -0.43633769569E+03 -0.14007699435E+04  0.12103546281E+04  0.19019740653E+04  0.25500000920E-02 0.  1.
</event>
<event>
 5   0  0.1187925E-07  0.4282920E+04  0.7818609E-02  0.7949784E-01
        1   -1    0    0  501    0  0.00000000000E+00  0.00000000000E+00  0.15591928980E+04  0.15591928980E+04  0.50400001928E-02 0. -1.
       -1   -1    0    0    0  501  0.00000000000E+00  0.00000000000E+00 -0.29411692531E+04  0.29411692531E+04  0.50400001928E-02 0.  1.
    10030    2    1    2    0    0  0.00000000000E+00  0.00000000000E+00 -0.13819763550E+04  0.45003621511E+04  0.42829196636E+04 0.  0.
        5    1    3    3  502    0  0.21018748293E+04 -0.20461455197E+03 -0.31787880284E+03  0.21356062222E+04  0.46999998093E+01 0. -1.
       -5    1    3    3    0  502 -0.21018748293E+04  0.20461455197E+03 -0.10640975522E+04  0.23647559289E+04  0.46999998093E+01 0.  1.
</event>
<event>
 5   0  0.3665303E-07  0.3932610E+04  0.7818609E-02  0.8018281E-01
       -2   -1    0    0    0  501  0.00000000000E+00  0.00000000000E+00  0.19652760445E+04  0.19652760445E+04  0.25500000920E-02 0.  1.
        2   -1    0    0  501    0  0.00000000000E+00  0.00000000000E+00 -0.19673345586E+04  0.19673345586E+04  0.25500000920E-02 0. -1.
    10030    2    1    2    0    0  0.00000000000E+00  0.00000000000E+00 -0.20585141158E+01  0.39326106032E+04  0.39326100644E+04 0.  0.
        2    1    3    3  502    0 -0.47820655971E+03  0.88763949384E+03  0.16870971824E+04  0.19654216565E+04  0.25500000920E-02 0.  1.
       -2    1    3    3    0  502  0.47820655971E+03 -0.88763949384E+03 -0.16891556966E+04  0.19671889467E+04  0.25500000920E-02 0. -1.
</event>
<event>
 5   0  0.3610483E-07  0.3839662E+04  0.7818609E-02  0.8037697E-01
       -2   -1    0    0    0  501  0.00000000000E+00  0.00000000000E+00  0.16604895137E+04  0.16604895137E+04  0.25500000920E-02 0.  1.
        2   -1    0    0  501    0  0.00000000000E+00  0.00000000000E+00 -0.22196773620E+04  0.22196773620E+04  0.25500000920E-02 0. -1.
    10030    2    1    2    0    0  0.00000000000E+00  0.00000000000E+00 -0.55918784836E+03  0.38801668757E+04  0.38396619556E+04 0.  0.
        4    1    3    3  502    0  0.17301260443E+04  0.56799685063E+03 -0.89411481261E+03  0.20286447354E+04  0.12699999809E+01 0. -1.
       -4    1    3    3    0  502 -0.17301260443E+04 -0.56799685063E+03  0.33492696425E+03  0.18515221403E+04  0.12699999809E+01 0.  1.
</event>
<event>
 5   0  0.3810833E-07  0.3909400E+04  0.7818609E-02  0.8023077E-01
       -2   -1    0    0    0  501  0.00000000000E+00  0.00000000000E+00  0.15254538882E+04  0.15254538882E+04  0.25500000920E-02 0.  1.
        2   -1    0    0  501    0  0.00000000000E+00  0.00000000000E+00 -0.25047312391E+04  0.25047312391E+04  0.25500000920E-02 0. -1.
    10030    2    1    2    0    0  0.00000000000E+00  0.00000000000E+00 -0.97927735095E+03  0.40301851273E+04  0.39093999578E+04 0.  0.
        3    1    3    3  502    0 -0.13487672751E+04 -0.10223986710E+04  0.51852277637E+03  0.17701237484E+04  0.10100000352E+00 0.  1.
       -3    1    3    3    0  502  0.13487672751E+04  0.10223986710E+04 -0.14978001273E+04  0.22600613789E+04  0.10100000352E+00 0. -1.
</event>
<event>
 5   0  0.1187925E-07  0.3855384E+04  0.7818609E-02  0.8034373E-01
        1   -1    0    0  501    0  0.00000000000E+00  0.00000000000E+00  0.19261721840E+04  0.19261721840E+04  0.50400001928E-02 0.  1.
       -1   -1    0    0    0  501  0.00000000000E+00  0.00000000000E+00 -0.19292130287E+04  0.19292130287E+04  0.50400001928E-02 0. -1.
    10030    2    1    2    0    0  0.00000000000E+00  0.00000000000E+00 -0.30408446624E+01  0.38553852127E+04  0.38553840135E+04 0.  0.
        1    1    3    3  502    0  0.57337467259E+03 -0.16927120526E+04  0.72095046925E+03  0.19271227744E+04  0.50400001928E-02 0.  1.
       -1    1    3    3    0  502 -0.57337467259E+03  0.16927120526E+04 -0.72399131392E+03  0.19282624383E+04  0.50400001928E-02 0. -1.
</event>
<event>
 5   0  0.1187925E-07  0.4067513E+04  0.7818609E-02  0.7991064E-01
       -1   -1    0    0    0  501  0.00000000000E+00  0.00000000000E+00  0.26090365971E+04  0.26090365971E+04  0.50400001928E-02 0.  1.
        1   -1    0    0  501    0  0.00000000000E+00  0.00000000000E+00 -0.15853227779E+04  0.15853227780E+04  0.50400001928E-02 0. -1.
    10030    2    1    2    0    0  0.00000000000E+00  0.00000000000E+00  0.10237138191E+04  0.41943593750E+04  0.40675128252E+04 0.  0.
        3    1    3    3  502    0  0.44908111224E+03  0.19736425895E+04  0.71608944658E+03  0.21470265537E+04  0.10100000352E+00 0.  1.
       -3    1    3    3    0  502 -0.44908111224E+03 -0.19736425895E+04  0.30762437256E+03  0.20473328213E+04  0.10100000352E+00 0. -1.
</event>
<event>
 5   0  0.1187925E-07  0.3935185E+04  0.7818609E-02  0.8017751E-01
        1   -1    0    0  501    0  0.00000000000E+00  0.00000000000E+00  0.24448529385E+04  0.24448529386E+04  0.50400001928E-02 0. -1.
       -1   -1    0    0    0  501  0.00000000000E+00  0.00000000000E+00 -0.15834980345E+04  0.15834980345E+04  0.50400001928E-02 0.  1.
    10030    2    1    2    0    0  0.00000000000E+00  0.00000000000E+00  0.86135490408E+03  0.40283509730E+04  0.39351847849E+04 0.  0.
        5    1    3    3  502    0 -0.84536453536E+03 -0.11939023048E+03  0.22453571807E+04  0.24021961168E+04  0.46999998093E+01 0. -1.
       -5    1    3    3    0  502  0.84536453536E+03  0.11939023048E+03 -0.13840022766E+04  0.16261548562E+04  0.46999998093E+01 0.  1.
</event>
<event>
 5   0  0.1187925E-07  0.3884180E+04  0.7818609E-02  0.8028328E-01
        1   -1    0    0  501    0  0.00000000000E+00  0.00000000000E+00  0.18983123157E+04  0.18983123157E+04  0.50400001928E-02 0. -1.
       -1   -1    0    0    0  501  0.00000000000E+00  0.00000000000E+00 -0.19868769158E+04  0.19868769158E+04  0.50400001928E-02 0.  1.
    10030    2    1    2    0    0  0.00000000000E+00  0.00000000000E+00 -0.88564600114E+02  0.38851892315E+04  0.38841796658E+04 0.  0.
        5    1    3    3  502    0 -0.84454669748E+03 -0.17050603577E+04 -0.43322894301E+03  0.19514608258E+04  0.46999998093E+01 0.  1.
       -5    1    3    3    0  502  0.84454669748E+03  0.17050603577E+04  0.34466434289E+03  0.19337284057E+04  0.46999998093E+01 0. -1.
</event>
<event>
 5   0  0.3665303E-07  0.4370928E+04  0.7818609E-02  0.7933631E-01
       -2   -1    0    0    0  501  0.00000000000E+00  0.00000000000E+00  0.15196611062E+04  0.15196611062E+04  0.25500000920E-02 0.  1.
        2   -1    0    0  501    0  0.00000000000E+00  0.00000000000E+00 -0.31429730835E+04  0.31429730835E+04  0.25500000920E-02 0. -1.
    10030    2    1    2    0    0  0.00000000000E+00  0.00000000000E+00 -0.16233119773E+04  0.46626341897E+04  0.43709284839E+04 0.  0.
        2    1    3    3  502    0  0.19330032340E+04 -0.98486355839E+03 -0.52983482771E+03  0.22332000976E+04  0.25500000920E-02 0.  1.
       -2    1    3    3    0  502 -0.19330032340E+04  0.98486355839E+03 -0.10934771496E+04  0.24294340921E+04  0.25500000920E-02 0. -1.
</event>
<event>
 5   0  0.3665303E-07  0.2811574E+04  0.7818609E-02  0.8299684E-01
       -2   -1    0    0    0  501  0.00000000000E+00  0.00000000000E+00  0.15196357648E+04  0.15196357648E+04  0.25500000920E-02 0.  1.
        2   -1    0    0  501    0  0.00000000000E+00  0.00000000000E+00 -0.13004678064E+04  0.13004678064E+04  0.25500000920E-02 0. -1.
    10030    2    1    2    0    0  0.00000000000E+00  0.00000000000E+00  0.21916795841E+03  0.28201035712E+04  0.28115742135E+04 0.  0.
        2    1    3    3  502    0 -0.83125321954E+03 -0.10959316631E+04 -0.18145011187E+03  0.13874336987E+04  0.25500000920E-02 0. -1.
       -2    1    3    3    0  502  0.83125321954E+03  0.10959316631E+04  0.40061807028E+03  0.14326698725E+04  0.25500000920E-02 0.  1.
</event>
<event>
 5   0  0.1187925E-07  0.3735801E+04  0.7818609E-02  0.8060074E-01
       -1   -1    0    0    0  501  0.00000000000E+00  0.00000000000E+00  0.16001253615E+04  0.16001253615E+04  0.50400001928E-02 0.  1.
        1   -1    0    0  501    0  0.00000000000E+00  0.00000000000E+00 -0.21804869649E+04  0.21804869650E+04  0.50400001928E-02 0. -1.
    10030    2    1    2    0    0  0.00000000000E+00  0.00000000000E+00 -0.58036160345E+03  0.37806123265E+04  0.37358011152E+04 0.  0.
        3    1    3    3  502    0  0.74090274769E+03  0.17079104607E+04 -0.44418191380E+03  0.19139468660E+04  0.10100000352E+00 0. -1.
       -3    1    3    3    0  502 -0.74090274769E+03 -0.17079104607E+04 -0.13617968965E+03  0.18666654604E+04  0.10100000352E+00 0.  1.
</event>
<event>
 5   0  0.1187925E-07  0.3898134E+04  0.7818609E-02  0.8025417E-01
       -1   -1    0    0    0  501  0.00000000000E+00  0.00000000000E+00  0.21964718425E+04  0.21964718425E+04  0.50400001928E-02 0. -1.
        1   -1    0    0  501    0  0.00000000000E+00  0.00000000000E+00 -0.17295293916E+04  0.17295293916E+04  0.50400001928E-02 0.  1.
    10030    2    1    2    0    0  0.00000000000E+00  0.00000000000E+00  0.46694245086E+03  0.39260012341E+04  0.38981342252E+04 0.  0.
        1    1    3    3  502    0 -0.17090364257E+04 -0.22618945641E+03 -0.68236736590E+03  0.18540745391E+04  0.50400001928E-02 0. -1.
       -1    1    3    3    0  502  0.17090364257E+04  0.22618945641E+03  0.11493098168E+04  0.20719266950E+04  0.50400001928E-02 0.  1.
</event>
<event>
 5   0  0.3680814E-07  0.3886843E+04  0.7818609E-02  0.8027771E-01
       -2   -1    0    0    0  501  0.00000000000E+00  0.00000000000E+00  0.15407528229E+04  0.15407528229E+04  0.25500000920E-02 0. -1.
        2   -1    0    0  501    0  0.00000000000E+00  0.00000000000E+00 -0.24513252445E+04  0.24513252445E+04  0.25500000920E-02 0.  1.
    10030    2    1    2    0    0  0.00000000000E+00  0.00000000000E+00 -0.91057242159E+03  0.39920780674E+04  0.38868425696E+04 0.  0.
        1    1    3    3  502    0  0.86747880043E+03 -0.17243989734E+04 -0.22376112906E+03  0.19432293564E+04  0.50400001928E-02 0. -1.
       -1    1    3    3    0  502 -0.86747880043E+03  0.17243989734E+04 -0.68681129253E+03  0.20488487110E+04  0.50400001928E-02 0.  1.
</event>
<event>
 5   0  0.3832389E-07  0.4027602E+04  0.7818609E-02  0.7999001E-01
        2   -1    0    0  501    0  0.00000000000E+00  0.00000000000E+00  0.16548483735E+04  0.16548483735E+04  0.25500000920E-02 0. -1.
       -2   -1    0    0    0  501  0.00000000000E+00  0.00000000000E+00 -0.24506145069E+04  0.24506145069E+04  0.25500000920E-02 0.  1.
    10030    2    1    2    0    0  0.00000000000E+00  0.00000000000E+00 -0.79576613334E+03  0.41054628804E+04  0.40276024783E+04 0.  0.
        5    1    3    3  502    0 -0.11062639518E+04  0.87813740129E+03 -0.18610513010E+04  0.23363388585E+04  0.46999998093E+01 0.  1.
       -5    1    3    3    0  502  0.11062639518E+04 -0.87813740129E+03  0.10652851676E+04  0.17691240219E+04  0.46999998093E+01 0. -1.
</event>
<event>
 5   0  0.1187925E-07  0.3928163E+04  0.7818609E-02  0.8019197E-01
        1   -1    0    0  501    0  0.00000000000E+00  0.00000000000E+00  0.28289439329E+04  0.28289439329E+04  0.50400001928E-02 0. -1.
       -1   -1    0    0    0  501  0.00000000000E+00  0.00000000000E+00 -0.13636244315E+04  0.13636244315E+04  0.50400001928E-02 0.  1.
    10030    2    1    2    0    0  0.00000000000E+00  0.00000000000E+00  0.14653195013E+04  0.41925683644E+04  0.39281634703E+04 0.  0.
        2    1    3    3  502    0 -0.24020423373E+03  0.11349433947E+04  0.24242106553E+04  0.26874880249E+04  0.25500000920E-02 0. -1.
       -2    1    3    3    0  502  0.24020423373E+03 -0.11349433947E+04 -0.95889115392E+03  0.15050803395E+04  0.25500000920E-02 0.  1.
</event>
<event>
 5   0  0.1187925E-07  0.3742830E+04  0.7818609E-02  0.8058536E-01
        1   -1    0    0  501    0  0.00000000000E+00  0.00000000000E+00  0.22086529411E+04  0.22086529411E+04  0.50400001928E-02 0. -1.
       -1   -1    0    0    0  501  0.00000000000E+00  0.00000000000E+00 -0.15856696163E+04  0.15856696163E+04  0.50400001928E-02 0.  1.
    10030    2    1    2    0    0  0.00000000000E+00  0.00000000000E+00  0.62298332480E+03  0.37943225575E+04  0.37428298715E+04 0.  0.
        2    1    3    3  502    0 -0.16175182441E+03 -0.17067087499E+04 -0.44928296328E+03  0.17722509954E+04  0.25500000920E-02 0. -1.
       -2    1    3    3    0  502  0.16175182441E+03  0.17067087499E+04  0.10722662881E+04  0.20220715621E+04  0.25500000920E-02 0.  1.
</event>
<event>
 5   0  0.1187925E-07  0.3806216E+04  0.7818609E-02  0.8044822E-01
       -1   -1    0    0    0  501  0.00000000000E+00  0.00000000000E+00  0.14712240940E+04  0.14712240940E+04  0.50400001928E-02 0. -1.
        1   -1    0    0  501    0  0.00000000000E+00  0.00000000000E+00 -0.24617730860E+04  0.24617730860E+04  0.50400001928E-02 0.  1.
    10030    2    1    2    0    0  0.00000000000E+00  0.00000000000E+00 -0.99054899203E+03  0.39329971800E+04  0.38062159045E+04 0.  0.
        3    1    3    3  502    0  0.88653505258E+03 -0.12461471389E+04 -0.16656960770E+04  0.22612763038E+04  0.10100000352E+00 0.  1.
       -3    1    3    3    0  502 -0.88653505258E+03  0.12461471389E+04  0.67514708492E+03  0.16717208761E+04  0.10100000352E+00 0. -1.
</event>
<event>
 5   0  0.3810833E-07  0.3903559E+04  0.7818609E-02  0.8024289E-01
       -2   -1    0    0    0  501  0.00000000000E+00  0.00000000000E+00  0.19032442644E+04  0.19032442644E+04  0.25500000920E-02 0. -1.
        2   -1    0    0  501    0  0.00000000000E+00  0.00000000000E+00 -0.20015525615E+04  0.20015525615E+04  0.25500000920E-02 0.  1.
    10030    2    1    2    0    0  0.00000000000E+00  0.00000000000E+00 -0.98308297101E+02  0.39047968259E+04  0.39035591106E+04 0.  0.
        3    1    3    3  502    0 -0.54176271817E+01 -0.19370386740E+04 -0.28859430039E+03  0.19584266276E+04  0.10100000352E+00 0.  1.
       -3    1    3    3    0  502  0.54176271817E+01  0.19370386740E+04  0.19028600329E+03  0.19463701982E+04  0.10100000352E+00 0. -1.
</event>
<event>
 5   0  0.1187925E-07  0.3934053E+04  0.7818609E-02  0.8017984E-01
       -1   -1    0    0    0  501  0.00000000000E+00  0.00000000000E+00  0.17757029816E+04  0.17757029816E+04  0.50400001928E-02 0. -1.
        1   -1    0    0  501    0  0.00000000000E+00  0.00000000000E+00 -0.21789642903E+04  0.21789642903E+04  0.50400001928E-02 0.  1.
    10030    2    1    2    0    0  0.00000000000E+00  0.00000000000E+00 -0.40326130875E+03  0.39546672719E+04  0.39340530688E+04 0.  0.
        5    1    3    3  502    0 -0.15934199357E+03  0.56425027745E+03 -0.20890748655E+04  0.21697981773E+04  0.46999998093E+01 0.  1.
       -5    1    3    3    0  502  0.15934199357E+03 -0.56425027745E+03  0.16858135568E+04  0.17848690946E+04  0.46999998093E+01 0. -1.
</event>
<event>
 5   0  0.1187925E-07  0.3880662E+04  0.7818609E-02  0.8029063E-01
        1   -1    0    0  501    0  0.00000000000E+00  0.00000000000E+00  0.23389378142E+04  0.23389378143E+04  0.50400001928E-02 0.  1.
       -1   -1    0    0    0  501  0.00000000000E+00  0.00000000000E+00 -0.16096554003E+04  0.16096554003E+04  0.50400001928E-02 0. -1.
    10030    2    1    2    0    0  0.00000000000E+00  0.00000000000E+00  0.72928241395E+03  0.39485932146E+04  0.38806617393E+04 0.  0.
        2    1    3    3  502    0 -0.30692778140E+03  0.25670472377E+02 -0.15846235745E+04  0.16142786343E+04  0.25500000920E-02 0. -1.
       -2    1    3    3    0  502  0.30692778140E+03 -0.25670472377E+02  0.23139059885E+04  0.23343145803E+04  0.25500000920E-02 0.  1.
</event>
<event>
 5   0  0.3680814E-07  0.3870317E+04  0.7818609E-02  0.8031231E-01
        2   -1    0    0  501    0  0.00000000000E+00  0.00000000000E+00  0.23297238862E+04  0.23297238862E+04  0.25500000920E-02 0.  1.
       -2   -1    0    0    0  501  0.00000000000E+00  0.00000000000E+00 -0.16074175737E+04  0.16074175737E+04  0.25500000920E-02 0. -1.
    10030    2    1    2    0    0  0.00000000000E+00  0.00000000000E+00  0.72230631248E+03  0.39371414599E+04  0.38703173599E+04 0.  0.
        1    1    3    3  502    0  0.45196956266E+03  0.10333023119E+04 -0.12385272922E+04  0.16750940293E+04  0.50400001928E-02 0. -1.
       -1    1    3    3    0  502 -0.45196956266E+03 -0.10333023119E+04  0.19608336047E+04  0.22620474307E+04  0.50400001928E-02 0.  1.
</event>
<event>
 5   0  0.3832389E-07  0.3493836E+04  0.7818609E-02  0.8115252E-01
       -2   -1    0    0    0  501  0.00000000000E+00  0.00000000000E+00  0.14939668142E+04  0.14939668142E+04  0.25500000920E-02 0. -1.
        2   -1    0    0  501    0  0.00000000000E+00  0.00000000000E+00 -0.20426979484E+04  0.20426979484E+04  0.25500000920E-02 0.  1.
    10030    2    1    2    0    0  0.00000000000E+00  0.00000000000E+00 -0.54873113427E+03  0.35366647626E+04  0.34938362562E+04 0.  0.
        5    1    3    3  502    0 -0.21988290374E+03  0.17320963412E+04 -0.33157947410E+03  0.17772094036E+04  0.46999998093E+01 0. -1.
       -5    1    3    3    0  502  0.21988290374E+03 -0.17320963412E+04 -0.21715166017E+03  0.17594553590E+04  0.46999998093E+01 0.  1.
</event>
<event>
 5   0  0.3832389E-07  0.2930309E+04  0.7818609E-02  0.8263916E-01
        2   -1    0    0  501    0  0.00000000000E+00  0.00000000000E+00  0.13322838192E+04  0.13322838192E+04  0.25500000920E-02 0. -1.
       -2   -1    0    0    0  501  0.00000000000E+00  0.00000000000E+00 -0.16112762795E+04  0.16112762795E+04  0.25500000920E-02 0.  1.
    10030    2    1    2    0    0  0.00000000000E+00  0.00000000000E+00 -0.27899246028E+03  0.29435600986E+04  0.29303087314E+04 0.  0.
        5    1    3    3  502    0  0.12049371841E+04 -0.59454136839E+03  0.44735639577E+03  0.14161577918E+04  0.46999998093E+01 0. -1.
       -5    1    3    3    0  502 -0.12049371841E+04  0.59454136839E+03 -0.72634885605E+03  0.15274023069E+04  0.46999998093E+01 0.  1.
</event>
<event>
 5   0  0.3832389E-07  0.3879730E+04  0.7818609E-02  0.8029258E-01
       -2   -1    0    0    0  501  0.00000000000E+00  0.00000000000E+00  0.22047546432E+04  0.22047546432E+04  0.25500000920E-02 0. -1.
        2   -1    0    0  501    0  0.00000000000E+00  0.00000000000E+00 -0.17068003841E+04  0.17068003841E+04  0.25500000920E-02 0.  1.
    10030    2    1    2    0    0  0.00000000000E+00  0.00000000000E+00  0.49795425910E+03  0.39115550273E+04  0.38797299245E+04 0.  0.
        5    1    3    3  502    0  0.11228204908E+04  0.15488934237E+04 -0.74995491497E+02  0.19145346971E+04  0.46999998093E+01 0. -1.
       -5    1    3    3    0  502 -0.11228204908E+04 -0.15488934237E+04  0.57294975060E+03  0.19970203302E+04  0.46999998093E+01 0.  1.
</event>
<event>
 5   0  0.3665303E-07  0.3908626E+04  0.7818609E-02  0.8023238E-01
        2   -1    0    0  501    0  0.00000000000E+00  0.00000000000E+00  0.17790897557E+04  0.17790897557E+04  0.25500000920E-02 0.  1.
       -2   -1    0    0    0  501  0.00000000000E+00  0.00000000000E+00 -0.21467935415E+04  0.21467935415E+04  0.25500000920E-02 0. -1.
    10030    2    1    2    0    0  0.00000000000E+00  0.00000000000E+00 -0.36770378589E+03  0.39258832972E+04  0.39086255371E+04 0.  0.
        2    1    3    3  502    0  0.14398726071E+04 -0.13387619040E+03 -0.15042597927E+04  0.20866129213E+04  0.25500000920E-02 0. -1.
       -2    1    3    3    0  502 -0.14398726071E+04  0.13387619040E+03  0.11365560068E+04  0.18392703759E+04  0.25500000920E-02 0.  1.
</event>
<event>
 5   0  0.3610483E-07  0.3854180E+04  0.7818609E-02  0.8034627E-01
        2   -1    0    0  501    0  0.00000000000E+00  0.00000000000E+00  0.26987287876E+04  0.26987287877E+04  0.25500000920E-02 0. -1.
       -2   -1    0    0    0  501  0.00000000000E+00  0.00000000000E+00 -0.13760835071E+04  0.13760835071E+04  0.25500000920E-02 0.  1.
    10030    2    1    2    0    0  0.00000000000E+00  0.00000000000E+00  0.13226452806E+04  0.40748122947E+04  0.38541801592E+04 0.  0.
        4    1    3    3  502    0 -0.11184124747E+04 -0.50405204057E+03 -0.90994376587E+03  0.15273880297E+04  0.12699999809E+01 0.  1.
       -4    1    3    3    0  502  0.11184124747E+04  0.50405204057E+03  0.22325890464E+04  0.25474242651E+04  0.12699999809E+01 0. -1.
</event>
<event>
 5   0  0.3810833E-07  0.3676011E+04  0.7818609E-02  0.8073299E-01
        2   -1    0    0  501    0  0.00000000000E+00  0.00000000000E+00  0.34165262082E+04  0.34165262082E+04  0.25500000920E-02 0. -1.
       -2   -1    0    0    0  501  0.00000000000E+00  0.00000000000E+00 -0.98880097406E+03  0.98880097406E+03  0.25500000920E-02 0.  1.
    10030    2    1    2    0    0  0.00000000000E+00  0.00000000000E+00  0.24277252341E+04  0.44053271823E+04  0.36760111222E+04 0.  0.
        3    1    3    3  502    0 -0.37247014565E+01 -0.74168164106E+03  0.32292254989E+04  0.33133069376E+04  0.10100000352E+00 0. -1.
       -3    1    3    3    0  502  0.37247014565E+01  0.74168164106E+03 -0.80150026475E+03  0.10920202446E+04  0.10100000352E+00 0.  1.
</event>
<event>
 5   0  0.3832389E-07  0.3504169E+04  0.7818609E-02  0.8112803E-01
        2   -1    0    0  501    0  0.00000000000E+00  0.00000000000E+00  0.11150167400E+04  0.11150167400E+04  0.25500000920E-02 0.  1.
       -2   -1    0    0    0  501  0.00000000000E+00  0.00000000000E+00 -0.27531421558E+04  0.27531421558E+04  0.25500000920E-02 0. -1.
    10030    2    1    2    0    0  0.00000000000E+00  0.00000000000E+00 -0.16381254158E+04  0.38681588959E+04  0.35041687125E+04 0.  0.
        5    1    3    3  502    0  0.28507965662E+03 -0.12195616882E+04 -0.21715561226E+04  0.25068464663E+04  0.46999998093E+01 0. -1.
       -5    1    3    3    0  502 -0.28507965662E+03  0.12195616882E+04  0.53343070677E+03  0.13613124296E+04  0.46999998093E+01 0.  1.
</event>
<event>
 5   0  0.3610483E-07  0.3648186E+04  0.7818609E-02  0.8079542E-01
        2   -1    0    0  501    0  0.00000000000E+00  0.00000000000E+00  0.24231969893E+04  0.24231969893E+04  0.25500000920E-02 0. -1.
       -2   -1    0    0    0  501  0.00000000000E+00  0.00000000000E+00 -0.13731100051E+04  0.13731100051E+04  0.25500000920E-02 0.  1.
    10030    2    1    2    0    0  0.00000000000E+00  0.00000000000E+00  0.10500869842E+04  0.37963069944E+04  0.36481864154E+04 0.  0.
        4    1    3    3  502    0 -0.14413281217E+04 -0.41388273483E+03  0.16057611445E+04  0.21970881045E+04  0.12699999809E+01 0. -1.
       -4    1    3    3    0  502  0.14413281217E+04  0.41388273483E+03 -0.55567416033E+03  0.15992188899E+04  0.12699999809E+01 0.  1.
</event>
<event>
 5   0  0.3680814E-07  0.3910047E+04  0.7818609E-02  0.8022943E-01
        2   -1    0    0  501    0  0.00000000000E+00  0.00000000000E+00  0.23708430382E+04  0.23708430382E+04  0.25500000920E-02 0. -1.
       -2   -1    0    0    0  501  0.00000000000E+00  0.00000000000E+00 -0.16121337170E+04  0.16121337170E+04  0.25500000920E-02 0.  1.
    10030    2    1    2    0    0  0.00000000000E+00  0.00000000000E+00  0.75870932119E+03  0.39829767551E+04  0.39100465468E+04 0.  0.
        1    1    3    3  502    0 -0.45425415403E+03 -0.10418167097E+03 -0.15547206435E+04  0.16230702192E+04  0.50400001928E-02 0.  1.
       -1    1    3    3    0  502  0.45425415403E+03  0.10418167097E+03  0.23134299647E+04  0.23599065360E+04  0.50400001928E-02 0. -1.
</event>
<event>
 5   0  0.1187925E-07  0.3006499E+04  0.7818609E-02  0.8241877E-01
        1   -1    0    0  501    0  0.00000000000E+00  0.00000000000E+00  0.16758945564E+04  0.16758945564E+04  0.50400001928E-02 0.  1.
       -1   -1    0    0    0  501  0.00000000000E+00  0.00000000000E+00 -0.13483901179E+04  0.13483901180E+04  0.50400001928E-02 0. -1.
    10030    2    1    2    0    0  0.00000000000E+00  0.00000000000E+00  0.32750443847E+03  0.30242846744E+04  0.30064993987E+04 0.  0.
        2    1    3    3  502    0 -0.47510834470E+03 -0.13079720336E+04 -0.40815382525E+03  0.14502097521E+04  0.25500000920E-02 0. -1.
       -2    1    3    3    0  502  0.47510834470E+03  0.13079720336E+04  0.73565826372E+03  0.15740749223E+04  0.25500000920E-02 0.  1.
</event>
<event>
 5   0  0.3810833E-07  0.3947069E+04  0.7818609E-02  0.8015310E-01
        2   -1    0    0  501    0  0.00000000000E+00  0.00000000000E+00  0.26823634914E+04  0.26823634914E+04  0.25500000920E-02 0.  1.
       -2   -1    0    0    0  501  0.00000000000E+00  0.00000000000E+00 -0.14520172117E+04  0.14520172117E+04  0.25500000920E-02 0. -1.
    10030    2    1    2    0    0  0.00000000000E+00  0.00000000000E+00  0.12303462797E+04  0.41343807031E+04  0.39470687643E+04 0.  0.
        3    1    3    3  502    0  0.48051265117E+03 -0.10877947771E+04 -0.10345776665E+04  0.15762426346E+04  0.10100000352E+00 0. -1.
       -3    1    3    3    0  502 -0.48051265117E+03  0.10877947771E+04  0.22649239462E+04  0.25581380685E+04  0.10100000352E+00 0.  1.
</event>
<event>
 5   0  0.1187925E-07  0.3730676E+04  0.7818609E-02  0.8061197E-01
       -1   -1    0    0    0  501  0.00000000000E+00  0.00000000000E+00  0.13957420200E+04  0.13957420200E+04  0.50400001928E-02 0. -1.
        1   -1    0    0  501    0  0.00000000000E+00  0.00000000000E+00 -0.24929291692E+04  0.24929291692E+04  0.50400001928E-02 0.  1.
    10030    2    1    2    0    0  0.00000000000E+00  0.00000000000E+00 -0.10971871492E+04  0.38886711893E+04  0.37306760752E+04 0.  0.
        4    1    3    3  502    0 -0.11037880602E+04  0.98036342432E+03 -0.17370666337E+04  0.22796628322E+04  0.12699999809E+01 0.  1.
       -4    1    3    3    0  502  0.11037880602E+04 -0.98036342432E+03  0.63987948449E+03  0.16090083571E+04  0.12699999809E+01 0. -1.
</event>
<event>
 5   0  0.1187925E-07  0.3839905E+04  0.7818609E-02  0.8037645E-01
        1   -1    0    0  501    0  0.00000000000E+00  0.00000000000E+00  0.31106175238E+04  0.31106175238E+04  0.50400001928E-02 0.  1.
       -1   -1    0    0    0  501  0.00000000000E+00  0.00000000000E+00 -0.11850436413E+04  0.11850436413E+04  0.50400001928E-02 0. -1.
    10030    2    1    2    0    0  0.00000000000E+00  0.00000000000E+00  0.19255738825E+04  0.42956611650E+04  0.38399049556E+04 0.  0.
        1    1    3    3  502    0  0.11495894208E+03 -0.18157331234E+04  0.16488593838E+04  0.24553695448E+04  0.50400001928E-02 0. -1.
       -1    1    3    3    0  502 -0.11495894208E+03  0.18157331234E+04  0.27671449866E+03  0.18402916203E+04  0.50400001928E-02 0.  1.
</event>
<event>
 5   0  0.1187925E-07  0.3890784E+04  0.7818609E-02  0.8026949E-01
        1   -1    0    0  501    0  0.00000000000E+00  0.00000000000E+00  0.30990339951E+04  0.30990339951E+04  0.50400001928E-02 0.  1.
       -1   -1    0    0    0  501  0.00000000000E+00  0.00000000000E+00 -0.12212029026E+04  0.12212029026E+04  0.50400001928E-02 0. -1.
    10030    2    1    2    0    0  0.00000000000E+00  0.00000000000E+00  0.18778310925E+04  0.43202368978E+04  0.38907836281E+04 0.  0.
        5    1    3    3  502    0 -0.98481364551E+03 -0.12491123664E+04  0.21825317101E+04  0.27006677648E+04  0.46999998093E+01 0.  1.
       -5    1    3    3    0  502  0.98481364551E+03  0.12491123664E+04 -0.30470061756E+03  0.16195691330E+04  0.46999998093E+01 0. -1.
</event>
<event>
 5   0  0.3610483E-07  0.3905047E+04  0.7818609E-02  0.8023980E-01
       -2   -1    0    0    0  501  0.00000000000E+00  0.00000000000E+00  0.13257315546E+04  0.13257315546E+04  0.25500000920E-02 0. -1.
        2   -1    0    0  501    0  0.00000000000E+00  0.00000000000E+00 -0.28756561802E+04  0.28756561802E+04  0.25500000920E-02 0.  1.
    10030    2    1    2    0    0  0.00000000000E+00  0.00000000000E+00 -0.15499246255E+04  0.42013877348E+04  0.39050470616E+04 0.  0.
        4    1    3    3  502    0 -0.83784067919E+03  0.17008048912E+04 -0.27304969805E+03  0.19155343986E+04  0.12699999809E+01 0. -1.
       -4    1    3    3    0  502  0.83784067919E+03 -0.17008048912E+04 -0.12768749275E+04  0.22858533362E+04  0.12699999809E+01 0.  1.
</event>
<event>
 5   0  0.1187925E-07  0.3919814E+04  0.7818609E-02  0.8020921E-01
       -1   -1    0    0    0  501  0.00000000000E+00  0.00000000000E+00  0.21450731465E+04  0.21450731465E+04  0.50400001928E-02 0. -1.
        1   -1    0    0  501    0  0.00000000000E+00  0.00000000000E+00 -0.17907244963E+04  0.17907244963E+04  0.50400001928E-02 0.  1.
    10030    2    1    2    0    0  0.00000000000E+00  0.00000000000E+00  0.35434865024E+03  0.39357976428E+04  0.39198137863E+04 0.  0.
        2    1    3    3  502    0  0.17717933308E+04 -0.54334049924E+03  0.81755594750E+03  0.20255538088E+04  0.25500000920E-02 0. -1.
       -2    1    3    3    0  502 -0.17717933308E+04  0.54334049924E+03 -0.46320729726E+03  0.19102438340E+04  0.25500000920E-02 0.  1.
</event>
<event>
 5   0  0.3665303E-07  0.3915815E+04  0.7818609E-02  0.8021748E-01
       -2   -1    0    0    0  501  0.00000000000E+00  0.00000000000E+00  0.17321459700E+04  0.17321459700E+04  0.25500000920E-02 0.  1.
        2   -1    0    0  501    0  0.00000000000E+00  0.00000000000E+00 -0.22130939794E+04  0.22130939794E+04  0.25500000920E-02 0. -1.
    10030    2    1    2    0    0  0.00000000000E+00  0.00000000000E+00 -0.48094800946E+03  0.39452399494E+04  0.39158150200E+04 0.  0.
        2    1    3    3  502    0  0.13300098933E+04 -0.14167579962E+04 -0.48158859784E+03  0.20020132651E+04  0.25500000920E-02 0. -1.
       -2    1    3    3    0  502 -0.13300098933E+04  0.14167579962E+04  0.64058838104E+00  0.19432266843E+04  0.25500000920E-02 0.  1.
</event>
<event>
 5   0  0.3680814E-07  0.3906675E+04  0.7818609E-02  0.8023642E-01
        2   -1    0    0  501    0  0.00000000000E+00  0.00000000000E+00  0.22949444197E+04  0.22949444197E+04  0.25500000920E-02 0. -1.
       -2   -1    0    0    0  501  0.00000000000E+00  0.00000000000E+00 -0.16625795592E+04  0.16625795592E+04  0.25500000920E-02 0.  1.
    10030    2    1    2    0    0  0.00000000000E+00  0.00000000000E+00  0.63236486054E+03  0.39575239790E+04  0.39066751499E+04 0.  0.
        1    1    3    3  502    0  0.31665911129E+03 -0.68487748420E+03 -0.15089892678E+04  0.16871214454E+04  0.50400001928E-02 0.  1.
       -1    1    3    3    0  502 -0.31665911129E+03  0.68487748420E+03  0.21413541284E+04  0.22704025335E+04  0.50400001928E-02 0. -1.
</event>
<event>
 5   0  0.3832389E-07  0.3912070E+04  0.7818609E-02  0.8022524E-01
       -2   -1    0    0    0  501  0.00000000000E+00  0.00000000000E+00  0.17786747688E+04  0.17786747688E+04  0.25500000920E-02 0.  1.
        2   -1    0    0  501    0  0.00000000000E+00  0.00000000000E+00 -0.21510802339E+04  0.21510802339E+04  0.25500000920E-02 0. -1.
    10030    2    1    2    0    0  0.00000000000E+00  0.00000000000E+00 -0.37240546508E+03  0.39297550027E+04  0.39120695994E+04 0.  0.
        5    1    3    3  502    0  0.17222912194E+04 -0.76747958584E+03  0.33647449894E+03  0.19153456966E+04  0.46999998093E+01 0. -1.
       -5    1    3    3    0  502 -0.17222912194E+04  0.76747958584E+03 -0.70887996402E+03  0.20144093061E+04  0.46999998093E+01 0.  1.
</event>
<event>
 5   0  0.1187925E-07  0.3819279E+04  0.7818609E-02  0.8042030E-01
       -1   -1    0    0    0  501  0.00000000000E+00  0.00000000000E+00  0.18613022273E+04  0.18613022273E+04  0.50400001928E-02 0.  1.
        1   -1    0    0  501    0  0.00000000000E+00  0.00000000000E+00 -0.19592325722E+04  0.19592325722E+04  0.50400001928E-02 0. -1.
    10030    2    1    2    0    0  0.00000000000E+00  0.00000000000E+00 -0.97930344935E+02  0.38205347995E+04  0.38192794873E+04 0.  0.
        2    1    3    3  502    0 -0.43987850735E+03 -0.79043863194E+03  0.16333835468E+04  0.18671443819E+04  0.25500000920E-02 0.  1.
       -2    1    3    3    0  502  0.43987850735E+03  0.79043863194E+03 -0.17313138917E+04  0.19533904176E+04  0.25500000920E-02 0. -1.
</event>
<event>
 5   0  0.1187925E-07  0.3931619E+04  0.7818609E-02  0.8018485E-01
       -1   -1    0    0    0  501  0.00000000000E+00  0.00000000000E+00  0.13342213922E+04  0.13342213922E+04  0.50400001928E-02 0.  1.
        1   -1    0    0  501    0  0.00000000000E+00  0.00000000000E+00 -0.28963755112E+04  0.28963755112E+04  0.50400001928E-02 0. -1.
    10030    2    1    2    0    0  0.00000000000E+00  0.00000000000E+00 -0.15621541190E+04  0.42305969034E+04  0.39316185811E+04 0.  0.
        4    1    3    3  502    0 -0.46931032768E+03 -0.34047499802E+03 -0.28022741290E+04  0.28616284376E+04  0.12699999809E+01 0. -1.
       -4    1    3    3    0  502  0.46931032768E+03  0.34047499802E+03  0.12401200100E+04  0.13689684657E+04  0.12699999809E+01 0.  1.
</event>
<event>
 5   0  0.3610483E-07  0.3907220E+04  0.7818609E-02  0.8023529E-01
       -2   -1    0    0    0  501  0.00000000000E+00  0.00000000000E+00  0.18396662693E+04  0.18396662693E+04  0.25500000920E-02 0. -1.
        2   -1    0    0  501    0  0.00000000000E+00  0.00000000000E+00 -0.20746114719E+04  0.20746114720E+04  0.25500000920E-02 0.  1.
    10030    2    1    2    0    0  0.00000000000E+00  0.00000000000E+00 -0.23494520268E+03  0.39142777412E+04  0.39072203658E+04 0.  0.
        4    1    3    3  502    0 -0.57639673613E+03 -0.16256267459E+03  0.17454375678E+04  0.18453221227E+04  0.12699999809E+01 0. -1.
       -4    1    3    3    0  502  0.57639673613E+03  0.16256267459E+03 -0.19803827705E+04  0.20689556185E+04  0.12699999809E+01 0.  1.
</event>
<event>
 5   0  0.3810833E-07  0.3880282E+04  0.7818609E-02  0.8029143E-01
        2   -1    0    0  501    0  0.00000000000E+00  0.00000000000E+00  0.21725278922E+04  0.21725278922E+04  0.25500000920E-02 0. -1.
       -2   -1    0    0    0  501  0.00000000000E+00  0.00000000000E+00 -0.17326112351E+04  0.17326112351E+04  0.25500000920E-02 0.  1.
    10030    2    1    2    0    0  0.00000000000E+00  0.00000000000E+00  0.43991665710E+03  0.39051391274E+04  0.38802815541E+04 0.  0.
        3    1    3    3  502    0  0.82498669560E+03 -0.79082300664E+03  0.17978484910E+04  0.21303199953E+04  0.10100000352E+00 0. -1.
       -3    1    3    3    0  502 -0.82498669560E+03  0.79082300664E+03 -0.13579318339E+04  0.17748191320E+04  0.10100000352E+00 0.  1.
</event>
<event>
 5   0  0.1187925E-07  0.3626542E+04  0.7818609E-02  0.8084439E-01
       -1   -1    0    0    0  501  0.00000000000E+00  0.00000000000E+00  0.20083230686E+04  0.20083230686E+04  0.50400001928E-02 0. -1.
        1   -1    0    0  501    0  0.00000000000E+00  0.00000000000E+00 -0.16371627267E+04  0.16371627268E+04  0.50400001928E-02 0.  1.
    10030    2    1    2    0    0  0.00000000000E+00  0.00000000000E+00  0.37116034187E+03  0.36454857954E+04  0.36265419734E+04 0.  0.
        1    1    3    3  502    0 -0.81005751819E+03 -0.60626755812E+03  0.16981656134E+04  0.19767447952E+04  0.50400001928E-02 0. -1.
       -1    1    3    3    0  502  0.81005751819E+03  0.60626755812E+03 -0.13270052716E+04  0.16687410001E+04  0.50400001928E-02 0.  1.
</event>
<event>
 5   0  0.1187925E-07  0.3489198E+04  0.7818609E-02  0.8116355E-01
        1   -1    0    0  501    0  0.00000000000E+00  0.00000000000E+00  0.15473821644E+04  0.15473821644E+04  0.50400001928E-02 0. -1.
       -1   -1    0    0    0  501  0.00000000000E+00  0.00000000000E+00 -0.19669510167E+04  0.19669510168E+04  0.50400001928E-02 0.  1.
    10030    2    1    2    0    0  0.00000000000E+00  0.00000000000E+00 -0.41956885232E+03  0.35143331812E+04  0.34891975706E+04 0.  0.
        3    1    3    3  502    0  0.17050968454E+04  0.36837784771E+03 -0.23377661352E+03  0.17600309674E+04  0.10100000352E+00 0. -1.
       -3    1    3    3    0  502 -0.17050968454E+04 -0.36837784771E+03 -0.18579223880E+03  0.17543022138E+04  0.10100000352E+00 0.  1.
</event>
<event>
 5   0  0.1187925E-07  0.3885896E+04  0.7818609E-02  0.8027969E-01
        1   -1    0    0  501    0  0.00000000000E+00  0.00000000000E+00  0.11837809473E+04  0.11837809473E+04  0.50400001928E-02 0. -1.
       -1   -1    0    0    0  501  0.00000000000E+00  0.00000000000E+00 -0.31889745127E+04  0.31889745128E+04  0.50400001928E-02 0.  1.
    10030    2    1    2    0    0  0.00000000000E+00  0.00000000000E+00 -0.20051935654E+04  0.43727554601E+04  0.38858961745E+04 0.  0.
        2    1    3    3  502    0  0.37586828519E+03  0.34286345590E+03 -0.31126903147E+04  0.31539932327E+04  0.25500000920E-02 0.  1.
       -2    1    3    3    0  502 -0.37586828519E+03 -0.34286345590E+03  0.11074967492E+04  0.12187622273E+04  0.25500000920E-02 0. -1.
</event>
<event>
 5   0  0.1187925E-07  0.3909733E+04  0.7818609E-02  0.8023008E-01
       -1   -1    0    0    0  501  0.00000000000E+00  0.00000000000E+00  0.16303311880E+04  0.16303311880E+04  0.50400001928E-02 0. -1.
        1   -1    0    0  501    0  0.00000000000E+00  0.00000000000E+00 -0.23440035386E+04  0.23440035386E+04  0.50400001928E-02 0.  1.
    10030    2    1    2    0    0  0.00000000000E+00  0.00000000000E+00 -0.71367235065E+03  0.39743347266E+04  0.39097325094E+04 0.  0.
        2    1    3    3  502    0  0.52924886633E+03  0.61605153722E+03  0.14507123500E+04  0.16625853908E+04  0.25500000920E-02 0. -1.
       -2    1    3    3    0  502 -0.52924886633E+03 -0.61605153722E+03 -0.21643847007E+04  0.23117493358E+04  0.25500000920E-02 0.  1.
</event>
<event>
 5   0  0.3832389E-07  0.3802268E+04  0.7818609E-02  0.8045668E-01
        2   -1    0    0  501    0  0.00000000000E+00  0.00000000000E+00  0.15468458419E+04  0.15468458419E+04  0.25500000920E-02 0.  1.
       -2   -1    0    0    0  501  0.00000000000E+00  0.00000000000E+00 -0.23365684978E+04  0.23365684978E+04  0.25500000920E-02 0. -1.
    10030    2    1    2    0    0  0.00000000000E+00  0.00000000000E+00 -0.78972265589E+03  0.38834143397E+04  0.38022684099E+04 0.  0.
        5    1    3    3  502    0  0.96537963835E+02  0.28828129318E+03  0.15218522437E+04  0.15519284855E+04  0.46999998093E+01 0.  1.
       -5    1    3    3    0  502 -0.96537963835E+02 -0.28828129318E+03 -0.23115748995E+04  0.23314858543E+04  0.46999998093E+01 0. -1.
</event>
<event>
 5   0  0.1187925E-07  0.3789686E+04  0.7818609E-02  0.8048372E-01
       -1   -1    0    0    0  501  0.00000000000E+00  0.00000000000E+00  0.14041291041E+04  0.14041291041E+04  0.50400001928E-02 0.  1.
        1   -1    0    0  501    0  0.00000000000E+00  0.00000000000E+00 -0.25570507574E+04  0.25570507574E+04  0.50400001928E-02 0. -1.
    10030    2    1    2    0    0  0.00000000000E+00  0.00000000000E+00 -0.11529216532E+04  0.39611798615E+04  0.37896856804E+04 0.  0.
        5    1    3    3  502    0  0.15495727534E+04 -0.64527387052E+03  0.34244261932E+03  0.17131383842E+04  0.46999998093E+01 0.  1.
       -5    1    3    3    0  502 -0.15495727534E+04  0.64527387052E+03 -0.14953642726E+04  0.22480414773E+04  0.46999998093E+01 0. -1.
</event>
<event>
 5   0  0.1187925E-07  0.3053349E+04  0.7818609E-02  0.8228659E-01
       -1   -1    0    0    0  501  0.00000000000E+00  0.00000000000E+00  0.16215388483E+04  0.16215388484E+04  0.50400001928E-02 0. -1.
        1   -1    0    0  501    0  0.00000000000E+00  0.00000000000E+00 -0.14373604059E+04  0.14373604059E+04  0.50400001928E-02 0.  1.
    10030    2    1    2    0    0  0.00000000000E+00  0.00000000000E+00  0.18417844249E+03  0.30588992542E+04  0.30533494639E+04 0.  0.
        3    1    3    3  502    0  0.30483398081E+03  0.38149043810E+02 -0.14060742031E+04  0.14392441698E+04  0.10100000352E+00 0.  1.
       -3    1    3    3    0  502 -0.30483398081E+03 -0.38149043810E+02  0.15902526456E+04  0.16196550844E+04  0.10100000352E+00 0. -1.
</event>
<event>
 5   0  0.1187925E-07  0.3920708E+04  0.7818609E-02  0.8020736E-01
        1   -1    0    0  501    0  0.00000000000E+00  0.00000000000E+00  0.17735210336E+04  0.17735210336E+04  0.50400001928E-02 0. -1.
       -1   -1    0    0    0  501  0.00000000000E+00  0.00000000000E+00 -0.21668685957E+04  0.21668685957E+04  0.50400001928E-02 0.  1.
    10030    2    1    2    0    0  0.00000000000E+00  0.00000000000E+00 -0.39334756213E+03  0.39403896293E+04  0.39207076053E+04 0.  0.
        5    1    3    3  502    0 -0.15941531581E+04  0.10809442725E+01  0.94994768732E+03  0.18557338598E+04  0.46999998093E+01 0. -1.
       -5    1    3    3    0  502  0.15941531581E+04 -0.10809442725E+01 -0.13432952494E+04  0.20846557695E+04  0.46999998093E+01 0.  1.
</event>
<event>
 5   0  0.1187925E-07  0.3863907E+04  0.7818609E-02  0.8032578E-01
       -1   -1    0    0    0  501  0.00000000000E+00  0.00000000000E+00  0.19611663475E+04  0.19611663475E+04  0.50400001928E-02 0. -1.
        1   -1    0    0  501    0  0.00000000000E+00  0.00000000000E+00 -0.19031761387E+04  0.19031761388E+04  0.50400001928E-02 0.  1.
    10030    2    1    2    0    0  0.00000000000E+00  0.00000000000E+00  0.57990208763E+02  0.38643424863E+04  0.38639073471E+04 0.  0.
        1    1    3    3  502    0  0.58346943026E+03 -0.17918425419E+04 -0.39685647134E+03  0.19257807066E+04  0.50400001928E-02 0. -1.
       -1    1    3    3    0  502 -0.58346943026E+03  0.17918425419E+04  0.45484668010E+03  0.19385617797E+04  0.50400001928E-02 0.  1.
</event>
<event>
 5   0  0.3665303E-07  0.3608587E+04  0.7818609E-02  0.8088528E-01
       -2   -1    0    0    0  501  0.00000000000E+00  0.00000000000E+00  0.14552238253E+04  0.14552238253E+04  0.25500000920E-02 0. -1.
        2   -1    0    0  501    0  0.00000000000E+00  0.00000000000E+00 -0.22370956756E+04  0.22370956756E+04  0.25500000920E-02 0.  1.
    10030    2    1    2    0    0  0.00000000000E+00  0.00000000000E+00 -0.78187185029E+03  0.36923195009E+04  0.36085869404E+04 0.  0.
        2    1    3    3  502    0  0.13471670848E+04  0.52805989047E+02  0.83598186451E+03  0.15863522007E+04  0.25500000920E-02 0. -1.
       -2    1    3    3    0  502 -0.13471670848E+04 -0.52805989047E+02 -0.16178537148E+04  0.21059673002E+04  0.25500000920E-02 0.  1.
</event>
<event>
 5   0  0.3680814E-07  0.3914075E+04  0.7818609E-02  0.8022108E-01
        2   -1    0    0  501    0  0.00000000000E+00  0.00000000000E+00  0.30496329348E+04  0.30496329348E+04  0.25500000920E-02 0. -1.
       -2   -1    0    0    0  501  0.00000000000E+00  0.00000000000E+00 -0.12558874638E+04  0.12558874638E+04  0.25500000920E-02 0.  1.
    10030    2    1    2    0    0  0.00000000000E+00  0.00000000000E+00  0.17937454710E+04  0.43055203987E+04  0.39140749978E+04 0.  0.
        1    1    3    3  502    0  0.16895646591E+04  0.27344455100E+03 -0.14703304163E+03  0.17178531297E+04  0.50400001928E-02 0.  1.
       -1    1    3    3    0  502 -0.16895646591E+04 -0.27344455100E+03  0.19407785126E+04  0.25876672690E+04  0.50400001928E-02 0. -1.
</event>
<event>
 5   0  0.1187925E-07  0.3595221E+04  0.7818609E-02  0.8091587E-01
        3   -1    0    0  501    0  0.00000000000E+00  0.00000000000E+00  0.18472637926E+04  0.18472637954E+04  0.10100000352E+00 0.  1.
       -3   -1    0    0    0  501  0.00000000000E+00  0.00000000000E+00 -0.17492914936E+04  0.17492914966E+04  0.10100000352E+00 0. -1.
    10030    2    1    2    0    0  0.00000000000E+00  0.00000000000E+00  0.97972298992E+02  0.35965552919E+04  0.35952206325E+04 0.  0.
        4    1    3    3  502    0 -0.27601425254E+03 -0.79136030162E+03 -0.15418765895E+04  0.17549416015E+04  0.12699999809E+01 0. -1.
       -4    1    3    3    0  502  0.27601425254E+03  0.79136030162E+03  0.16398488885E+04  0.18416136904E+04  0.12699999809E+01 0.  1.
</event>
<event>
 5   0  0.1187925E-07  0.3867376E+04  0.7818609E-02  0.8031849E-01
        1   -1    0    0  501    0  0.00000000000E+00  0.00000000000E+00  0.23566605152E+04  0.23566605152E+04  0.50400001928E-02 0. -1.
       -1   -1    0    0    0  501  0.00000000000E+00  0.00000000000E+00 -0.15866305055E+04  0.15866305055E+04  0.50400001928E-02 0.  1.
    10030    2    1    2    0    0  0.00000000000E+00  0.00000000000E+00  0.77003000972E+03  0.39432910206E+04  0.38673760947E+04 0.  0.
        2    1    3    3  502    0  0.83288558425E+03 -0.12551689830E+04 -0.85122094360E+03  0.17302383267E+04  0.25500000920E-02 0.  1.
       -2    1    3    3    0  502 -0.83288558425E+03  0.12551689830E+04  0.16212509533E+04  0.22130526939E+04  0.25500000920E-02 0. -1.
</event>
<event>
 5   0  0.1187925E-07  0.3753076E+04  0.7818609E-02  0.8056300E-01
        1   -1    0    0  501    0  0.00000000000E+00  0.00000000000E+00  0.15396787904E+04  0.15396787904E+04  0.50400001928E-02 0.  1.
       -1   -1    0    0    0  501  0.00000000000E+00  0.00000000000E+00 -0.22870974593E+04  0.22870974593E+04  0.50400001928E-02 0. -1.
    10030    2    1    2    0    0  0.00000000000E+00  0.00000000000E+00 -0.74741866888E+03  0.38267762497E+04  0.37530763113E+04 0.  0.
        3    1    3    3  502    0 -0.11248748301E+04  0.41032035407E+03 -0.18469666413E+04  0.22011342441E+04  0.10100000352E+00 0. -1.
       -3    1    3    3    0  502  0.11248748301E+04 -0.41032035407E+03  0.10995479725E+04  0.16256420056E+04  0.10100000352E+00 0.  1.
</event>
<event>
 5   0  0.3665303E-07  0.3922522E+04  0.7818609E-02  0.8020361E-01
       -2   -1    0    0    0  501  0.00000000000E+00  0.00000000000E+00  0.21459219363E+04  0.21459219363E+04  0.25500000920E-02 0.  1.
        2   -1    0    0  501    0  0.00000000000E+00  0.00000000000E+00 -0.17924900665E+04  0.17924900665E+04  0.25500000920E-02 0. -1.
    10030    2    1    2    0    0  0.00000000000E+00  0.00000000000E+00  0.35343186975E+03  0.39384120028E+04  0.39225215127E+04 0.  0.
        2    1    3    3  502    0  0.75562868599E+03 -0.11399906896E+04 -0.12346778907E+04  0.18425479579E+04  0.25500000920E-02 0. -1.
       -2    1    3    3    0  502 -0.75562868599E+03  0.11399906896E+04  0.15881097605E+04  0.20958640449E+04  0.25500000920E-02 0.  1.
</event>
<event>
 5   0  0.3680814E-07  0.3274464E+04  0.7818609E-02  0.8169424E-01
       -2   -1    0    0    0  501  0.00000000000E+00  0.00000000000E+00  0.15952508053E+04  0.15952508053E+04  0.25500000920E-02 0. -1.
        2   -1    0    0  501    0  0.00000000000E+00  0.00000000000E+00 -0.16803175464E+04  0.16803175464E+04  0.25500000920E-02 0.  1.
    10030    2    1    2    0    0  0.00000000000E+00  0.00000000000E+00 -0.85066741151E+02  0.32755683517E+04  0.32744635708E+04 0.  0.
        1    1    3    3  502    0 -0.81090683849E+03 -0.12368017657E+04  0.66004212347E+03  0.16195382407E+04  0.50400001928E-02 0.  1.
       -1    1    3    3    0  502  0.81090683849E+03  0.12368017657E+04 -0.74510886462E+03  0.16560301110E+04  0.50400001928E-02 0. -1.
</event>
<event>
 5   0  0.1187925E-07  0.3373337E+04  0.7818609E-02  0.8144482E-01
       -1   -1    0    0    0  501  0.00000000000E+00  0.00000000000E+00  0.15849882227E+04  0.15849882227E+04  0.50400001928E-02 0. -1.
        1   -1    0    0  501    0  0.00000000000E+00  0.00000000000E+00 -0.17948712887E+04  0.17948712887E+04  0.50400001928E-02 0.  1.
    10030    2    1    2    0    0  0.00000000000E+00  0.00000000000E+00 -0.20988306602E+03  0.33798595114E+04  0.33733365405E+04 0.  0.
        1    1    3    3  502    0 -0.29228512616E+03 -0.16364534805E+04  0.18098594969E+03  0.16721741844E+04  0.50400001928E-02 0. -1.
       -1    1    3    3    0  502  0.29228512616E+03  0.16364534805E+04 -0.39086901571E+03  0.17076853271E+04  0.50400001928E-02 0.  1.
</event>
<event>
 5   0  0.3665303E-07  0.3909629E+04  0.7818609E-02  0.8023030E-01
        2   -1    0    0  501    0  0.00000000000E+00  0.00000000000E+00  0.21163489939E+04  0.21163489939E+04  0.25500000920E-02 0. -1.
       -2   -1    0    0    0  501  0.00000000000E+00  0.00000000000E+00 -0.18056093829E+04  0.18056093829E+04  0.25500000920E-02 0.  1.
    10030    2    1    2    0    0  0.00000000000E+00  0.00000000000E+00  0.31073961103E+03  0.39219583769E+04  0.39096289343E+04 0.  0.
        2    1    3    3  502    0 -0.67409260768E+03  0.17391449356E+04  0.74225637792E+03  0.20074786379E+04  0.25500000920E-02 0.  1.
       -2    1    3    3    0  502  0.67409260768E+03 -0.17391449356E+04 -0.43151676689E+03  0.19144797390E+04  0.25500000920E-02 0. -1.
</event>
<event>
 5   0  0.1187925E-07  0.3902405E+04  0.7818609E-02  0.8024529E-01
       -1   -1    0    0    0  501  0.00000000000E+00  0.00000000000E+00  0.22891890271E+04  0.22891890272E+04  0.50400001928E-02 0.  1.
        1   -1    0    0  501    0  0.00000000000E+00  0.00000000000E+00 -0.16631181343E+04  0.16631181343E+04  0.50400001928E-02 0. -1.
    10030    2    1    2    0    0  0.00000000000E+00  0.00000000000E+00  0.62607089283E+03  0.39523071615E+04  0.39024053013E+04 0.  0.
        4    1    3    3  502    0  0.62154095910E+03  0.16441246750E+04  0.11710589547E+04  0.21120700270E+04  0.12699999809E+01 0.  1.
       -4    1    3    3    0  502 -0.62154095910E+03 -0.16441246750E+04 -0.54498806187E+03  0.18402371345E+04  0.12699999809E+01 0. -1.
</event>
<event>
 5   0  0.1187925E-07  0.3929947E+04  0.7818609E-02  0.8018829E-01
       -1   -1    0    0    0  501  0.00000000000E+00  0.00000000000E+00  0.24722426649E+04  0.24722426649E+04  0.50400001928E-02 0.  1.
        1   -1    0    0  501    0  0.00000000000E+00  0.00000000000E+00 -0.15617891316E+04  0.15617891316E+04  0.50400001928E-02 0. -1.
    10030    2    1    2    0    0  0.00000000000E+00  0.00000000000E+00  0.91045353334E+03  0.40340317965E+04  0.39299474422E+04 0.  0.
        3    1    3    3  502    0 -0.79986793429E+03 -0.65267550930E+03  0.21714370149E+04  0.24043528761E+04  0.10100000352E+00 0.  1.
       -3    1    3    3    0  502  0.79986793429E+03  0.65267550930E+03 -0.12609834815E+04  0.16296789204E+04  0.10100000352E+00 0. -1.
</event>
<event>
 5   0  0.3832389E-07  0.3943424E+04  0.7818609E-02  0.8016058E-01
       -2   -1    0    0    0  501  0.00000000000E+00  0.00000000000E+00  0.17196394447E+04  0.17196394447E+04  0.25500000920E-02 0.  1.
        2   -1    0    0  501    0  0.00000000000E+00  0.00000000000E+00 -0.22607346899E+04  0.22607346899E+04  0.25500000920E-02 0. -1.
    10030    2    1    2    0    0  0.00000000000E+00  0.00000000000E+00 -0.54109524525E+03  0.39803741346E+04  0.39434241703E+04 0.  0.
        5    1    3    3  502    0 -0.79557006753E+03  0.45501139146E+03  0.14915648011E+04  0.17506440942E+04  0.46999998093E+01 0.  1.
       -5    1    3    3    0  502  0.79557006753E+03 -0.45501139146E+03 -0.20326600464E+04  0.22297300403E+04  0.46999998093E+01 0. -1.
</event>
<event>
 5   0  0.3665303E-07  0.3906612E+04  0.7818609E-02  0.8023655E-01
        2   -1    0    0  501    0  0.00000000000E+00  0.00000000000E+00  0.20410517595E+04  0.20410517595E+04  0.25500000920E-02 0. -1.
       -2   -1    0    0    0  501  0.00000000000E+00  0.00000000000E+00 -0.18693323559E+04  0.18693323559E+04  0.25500000920E-02 0.  1.
    10030    2    1    2    0    0  0.00000000000E+00  0.00000000000E+00  0.17171940367E+03  0.39103841154E+04  0.39066118794E+04 0.  0.
        2    1    3    3  502    0  0.66719556311E+03 -0.11927717992E+04 -0.13110341900E+04  0.18938492896E+04  0.25500000920E-02 0.  1.
       -2    1    3    3    0  502 -0.66719556311E+03  0.11927717992E+04  0.14827535936E+04  0.20165348258E+04  0.25500000920E-02 0. -1.
</event>
<event>
 5   0  0.1187925E-07  0.3881081E+04  0.7818609E-02  0.8028976E-01
        3   -1    0    0  501    0  0.00000000000E+00  0.00000000000E+00  0.12746890116E+04  0.12746890156E+04  0.10100000352E+00 0.  1.
       -3   -1    0    0    0  501  0.00000000000E+00  0.00000000000E+00 -0.29542082579E+04  0.29542082596E+04  0.10100000352E+00 0. -1.
    10030    2    1    2    0    0  0.00000000000E+00  0.00000000000E+00 -0.16795192463E+04  0.42288972752E+04  0.38810806827E+04 0.  0.
        2    1    3    3  502    0  0.95261942866E+03  0.16538287762E+04 -0.45751714004E+03  0.19626398881E+04  0.25500000920E-02 0.  1.
       -2    1    3    3    0  502 -0.95261942866E+03 -0.16538287762E+04 -0.12220021062E+04  0.22662573871E+04  0.25500000920E-02 0. -1.
</event>
<event>
 5   0  0.1187925E-07  0.3887501E+04  0.7818609E-02  0.8027634E-01
       -1   -1    0    0    0  501  0.00000000000E+00  0.00000000000E+00  0.16567283358E+04  0.16567283358E+04  0.50400001928E-02 0. -1.
        1   -1    0    0  501    0  0.00000000000E+00  0.00000000000E+00 -0.22804987446E+04  0.22804987446E+04  0.50400001928E-02 0.  1.
    10030    2    1    2    0    0  0.00000000000E+00  0.00000000000E+00 -0.62377040875E+03  0.39372270804E+04  0.38875014546E+04 0.  0.
        2    1    3    3  502    0  0.66795021498E+03  0.80821204760E+03  0.13457549631E+04  0.17059954936E+04  0.25500000920E-02 0. -1.
       -2    1    3    3    0  502 -0.66795021498E+03 -0.80821204760E+03 -0.19695253718E+04  0.22312315868E+04  0.25500000920E-02 0.  1.
</event>
<event>
 5   0  0.1187925E-07  0.3839369E+04  0.7818609E-02  0.8037759E-01
       -1   -1    0    0    0  501  0.00000000000E+00  0.00000000000E+00  0.24272562794E+04  0.24272562794E+04  0.50400001928E-02 0.  1.
        1   -1    0    0  501    0  0.00000000000E+00  0.00000000000E+00 -0.15182528706E+04  0.15182528706E+04  0.50400001928E-02 0. -1.
    10030    2    1    2    0    0  0.00000000000E+00  0.00000000000E+00  0.90900340874E+03  0.39455091500E+04  0.38393691221E+04 0.  0.
        1    1    3    3  502    0  0.72037188499E+03  0.15701273772E+04  0.13148765259E+04  0.21709757971E+04  0.50400001928E-02 0. -1.
       -1    1    3    3    0  502 -0.72037188499E+03 -0.15701273772E+04 -0.40587311720E+03  0.17745333529E+04  0.50400001928E-02 0.  1.
</event>
<event>
 5   0  0.3665303E-07  0.3897707E+04  0.7818609E-02  0.8025506E-01
        2   -1    0    0  501    0  0.00000000000E+00  0.00000000000E+00  0.28504258354E+04  0.28504258354E+04  0.25500000920E-02 0.  1.
       -2   -1    0    0    0  501  0.00000000000E+00  0.00000000000E+00 -0.13324431346E+04  0.13324431346E+04  0.25500000920E-02 0. -1.
    10030    2    1    2    0    0  0.00000000000E+00  0.00000000000E+00  0.15179827009E+04  0.41828689700E+04  0.38977071901E+04 0.  0.
        2    1    3    3  502    0  0.11045790046E+04 -0.15893147141E+04  0.51423925564E+03  0.20026128058E+04  0.25500000920E-02 0. -1.
       -2    1    3    3    0  502 -0.11045790046E+04  0.15893147141E+04  0.10037434452E+04  0.21802561642E+04  0.25500000920E-02 0.  1.
</event>
<event>
 5   0  0.1187925E-07  0.3778888E+04  0.7818609E-02  0.8050701E-01
        1   -1    0    0  501    0  0.00000000000E+00  0.00000000000E+00  0.18709655965E+04  0.18709655965E+04  0.50400001928E-02 0. -1.
       -1   -1    0    0    0  501  0.00000000000E+00  0.00000000000E+00 -0.19081044165E+04  0.19081044165E+04  0.50400001928E-02 0.  1.
    10030    2    1    2    0    0  0.00000000000E+00  0.00000000000E+00 -0.37138819992E+02  0.37790700131E+04  0.37788875177E+04 0.  0.
        1    1    3    3  502    0 -0.51353868348E+03 -0.70548854134E+03 -0.16945267284E+04  0.19060054813E+04  0.50400001928E-02 0.  1.
       -1    1    3    3    0  502  0.51353868348E+03  0.70548854134E+03  0.16573879084E+04  0.18730645318E+04  0.50400001928E-02 0. -1.
</event>
<event>
 5   0  0.3832389E-07  0.3901339E+04  0.7818609E-02  0.8024751E-01
        2   -1    0    0  501    0  0.00000000000E+00  0.00000000000E+00  0.12004380928E+04  0.12004380928E+04  0.25500000920E-02 0.  1.
       -2   -1    0    0    0  501  0.00000000000E+00  0.00000000000E+00 -0.31697691209E+04  0.31697691209E+04  0.25500000920E-02 0. -1.
    10030    2    1    2    0    0  0.00000000000E+00  0.00000000000E+00 -0.19693310281E+04  0.43702072137E+04  0.39013390512E+04 0.  0.
        5    1    3    3  502    0  0.87562375998E+03 -0.69339930855E+03 -0.27761047997E+04  0.29923735594E+04  0.46999998093E+01 0. -1.
       -5    1    3    3    0  502 -0.87562375998E+03  0.69339930855E+03  0.80677377162E+03  0.13778336542E+04  0.46999998093E+01 0.  1.
</event>
<event>
 5   0  0.1187925E-07  0.3847603E+04  0.7818609E-02  0.8036016E-01
       -1   -1    0    0    0  501  0.00000000000E+00  0.00000000000E+00  0.12766735376E+04  0.12766735376E+04  0.50400001928E-02 0. -1.
        1   -1    0    0  501    0  0.00000000000E+00  0.00000000000E+00 -0.28989496279E+04  0.28989496279E+04  0.50400001928E-02 0.  1.
    10030    2    1    2    0    0  0.00000000000E+00  0.00000000000E+00 -0.16222760903E+04  0.41756231655E+04  0.38476030340E+04 0.  0.
        3    1    3    3  502    0 -0.58988892771E+02  0.18524194386E+04 -0.25133802168E+03  0.18703230409E+04  0.10100000352E+00 0. -1.
       -3    1    3    3    0  502  0.58988892771E+02 -0.18524194386E+04 -0.13709380686E+04  0.23053001246E+04  0.10100000352E+00 0.  1.
</event>
<event>
 5   0  0.1187925E-07  0.3918012E+04  0.7818609E-02  0.8021294E-01
        3   -1    0    0  501    0  0.00000000000E+00  0.00000000000E+00  0.19964290975E+04  0.19964291000E+04  0.10100000352E+00 0.  1.
       -3   -1    0    0    0  501  0.00000000000E+00  0.00000000000E+00 -0.19222841334E+04  0.19222841360E+04  0.10100000352E+00 0. -1.
    10030    2    1    2    0    0  0.00000000000E+00  0.00000000000E+00  0.74144964098E+02  0.39187132360E+04  0.39180117343E+04 0.  0.
        5    1    3    3  502    0  0.10052728011E+04 -0.13888941106E+04 -0.91076888975E+03  0.19414227555E+04  0.46999998093E+01 0. -1.
       -5    1    3    3    0  502 -0.10052728011E+04  0.13888941106E+04  0.98491385384E+03  0.19772904805E+04  0.46999998093E+01 0.  1.
</event>
<event>
 5   0  0.1187925E-07  0.3922445E+04  0.7818609E-02  0.8020377E-01
        1   -1    0    0  501    0  0.00000000000E+00  0.00000000000E+00  0.26893502179E+04  0.26893502179E+04  0.50400001928E-02 0. -1.
       -1   -1    0    0    0  501  0.00000000000E+00  0.00000000000E+00 -0.14302317928E+04  0.14302317928E+04  0.50400001928E-02 0.  1.
    10030    2    1    2    0    0  0.00000000000E+00  0.00000000000E+00  0.12591184251E+04  0.41195820107E+04  0.39224452493E+04 0.  0.
        5    1    3    3  502    0 -0.92431724089E+03  0.13813226628E+04  0.17230178930E+04  0.23939982060E+04  0.46999998093E+01 0. -1.
       -5    1    3    3    0  502  0.92431724089E+03 -0.13813226628E+04 -0.46389946788E+03  0.17255838047E+04  0.46999998093E+01 0.  1.
</event>
<event>
 5   0  0.3665303E-07  0.3668486E+04  0.7818609E-02  0.8074982E-01
        2   -1    0    0  501    0  0.00000000000E+00  0.00000000000E+00  0.22519507043E+04  0.22519507043E+04  0.25500000920E-02 0. -1.
       -2   -1    0    0    0  501  0.00000000000E+00  0.00000000000E+00 -0.14940146557E+04  0.14940146557E+04  0.25500000920E-02 0.  1.
    10030    2    1    2    0    0  0.00000000000E+00  0.00000000000E+00  0.75793604854E+03  0.37459653600E+04  0.36684859853E+04 0.  0.
        2    1    3    3  502    0 -0.86159046061E+03 -0.48933703358E+03 -0.11972191642E+04  0.15540664662E+04  0.25500000920E-02 0.  1.
       -2    1    3    3    0  502  0.86159046061E+03  0.48933703358E+03  0.19551552128E+04  0.21918988937E+04  0.25500000920E-02 0. -1.
</event>
<event>
 5   0  0.1187925E-07  0.3858535E+04  0.7818609E-02  0.8033709E-01
        1   -1    0    0  501    0  0.00000000000E+00  0.00000000000E+00  0.29968387497E+04  0.29968387497E+04  0.50400001928E-02 0. -1.
       -1   -1    0    0    0  501  0.00000000000E+00  0.00000000000E+00 -0.12419995075E+04  0.12419995075E+04  0.50400001928E-02 0.  1.
    10030    2    1    2    0    0  0.00000000000E+00  0.00000000000E+00  0.17548392422E+04  0.42388382572E+04  0.38585345670E+04 0.  0.
        1    1    3    3  502    0 -0.15783865390E+04  0.11280525178E+03  0.20898471500E+04  0.26213527427E+04  0.50400001928E-02 0. -1.
       -1    1    3    3    0  502  0.15783865390E+04 -0.11280525178E+03 -0.33500790777E+03  0.16174855145E+04  0.50400001928E-02 0.  1.
</event>
<event>
 5   0  0.3665303E-07  0.3830729E+04  0.7818609E-02  0.8039593E-01
       -2   -1    0    0    0  501  0.00000000000E+00  0.00000000000E+00  0.18018092902E+04  0.18018092902E+04  0.25500000920E-02 0.  1.
        2   -1    0    0  501    0  0.00000000000E+00  0.00000000000E+00 -0.20360761692E+04  0.20360761692E+04  0.25500000920E-02 0. -1.
    10030    2    1    2    0    0  0.00000000000E+00  0.00000000000E+00 -0.23426687892E+03  0.38378854594E+04  0.38307288900E+04 0.  0.
        2    1    3    3  502    0  0.83468262498E+03  0.17238009654E+04 -0.13805556897E+03  0.19202198293E+04  0.25500000920E-02 0. -1.
       -2    1    3    3    0  502 -0.83468262498E+03 -0.17238009654E+04 -0.96211309952E+02  0.19176656301E+04  0.25500000920E-02 0.  1.
</event>
<event>
 5   0  0.1187925E-07  0.3941886E+04  0.7818609E-02  0.8016374E-01
        1   -1    0    0  501    0  0.00000000000E+00  0.00000000000E+00  0.19328476207E+04  0.19328476207E+04  0.50400001928E-02 0. -1.
       -1   -1    0    0    0  501  0.00000000000E+00  0.00000000000E+00 -0.20097888470E+04  0.20097888470E+04  0.50400001928E-02 0.  1.
    10030    2    1    2    0    0  0.00000000000E+00  0.00000000000E+00 -0.76941226312E+02  0.39426364677E+04  0.39418856356E+04 0.  0.
        2    1    3    3  502    0 -0.13096449619E+03  0.75159752226E+03  0.17791716208E+04  0.19358466342E+04  0.25500000920E-02 0. -1.
       -2    1    3    3    0  502  0.13096449619E+03 -0.75159752226E+03 -0.18561128471E+04  0.20067898335E+04  0.25500000920E-02 0.  1.
</event>
<event>
 5   0  0.1187925E-07  0.3902292E+04  0.7818609E-02  0.8024553E-01
       -1   -1    0    0    0  501  0.00000000000E+00  0.00000000000E+00  0.15516996703E+04  0.15516996703E+04  0.50400001928E-02 0. -1.
        1   -1    0    0  501    0  0.00000000000E+00  0.00000000000E+00 -0.24534198482E+04  0.24534198482E+04  0.50400001928E-02 0.  1.
    10030    2    1    2    0    0  0.00000000000E+00  0.00000000000E+00 -0.90172017796E+03  0.40051195185E+04  0.39022920288E+04 0.  0.
        2    1    3    3  502    0  0.32284562697E+03 -0.68498964291E+03 -0.22964457417E+04  0.24180784012E+04  0.25500000920E-02 0.  1.
       -2    1    3    3    0  502 -0.32284562697E+03  0.68498964291E+03  0.13947255638E+04  0.15870411173E+04  0.25500000920E-02 0. -1.
</event>
<event>
 5   0  0.1187925E-07  0.3691267E+04  0.7818609E-02  0.8069900E-01
        1   -1    0    0  501    0  0.00000000000E+00  0.00000000000E+00  0.26020705038E+04  0.26020705038E+04  0.50400001928E-02 0. -1.
       -1   -1    0    0    0  501  0.00000000000E+00  0.00000000000E+00 -0.13090972749E+04  0.13090972749E+04  0.50400001928E-02 0.  1.
    10030    2    1    2    0    0  0.00000000000E+00  0.00000000000E+00  0.12929732289E+04  0.39111677787E+04  0.36912672110E+04 0.  0.
        4    1    3    3  502    0  0.13551448913E+03  0.57212228224E+03 -0.12072135057E+04  0.13427785163E+04  0.12699999809E+01 0.  1.
       -4    1    3    3    0  502 -0.13551448913E+03 -0.57212228224E+03  0.25001867346E+04  0.25683892625E+04  0.12699999809E+01 0. -1.
</event>
<event>
 5   0  0.1187925E-07  0.3940808E+04  0.7818609E-02  0.8016595E-01
       -1   -1    0    0    0  501  0.00000000000E+00  0.00000000000E+00  0.21599426656E+04  0.21599426656E+04  0.50400001928E-02 0. -1.
        1   -1    0    0  501    0  0.00000000000E+00  0.00000000000E+00 -0.17974979788E+04  0.17974979788E+04  0.50400001928E-02 0.  1.
    10030    2    1    2    0    0  0.00000000000E+00  0.00000000000E+00  0.36244468678E+03  0.39574406445E+04  0.39408083312E+04 0.  0.
        4    1    3    3  502    0  0.98294616493E+03  0.35030054082E+03 -0.14972376754E+04  0.18249975073E+04  0.12699999809E+01 0. -1.
       -4    1    3    3    0  502 -0.98294616493E+03 -0.35030054082E+03  0.18596823622E+04  0.21324431372E+04  0.12699999809E+01 0.  1.
</event>
<event>
 5   0  0.1187925E-07  0.3803838E+04  0.7818609E-02  0.8045332E-01
       -1   -1    0    0    0  501  0.00000000000E+00  0.00000000000E+00  0.22975103081E+04  0.22975103082E+04  0.50400001928E-02 0.  1.
        1   -1    0    0  501    0  0.00000000000E+00  0.00000000000E+00 -0.15744415104E+04  0.15744415104E+04  0.50400001928E-02 0. -1.
    10030    2    1    2    0    0  0.00000000000E+00  0.00000000000E+00  0.72306879775E+03  0.38719518186E+04  0.38038378513E+04 0.  0.
        5    1    3    3  502    0 -0.90824121998E+03  0.16485627314E+04  0.83490601377E+02  0.18840525373E+04  0.46999998093E+01 0. -1.
       -5    1    3    3    0  502  0.90824121998E+03 -0.16485627314E+04  0.63957819637E+03  0.19878992812E+04  0.46999998093E+01 0.  1.
</event>
<event>
 5   0  0.1187925E-07  0.3896983E+04  0.7818609E-02  0.8025657E-01
       -1   -1    0    0    0  501  0.00000000000E+00  0.00000000000E+00  0.12592990232E+04  0.12592990232E+04  0.50400001928E-02 0.  1.
        1   -1    0    0  501    0  0.00000000000E+00  0.00000000000E+00 -0.30148666396E+04  0.30148666396E+04  0.50400001928E-02 0. -1.
    10030    2    1    2    0    0  0.00000000000E+00  0.00000000000E+00 -0.17555676165E+04  0.42741656628E+04  0.38969827376E+04 0.  0.
        3    1    3    3  502    0  0.56355777180E+03  0.13638632198E+04  0.51772525217E+03  0.15638924808E+04  0.10100000352E+00 0.  1.
       -3    1    3    3    0  502 -0.56355777180E+03 -0.13638632198E+04 -0.22732928686E+04  0.27102731820E+04  0.10100000352E+00 0. -1.
</event>
<event>
 5   0  0.3832389E-07  0.3834493E+04  0.7818609E-02  0.8038793E-01
       -2   -1    0    0    0  501  0.00000000000E+00  0.00000000000E+00  0.15150215057E+04  0.15150215057E+04  0.25500000920E-02 0.  1.
        2   -1    0    0  501    0  0.00000000000E+00  0.00000000000E+00 -0.24262584788E+04  0.24262584788E+04  0.25500000920E-02 0. -1.
    10030    2    1    2    0    0  0.00000000000E+00  0.00000000000E+00 -0.91123697307E+03  0.39412799846E+04  0.38344928081E+04 0.  0.
        5    1    3    3  502    0  0.52173124476E+03 -0.17033987426E+04 -0.11838993808E+04  0.21390209447E+04  0.46999998093E+01 0. -1.
       -5    1    3    3    0  502 -0.52173124476E+03  0.17033987426E+04  0.27266240768E+03  0.18022590398E+04  0.46999998093E+01 0.  1.
</event>
<event>
 5   0  0.1187925E-07  0.3316740E+04  0.7818609E-02  0.8158649E-01
        1   -1    0    0  501    0  0.00000000000E+00  0.00000000000E+00  0.14967105207E+04  0.14967105207E+04  0.50400001928E-02 0.  1.
       -1   -1    0    0    0  501  0.00000000000E+00  0.00000000000E+00 -0.18374899499E+04  0.18374899499E+04  0.50400001928E-02 0. -1.
    10030    2    1    2    0    0  0.00000000000E+00  0.00000000000E+00 -0.34077942919E+03  0.33342004706E+04  0.33167396882E+04 0.  0.
        5    1    3    3  502    0 -0.16523708226E+03  0.65243854448E+03  0.13532374061E+04  0.15113745118E+04  0.46999998093E+01 0.  1.
       -5    1    3    3    0  502  0.16523708226E+03 -0.65243854448E+03 -0.16940168353E+04  0.18228259588E+04  0.46999998093E+01 0. -1.
</event>
<event>
 5   0  0.3610483E-07  0.3911104E+04  0.7818609E-02  0.8022724E-01
       -2   -1    0    0    0  501  0.00000000000E+00  0.00000000000E+00  0.17407574711E+04  0.17407574711E+04  0.25500000920E-02 0.  1.
        2   -1    0    0  501    0  0.00000000000E+00  0.00000000000E+00 -0.21968502872E+04  0.21968502873E+04  0.25500000920E-02 0. -1.
    10030    2    1    2    0    0  0.00000000000E+00  0.00000000000E+00 -0.45609281615E+03  0.39376077584E+04  0.39111039620E+04 0.  0.
        4    1    3    3  502    0 -0.12815712153E+03 -0.10276776357E+04  0.14420002787E+04  0.17753624947E+04  0.12699999809E+01 0.  1.
       -4    1    3    3    0  502  0.12815712153E+03  0.10276776357E+04 -0.18980930949E+04  0.21622452637E+04  0.12699999809E+01 0. -1.
</event>
<event>
 5   0  0.1187925E-07  0.3943911E+04  0.7818609E-02  0.8015958E-01
       -1   -1    0    0    0  501  0.00000000000E+00  0.00000000000E+00  0.28567590116E+04  0.28567590116E+04  0.50400001928E-02 0. -1.
        1   -1    0    0  501    0  0.00000000000E+00  0.00000000000E+00 -0.13611960008E+04  0.13611960008E+04  0.50400001928E-02 0.  1.
    10030    2    1    2    0    0  0.00000000000E+00  0.00000000000E+00  0.14955630108E+04  0.42179550124E+04  0.39439112271E+04 0.  0.
        3    1    3    3  502    0  0.73204645440E+03 -0.74768212077E+03 -0.10397915184E+04  0.14751565941E+04  0.10100000352E+00 0.  1.
       -3    1    3    3    0  502 -0.73204645440E+03  0.74768212077E+03  0.25353545291E+04  0.27427984184E+04  0.10100000352E+00 0. -1.
</event>
<event>
 5   0  0.1187925E-07  0.3363305E+04  0.7818609E-02  0.8146972E-01
       -1   -1    0    0    0  501  0.00000000000E+00  0.00000000000E+00  0.12476758555E+04  0.12476758555E+04  0.50400001928E-02 0. -1.
        1   -1    0    0  501    0  0.00000000000E+00  0.00000000000E+00 -0.22665787200E+04  0.22665787200E+04  0.50400001928E-02 0.  1.
    10030    2    1    2    0    0  0.00000000000E+00  0.00000000000E+00 -0.10189028645E+04  0.35142545756E+04  0.33633052455E+04 0.  0.
        4    1    3    3  502    0  0.14579691073E+03 -0.39451580079E+03 -0.22107332487E+04  0.22503872036E+04  0.12699999809E+01 0.  1.
       -4    1    3    3    0  502 -0.14579691073E+03  0.39451580079E+03  0.11918303842E+04  0.12638673719E+04  0.12699999809E+01 0. -1.
</event>
<event>
 5   0  0.3680814E-07  0.3820545E+04  0.7818609E-02  0.8041760E-01
       -2   -1    0    0    0  501  0.00000000000E+00  0.00000000000E+00  0.15583445640E+04  0.15583445640E+04  0.25500000920E-02 0. -1.
        2   -1    0    0  501    0  0.00000000000E+00  0.00000000000E+00 -0.23416776950E+04  0.23416776950E+04  0.25500000920E-02 0.  1.
    10030    2    1    2    0    0  0.00000000000E+00  0.00000000000E+00 -0.78333313099E+03  0.39000222590E+04  0.38205448338E+04 0.  0.
        1    1    3    3  502    0  0.67665900566E+03  0.67307571146E+03 -0.20808535616E+04  0.22892902543E+04  0.50400001928E-02 0.  1.
       -1    1    3    3    0  502 -0.67665900566E+03 -0.67307571146E+03  0.12975204306E+04  0.16107320048E+04  0.50400001928E-02 0. -1.
</event>
<event>
 5   0  0.3810833E-07  0.3856416E+04  0.7818609E-02  0.8034155E-01
        2   -1    0    0  501    0  0.00000000000E+00  0.00000000000E+00  0.22378971092E+04  0.22378971092E+04  0.25500000920E-02 0.  1.
       -2   -1    0    0    0  501  0.00000000000E+00  0.00000000000E+00 -0.16613746599E+04  0.16613746599E+04  0.25500000920E-02 0. -1.
    10030    2    1    2    0    0  0.00000000000E+00  0.00000000000E+00  0.57652244932E+03  0.38992717691E+04  0.38564157186E+04 0.  0.
        3    1    3    3  502    0  0.13562837237E+03  0.51298852171E+03 -0.15861014096E+04  0.16725041018E+04  0.10100000352E+00 0. -1.
       -3    1    3    3    0  502 -0.13562837237E+03 -0.51298852171E+03  0.21626238589E+04  0.22267676673E+04  0.10100000352E+00 0.  1.
</event>
<event>
 5   0  0.3680814E-07  0.3925698E+04  0.7818609E-02  0.8019706E-01
        2   -1    0    0  501    0  0.00000000000E+00  0.00000000000E+00  0.19224820744E+04  0.19224820744E+04  0.25500000920E-02 0.  1.
       -2   -1    0    0    0  501  0.00000000000E+00  0.00000000000E+00 -0.20040639404E+04  0.20040639404E+04  0.25500000920E-02 0. -1.
    10030    2    1    2    0    0  0.00000000000E+00  0.00000000000E+00 -0.81581866049E+02  0.39265460148E+04  0.39256984099E+04 0.  0.
        1    1    3    3  502    0 -0.82338275844E+03  0.16333529732E+03  0.17338918565E+04  0.19264004143E+04  0.50400001928E-02 0.  1.
       -1    1    3    3    0  502  0.82338275844E+03 -0.16333529732E+03 -0.18154737225E+04  0.20001456005E+04  0.50400001928E-02 0. -1.
</event>
<event>
 5   0  0.3810833E-07  0.3873833E+04  0.7818609E-02  0.8030493E-01
        2   -1    0    0  501    0  0.00000000000E+00  0.00000000000E+00  0.15863072943E+04  0.15863072943E+04  0.25500000920E-02 0.  1.
       -2   -1    0    0    0  501  0.00000000000E+00  0.00000000000E+00 -0.23650186837E+04  0.23650186837E+04  0.25500000920E-02 0. -1.
    10030    2    1    2    0    0  0.00000000000E+00  0.00000000000E+00 -0.77871138934E+03  0.39513259780E+04  0.38738334446E+04 0.  0.
        3    1    3    3  502    0 -0.77452580562E+03 -0.96925810277E+03  0.11277764952E+04  0.16766726951E+04  0.10100000352E+00 0.  1.
       -3    1    3    3    0  502  0.77452580562E+03  0.96925810277E+03 -0.19064878845E+04  0.22746532829E+04  0.10100000352E+00 0. -1.
</event>
<event>
 5   0  0.3665303E-07  0.4003702E+04  0.7818609E-02  0.8003800E-01
        2   -1    0    0  501    0  0.00000000000E+00  0.00000000000E+00  0.20004057302E+04  0.20004057302E+04  0.25500000920E-02 0.  1.
       -2   -1    0    0    0  501  0.00000000000E+00  0.00000000000E+00 -0.20032976505E+04  0.20032976505E+04  0.25500000920E-02 0. -1.
    10030    2    1    2    0    0  0.00000000000E+00  0.00000000000E+00 -0.28919203055E+01  0.40037033807E+04  0.40037023363E+04 0.  0.
        2    1    3    3  502    0  0.83867799245E+02 -0.12350776337E+04  0.15717542247E+04  0.20007153500E+04  0.25500000920E-02 0.  1.
       -2    1    3    3    0  502 -0.83867799245E+02  0.12350776337E+04 -0.15746461450E+04  0.20029880307E+04  0.25500000920E-02 0. -1.
</event>
<event>
 5   0  0.3680814E-07  0.3940788E+04  0.7818609E-02  0.8016599E-01
        2   -1    0    0  501    0  0.00000000000E+00  0.00000000000E+00  0.17116209942E+04  0.17116209942E+04  0.25500000920E-02 0.  1.
       -2   -1    0    0    0  501  0.00000000000E+00  0.00000000000E+00 -0.22682894653E+04  0.22682894653E+04  0.25500000920E-02 0. -1.
    10030    2    1    2    0    0  0.00000000000E+00  0.00000000000E+00 -0.55666847111E+03  0.39799104595E+04  0.39407876724E+04 0.  0.
        1    1    3    3  502    0  0.65751367018E+03  0.13895927192E+04  0.96644399206E+03  0.18158486010E+04  0.50400001928E-02 0.  1.
       -1    1    3    3    0  502 -0.65751367018E+03 -0.13895927192E+04 -0.15231124632E+04  0.21640618585E+04  0.50400001928E-02 0. -1.
</event>
<event>
 5   0  0.1187925E-07  0.4036883E+04  0.7818609E-02  0.7997147E-01
        1   -1    0    0  501    0  0.00000000000E+00  0.00000000000E+00  0.23494063309E+04  0.23494063309E+04  0.50400001928E-02 0.  1.
       -1   -1    0    0    0  501  0.00000000000E+00  0.00000000000E+00 -0.17341002145E+04  0.17341002145E+04  0.50400001928E-02 0. -1.
    10030    2    1    2    0    0  0.00000000000E+00  0.00000000000E+00  0.61530611644E+03  0.40835065454E+04  0.40368829670E+04 0.  0.
        5    1    3    3  502    0  0.32668475937E+03  0.16411215055E+04 -0.83413540770E+03  0.18697076499E+04  0.46999998093E+01 0. -1.
       -5    1    3    3    0  502 -0.32668475937E+03 -0.16411215055E+04  0.14494415241E+04  0.22137988955E+04  0.46999998093E+01 0.  1.
</event>
<event>
 5   0  0.1187925E-07  0.3828179E+04  0.7818609E-02  0.8040135E-01
        1   -1    0    0  501    0  0.00000000000E+00  0.00000000000E+00  0.28456138671E+04  0.28456138671E+04  0.50400001928E-02 0. -1.
       -1   -1    0    0    0  501  0.00000000000E+00  0.00000000000E+00 -0.12875037440E+04  0.12875037440E+04  0.50400001928E-02 0.  1.
    10030    2    1    2    0    0  0.00000000000E+00  0.00000000000E+00  0.15581101231E+04  0.41331176111E+04  0.38281789445E+04 0.  0.
        5    1    3    3  502    0  0.72007778422E+03  0.10982377888E+04  0.22824849887E+04  0.26333245280E+04  0.46999998093E+01 0. -1.
       -5    1    3    3    0  502 -0.72007778422E+03 -0.10982377888E+04 -0.72437486559E+03  0.14997930831E+04  0.46999998093E+01 0.  1.
</event>
<event>
 5   0  0.3665303E-07  0.3917793E+04  0.7818609E-02  0.8021339E-01
        2   -1    0    0  501    0  0.00000000000E+00  0.00000000000E+00  0.20397911102E+04  0.20397911102E+04  0.25500000920E-02 0.  1.
       -2   -1    0    0    0  501  0.00000000000E+00  0.00000000000E+00 -0.18812102588E+04  0.18812102588E+04  0.25500000920E-02 0. -1.
    10030    2    1    2    0    0  0.00000000000E+00  0.00000000000E+00  0.15858085141E+03  0.39210013691E+04  0.39177932373E+04 0.  0.
        2    1    3    3  502    0 -0.62681159509E+03 -0.18198137855E+04 -0.28523436605E+03  0.19457578558E+04  0.25500000920E-02 0.  1.
       -2    1    3    3    0  502  0.62681159509E+03  0.18198137855E+04  0.44381521745E+03  0.19752435133E+04  0.25500000920E-02 0. -1.
</event>
<event>
 5   0  0.1187925E-07  0.3829099E+04  0.7818609E-02  0.8039939E-01
       -1   -1    0    0    0  501  0.00000000000E+00  0.00000000000E+00  0.22978003667E+04  0.22978003667E+04  0.50400001928E-02 0.  1.
        1   -1    0    0  501    0  0.00000000000E+00  0.00000000000E+00 -0.15952211032E+04  0.15952211032E+04  0.50400001928E-02 0. -1.
    10030    2    1    2    0    0  0.00000000000E+00  0.00000000000E+00  0.70257926351E+03  0.38930214699E+04  0.38290989206E+04 0.  0.
        3    1    3    3  502    0 -0.42288095629E+03  0.14391120762E+04  0.15609536070E+04  0.21648205572E+04  0.10100000352E+00 0.  1.
       -3    1    3    3    0  502  0.42288095629E+03 -0.14391120762E+04 -0.85837434351E+03  0.17282009128E+04  0.10100000352E+00 0. -1.
</event>
<event>
 5   0  0.1187925E-07  0.3907371E+04  0.7818609E-02  0.8023498E-01
        1   -1    0    0  501    0  0.00000000000E+00  0.00000000000E+00  0.22505074880E+04  0.22505074880E+04  0.50400001928E-02 0.  1.
       -1   -1    0    0    0  501  0.00000000000E+00  0.00000000000E+00 -0.16960118585E+04  0.16960118585E+04  0.50400001928E-02 0. -1.
    10030    2    1    2    0    0  0.00000000000E+00  0.00000000000E+00  0.55449562953E+03  0.39465193465E+04  0.39073711813E+04 0.  0.
        5    1    3    3  502    0  0.56220857004E+03 -0.30758190394E+03  0.21413227921E+04  0.22351667709E+04  0.46999998093E+01 0.  1.
       -5    1    3    3    0  502 -0.56220857004E+03  0.30758190394E+03 -0.15868271626E+04  0.17113525755E+04  0.46999998093E+01 0. -1.
</event>
<event>
 5   0  0.3832389E-07  0.3997158E+04  0.7818609E-02  0.8005120E-01
        2   -1    0    0  501    0  0.00000000000E+00  0.00000000000E+00  0.25104336368E+04  0.25104336368E+04  0.25500000920E-02 0. -1.
       -2   -1    0    0    0  501  0.00000000000E+00  0.00000000000E+00 -0.15910866115E+04  0.15910866115E+04  0.25500000920E-02 0.  1.
    10030    2    1    2    0    0  0.00000000000E+00  0.00000000000E+00  0.91934702532E+03  0.41015202484E+04  0.39971576645E+04 0.  0.
        5    1    3    3  502    0  0.16578339201E+04 -0.11145058951E+04  0.39676572198E+03  0.20366594769E+04  0.46999998093E+01 0.  1.
       -5    1    3    3    0  502 -0.16578339201E+04  0.11145058951E+04  0.52258130334E+03  0.20648607714E+04  0.46999998093E+01 0. -1.
</event>
<event>
 5   0  0.3810833E-07  0.3925526E+04  0.7818609E-02  0.8019741E-01
        2   -1    0    0  501    0  0.00000000000E+00  0.00000000000E+00  0.22075604519E+04  0.22075604519E+04  0.25500000920E-02 0. -1.
       -2   -1    0    0    0  501  0.00000000000E+00  0.00000000000E+00 -0.17451116389E+04  0.17451116389E+04  0.25500000920E-02 0.  1.
    10030    2    1    2    0    0  0.00000000000E+00  0.00000000000E+00  0.46244881305E+03  0.39526720908E+04  0.39255264300E+04 0.  0.
        3    1    3    3  502    0  0.88586316095E+03 -0.12375559353E+04 -0.10167579613E+04  0.18303264722E+04  0.10100000352E+00 0.  1.
       -3    1    3    3    0  502 -0.88586316095E+03  0.12375559353E+04  0.14792067744E+04  0.21223456185E+04  0.10100000352E+00 0. -1.
</event>
<event>
 5   0  0.1187925E-07  0.3924481E+04  0.7818609E-02  0.8019957E-01
        3   -1    0    0  501    0  0.00000000000E+00  0.00000000000E+00  0.31485577274E+04  0.31485577291E+04  0.10100000352E+00 0.  1.
       -3   -1    0    0    0  501  0.00000000000E+00  0.00000000000E+00 -0.12229049642E+04  0.12229049683E+04  0.10100000352E+00 0. -1.
    10030    2    1    2    0    0  0.00000000000E+00  0.00000000000E+00  0.19256527633E+04  0.43714626974E+04  0.39244805452E+04 0.  0.
        4    1    3    3  502    0 -0.15770634177E+04  0.10488035735E+04  0.39129106898E+03  0.19339669782E+04  0.12699999809E+01 0. -1.
       -4    1    3    3    0  502  0.15770634177E+04 -0.10488035735E+04  0.15343616943E+04  0.24374957192E+04  0.12699999809E+01 0.  1.
</event>
<event>
 5   0  0.3665303E-07  0.3869266E+04  0.7818609E-02  0.8031452E-01
        2   -1    0    0  501    0  0.00000000000E+00  0.00000000000E+00  0.17378250071E+04  0.17378250071E+04  0.25500000920E-02 0.  1.
       -2   -1    0    0    0  501  0.00000000000E+00  0.00000000000E+00 -0.21537293948E+04  0.21537293948E+04  0.25500000920E-02 0. -1.
    10030    2    1    2    0    0  0.00000000000E+00  0.00000000000E+00 -0.41590438771E+03  0.38915544019E+04  0.38692659774E+04 0.  0.
        2    1    3    3  502    0 -0.12609772076E+04  0.12942333990E+04 -0.90309284088E+03  0.20200693771E+04  0.25500000920E-02 0. -1.
       -2    1    3    3    0  502  0.12609772076E+04 -0.12942333990E+04  0.48718845317E+03  0.18714850248E+04  0.25500000920E-02 0.  1.
</event>
<event>
 5   0  0.1187925E-07  0.4016661E+04  0.7818609E-02  0.8001194E-01
        1   -1    0    0  501    0  0.00000000000E+00  0.00000000000E+00  0.22259424554E+04  0.22259424554E+04  0.50400001928E-02 0. -1.
       -1   -1    0    0    0  501  0.00000000000E+00  0.00000000000E+00 -0.18119930357E+04  0.18119930357E+04  0.50400001928E-02 0.  1.
    10030    2    1    2    0    0  0.00000000000E+00  0.00000000000E+00  0.41394941966E+03  0.40379354911E+04  0.40166614132E+04 0.  0.
        1    1    3    3  502    0  0.86640002592E+03  0.73288237105E+03  0.18727441614E+04  0.21897342918E+04  0.50400001928E-02 0. -1.
       -1    1    3    3    0  502 -0.86640002592E+03 -0.73288237105E+03 -0.14587947417E+04  0.18482011993E+04  0.50400001928E-02 0.  1.
</event>
<event>
 5   0  0.3680814E-07  0.3583688E+04  0.7818609E-02  0.8094238E-01
        2   -1    0    0  501    0  0.00000000000E+00  0.00000000000E+00  0.24857067074E+04  0.24857067074E+04  0.25500000920E-02 0.  1.
       -2   -1    0    0    0  501  0.00000000000E+00  0.00000000000E+00 -0.12916667638E+04  0.12916667638E+04  0.25500000920E-02 0. -1.
    10030    2    1    2    0    0  0.00000000000E+00  0.00000000000E+00  0.11940399436E+04  0.37773734711E+04  0.35836878984E+04 0.  0.
        1    1    3    3  502    0 -0.93378193024E+03  0.84898089162E+03  0.19377684897E+04  0.23125016686E+04  0.50400001928E-02 0.  1.
       -1    1    3    3    0  502  0.93378193024E+03 -0.84898089162E+03 -0.74372854607E+03  0.14648718025E+04  0.50400001928E-02 0. -1.
</event>
<event>
 5   0  0.1187925E-07  0.3942365E+04  0.7818609E-02  0.8016275E-01
        1   -1    0    0  501    0  0.00000000000E+00  0.00000000000E+00  0.19215259444E+04  0.19215259444E+04  0.50400001928E-02 0. -1.
       -1   -1    0    0    0  501  0.00000000000E+00  0.00000000000E+00 -0.20221220960E+04  0.20221220960E+04  0.50400001928E-02 0.  1.
    10030    2    1    2    0    0  0.00000000000E+00  0.00000000000E+00 -0.10059615159E+03  0.39436480403E+04  0.39423648081E+04 0.  0.
        2    1    3    3  502    0  0.20433103017E+03 -0.12662321516E+04  0.14470074408E+04  0.19336301522E+04  0.25500000920E-02 0. -1.
       -2    1    3    3    0  502 -0.20433103017E+03  0.12662321516E+04 -0.15476035924E+04  0.20100178882E+04  0.25500000920E-02 0.  1.
</event>
<event>
 5   0  0.1187925E-07  0.3468310E+04  0.7818609E-02  0.8121341E-01
        1   -1    0    0  501    0  0.00000000000E+00  0.00000000000E+00  0.24296422506E+04  0.24296422506E+04  0.50400001928E-02 0.  1.
       -1   -1    0    0    0  501  0.00000000000E+00  0.00000000000E+00 -0.12377514507E+04  0.12377514508E+04  0.50400001928E-02 0. -1.
    10030    2    1    2    0    0  0.00000000000E+00  0.00000000000E+00  0.11918907998E+04  0.36673937013E+04  0.34683098019E+04 0.  0.
        3    1    3    3  502    0 -0.55689353337E+03  0.15542016361E+04  0.34805102480E+02  0.16513281135E+04  0.10100000352E+00 0. -1.
       -3    1    3    3    0  502  0.55689353337E+03 -0.15542016361E+04  0.11570856974E+04  0.20160655878E+04  0.10100000352E+00 0.  1.
</event>
<event>
 5   0  0.1187925E-07  0.3905904E+04  0.7818609E-02  0.8023802E-01
       -1   -1    0    0    0  501  0.00000000000E+00  0.00000000000E+00  0.16394614674E+04  0.16394614674E+04  0.50400001928E-02 0.  1.
        1   -1    0    0  501    0  0.00000000000E+00  0.00000000000E+00 -0.23263862991E+04  0.23263862991E+04  0.50400001928E-02 0. -1.
    10030    2    1    2    0    0  0.00000000000E+00  0.00000000000E+00 -0.68692483169E+03  0.39658477664E+04  0.39059035808E+04 0.  0.
        5    1    3    3  502    0 -0.31634978923E+03 -0.84188996475E+03 -0.21036018419E+04  0.22877977841E+04  0.46999998093E+01 0. -1.
       -5    1    3    3    0  502  0.31634978923E+03  0.84188996475E+03  0.14166770102E+04  0.16780499823E+04  0.46999998093E+01 0.  1.
</event>
<event>
 5   0  0.1187925E-07  0.3907950E+04  0.7818609E-02  0.8023378E-01
       -1   -1    0    0    0  501  0.00000000000E+00  0.00000000000E+00  0.16596731969E+04  0.16596731969E+04  0.50400001928E-02 0.  1.
        1   -1    0    0  501    0  0.00000000000E+00  0.00000000000E+00 -0.23004642831E+04  0.23004642831E+04  0.50400001928E-02 0. -1.
    10030    2    1    2    0    0  0.00000000000E+00  0.00000000000E+00 -0.64079108614E+03  0.39601374800E+04  0.39079503124E+04 0.  0.
        2    1    3    3  502    0 -0.93870168801E+03 -0.15055313508E+04 -0.11500060893E+04  0.21143082824E+04  0.25500000920E-02 0. -1.
       -2    1    3    3    0  502  0.93870168801E+03  0.15055313508E+04  0.50921500318E+03  0.18458291976E+04  0.25500000920E-02 0.  1.
</event>
<event>
 5   0  0.3610483E-07  0.3917919E+04  0.7818609E-02  0.8021313E-01
       -2   -1    0    0    0  501  0.00000000000E+00  0.00000000000E+00  0.16629892464E+04  0.16629892464E+04  0.25500000920E-02 0.  1.
        2   -1    0    0  501    0  0.00000000000E+00  0.00000000000E+00 -0.23076054262E+04  0.23076054262E+04  0.25500000920E-02 0. -1.
    10030    2    1    2    0    0  0.00000000000E+00  0.00000000000E+00 -0.64461617986E+03  0.39705946726E+04  0.39179193502E+04 0.  0.
        4    1    3    3  502    0 -0.14922436277E+04  0.12236986089E+04 -0.66342230022E+03  0.20406763808E+04  0.12699999809E+01 0. -1.
       -4    1    3    3    0  502  0.14922436277E+04 -0.12236986089E+04  0.18806120364E+02  0.19299182918E+04  0.12699999809E+01 0.  1.
</event>
<event>
 5   0  0.1187925E-07  0.3926184E+04  0.7818609E-02  0.8019605E-01
        1   -1    0    0  501    0  0.00000000000E+00  0.00000000000E+00  0.21302409511E+04  0.21302409511E+04  0.50400001928E-02 0. -1.
       -1   -1    0    0    0  501  0.00000000000E+00  0.00000000000E+00 -0.18090581532E+04  0.18090581532E+04  0.50400001928E-02 0.  1.
    10030    2    1    2    0    0  0.00000000000E+00  0.00000000000E+00  0.32118279782E+03  0.39392991043E+04  0.39261837761E+04 0.  0.
        4    1    3    3  502    0 -0.83126457984E+03  0.11157418466E+04 -0.12288984108E+04  0.18563603063E+04  0.12699999809E+01 0.  1.
       -4    1    3    3    0  502  0.83126457984E+03 -0.11157418466E+04  0.15500812087E+04  0.20829387980E+04  0.12699999809E+01 0. -1.
</event>
<event>
 5   0  0.1187925E-07  0.3625011E+04  0.7818609E-02  0.8084786E-01
        1   -1    0    0  501    0  0.00000000000E+00  0.00000000000E+00  0.26306624858E+04  0.26306624858E+04  0.50400001928E-02 0.  1.
       -1   -1    0    0    0  501  0.00000000000E+00  0.00000000000E+00 -0.12488021434E+04  0.12488021435E+04  0.50400001928E-02 0. -1.
    10030    2    1    2    0    0  0.00000000000E+00  0.00000000000E+00  0.13818603424E+04  0.38794646293E+04  0.36250114212E+04 0.  0.
        5    1    3    3  502    0  0.51103410522E+03 -0.12335514668E+04 -0.62081038641E+03  0.14724920046E+04  0.46999998093E+01 0. -1.
       -5    1    3    3    0  502 -0.51103410522E+03  0.12335514668E+04  0.20026707288E+04  0.24069726246E+04  0.46999998093E+01 0.  1.
</event>
<event>
 5   0  0.1187925E-07  0.3894156E+04  0.7818609E-02  0.8026246E-01
       -4   -1    0    0    0  501  0.00000000000E+00  0.00000000000E+00  0.18155269731E+04  0.18155274173E+04  0.12699999809E+01 0.  1.
        4   -1    0    0  501    0  0.00000000000E+00  0.00000000000E+00 -0.20881604158E+04  0.20881608020E+04  0.12699999809E+01 0. -1.
    10030    2    1    2    0    0  0.00000000000E+00  0.00000000000E+00 -0.27263344267E+03  0.39036882193E+04  0.38941562269E+04 0.  0.
        2    1    3    3  502    0 -0.51375416496E+03  0.18775494574E+04 -0.18089886686E+03  0.19549577251E+04  0.25500000920E-02 0. -1.
       -2    1    3    3    0  502  0.51375416496E+03 -0.18775494574E+04 -0.91734575811E+02  0.19487304943E+04  0.25500000920E-02 0.  1.
</event>
<event>
 5   0  0.3680814E-07  0.3873119E+04  0.7818609E-02  0.8030643E-01
       -2   -1    0    0    0  501  0.00000000000E+00  0.00000000000E+00  0.23331778100E+04  0.23331778100E+04  0.25500000920E-02 0. -1.
        2   -1    0    0  501    0  0.00000000000E+00  0.00000000000E+00 -0.16073623750E+04  0.16073623750E+04  0.25500000920E-02 0.  1.
    10030    2    1    2    0    0  0.00000000000E+00  0.00000000000E+00  0.72581543501E+03  0.39405401849E+04  0.38731187567E+04 0.  0.
        1    1    3    3  502    0  0.37147593742E+03 -0.16328047308E+04  0.13525772960E+04  0.21525591752E+04  0.50400001928E-02 0. -1.
       -1    1    3    3    0  502 -0.37147593742E+03  0.16328047308E+04 -0.62676186102E+03  0.17879810098E+04  0.50400001928E-02 0.  1.
</event>
<event>
 5   0  0.3810833E-07  0.3836675E+04  0.7818609E-02  0.8038330E-01
       -2   -1    0    0    0  501  0.00000000000E+00  0.00000000000E+00  0.16170223586E+04  0.16170223586E+04  0.25500000920E-02 0.  1.
        2   -1    0    0  501    0  0.00000000000E+00  0.00000000000E+00 -0.22757992628E+04  0.22757992628E+04  0.25500000920E-02 0. -1.
    10030    2    1    2    0    0  0.00000000000E+00  0.00000000000E+00 -0.65877690417E+03  0.38928216214E+04  0.38366747538E+04 0.  0.
        3    1    3    3  502    0  0.18309408236E+04 -0.17740120359E+03  0.22282132991E+03  0.18529611010E+04  0.10100000352E+00 0. -1.
       -3    1    3    3    0  502 -0.18309408236E+04  0.17740120359E+03 -0.88159823408E+03  0.20398605205E+04  0.10100000352E+00 0.  1.
</event>
<event>
 5   0  0.3810833E-07  0.3914605E+04  0.7818609E-02  0.8021999E-01
        2   -1    0    0  501    0  0.00000000000E+00  0.00000000000E+00  0.20429317056E+04  0.20429317056E+04  0.25500000920E-02 0. -1.
       -2   -1    0    0    0  501  0.00000000000E+00  0.00000000000E+00 -0.18752621464E+04  0.18752621464E+04  0.25500000920E-02 0.  1.
    10030    2    1    2    0    0  0.00000000000E+00  0.00000000000E+00  0.16766955919E+03  0.39181938519E+04  0.39146047029E+04 0.  0.
        3    1    3    3  502    0 -0.13329569907E+04 -0.13817848462E+04 -0.29720939835E+03  0.19427910688E+04  0.10100000352E+00 0.  1.
       -3    1    3    3    0  502  0.13329569907E+04  0.13817848462E+04  0.46487895754E+03  0.19754027831E+04  0.10100000352E+00 0. -1.
</event>
<event>
 5   0  0.1187925E-07  0.3901018E+04  0.7818609E-02  0.8024818E-01
        1   -1    0    0  501    0  0.00000000000E+00  0.00000000000E+00  0.27459285908E+04  0.27459285908E+04  0.50400001928E-02 0. -1.
       -1   -1    0    0    0  501  0.00000000000E+00  0.00000000000E+00 -0.13855004966E+04  0.13855004966E+04  0.50400001928E-02 0.  1.
    10030    2    1    2    0    0  0.00000000000E+00  0.00000000000E+00  0.13604280942E+04  0.41314290873E+04  0.39010180343E+04 0.  0.
        4    1    3    3  502    0 -0.11237924914E+04  0.19319054329E+03 -0.99573700418E+03  0.15138447556E+04  0.12699999809E+01 0.  1.
       -4    1    3    3    0  502  0.11237924914E+04 -0.19319054329E+03  0.23561650984E+04  0.26175843317E+04  0.12699999809E+01 0. -1.
</event>
<event>
 5   0  0.3680814E-07  0.3898893E+04  0.7818609E-02  0.8025259E-01
        2   -1    0    0  501    0  0.00000000000E+00  0.00000000000E+00  0.25204680634E+04  0.25204680634E+04  0.25500000920E-02 0. -1.
       -2   -1    0    0    0  501  0.00000000000E+00  0.00000000000E+00 -0.15077919612E+04  0.15077919612E+04  0.25500000920E-02 0.  1.
    10030    2    1    2    0    0  0.00000000000E+00  0.00000000000E+00  0.10126761022E+04  0.40282600246E+04  0.38988929118E+04 0.  0.
        1    1    3    3  502    0  0.14562270030E+04  0.68547459730E+03  0.16427750380E+04  0.22998222395E+04  0.50400001928E-02 0. -1.
       -1    1    3    3    0  502 -0.14562270030E+04 -0.68547459730E+03 -0.63009893581E+03  0.17284377851E+04  0.50400001928E-02 0.  1.
</event>
<event>
 5   0  0.1187925E-07  0.3938335E+04  0.7818609E-02  0.8017103E-01
        1   -1    0    0  501    0  0.00000000000E+00  0.00000000000E+00  0.15663794928E+04  0.15663794929E+04  0.50400001928E-02 0. -1.
       -1   -1    0    0    0  501  0.00000000000E+00  0.00000000000E+00 -0.24755310279E+04  0.24755310279E+04  0.50400001928E-02 0.  1.
    10030    2    1    2    0    0  0.00000000000E+00  0.00000000000E+00 -0.90915153508E+03  0.40419105208E+04  0.39383351996E+04 0.  0.
        2    1    3    3  502    0  0.24258461462E+03  0.98697882632E+03 -0.21855403158E+04  0.24103030869E+04  0.25500000920E-02 0.  1.
       -2    1    3    3    0  502 -0.24258461462E+03 -0.98697882632E+03  0.12763887807E+04  0.16316074339E+04  0.25500000920E-02 0. -1.
</event>
<event>
 5   0  0.1187925E-07  0.3862880E+04  0.7818609E-02  0.8032794E-01
        1   -1    0    0  501    0  0.00000000000E+00  0.00000000000E+00  0.18913555403E+04  0.18913555403E+04  0.50400001928E-02 0. -1.
       -1   -1    0    0    0  501  0.00000000000E+00  0.00000000000E+00 -0.19723735705E+04  0.19723735705E+04  0.50400001928E-02 0.  1.
    10030    2    1    2    0    0  0.00000000000E+00  0.00000000000E+00 -0.81018030157E+02  0.38637291108E+04  0.38628795891E+04 0.  0.
        3    1    3    3  502    0 -0.11804767605E+04 -0.81564583789E+03 -0.13337187794E+04  0.19589817017E+04  0.10100000352E+00 0.  1.
       -3    1    3    3    0  502  0.11804767605E+04  0.81564583789E+03  0.12527007492E+04  0.19047474091E+04  0.10100000352E+00 0. -1.
</event>
<event>
 5   0  0.1187925E-07  0.3922268E+04  0.7818609E-02  0.8020414E-01
        1   -1    0    0  501    0  0.00000000000E+00  0.00000000000E+00  0.22372561818E+04  0.22372561818E+04  0.50400001928E-02 0.  1.
       -1   -1    0    0    0  501  0.00000000000E+00  0.00000000000E+00 -0.17190909498E+04  0.17190909498E+04  0.50400001928E-02 0. -1.
    10030    2    1    2    0    0  0.00000000000E+00  0.00000000000E+00  0.51816523204E+03  0.39563471316E+04  0.39222681471E+04 0.  0.
        5    1    3    3  502    0  0.63219242503E+03 -0.36115141987E+03  0.20958730095E+04  0.22187391402E+04  0.46999998093E+01 0.  1.
       -5    1    3    3    0  502 -0.63219242503E+03  0.36115141987E+03 -0.15777077775E+04  0.17376079913E+04  0.46999998093E+01 0. -1.
</event>
<event>
 5   0  0.3665303E-07  0.3169163E+04  0.7818609E-02  0.8197009E-01
       -2   -1    0    0    0  501  0.00000000000E+00  0.00000000000E+00  0.12926513096E+04  0.12926513096E+04  0.25500000920E-02 0. -1.
        2   -1    0    0  501    0  0.00000000000E+00  0.00000000000E+00 -0.19424410831E+04  0.19424410831E+04  0.25500000920E-02 0.  1.
    10030    2    1    2    0    0  0.00000000000E+00  0.00000000000E+00 -0.64978977346E+03  0.32350923927E+04  0.31691633028E+04 0.  0.
        2    1    3    3  502    0  0.38118107082E+03  0.14874182790E+04  0.74638276318E+02  0.15372973095E+04  0.25500000920E-02 0. -1.
       -2    1    3    3    0  502 -0.38118107082E+03 -0.14874182790E+04 -0.72442804978E+03  0.16977950833E+04  0.25500000920E-02 0.  1.
</event>
<event>
 5   0  0.3610483E-07  0.3915592E+04  0.7818609E-02  0.8021794E-01
        2   -1    0    0  501    0  0.00000000000E+00  0.00000000000E+00  0.21890495230E+04  0.21890495230E+04  0.25500000920E-02 0.  1.
       -2   -1    0    0    0  501  0.00000000000E+00  0.00000000000E+00 -0.17509725132E+04  0.17509725132E+04  0.25500000920E-02 0. -1.
    10030    2    1    2    0    0  0.00000000000E+00  0.00000000000E+00  0.43807700975E+03  0.39400220362E+04  0.39155921875E+04 0.  0.
        4    1    3    3  502    0  0.88820975967E+03 -0.88195327036E+03  0.17338230631E+04  0.21384345151E+04  0.12699999809E+01 0.  1.
       -4    1    3    3    0  502 -0.88820975967E+03  0.88195327036E+03 -0.12957460534E+04  0.18015875211E+04  0.12699999809E+01 0. -1.
</event>
<event>
 5   0  0.3810833E-07  0.3800618E+04  0.7818609E-02  0.8046022E-01
       -2   -1    0    0    0  501  0.00000000000E+00  0.00000000000E+00  0.23208467219E+04  0.23208467219E+04  0.25500000920E-02 0. -1.
        2   -1    0    0  501    0  0.00000000000E+00  0.00000000000E+00 -0.15559726917E+04  0.15559726917E+04  0.25500000920E-02 0.  1.
    10030    2    1    2    0    0  0.00000000000E+00  0.00000000000E+00  0.76487403012E+03  0.38768194136E+04  0.38006179081E+04 0.  0.
        3    1    3    3  502    0 -0.11842013550E+04 -0.14743971246E+04  0.57325553146E+03  0.19760570956E+04  0.10100000352E+00 0.  1.
       -3    1    3    3    0  502  0.11842013550E+04  0.14743971246E+04  0.19161849866E+03  0.19007623180E+04  0.10100000352E+00 0. -1.
</event>
<event>
 5   0  0.3832389E-07  0.3711253E+04  0.7818609E-02  0.8065473E-01
       -2   -1    0    0    0  501  0.00000000000E+00  0.00000000000E+00  0.18809006151E+04  0.18809006151E+04  0.25500000920E-02 0. -1.
        2   -1    0    0  501    0  0.00000000000E+00  0.00000000000E+00 -0.18306917297E+04  0.18306917297E+04  0.25500000920E-02 0.  1.
    10030    2    1    2    0    0  0.00000000000E+00  0.00000000000E+00  0.50208885387E+02  0.37115923448E+04  0.37112527267E+04 0.  0.
        5    1    3    3  502    0 -0.10184806900E+04 -0.96949409781E+03  0.12360436355E+04  0.18721772567E+04  0.46999998093E+01 0. -1.
       -5    1    3    3    0  502  0.10184806900E+04  0.96949409781E+03 -0.11858347501E+04  0.18394150881E+04  0.46999998093E+01 0.  1.
</event>
<event>
 5   0  0.3610483E-07  0.3927252E+04  0.7818609E-02  0.8019385E-01
        2   -1    0    0  501    0  0.00000000000E+00  0.00000000000E+00  0.22747578125E+04  0.22747578125E+04  0.25500000920E-02 0. -1.
       -2   -1    0    0    0  501  0.00000000000E+00  0.00000000000E+00 -0.16950497568E+04  0.16950497568E+04  0.25500000920E-02 0.  1.
    10030    2    1    2    0    0  0.00000000000E+00  0.00000000000E+00  0.57970805569E+03  0.39698075692E+04  0.39272523101E+04 0.  0.
        4    1    3    3  502    0 -0.90690931114E+03  0.17161425386E+04  0.59005076236E+03  0.20287412912E+04  0.12699999809E+01 0.  1.
       -4    1    3    3    0  502  0.90690931114E+03 -0.17161425386E+04 -0.10342706666E+02  0.19410662781E+04  0.12699999809E+01 0. -1.
</event>
<event>
 5   0  0.3680814E-07  0.3775531E+04  0.7818609E-02  0.8051426E-01
       -2   -1    0    0    0  501  0.00000000000E+00  0.00000000000E+00  0.11113669433E+04  0.11113669433E+04  0.25500000920E-02 0. -1.
        2   -1    0    0  501    0  0.00000000000E+00  0.00000000000E+00 -0.32065549120E+04  0.32065549120E+04  0.25500000920E-02 0.  1.
    10030    2    1    2    0    0  0.00000000000E+00  0.00000000000E+00 -0.20951879687E+04  0.43179218552E+04  0.37755312903E+04 0.  0.
        1    1    3    3  502    0 -0.95068560823E+03 -0.16306587692E+04 -0.10150854052E+04  0.21431867691E+04  0.50400001928E-02 0. -1.
       -1    1    3    3    0  502  0.95068560823E+03  0.16306587692E+04 -0.10801025635E+04  0.21747350861E+04  0.50400001928E-02 0.  1.
</event>
<event>
 5   0  0.1187925E-07  0.3878364E+04  0.7818609E-02  0.8029544E-01
        1   -1    0    0  501    0  0.00000000000E+00  0.00000000000E+00  0.23265175070E+04  0.23265175070E+04  0.50400001928E-02 0.  1.
       -1   -1    0    0    0  501  0.00000000000E+00  0.00000000000E+00 -0.16163331307E+04  0.16163331307E+04  0.50400001928E-02 0. -1.
    10030    2    1    2    0    0  0.00000000000E+00  0.00000000000E+00  0.71018437634E+03  0.39428506377E+04  0.38783642560E+04 0.  0.
        1    1    3    3  502    0  0.75525086986E+03  0.45754294340E+01  0.21708471626E+04  0.22984782388E+04  0.50400001928E-02 0.  1.
       -1    1    3    3    0  502 -0.75525086986E+03 -0.45754294340E+01 -0.14606627862E+04  0.16443723989E+04  0.50400001928E-02 0. -1.
</event>
<event>
 5   0  0.1187925E-07  0.3906986E+04  0.7818609E-02  0.8023578E-01
       -1   -1    0    0    0  501  0.00000000000E+00  0.00000000000E+00  0.27740130356E+04  0.27740130356E+04  0.50400001928E-02 0.  1.
        1   -1    0    0  501    0  0.00000000000E+00  0.00000000000E+00 -0.13756729265E+04  0.13756729266E+04  0.50400001928E-02 0. -1.
    10030    2    1    2    0    0  0.00000000000E+00  0.00000000000E+00  0.13983401091E+04  0.41496859622E+04  0.39069858618E+04 0.  0.
        5    1    3    3  502    0  0.14299860311E+04 -0.10974831904E+04 -0.10044664029E+03  0.18053922066E+04  0.46999998093E+01 0. -1.
       -5    1    3    3    0  502 -0.14299860311E+04  0.10974831904E+04  0.14987867493E+04  0.23442937555E+04  0.46999998093E+01 0.  1.
</event>
<event>
 5   0  0.3832389E-07  0.3900228E+04  0.7818609E-02  0.8024982E-01
        2   -1    0    0  501    0  0.00000000000E+00  0.00000000000E+00  0.11870593419E+04  0.11870593419E+04  0.25500000920E-02 0.  1.
       -2   -1    0    0    0  501  0.00000000000E+00  0.00000000000E+00 -0.32036682303E+04  0.32036682303E+04  0.25500000920E-02 0. -1.
    10030    2    1    2    0    0  0.00000000000E+00  0.00000000000E+00 -0.20166088885E+04  0.43907275722E+04  0.39002278400E+04 0.  0.
        5    1    3    3  502    0 -0.50420934945E+03 -0.17293428617E+04 -0.16731560304E+03  0.18091076259E+04  0.46999998093E+01 0.  1.
       -5    1    3    3    0  502  0.50420934945E+03  0.17293428617E+04 -0.18492932854E+04  0.25816199462E+04  0.46999998093E+01 0. -1.
</event>
<event>
 5   0  0.3832389E-07  0.3798440E+04  0.7818609E-02  0.8046490E-01
       -2   -1    0    0    0  501  0.00000000000E+00  0.00000000000E+00  0.20347147575E+04  0.20347147575E+04  0.25500000920E-02 0.  1.
        2   -1    0    0  501    0  0.00000000000E+00  0.00000000000E+00 -0.17727477280E+04  0.17727477280E+04  0.25500000920E-02 0. -1.
    10030    2    1    2    0    0  0.00000000000E+00  0.00000000000E+00  0.26196702957E+03  0.38074624855E+04  0.37984396604E+04 0.  0.
        5    1    3    3  502    0  0.11905849594E+03 -0.16997008488E+04  0.97193763207E+03  0.19615918922E+04  0.46999998093E+01 0.  1.
       -5    1    3    3    0  502 -0.11905849594E+03  0.16997008488E+04 -0.70997060251E+03  0.18458705933E+04  0.46999998093E+01 0. -1.
</event>
<event>
 5   0  0.3832389E-07  0.3921862E+04  0.7818609E-02  0.8020498E-01
        2   -1    0    0  501    0  0.00000000000E+00  0.00000000000E+00  0.28799303933E+04  0.28799303933E+04  0.25500000920E-02 0.  1.
       -2   -1    0    0    0  501  0.00000000000E+00  0.00000000000E+00 -0.13351888196E+04  0.13351888196E+04  0.25500000920E-02 0. -1.
    10030    2    1    2    0    0  0.00000000000E+00  0.00000000000E+00  0.15447415738E+04  0.42151192129E+04  0.39218622425E+04 0.  0.
        5    1    3    3  502    0  0.70688496271E+03 -0.77710895320E+03 -0.10072319521E+04  0.14553772607E+04  0.46999998093E+01 0. -1.
       -5    1    3    3    0  502 -0.70688496271E+03  0.77710895320E+03  0.25519735259E+04  0.27597419522E+04  0.46999998093E+01 0.  1.
</event>
<event>
 5   0  0.3610483E-07  0.3913377E+04  0.7818609E-02  0.8022253E-01
       -2   -1    0    0    0  501  0.00000000000E+00  0.00000000000E+00  0.14818047191E+04  0.14818047191E+04  0.25500000920E-02 0.  1.
        2   -1    0    0  501    0  0.00000000000E+00  0.00000000000E+00 -0.25837616733E+04  0.25837616733E+04  0.25500000920E-02 0. -1.
    10030    2    1    2    0    0  0.00000000000E+00  0.00000000000E+00 -0.11019569543E+04  0.40655663924E+04  0.39133771812E+04 0.  0.
        4    1    3    3  502    0  0.10664693353E+04 -0.22690182479E+03 -0.22389061011E+04  0.24902898273E+04  0.12699999809E+01 0. -1.
       -4    1    3    3    0  502 -0.10664693353E+04  0.22690182479E+03  0.11369491468E+04  0.15752765652E+04  0.12699999809E+01 0.  1.
</event>
<event>
 5   0  0.3610483E-07  0.2921847E+04  0.7818609E-02  0.8266407E-01
       -2   -1    0    0    0  501  0.00000000000E+00  0.00000000000E+00  0.12389367277E+04  0.12389367277E+04  0.25500000920E-02 0. -1.
        2   -1    0    0  501    0  0.00000000000E+00  0.00000000000E+00 -0.17226847307E+04  0.17226847307E+04  0.25500000920E-02 0.  1.
    10030    2    1    2    0    0  0.00000000000E+00  0.00000000000E+00 -0.48374800299E+03  0.29616214583E+04  0.29218469385E+04 0.  0.
        4    1    3    3  502    0 -0.93685757231E+03  0.69998553206E+03 -0.11293578036E+04  0.16257713607E+04  0.12699999809E+01 0.  1.
       -4    1    3    3    0  502  0.93685757231E+03 -0.69998553206E+03  0.64560980057E+03  0.13358500976E+04  0.12699999809E+01 0. -1.
</event>
<event>
 5   0  0.1187925E-07  0.2884779E+04  0.7818609E-02  0.8277421E-01
       -1   -1    0    0    0  501  0.00000000000E+00  0.00000000000E+00  0.14073249047E+04  0.14073249047E+04  0.50400001928E-02 0. -1.
        1   -1    0    0  501    0  0.00000000000E+00  0.00000000000E+00 -0.14783274166E+04  0.14783274166E+04  0.50400001928E-02 0.  1.
    10030    2    1    2    0    0  0.00000000000E+00  0.00000000000E+00 -0.71002511940E+02  0.28856523213E+04  0.28847786679E+04 0.  0.
        5    1    3    3  502    0  0.70803373148E+03  0.47013583682E+03  0.11302380674E+04  0.14141427258E+04  0.46999998093E+01 0. -1.
       -5    1    3    3    0  502 -0.70803373148E+03 -0.47013583682E+03 -0.12012405794E+04  0.14715095954E+04  0.46999998093E+01 0.  1.
</event>
<event>
 5   0  0.3680814E-07  0.3900515E+04  0.7818609E-02  0.8024922E-01
        2   -1    0    0  501    0  0.00000000000E+00  0.00000000000E+00  0.24204828969E+04  0.24204828969E+04  0.25500000920E-02 0.  1.
       -2   -1    0    0    0  501  0.00000000000E+00  0.00000000000E+00 -0.15713827773E+04  0.15713827773E+04  0.25500000920E-02 0. -1.
    10030    2    1    2    0    0  0.00000000000E+00  0.00000000000E+00  0.84910011962E+03  0.39918656741E+04  0.39005154207E+04 0.  0.
        1    1    3    3  502    0 -0.11117295094E+04  0.10109562070E+04  0.16968592524E+04  0.22665626568E+04  0.50400001928E-02 0.  1.
       -1    1    3    3    0  502  0.11117295094E+04 -0.10109562070E+04 -0.84775913275E+03  0.17253030174E+04  0.50400001928E-02 0. -1.
</event>
<event>
 5   0  0.3665303E-07  0.3917737E+04  0.7818609E-02  0.8021350E-01
       -2   -1    0    0    0  501  0.00000000000E+00  0.00000000000E+00  0.13062418635E+04  0.13062418635E+04  0.25500000920E-02 0. -1.
        2   -1    0    0  501    0  0.00000000000E+00  0.00000000000E+00 -0.29375614641E+04  0.29375614641E+04  0.25500000920E-02 0.  1.
    10030    2    1    2    0    0  0.00000000000E+00  0.00000000000E+00 -0.16313196006E+04  0.42438033276E+04  0.39177369800E+04 0.  0.
        2    1    3    3  502    0 -0.64228240887E+03 -0.30850131168E+03  0.11608877456E+04  0.13621160413E+04  0.25500000920E-02 0. -1.
       -2    1    3    3    0  502  0.64228240887E+03  0.30850131168E+03 -0.27922073462E+04  0.28816872863E+04  0.25500000920E-02 0.  1.
</event>
<event>
 5   0  0.1187925E-07  0.3795644E+04  0.7818609E-02  0.8047090E-01
        1   -1    0    0  501    0  0.00000000000E+00  0.00000000000E+00  0.21494011220E+04  0.21494011220E+04  0.50400001928E-02 0. -1.
       -1   -1    0    0    0  501  0.00000000000E+00  0.00000000000E+00 -0.16756891943E+04  0.16756891943E+04  0.50400001928E-02 0.  1.
    10030    2    1    2    0    0  0.00000000000E+00  0.00000000000E+00  0.47371192770E+03  0.38250903162E+04  0.37956439423E+04 0.  0.
        3    1    3    3  502    0  0.26002753147E+03 -0.18758336973E+04  0.36176042427E+03  0.19280137426E+04  0.10100000352E+00 0. -1.
       -3    1    3    3    0  502 -0.26002753147E+03  0.18758336973E+04  0.11195150342E+03  0.18970765736E+04  0.10100000352E+00 0.  1.
</event>
<event>
 5   0  0.3832389E-07  0.3792101E+04  0.7818609E-02  0.8047852E-01
       -2   -1    0    0    0  501  0.00000000000E+00  0.00000000000E+00  0.12578871242E+04  0.12578871242E+04  0.25500000920E-02 0.  1.
        2   -1    0    0  501    0  0.00000000000E+00  0.00000000000E+00 -0.28579726416E+04  0.28579726416E+04  0.25500000920E-02 0. -1.
    10030    2    1    2    0    0  0.00000000000E+00  0.00000000000E+00 -0.16000855174E+04  0.41158597658E+04  0.37921007303E+04 0.  0.
        5    1    3    3  502    0 -0.23759353014E+02  0.13383571021E+04 -0.22575312735E+04  0.26245444901E+04  0.46999998093E+01 0. -1.
       -5    1    3    3    0  502  0.23759353014E+02 -0.13383571021E+04  0.65744575612E+03  0.14913152758E+04  0.46999998093E+01 0.  1.
</event>
<event>
 5   0  0.3665303E-07  0.3899304E+04  0.7818609E-02  0.8025174E-01
        2   -1    0    0  501    0  0.00000000000E+00  0.00000000000E+00  0.12709735123E+04  0.12709735123E+04  0.25500000920E-02 0.  1.
       -2   -1    0    0    0  501  0.00000000000E+00  0.00000000000E+00 -0.29907333354E+04  0.29907333354E+04  0.25500000920E-02 0. -1.
    10030    2    1    2    0    0  0.00000000000E+00  0.00000000000E+00 -0.17197598231E+04  0.42617068477E+04  0.38993039644E+04 0.  0.
        2    1    3    3  502    0  0.13572699376E+04  0.10061300168E+04 -0.19232741686E+04  0.25599732072E+04  0.25500000920E-02 0. -1.
       -2    1    3    3    0  502 -0.13572699376E+04 -0.10061300168E+04  0.20351434548E+03  0.17017336405E+04  0.25500000920E-02 0.  1.
</event>
<event>
 5   0  0.1187925E-07  0.3557042E+04  0.7818609E-02  0.8100403E-01
        1   -1    0    0  501    0  0.00000000000E+00  0.00000000000E+00  0.22347476909E+04  0.22347476909E+04  0.50400001928E-02 0. -1.
       -1   -1    0    0    0  501  0.00000000000E+00  0.00000000000E+00 -0.14154336956E+04  0.14154336956E+04  0.50400001928E-02 0.  1.
    10030    2    1    2    0    0  0.00000000000E+00  0.00000000000E+00  0.81931399528E+03  0.36501813866E+04  0.35570421324E+04 0.  0.
        1    1    3    3  502    0 -0.71316301376E+03  0.91951725709E+03  0.17898746153E+04  0.21348921774E+04  0.50400001928E-02 0. -1.
       -1    1    3    3    0  502  0.71316301376E+03 -0.91951725709E+03 -0.97056062007E+03  0.15152892092E+04  0.50400001928E-02 0.  1.
</event>
<event>
 5   0  0.3832389E-07  0.3681833E+04  0.7818609E-02  0.8072000E-01
        2   -1    0    0  501    0  0.00000000000E+00  0.00000000000E+00  0.19526821643E+04  0.19526821643E+04  0.25500000920E-02 0. -1.
       -2   -1    0    0    0  501  0.00000000000E+00  0.00000000000E+00 -0.17355482038E+04  0.17355482038E+04  0.25500000920E-02 0.  1.
    10030    2    1    2    0    0  0.00000000000E+00  0.00000000000E+00  0.21713396047E+03  0.36882303682E+04  0.36818332515E+04 0.  0.
        5    1    3    3  502    0  0.12078240487E+04 -0.23564019175E+03 -0.12629673716E+04  0.17633700418E+04  0.46999998093E+01 0.  1.
       -5    1    3    3    0  502 -0.12078240487E+04  0.23564019175E+03  0.14801013321E+04  0.19248603263E+04  0.46999998093E+01 0. -1.
</event>
<event>
 5   0  0.3832389E-07  0.3884180E+04  0.7818609E-02  0.8028328E-01
       -2   -1    0    0    0  501  0.00000000000E+00  0.00000000000E+00  0.13130089312E+04  0.13130089312E+04  0.25500000920E-02 0.  1.
        2   -1    0    0  501    0  0.00000000000E+00  0.00000000000E+00 -0.28725727454E+04  0.28725727454E+04  0.25500000920E-02 0. -1.
    10030    2    1    2    0    0  0.00000000000E+00  0.00000000000E+00 -0.15595638142E+04  0.41855816766E+04  0.38841800526E+04 0.  0.
        5    1    3    3  502    0  0.63146585654E+03 -0.10184688685E+04 -0.24266606172E+04  0.27064241732E+04  0.46999998093E+01 0. -1.
       -5    1    3    3    0  502 -0.63146585654E+03  0.10184688685E+04  0.86709680300E+03  0.14791575034E+04  0.46999998093E+01 0.  1.
</event>
<event>
 5   0  0.3810833E-07  0.3917266E+04  0.7818609E-02  0.8021448E-01
       -2   -1    0    0    0  501  0.00000000000E+00  0.00000000000E+00  0.17738969953E+04  0.17738969953E+04  0.25500000920E-02 0. -1.
        2   -1    0    0  501    0  0.00000000000E+00  0.00000000000E+00 -0.21626074620E+04  0.21626074621E+04  0.25500000920E-02 0.  1.
    10030    2    1    2    0    0  0.00000000000E+00  0.00000000000E+00 -0.38871046679E+03  0.39365044573E+04  0.39172658214E+04 0.  0.
        3    1    3    3  502    0  0.32592156350E+03 -0.53060709496E+03 -0.20604822028E+04  0.21525230947E+04  0.10100000352E+00 0.  1.
       -3    1    3    3    0  502 -0.32592156350E+03  0.53060709496E+03  0.16717717360E+04  0.17839813627E+04  0.10100000352E+00 0. -1.
</event>
<event>
 5   0  0.1187925E-07  0.2887123E+04  0.7818609E-02  0.8276719E-01
        1   -1    0    0  501    0  0.00000000000E+00  0.00000000000E+00  0.82000934214E+03  0.82000934215E+03  0.50400001928E-02 0.  1.
       -1   -1    0    0    0  501  0.00000000000E+00  0.00000000000E+00 -0.25412756760E+04  0.25412756760E+04  0.50400001928E-02 0. -1.
    10030    2    1    2    0    0  0.00000000000E+00  0.00000000000E+00 -0.17212663338E+04  0.33612850181E+04  0.28871229938E+04 0.  0.
        2    1    3    3  502    0 -0.10891727692E+04 -0.57163993896E+03 -0.17402269137E+04  0.21310699782E+04  0.25500000920E-02 0. -1.
       -2    1    3    3    0  502  0.10891727692E+04  0.57163993896E+03  0.18960579839E+02  0.12302150399E+04  0.25500000920E-02 0.  1.
</event>
<event>
 5   0  0.1187925E-07  0.3897249E+04  0.7818609E-02  0.8025602E-01
       -1   -1    0    0    0  501  0.00000000000E+00  0.00000000000E+00  0.15146294050E+04  0.15146294050E+04  0.50400001928E-02 0. -1.
        1   -1    0    0  501    0  0.00000000000E+00  0.00000000000E+00 -0.25069746723E+04  0.25069746723E+04  0.50400001928E-02 0.  1.
    10030    2    1    2    0    0  0.00000000000E+00  0.00000000000E+00 -0.99234526724E+03  0.40216040773E+04  0.38972490586E+04 0.  0.
        5    1    3    3  502    0 -0.17133041861E+04  0.80378527767E+03 -0.97535323360E+03  0.21290415748E+04  0.46999998093E+01 0. -1.
       -5    1    3    3    0  502  0.17133041861E+04 -0.80378527767E+03 -0.16992033638E+02  0.18925625025E+04  0.46999998093E+01 0.  1.
</event>
<event>
 5   0  0.3665303E-07  0.3780071E+04  0.7818609E-02  0.8050445E-01
       -2   -1    0    0    0  501  0.00000000000E+00  0.00000000000E+00  0.25397205016E+04  0.25397205016E+04  0.25500000920E-02 0. -1.
        2   -1    0    0  501    0  0.00000000000E+00  0.00000000000E+00 -0.14065464986E+04  0.14065464986E+04  0.25500000920E-02 0.  1.
    10030    2    1    2    0    0  0.00000000000E+00  0.00000000000E+00  0.11331740030E+04  0.39462670002E+04  0.37800714168E+04 0.  0.
        2    1    3    3  502    0 -0.69214699025E+02  0.33458993775E+02 -0.14049135714E+04  0.14070153951E+04  0.25500000920E-02 0.  1.
       -2    1    3    3    0  502  0.69214699025E+02 -0.33458993775E+02  0.25380875744E+04  0.25392516051E+04  0.25500000920E-02 0. -1.
</event>
<event>
 5   0  0.3680814E-07  0.3177759E+04  0.7818609E-02  0.8194716E-01
        2   -1    0    0  501    0  0.00000000000E+00  0.00000000000E+00  0.20191965280E+04  0.20191965280E+04  0.25500000920E-02 0.  1.
       -2   -1    0    0    0  501  0.00000000000E+00  0.00000000000E+00 -0.12502686994E+04  0.12502686994E+04  0.25500000920E-02 0. -1.
    10030    2    1    2    0    0  0.00000000000E+00  0.00000000000E+00  0.76892782866E+03  0.32694652274E+04  0.31777590952E+04 0.  0.
        1    1    3    3  502    0  0.89350070377E+03  0.10383923191E+04  0.12126383898E+04  0.18295064855E+04  0.50400001928E-02 0.  1.
       -1    1    3    3    0  502 -0.89350070377E+03 -0.10383923191E+04 -0.44371056118E+03  0.14399587418E+04  0.50400001928E-02 0. -1.
</event>
<event>
 5   0  0.1187925E-07  0.3743194E+04  0.7818609E-02  0.8058456E-01
       -1   -1    0    0    0  501  0.00000000000E+00  0.00000000000E+00  0.13887956391E+04  0.13887956391E+04  0.50400001928E-02 0. -1.
        1   -1    0    0  501    0  0.00000000000E+00  0.00000000000E+00 -0.25222402061E+04  0.25222402062E+04  0.50400001928E-02 0.  1.
    10030    2    1    2    0    0  0.00000000000E+00  0.00000000000E+00 -0.11334445670E+04  0.39110358453E+04  0.37431944641E+04 0.  0.
        2    1    3    3  502    0 -0.19162752743E+03  0.15548505913E+04 -0.16366470521E+04  0.22655893370E+04  0.25500000920E-02 0.  1.
       -2    1    3    3    0  502  0.19162752743E+03 -0.15548505913E+04  0.50320248507E+03  0.16454465083E+04  0.25500000920E-02 0. -1.
</event>
<event>
 5   0  0.1187925E-07  0.3997715E+04  0.7818609E-02  0.8005008E-01
       -1   -1    0    0    0  501  0.00000000000E+00  0.00000000000E+00  0.29548636495E+04  0.29548636495E+04  0.50400001928E-02 0.  1.
        1   -1    0    0  501    0  0.00000000000E+00  0.00000000000E+00 -0.13521540067E+04  0.13521540067E+04  0.50400001928E-02 0. -1.
    10030    2    1    2    0    0  0.00000000000E+00  0.00000000000E+00  0.16027096428E+04  0.43070176561E+04  0.39977147086E+04 0.  0.
        3    1    3    3  502    0 -0.12155198989E+03  0.15754529213E+04  0.21202439428E+04  0.26442884072E+04  0.10100000352E+00 0.  1.
       -3    1    3    3    0  502  0.12155198989E+03 -0.15754529213E+04 -0.51753429997E+03  0.16627292489E+04  0.10100000352E+00 0. -1.
</event>
<event>
 5   0  0.3665303E-07  0.4009094E+04  0.7818609E-02  0.8002715E-01
        2   -1    0    0  501    0  0.00000000000E+00  0.00000000000E+00  0.29549392908E+04  0.29549392908E+04  0.25500000920E-02 0.  1.
       -2   -1    0    0    0  501  0.00000000000E+00  0.00000000000E+00 -0.13598275268E+04  0.13598275268E+04  0.25500000920E-02 0. -1.
    10030    2    1    2    0    0  0.00000000000E+00  0.00000000000E+00  0.15951117640E+04  0.43147668176E+04  0.40090935572E+04 0.  0.
        2    1    3    3  502    0  0.16548739409E+04  0.22940699031E+03 -0.39458764887E+03  0.17166638402E+04  0.25500000920E-02 0. -1.
       -2    1    3    3    0  502 -0.16548739409E+04 -0.22940699031E+03  0.19896994129E+04  0.25981029774E+04  0.25500000920E-02 0.  1.
</event>
<event>
 5   0  0.1187925E-07  0.3905763E+04  0.7818609E-02  0.8023832E-01
        1   -1    0    0  501    0  0.00000000000E+00  0.00000000000E+00  0.18389417231E+04  0.18389417231E+04  0.50400001928E-02 0.  1.
       -1   -1    0    0    0  501  0.00000000000E+00  0.00000000000E+00 -0.20738813393E+04  0.20738813393E+04  0.50400001928E-02 0. -1.
    10030    2    1    2    0    0  0.00000000000E+00  0.00000000000E+00 -0.23493961620E+03  0.39128230623E+04  0.39057633945E+04 0.  0.
        3    1    3    3  502    0  0.11231464656E+04 -0.12917535341E+04  0.82426213984E+03  0.18998666430E+04  0.10100000352E+00 0.  1.
       -3    1    3    3    0  502 -0.11231464656E+04  0.12917535341E+04 -0.10592017560E+04  0.20129564193E+04  0.10100000352E+00 0. -1.
</event>
<event>
 5   0  0.1187925E-07  0.3988016E+04  0.7818609E-02  0.8006968E-01
        1   -1    0    0  501    0  0.00000000000E+00  0.00000000000E+00  0.21028039405E+04  0.21028039405E+04  0.50400001928E-02 0. -1.
       -1   -1    0    0    0  501  0.00000000000E+00  0.00000000000E+00 -0.18908409132E+04  0.18908409132E+04  0.50400001928E-02 0.  1.
    10030    2    1    2    0    0  0.00000000000E+00  0.00000000000E+00  0.21196302731E+03  0.39936448537E+04  0.39880159092E+04 0.  0.
        1    1    3    3  502    0  0.12521271481E+04  0.14283339875E+04  0.71355638367E+03  0.20290695128E+04  0.50400001928E-02 0.  1.
       -1    1    3    3    0  502 -0.12521271481E+04 -0.14283339875E+04 -0.50159335636E+03  0.19645753409E+04  0.50400001928E-02 0. -1.
</event>
<event>
 5   0  0.1187925E-07  0.3670770E+04  0.7818609E-02  0.8074471E-01
        1   -1    0    0  501    0  0.00000000000E+00  0.00000000000E+00  0.17200962262E+04  0.17200962262E+04  0.50400001928E-02 0.  1.
       -1   -1    0    0    0  501  0.00000000000E+00  0.00000000000E+00 -0.19584009794E+04  0.19584009794E+04  0.50400001928E-02 0. -1.
    10030    2    1    2    0    0  0.00000000000E+00  0.00000000000E+00 -0.23830475321E+03  0.36784972056E+04  0.36707700195E+04 0.  0.
        2    1    3    3  502    0  0.17497602224E+04  0.35817738621E+03 -0.54275518586E+03  0.18666909406E+04  0.25500000920E-02 0. -1.
       -2    1    3    3    0  502 -0.17497602224E+04 -0.35817738621E+03  0.30445043265E+03  0.18118062650E+04  0.25500000920E-02 0.  1.
</event>
<event>
 5   0  0.3610483E-07  0.2855262E+04  0.7818609E-02  0.8286314E-01
       -2   -1    0    0    0  501  0.00000000000E+00  0.00000000000E+00  0.91412880407E+03  0.91412880408E+03  0.25500000920E-02 0.  1.
        2   -1    0    0  501    0  0.00000000000E+00  0.00000000000E+00 -0.22295878097E+04  0.22295878097E+04  0.25500000920E-02 0. -1.
    10030    2    1    2    0    0  0.00000000000E+00  0.00000000000E+00 -0.13154590056E+04  0.31437166138E+04  0.28552621162E+04 0.  0.
        4    1    3    3  502    0 -0.98012934086E+02 -0.10518901578E+04 -0.17149717243E+04  0.20142514906E+04  0.12699999809E+01 0. -1.
       -4    1    3    3    0  502  0.98012934086E+02  0.10518901578E+04  0.39951271868E+03  0.11294651232E+04  0.12699999809E+01 0.  1.
</event>
<event>
 5   0  0.3832389E-07  0.3842028E+04  0.7818609E-02  0.8037196E-01
       -2   -1    0    0    0  501  0.00000000000E+00  0.00000000000E+00  0.21388713769E+04  0.21388713769E+04  0.25500000920E-02 0.  1.
        2   -1    0    0  501    0  0.00000000000E+00  0.00000000000E+00 -0.17253465117E+04  0.17253465117E+04  0.25500000920E-02 0. -1.
    10030    2    1    2    0    0  0.00000000000E+00  0.00000000000E+00  0.41352486519E+03  0.38642178886E+04  0.38420277298E+04 0.  0.
        5    1    3    3  502    0 -0.41903576240E+00 -0.18429633776E+04  0.75188725385E+03  0.19904448546E+04  0.46999998093E+01 0.  1.
       -5    1    3    3    0  502  0.41903576240E+00  0.18429633776E+04 -0.33836238866E+03  0.18737730340E+04  0.46999998093E+01 0. -1.
</event>
<event>
 5   0  0.3610483E-07  0.3890644E+04  0.7818609E-02  0.8026978E-01
       -2   -1    0    0    0  501  0.00000000000E+00  0.00000000000E+00  0.24401816759E+04  0.24401816759E+04  0.25500000920E-02 0.  1.
        2   -1    0    0  501    0  0.00000000000E+00  0.00000000000E+00 -0.15508183615E+04  0.15508183615E+04  0.25500000920E-02 0. -1.
    10030    2    1    2    0    0  0.00000000000E+00  0.00000000000E+00  0.88936331438E+03  0.39910000374E+04  0.38906444446E+04 0.  0.
        4    1    3    3  502    0  0.18647402704E+04  0.55122549566E+03  0.38691649370E+03  0.19826275014E+04  0.12699999809E+01 0.  1.
       -4    1    3    3    0  502 -0.18647402704E+04 -0.55122549566E+03  0.50244682069E+03  0.20083725361E+04  0.12699999809E+01 0. -1.
</event>
<event>
 5   0  0.3680814E-07  0.3655675E+04  0.7818609E-02  0.8077856E-01
       -2   -1    0    0    0  501  0.00000000000E+00  0.00000000000E+00  0.13546645762E+04  0.13546645762E+04  0.25500000920E-02 0.  1.
        2   -1    0    0  501    0  0.00000000000E+00  0.00000000000E+00 -0.24662851170E+04  0.24662851170E+04  0.25500000920E-02 0. -1.
    10030    2    1    2    0    0  0.00000000000E+00  0.00000000000E+00 -0.11116205408E+04  0.38209496933E+04  0.36556745385E+04 0.  0.
        1    1    3    3  502    0  0.76079074168E+03 -0.15045506481E+04 -0.12937865831E+04  0.21251726819E+04  0.50400001928E-02 0. -1.
       -1    1    3    3    0  502 -0.76079074168E+03  0.15045506481E+04  0.18216604226E+03  0.16957770114E+04  0.50400001928E-02 0.  1.
</event>
<event>
 5   0  0.3832389E-07  0.3989332E+04  0.7818609E-02  0.8006702E-01
        2   -1    0    0  501    0  0.00000000000E+00  0.00000000000E+00  0.17133686481E+04  0.17133686481E+04  0.25500000920E-02 0. -1.
       -2   -1    0    0    0  501  0.00000000000E+00  0.00000000000E+00 -0.23221464038E+04  0.23221464038E+04  0.25500000920E-02 0.  1.
    10030    2    1    2    0    0  0.00000000000E+00  0.00000000000E+00 -0.60877775571E+03  0.40355150519E+04  0.39893321971E+04 0.  0.
        5    1    3    3  502    0  0.14878274628E+04 -0.64599104251E+03  0.86997084209E+03  0.18405994518E+04  0.46999998093E+01 0. -1.
       -5    1    3    3    0  502 -0.14878274628E+04  0.64599104251E+03 -0.14787485978E+04  0.21949156001E+04  0.46999998093E+01 0.  1.
</event>
<event>
 5   0  0.3810833E-07  0.3922639E+04  0.7818609E-02  0.8020337E-01
       -2   -1    0    0    0  501  0.00000000000E+00  0.00000000000E+00  0.14666175025E+04  0.14666175025E+04  0.25500000920E-02 0.  1.
        2   -1    0    0  501    0  0.00000000000E+00  0.00000000000E+00 -0.26228882600E+04  0.26228882600E+04  0.25500000920E-02 0. -1.
    10030    2    1    2    0    0  0.00000000000E+00  0.00000000000E+00 -0.11562707575E+04  0.40895057625E+04  0.39226388206E+04 0.  0.
        3    1    3    3  502    0 -0.14765655884E+04  0.19192710495E+03 -0.19090348477E+04  0.24210526657E+04  0.10100000352E+00 0. -1.
       -3    1    3    3    0  502  0.14765655884E+04 -0.19192710495E+03  0.75276409021E+03  0.16684530968E+04  0.10100000352E+00 0.  1.
</event>
<event>
 5   0  0.3610483E-07  0.3852388E+04  0.7818609E-02  0.8035005E-01
       -2   -1    0    0    0  501  0.00000000000E+00  0.00000000000E+00  0.13612412631E+04  0.13612412631E+04  0.25500000920E-02 0. -1.
        2   -1    0    0  501    0  0.00000000000E+00  0.00000000000E+00 -0.27256183614E+04  0.27256183614E+04  0.25500000920E-02 0.  1.
    10030    2    1    2    0    0  0.00000000000E+00  0.00000000000E+00 -0.13643770983E+04  0.40868596246E+04  0.38523884441E+04 0.  0.
        4    1    3    3  502    0  0.13160376439E+04 -0.26423697756E+03 -0.21477351157E+04  0.25326950075E+04  0.12699999809E+01 0.  1.
       -4    1    3    3    0  502 -0.13160376439E+04  0.26423697756E+03  0.78335801745E+03  0.15541646171E+04  0.12699999809E+01 0. -1.
</event>
<event>
 5   0  0.1187925E-07  0.3922921E+04  0.7818609E-02  0.8020279E-01
        1   -1    0    0  501    0  0.00000000000E+00  0.00000000000E+00  0.18353218886E+04  0.18353218886E+04  0.50400001928E-02 0. -1.
       -1   -1    0    0    0  501  0.00000000000E+00  0.00000000000E+00 -0.20962688916E+04  0.20962688916E+04  0.50400001928E-02 0.  1.
    10030    2    1    2    0    0  0.00000000000E+00  0.00000000000E+00 -0.26094700297E+03  0.39315907802E+04  0.39229214528E+04 0.  0.
        3    1    3    3  502    0  0.92552926146E+03  0.15757961412E+04 -0.84450166719E+03  0.20131867694E+04  0.10100000352E+00 0.  1.
       -3    1    3    3    0  502 -0.92552926146E+03 -0.15757961412E+04  0.58355466422E+03  0.19184040108E+04  0.10100000352E+00 0. -1.
</event>
<event>
 5   0  0.1187925E-07  0.3142240E+04  0.7818609E-02  0.8204240E-01
        1   -1    0    0  501    0  0.00000000000E+00  0.00000000000E+00  0.17966775213E+04  0.17966775213E+04  0.50400001928E-02 0. -1.
       -1   -1    0    0    0  501  0.00000000000E+00  0.00000000000E+00 -0.13738794278E+04  0.13738794278E+04  0.50400001928E-02 0.  1.
    10030    2    1    2    0    0  0.00000000000E+00  0.00000000000E+00  0.42279809350E+03  0.31705569491E+04  0.31422401467E+04 0.  0.
        2    1    3    3  502    0 -0.74058380014E+03 -0.13458608331E+04  0.54393313064E+03  0.16296223482E+04  0.25500000920E-02 0. -1.
       -2    1    3    3    0  502  0.74058380014E+03  0.13458608331E+04 -0.12113503713E+03  0.15409346009E+04  0.25500000920E-02 0.  1.
</event>
<event>
 5   0  0.1187925E-07  0.3740134E+04  0.7818609E-02  0.8059125E-01
        1   -1    0    0  501    0  0.00000000000E+00  0.00000000000E+00  0.21206672802E+04  0.21206672802E+04  0.50400001928E-02 0. -1.
       -1   -1    0    0    0  501  0.00000000000E+00  0.00000000000E+00 -0.16490799394E+04  0.16490799394E+04  0.50400001928E-02 0.  1.
    10030    2    1    2    0    0  0.00000000000E+00  0.00000000000E+00  0.47158734085E+03  0.37697472196E+04  0.37401336179E+04 0.  0.
        5    1    3    3  502    0 -0.14592873647E+04 -0.10590231091E+02  0.14144525879E+04  0.20323213277E+04  0.46999998093E+01 0. -1.
       -5    1    3    3    0  502  0.14592873647E+04  0.10590231091E+02 -0.94286524702E+03  0.17374258919E+04  0.46999998093E+01 0.  1.
</event>
<event>
 5   0  0.3610483E-07  0.3924353E+04  0.7818609E-02  0.8019983E-01
       -2   -1    0    0    0  501  0.00000000000E+00  0.00000000000E+00  0.16360459395E+04  0.16360459395E+04  0.25500000920E-02 0.  1.
        2   -1    0    0  501    0  0.00000000000E+00  0.00000000000E+00 -0.23533186757E+04  0.23533186757E+04  0.25500000920E-02 0. -1.
    10030    2    1    2    0    0  0.00000000000E+00  0.00000000000E+00 -0.71727273625E+03  0.39893646152E+04  0.39243534314E+04 0.  0.
        4    1    3    3  502    0 -0.17788449862E+04 -0.41237739466E+03  0.37144724883E+03  0.18634160223E+04  0.12699999809E+01 0.  1.
       -4    1    3    3    0  502  0.17788449862E+04  0.41237739466E+03 -0.10887199851E+04  0.21259485929E+04  0.12699999809E+01 0. -1.
</event>
<event>
 5   0  0.1187925E-07  0.3032344E+04  0.7818609E-02  0.8234555E-01
        1   -1    0    0  501    0  0.00000000000E+00  0.00000000000E+00  0.22517756387E+04  0.22517756387E+04  0.50400001928E-02 0. -1.
       -1   -1    0    0    0  501  0.00000000000E+00  0.00000000000E+00 -0.10208734681E+04  0.10208734682E+04  0.50400001928E-02 0.  1.
    10030    2    1    2    0    0  0.00000000000E+00  0.00000000000E+00  0.12309021706E+04  0.32726491069E+04  0.30323443114E+04 0.  0.
        1    1    3    3  502    0  0.37148043401E+02  0.23048783630E+03 -0.10013582578E+04  0.10282134896E+04  0.50400001928E-02 0.  1.
       -1    1    3    3    0  502 -0.37148043401E+02 -0.23048783630E+03  0.22322604283E+04  0.22444356172E+04  0.50400001928E-02 0. -1.
</event>
<event>
 5   0  0.1187925E-07  0.3986972E+04  0.7818609E-02  0.8007180E-01
       -1   -1    0    0    0  501  0.00000000000E+00  0.00000000000E+00  0.24866102414E+04  0.24866102414E+04  0.50400001928E-02 0.  1.
        1   -1    0    0  501    0  0.00000000000E+00  0.00000000000E+00 -0.15981537604E+04  0.15981537604E+04  0.50400001928E-02 0. -1.
    10030    2    1    2    0    0  0.00000000000E+00  0.00000000000E+00  0.88845648098E+03  0.40847640019E+04  0.39869715364E+04 0.  0.
        5    1    3    3  502    0  0.15105571776E+04 -0.39984506575E+03 -0.82399688463E+03  0.17665367303E+04  0.46999998093E+01 0. -1.
       -5    1    3    3    0  502 -0.15105571776E+04  0.39984506575E+03  0.17124533656E+04  0.23182272716E+04  0.46999998093E+01 0.  1.
</event>
<event>
 5   0  0.1187925E-07  0.3071660E+04  0.7818609E-02  0.8223559E-01
       -1   -1    0    0    0  501  0.00000000000E+00  0.00000000000E+00  0.12812451864E+04  0.12812451864E+04  0.50400001928E-02 0.  1.
        1   -1    0    0  501    0  0.00000000000E+00  0.00000000000E+00 -0.18410016340E+04  0.18410016340E+04  0.50400001928E-02 0. -1.
    10030    2    1    2    0    0  0.00000000000E+00  0.00000000000E+00 -0.55975644758E+03  0.31222468204E+04  0.30716604511E+04 0.  0.
        1    1    3    3  502    0 -0.12594375457E+04  0.90999630695E+02  0.60876814843E+03  0.14018068779E+04  0.50400001928E-02 0.  1.
       -1    1    3    3    0  502  0.12594375457E+04 -0.90999630695E+02 -0.11685245960E+04  0.17204399425E+04  0.50400001928E-02 0. -1.
</event>
<event>
 5   0  0.1187925E-07  0.3919203E+04  0.7818609E-02  0.8021047E-01
       -1   -1    0    0    0  501  0.00000000000E+00  0.00000000000E+00  0.16155024449E+04  0.16155024449E+04  0.50400001928E-02 0. -1.
        1   -1    0    0  501    0  0.00000000000E+00  0.00000000000E+00 -0.23769930495E+04  0.23769930495E+04  0.50400001928E-02 0.  1.
    10030    2    1    2    0    0  0.00000000000E+00  0.00000000000E+00 -0.76149060466E+03  0.39924954944E+04  0.39192030225E+04 0.  0.
        2    1    3    3  502    0 -0.74277004435E+03  0.16395553962E+04 -0.11699517664E+04  0.21467734794E+04  0.25500000920E-02 0.  1.
       -2    1    3    3    0  502  0.74277004435E+03 -0.16395553962E+04  0.40846116177E+03  0.18457220150E+04  0.25500000920E-02 0. -1.
</event>
<event>
 5   0  0.3832389E-07  0.3851976E+04  0.7818609E-02  0.8035092E-01
       -2   -1    0    0    0  501  0.00000000000E+00  0.00000000000E+00  0.24246158157E+04  0.24246158157E+04  0.25500000920E-02 0.  1.
        2   -1    0    0  501    0  0.00000000000E+00  0.00000000000E+00 -0.15299044833E+04  0.15299044833E+04  0.25500000920E-02 0. -1.
    10030    2    1    2    0    0  0.00000000000E+00  0.00000000000E+00  0.89471133235E+03  0.39545202990E+04  0.38519764313E+04 0.  0.
        5    1    3    3  502    0  0.48880526682E+03  0.12752817005E+03  0.23553840854E+04  0.24089521172E+04  0.46999998093E+01 0.  1.
       -5    1    3    3    0  502 -0.48880526682E+03 -0.12752817005E+03 -0.14606727531E+04  0.15455681818E+04  0.46999998093E+01 0. -1.
</event>
<event>
 5   0  0.3610483E-07  0.3895878E+04  0.7818609E-02  0.8025887E-01
       -2   -1    0    0    0  501  0.00000000000E+00  0.00000000000E+00  0.21362209317E+04  0.21362209317E+04  0.25500000920E-02 0.  1.
        2   -1    0    0  501    0  0.00000000000E+00  0.00000000000E+00 -0.17762517387E+04  0.17762517387E+04  0.25500000920E-02 0. -1.
    10030    2    1    2    0    0  0.00000000000E+00  0.00000000000E+00  0.35996919303E+03  0.39124726705E+04  0.38958778956E+04 0.  0.
        4    1    3    3  502    0 -0.44401129977E+03  0.15360898030E+04 -0.93729496342E+03  0.18534404168E+04  0.12699999809E+01 0. -1.
       -4    1    3    3    0  502  0.44401129977E+03 -0.15360898030E+04  0.12972641565E+04  0.20590322537E+04  0.12699999809E+01 0.  1.
</event>
<event>
 5   0  0.1187925E-07  0.3899993E+04  0.7818609E-02  0.8025031E-01
       -1   -1    0    0    0  501  0.00000000000E+00  0.00000000000E+00  0.12325300842E+04  0.12325300843E+04  0.50400001928E-02 0. -1.
        1   -1    0    0  501    0  0.00000000000E+00  0.00000000000E+00 -0.30851069518E+04  0.30851069518E+04  0.50400001928E-02 0.  1.
    10030    2    1    2    0    0  0.00000000000E+00  0.00000000000E+00 -0.18525768675E+04  0.43176370360E+04  0.38999934006E+04 0.  0.
        3    1    3    3  502    0 -0.98895288942E+03  0.16383434011E+04 -0.13409520502E+04  0.23367390373E+04  0.10100000352E+00 0.  1.
       -3    1    3    3    0  502  0.98895288942E+03 -0.16383434011E+04 -0.51162481735E+03  0.19808979987E+04  0.10100000352E+00 0. -1.
</event>
<event>
 5   0  0.1187925E-07  0.3075462E+04  0.7818609E-02  0.8222505E-01
       -1   -1    0    0    0  501  0.00000000000E+00  0.00000000000E+00  0.12724731524E+04  0.12724731524E+04  0.50400001928E-02 0. -1.
        1   -1    0    0  501    0  0.00000000000E+00  0.00000000000E+00 -0.18582843877E+04  0.18582843877E+04  0.50400001928E-02 0.  1.
    10030    2    1    2    0    0  0.00000000000E+00  0.00000000000E+00 -0.58581123530E+03  0.31307575402E+04  0.30754622371E+04 0.  0.
        2    1    3    3  502    0  0.73858383840E+03  0.43666735384E+03  0.10061385606E+04  0.13223083103E+04  0.25500000920E-02 0. -1.
       -2    1    3    3    0  502 -0.73858383840E+03 -0.43666735384E+03 -0.15919497960E+04  0.18084492299E+04  0.25500000920E-02 0.  1.
</event>
<event>
 5   0  0.3610483E-07  0.3738040E+04  0.7818609E-02  0.8059584E-01
        2   -1    0    0  501    0  0.00000000000E+00  0.00000000000E+00  0.22230505322E+04  0.22230505322E+04  0.25500000920E-02 0. -1.
       -2   -1    0    0    0  501  0.00000000000E+00  0.00000000000E+00 -0.15713701841E+04  0.15713701841E+04  0.25500000920E-02 0.  1.
    10030    2    1    2    0    0  0.00000000000E+00  0.00000000000E+00  0.65168034818E+03  0.37944207163E+04  0.37380397665E+04 0.  0.
        4    1    3    3  502    0  0.13333385971E+04 -0.12422741592E+04 -0.95384804292E+02  0.18248662347E+04  0.12699999809E+01 0.  1.
       -4    1    3    3    0  502 -0.13333385971E+04  0.12422741592E+04  0.74706515247E+03  0.19695544816E+04  0.12699999809E+01 0. -1.
</event>
<event>
 5   0  0.1187925E-07  0.2896916E+04  0.7818609E-02  0.8273796E-01
       -1   -1    0    0    0  501  0.00000000000E+00  0.00000000000E+00  0.12358043880E+04  0.12358043880E+04  0.50400001928E-02 0. -1.
        1   -1    0    0  501    0  0.00000000000E+00  0.00000000000E+00 -0.16977043426E+04  0.16977043426E+04  0.50400001928E-02 0.  1.
    10030    2    1    2    0    0  0.00000000000E+00  0.00000000000E+00 -0.46189995453E+03  0.29335087306E+04  0.28969159298E+04 0.  0.
        1    1    3    3  502    0 -0.51333394781E+03  0.80386077252E+03  0.87292376041E+03  0.12929422938E+04  0.50400001928E-02 0. -1.
       -1    1    3    3    0  502  0.51333394781E+03 -0.80386077252E+03 -0.13348237149E+04  0.16405664368E+04  0.50400001928E-02 0.  1.
</event>
<event>
 5   0  0.3610483E-07  0.3882762E+04  0.7818609E-02  0.8028624E-01
       -2   -1    0    0    0  501  0.00000000000E+00  0.00000000000E+00  0.30115362143E+04  0.30115362143E+04  0.25500000920E-02 0. -1.
        2   -1    0    0  501    0  0.00000000000E+00  0.00000000000E+00 -0.12515078205E+04  0.12515078205E+04  0.25500000920E-02 0.  1.
    10030    2    1    2    0    0  0.00000000000E+00  0.00000000000E+00  0.17600283939E+04  0.42630440348E+04  0.38827624825E+04 0.  0.
        4    1    3    3  502    0  0.43536825516E+03  0.17763326037E+04  0.15949891751E+04  0.24267045800E+04  0.12699999809E+01 0. -1.
       -4    1    3    3    0  502 -0.43536825516E+03 -0.17763326037E+04  0.16503921873E+03  0.18363394548E+04  0.12699999809E+01 0.  1.
</event>
<event>
 5   0  0.1187925E-07  0.3928447E+04  0.7818609E-02  0.8019139E-01
       -1   -1    0    0    0  501  0.00000000000E+00  0.00000000000E+00  0.15472829640E+04  0.15472829640E+04  0.50400001928E-02 0. -1.
        1   -1    0    0  501    0  0.00000000000E+00  0.00000000000E+00 -0.24935153757E+04  0.24935153757E+04  0.50400001928E-02 0.  1.
    10030    2    1    2    0    0  0.00000000000E+00  0.00000000000E+00 -0.94623241173E+03  0.40407983397E+04  0.39284469508E+04 0.  0.
        1    1    3    3  502    0 -0.43796620102E+02 -0.10605270340E+04 -0.21731201056E+04  0.24184885212E+04  0.50400001928E-02 0.  1.
       -1    1    3    3    0  502  0.43796620102E+02  0.10605270340E+04  0.12268876939E+04  0.16223098185E+04  0.50400001928E-02 0. -1.
</event>
<event>
 5   0  0.1187925E-07  0.3695034E+04  0.7818609E-02  0.8069063E-01
       -1   -1    0    0    0  501  0.00000000000E+00  0.00000000000E+00  0.20750149593E+04  0.20750149593E+04  0.50400001928E-02 0.  1.
        1   -1    0    0  501    0  0.00000000000E+00  0.00000000000E+00 -0.16449613910E+04  0.16449613910E+04  0.50400001928E-02 0. -1.
    10030    2    1    2    0    0  0.00000000000E+00  0.00000000000E+00  0.43005356837E+03  0.37199763503E+04  0.36950342319E+04 0.  0.
        1    1    3    3  502    0 -0.56181836359E+02 -0.43266388752E+03  0.20224069460E+04  0.20689331293E+04  0.50400001928E-02 0.  1.
       -1    1    3    3    0  502  0.56181836359E+02  0.43266388752E+03 -0.15923533776E+04  0.16510432210E+04  0.50400001928E-02 0. -1.
</event>
<event>
 5   0  0.3810833E-07  0.3898610E+04  0.7818609E-02  0.8025318E-01
        2   -1    0    0  501    0  0.00000000000E+00  0.00000000000E+00  0.18724765950E+04  0.18724765950E+04  0.25500000920E-02 0.  1.
       -2   -1    0    0    0  501  0.00000000000E+00  0.00000000000E+00 -0.20292860091E+04  0.20292860091E+04  0.25500000920E-02 0. -1.
    10030    2    1    2    0    0  0.00000000000E+00  0.00000000000E+00 -0.15680941406E+03  0.39017626041E+04  0.38986102942E+04 0.  0.
        3    1    3    3  502    0  0.11980065234E+04 -0.10883594347E+04 -0.11655816624E+04  0.19945742682E+04  0.10100000352E+00 0. -1.
       -3    1    3    3    0  502 -0.11980065234E+04  0.10883594347E+04  0.10087722484E+04  0.19071883359E+04  0.10100000352E+00 0.  1.
</event>
<event>
 5   0  0.1187925E-07  0.3948248E+04  0.7818609E-02  0.8015069E-01
       -3   -1    0    0    0  501  0.00000000000E+00  0.00000000000E+00  0.19548764908E+04  0.19548764934E+04  0.10100000352E+00 0. -1.
        3   -1    0    0  501    0  0.00000000000E+00  0.00000000000E+00 -0.19935613084E+04  0.19935613109E+04  0.10100000352E+00 0.  1.
    10030    2    1    2    0    0  0.00000000000E+00  0.00000000000E+00 -0.38684817578E+02  0.39484378043E+04  0.39482482925E+04 0.  0.
        4    1    3    3  502    0  0.38759892395E+03 -0.18975354711E+04 -0.40184049519E+03  0.19779664270E+04  0.12699999809E+01 0.  1.
       -4    1    3    3    0  502 -0.38759892395E+03  0.18975354711E+04  0.36315567761E+03  0.19704713773E+04  0.12699999809E+01 0. -1.
</event>
<event>
 5   0  0.3810833E-07  0.3882831E+04  0.7818609E-02  0.8028609E-01
        2   -1    0    0  501    0  0.00000000000E+00  0.00000000000E+00  0.25062319999E+04  0.25062319999E+04  0.25500000920E-02 0.  1.
       -2   -1    0    0    0  501  0.00000000000E+00  0.00000000000E+00 -0.15038889452E+04  0.15038889452E+04  0.25500000920E-02 0. -1.
    10030    2    1    2    0    0  0.00000000000E+00  0.00000000000E+00  0.10023430547E+04  0.40101209451E+04  0.38828312344E+04 0.  0.
        3    1    3    3  502    0  0.95483389465E+03 -0.10464047999E+04 -0.86991269469E+03  0.16623534155E+04  0.10100000352E+00 0. -1.
       -3    1    3    3    0  502 -0.95483389465E+03  0.10464047999E+04  0.18722557494E+04  0.23477675296E+04  0.10100000352E+00 0.  1.
</event>
<event>
 5   0  0.3610483E-07  0.3850953E+04  0.7818609E-02  0.8035308E-01
        2   -1    0    0  501    0  0.00000000000E+00  0.00000000000E+00  0.29417705557E+04  0.29417705557E+04  0.25500000920E-02 0.  1.
       -2   -1    0    0    0  501  0.00000000000E+00  0.00000000000E+00 -0.12602819493E+04  0.12602819493E+04  0.25500000920E-02 0. -1.
    10030    2    1    2    0    0  0.00000000000E+00  0.00000000000E+00  0.16814886064E+04  0.42020525051E+04  0.38509533004E+04 0.  0.
        4    1    3    3  502    0  0.96743381741E+03 -0.40963011465E+03 -0.91998058987E+03  0.13964565588E+04  0.12699999809E+01 0. -1.
       -4    1    3    3    0  502 -0.96743381741E+03  0.40963011465E+03  0.26014691962E+04  0.28055959463E+04  0.12699999809E+01 0.  1.
</event>
<event>
 5   0  0.3680814E-07  0.2806967E+04  0.7818609E-02  0.8301109E-01
        2   -1    0    0  501    0  0.00000000000E+00  0.00000000000E+00  0.18642151225E+04  0.18642151225E+04  0.25500000920E-02 0. -1.
       -2   -1    0    0    0  501  0.00000000000E+00  0.00000000000E+00 -0.10566198006E+04  0.10566198006E+04  0.25500000920E-02 0.  1.
    10030    2    1    2    0    0  0.00000000000E+00  0.00000000000E+00  0.80759532189E+03  0.29208349231E+04  0.28069674819E+04 0.  0.
        1    1    3    3  502    0 -0.50156948931E+03  0.30685396360E+03  0.17298704519E+04  0.18270695356E+04  0.50400001928E-02 0. -1.
       -1    1    3    3    0  502  0.50156948931E+03 -0.30685396360E+03 -0.92227512999E+03  0.10937653876E+04  0.50400001928E-02 0.  1.
</event>
<event>
 5   0  0.3680814E-07  0.3326250E+04  0.7818609E-02  0.8156248E-01
        2   -1    0    0  501    0  0.00000000000E+00  0.00000000000E+00  0.15078885964E+04  0.15078885964E+04  0.25500000920E-02 0.  1.
       -2   -1    0    0    0  501  0.00000000000E+00  0.00000000000E+00 -0.18343433146E+04  0.18343433146E+04  0.25500000920E-02 0. -1.
    10030    2    1    2    0    0  0.00000000000E+00  0.00000000000E+00 -0.32645471821E+03  0.33422319110E+04  0.33262503610E+04 0.  0.
        1    1    3    3  502    0  0.44041420258E+03 -0.16014619216E+04 -0.24931519658E+03  0.16795246421E+04  0.50400001928E-02 0. -1.
       -1    1    3    3    0  502 -0.44041420258E+03  0.16014619216E+04 -0.77139521629E+02  0.16627072689E+04  0.50400001928E-02 0.  1.
</event>
<event>
 5   0  0.1187925E-07  0.3867311E+04  0.7818609E-02  0.8031862E-01
       -1   -1    0    0    0  501  0.00000000000E+00  0.00000000000E+00  0.22927947159E+04  0.22927947159E+04  0.50400001928E-02 0. -1.
        1   -1    0    0  501    0  0.00000000000E+00  0.00000000000E+00 -0.16307714549E+04  0.16307714549E+04  0.50400001928E-02 0.  1.
    10030    2    1    2    0    0  0.00000000000E+00  0.00000000000E+00  0.66202326100E+03  0.39235661709E+04  0.38673113010E+04 0.  0.
        2    1    3    3  502    0  0.65338315849E+03  0.15263112480E+04  0.13366355817E+04  0.21314619996E+04  0.25500000920E-02 0. -1.
       -2    1    3    3    0  502 -0.65338315849E+03 -0.15263112480E+04 -0.67461232068E+03  0.17921041713E+04  0.25500000920E-02 0.  1.
</event>
<event>
 5   0  0.1187925E-07  0.3877256E+04  0.7818609E-02  0.8029776E-01
        1   -1    0    0  501    0  0.00000000000E+00  0.00000000000E+00  0.27131763569E+04  0.27131763569E+04  0.50400001928E-02 0.  1.
       -1   -1    0    0    0  501  0.00000000000E+00  0.00000000000E+00 -0.13851947819E+04  0.13851947819E+04  0.50400001928E-02 0. -1.
    10030    2    1    2    0    0  0.00000000000E+00  0.00000000000E+00  0.13279815749E+04  0.40983711388E+04  0.38772555923E+04 0.  0.
        4    1    3    3  502    0 -0.24800723349E+03  0.13024784916E+04 -0.83099274433E+03  0.15647710257E+04  0.12699999809E+01 0. -1.
       -4    1    3    3    0  502  0.24800723349E+03 -0.13024784916E+04  0.21589743193E+04  0.25336001131E+04  0.12699999809E+01 0.  1.
</event>
<event>
 5   0  0.3832389E-07  0.3906223E+04  0.7818609E-02  0.8023736E-01
       -2   -1    0    0    0  501  0.00000000000E+00  0.00000000000E+00  0.21147708669E+04  0.21147708669E+04  0.25500000920E-02 0. -1.
        2   -1    0    0  501    0  0.00000000000E+00  0.00000000000E+00 -0.18038100228E+04  0.18038100228E+04  0.25500000920E-02 0.  1.
    10030    2    1    2    0    0  0.00000000000E+00  0.00000000000E+00  0.31096084412E+03  0.39185808896E+04  0.39062231813E+04 0.  0.
        5    1    3    3  502    0 -0.28739416275E+02  0.11702299120E+03  0.21110326368E+04  0.21144742179E+04  0.46999998093E+01 0. -1.
       -5    1    3    3    0  502  0.28739416275E+02 -0.11702299120E+03 -0.18000717926E+04  0.18041066718E+04  0.46999998093E+01 0.  1.
</event>
<event>
 5   0  0.1187925E-07  0.3732929E+04  0.7818609E-02  0.8060703E-01
       -1   -1    0    0    0  501  0.00000000000E+00  0.00000000000E+00  0.13638336247E+04  0.13638336247E+04  0.50400001928E-02 0. -1.
        1   -1    0    0  501    0  0.00000000000E+00  0.00000000000E+00 -0.25543365570E+04  0.25543365570E+04  0.50400001928E-02 0.  1.
    10030    2    1    2    0    0  0.00000000000E+00  0.00000000000E+00 -0.11905029323E+04  0.39181701817E+04  0.37329291905E+04 0.  0.
        1    1    3    3  502    0  0.23179929913E+02  0.24716166473E+03 -0.25369312098E+04  0.25490480892E+04  0.50400001928E-02 0.  1.
       -1    1    3    3    0  502 -0.23179929913E+02 -0.24716166473E+03  0.13464282775E+04  0.13691220925E+04  0.50400001928E-02 0. -1.
</event>
<event>
 5   0  0.1187925E-07  0.3907009E+04  0.7818609E-02  0.8023573E-01
        1   -1    0    0  501    0  0.00000000000E+00  0.00000000000E+00  0.27563635474E+04  0.27563635475E+04  0.50400001928E-02 0.  1.
       -1   -1    0    0    0  501  0.00000000000E+00  0.00000000000E+00 -0.13844982789E+04  0.13844982789E+04  0.50400001928E-02 0. -1.
    10030    2    1    2    0    0  0.00000000000E+00  0.00000000000E+00  0.13718652686E+04  0.41408618263E+04  0.39070093870E+04 0.  0.
        4    1    3    3  502    0  0.83830278468E+03  0.17306250147E+04  0.10505664742E+04  0.21912339058E+04  0.12699999809E+01 0. -1.
       -4    1    3    3    0  502 -0.83830278468E+03 -0.17306250147E+04  0.32129879431E+03  0.19496279205E+04  0.12699999809E+01 0.  1.
</event>
<event>
 5   0  0.1187925E-07  0.3768289E+04  0.7818609E-02  0.8052994E-01
        1   -1    0    0  501    0  0.00000000000E+00  0.00000000000E+00  0.21075553041E+04  0.21075553041E+04  0.50400001928E-02 0.  1.
       -1   -1    0    0    0  501  0.00000000000E+00  0.00000000000E+00 -0.16844164919E+04  0.16844164919E+04  0.50400001928E-02 0. -1.
    10030    2    1    2    0    0  0.00000000000E+00  0.00000000000E+00  0.42313881218E+03  0.37919717960E+04  0.37682892202E+04 0.  0.
        5    1    3    3  502    0 -0.83831564647E+03 -0.12095209633E+04 -0.97237265182E+03  0.17638720894E+04  0.46999998093E+01 0. -1.
       -5    1    3    3    0  502  0.83831564647E+03  0.12095209633E+04  0.13955114640E+04  0.20280997066E+04  0.46999998093E+01 0.  1.
</event>
<event>
 5   0  0.3610483E-07  0.3823149E+04  0.7818609E-02  0.8041205E-01
        2   -1    0    0  501    0  0.00000000000E+00  0.00000000000E+00  0.18889264925E+04  0.18889264925E+04  0.25500000920E-02 0.  1.
       -2   -1    0    0    0  501  0.00000000000E+00  0.00000000000E+00 -0.19344942601E+04  0.19344942601E+04  0.25500000920E-02 0. -1.
    10030    2    1    2    0    0  0.00000000000E+00  0.00000000000E+00 -0.45567767592E+02  0.38234207527E+04  0.38231492033E+04 0.  0.
        4    1    3    3  502    0  0.15299632289E+03 -0.11686328487E+04  0.14823164459E+04  0.18937724965E+04  0.12699999809E+01 0.  1.
       -4    1    3    3    0  502 -0.15299632289E+03  0.11686328487E+04 -0.15278842135E+04  0.19296482562E+04  0.12699999809E+01 0. -1.
</event>
<event>
 5   0  0.1187925E-07  0.3908977E+04  0.7818609E-02  0.8023165E-01
       -1   -1    0    0    0  501  0.00000000000E+00  0.00000000000E+00  0.17786956808E+04  0.17786956808E+04  0.50400001928E-02 0. -1.
        1   -1    0    0  501    0  0.00000000000E+00  0.00000000000E+00 -0.21476556499E+04  0.21476556499E+04  0.50400001928E-02 0.  1.
    10030    2    1    2    0    0  0.00000000000E+00  0.00000000000E+00 -0.36895996911E+03  0.39263513307E+04  0.39089772720E+04 0.  0.
        1    1    3    3  502    0  0.19237353534E+04  0.52297099113E+02 -0.52736674865E+03  0.19953967987E+04  0.50400001928E-02 0.  1.
       -1    1    3    3    0  502 -0.19237353534E+04 -0.52297099113E+02  0.15840677954E+03  0.19309545320E+04  0.50400001928E-02 0. -1.
</event>
<event>
 5   0  0.3665303E-07  0.3881587E+04  0.7818609E-02  0.8028870E-01
       -2   -1    0    0    0  501  0.00000000000E+00  0.00000000000E+00  0.16123198403E+04  0.16123198403E+04  0.25500000920E-02 0. -1.
        2   -1    0    0  501    0  0.00000000000E+00  0.00000000000E+00 -0.23361862413E+04  0.23361862413E+04  0.25500000920E-02 0.  1.
    10030    2    1    2    0    0  0.00000000000E+00  0.00000000000E+00 -0.72386640101E+03  0.39485060817E+04  0.38815870093E+04 0.  0.
        2    1    3    3  502    0  0.18409003728E+04 -0.60731500975E+03 -0.45808108851E+03  0.19918795113E+04  0.25500000920E-02 0. -1.
       -2    1    3    3    0  502 -0.18409003728E+04  0.60731500975E+03 -0.26578531250E+03  0.19566265704E+04  0.25500000920E-02 0.  1.
</event>
<event>
 5   0  0.3832389E-07  0.3904983E+04  0.7818609E-02  0.8023994E-01
       -2   -1    0    0    0  501  0.00000000000E+00  0.00000000000E+00  0.17790458176E+04  0.17790458176E+04  0.25500000920E-02 0. -1.
        2   -1    0    0  501    0  0.00000000000E+00  0.00000000000E+00 -0.21428473675E+04  0.21428473675E+04  0.25500000920E-02 0.  1.
    10030    2    1    2    0    0  0.00000000000E+00  0.00000000000E+00 -0.36380154994E+03  0.39218931851E+04  0.39049833018E+04 0.  0.
        5    1    3    3  502    0  0.14965971487E+04 -0.48639480587E+03 -0.13426818723E+04  0.20686226414E+04  0.46999998093E+01 0.  1.
       -5    1    3    3    0  502 -0.14965971487E+04  0.48639480587E+03  0.97888032231E+03  0.18532705437E+04  0.46999998093E+01 0. -1.
</event>
<event>
 5   0  0.1187925E-07  0.3907048E+04  0.7818609E-02  0.8023565E-01
        1   -1    0    0  501    0  0.00000000000E+00  0.00000000000E+00  0.13003907767E+04  0.13003907767E+04  0.50400001928E-02 0.  1.
       -1   -1    0    0    0  501  0.00000000000E+00  0.00000000000E+00 -0.29346994348E+04  0.29346994348E+04  0.50400001928E-02 0. -1.
    10030    2    1    2    0    0  0.00000000000E+00  0.00000000000E+00 -0.16343086582E+04  0.42350902115E+04  0.39070480301E+04 0.  0.
        3    1    3    3  502    0 -0.34749642618E+03  0.15563572755E+04 -0.20402811703E+04  0.25895460991E+04  0.10100000352E+00 0. -1.
       -3    1    3    3    0  502  0.34749642618E+03 -0.15563572755E+04  0.40597251219E+03  0.16455441124E+04  0.10100000352E+00 0.  1.
</event>
<event>
 5   0  0.1187925E-07  0.3898048E+04  0.7818609E-02  0.8025435E-01
       -1   -1    0    0    0  501  0.00000000000E+00  0.00000000000E+00  0.32649369551E+04  0.32649369551E+04  0.50400001928E-02 0. -1.
        1   -1    0    0  501    0  0.00000000000E+00  0.00000000000E+00 -0.11634817863E+04  0.11634817863E+04  0.50400001928E-02 0.  1.
    10030    2    1    2    0    0  0.00000000000E+00  0.00000000000E+00  0.21014551688E+04  0.44284187414E+04  0.38980480657E+04 0.  0.
        5    1    3    3  502    0 -0.16935096180E+04  0.77402288473E+03  0.17049114133E+04  0.25246447809E+04  0.46999998093E+01 0. -1.
       -5    1    3    3    0  502  0.16935096180E+04 -0.77402288473E+03  0.39654375553E+03  0.19037739605E+04  0.46999998093E+01 0.  1.
</event>
<event>
 5   0  0.3665303E-07  0.3842226E+04  0.7818609E-02  0.8037154E-01
       -2   -1    0    0    0  501  0.00000000000E+00  0.00000000000E+00  0.23929009333E+04  0.23929009333E+04  0.25500000920E-02 0. -1.
        2   -1    0    0  501    0  0.00000000000E+00  0.00000000000E+00 -0.15423433309E+04  0.15423433309E+04  0.25500000920E-02 0.  1.
    10030    2    1    2    0    0  0.00000000000E+00  0.00000000000E+00  0.85055760242E+03  0.39352442643E+04  0.38422258112E+04 0.  0.
        2    1    3    3  502    0  0.61677508920E+03 -0.39390367243E+03 -0.13939846420E+04  0.15744093483E+04  0.25500000920E-02 0.  1.
       -2    1    3    3    0  502 -0.61677508920E+03  0.39390367243E+03  0.22445422444E+04  0.23608349160E+04  0.25500000920E-02 0. -1.
</event>
<event>
 5   0  0.1187925E-07  0.4009603E+04  0.7818609E-02  0.8002612E-01
       -1   -1    0    0    0  501  0.00000000000E+00  0.00000000000E+00  0.27190207284E+04  0.27190207284E+04  0.50400001928E-02 0.  1.
        1   -1    0    0  501    0  0.00000000000E+00  0.00000000000E+00 -0.14781898603E+04  0.14781898604E+04  0.50400001928E-02 0. -1.
    10030    2    1    2    0    0  0.00000000000E+00  0.00000000000E+00  0.12408308681E+04  0.41972105888E+04  0.40096029084E+04 0.  0.
        4    1    3    3  502    0 -0.50457573817E+03 -0.19352909713E+04  0.47506826081E+03  0.20556359805E+04  0.12699999809E+01 0. -1.
       -4    1    3    3    0  502  0.50457573817E+03  0.19352909713E+04  0.76576260725E+03  0.21415746082E+04  0.12699999809E+01 0.  1.
</event>
<event>
 5   0  0.3810833E-07  0.3924280E+04  0.7818609E-02  0.8019998E-01
        2   -1    0    0  501    0  0.00000000000E+00  0.00000000000E+00  0.23464558785E+04  0.23464558785E+04  0.25500000920E-02 0.  1.
       -2   -1    0    0    0  501  0.00000000000E+00  0.00000000000E+00 -0.16407691859E+04  0.16407691859E+04  0.25500000920E-02 0. -1.
    10030    2    1    2    0    0  0.00000000000E+00  0.00000000000E+00  0.70568669264E+03  0.39872250645E+04  0.39242795525E+04 0.  0.
        3    1    3    3  502    0 -0.52251354862E+03  0.19415163773E+03 -0.15586293721E+04  0.16553068588E+04  0.10100000352E+00 0. -1.
       -3    1    3    3    0  502  0.52251354862E+03 -0.19415163773E+03  0.22643160647E+04  0.23319182057E+04  0.10100000352E+00 0.  1.
</event>
<event>
 5   0  0.3832389E-07  0.3924417E+04  0.7818609E-02  0.8019970E-01
       -2   -1    0    0    0  501  0.00000000000E+00  0.00000000000E+00  0.14240691697E+04  0.14240691697E+04  0.25500000920E-02 0.  1.
        2   -1    0    0  501    0  0.00000000000E+00  0.00000000000E+00 -0.27037042957E+04  0.27037042957E+04  0.25500000920E-02 0. -1.
    10030    2    1    2    0    0  0.00000000000E+00  0.00000000000E+00 -0.12796351260E+04  0.41277734655E+04  0.39244168645E+04 0.  0.
        5    1    3    3  502    0 -0.37218379319E+03 -0.17146905410E+04  0.28408098219E+03  0.17774725094E+04  0.46999998093E+01 0.  1.
       -5    1    3    3    0  502  0.37218379319E+03  0.17146905410E+04 -0.15637161082E+04  0.23503009561E+04  0.46999998093E+01 0. -1.
</event>
<event>
 5   0  0.3610483E-07  0.3859400E+04  0.7818609E-02  0.8033527E-01
        2   -1    0    0  501    0  0.00000000000E+00  0.00000000000E+00  0.23883591026E+04  0.23883591026E+04  0.25500000920E-02 0.  1.
       -2   -1    0    0    0  501  0.00000000000E+00  0.00000000000E+00 -0.15591214582E+04  0.15591214582E+04  0.25500000920E-02 0. -1.
    10030    2    1    2    0    0  0.00000000000E+00  0.00000000000E+00  0.82923764438E+03  0.39474805607E+04  0.38593999153E+04 0.  0.
        4    1    3    3  502    0  0.11184572227E+04  0.97569241452E+02 -0.11906825550E+04  0.16365185228E+04  0.12699999809E+01 0. -1.
       -4    1    3    3    0  502 -0.11184572227E+04 -0.97569241452E+02  0.20199201993E+04  0.23109620379E+04  0.12699999809E+01 0.  1.
</event>
<event>
 5   0  0.1187925E-07  0.3896635E+04  0.7818609E-02  0.8025730E-01
       -1   -1    0    0    0  501  0.00000000000E+00  0.00000000000E+00  0.19109729579E+04  0.19109729579E+04  0.50400001928E-02 0.  1.
        1   -1    0    0  501    0  0.00000000000E+00  0.00000000000E+00 -0.19863913726E+04  0.19863913726E+04  0.50400001928E-02 0. -1.
    10030    2    1    2    0    0  0.00000000000E+00  0.00000000000E+00 -0.75418414689E+02  0.38973643306E+04  0.38966345464E+04 0.  0.
        4    1    3    3  502    0 -0.96883229873E+03 -0.73232519932E+01 -0.17283656702E+04  0.19813982830E+04  0.12699999809E+01 0. -1.
       -4    1    3    3    0  502  0.96883229873E+03  0.73232519932E+01  0.16529472555E+04  0.19159660476E+04  0.12699999809E+01 0.  1.
</event>
<event>
 5   0  0.3680814E-07  0.3891724E+04  0.7818609E-02  0.8026753E-01
       -2   -1    0    0    0  501  0.00000000000E+00  0.00000000000E+00  0.11586224590E+04  0.11586224590E+04  0.25500000920E-02 0. -1.
        2   -1    0    0  501    0  0.00000000000E+00  0.00000000000E+00 -0.32680011930E+04  0.32680011930E+04  0.25500000920E-02 0.  1.
    10030    2    1    2    0    0  0.00000000000E+00  0.00000000000E+00 -0.21093787341E+04  0.44266236520E+04  0.38917243367E+04 0.  0.
        1    1    3    3  502    0 -0.89148911793E+03 -0.25315205736E+03 -0.30008648880E+04  0.31407051577E+04  0.50400001928E-02 0.  1.
       -1    1    3    3    0  502  0.89148911793E+03  0.25315205736E+03  0.89148615389E+03  0.12859184944E+04  0.50400001928E-02 0. -1.
</event>
<event>
 5   0  0.1187925E-07  0.3917679E+04  0.7818609E-02  0.8021362E-01
       -1   -1    0    0    0  501  0.00000000000E+00  0.00000000000E+00  0.18828396625E+04  0.18828396625E+04  0.50400001928E-02 0.  1.
        1   -1    0    0  501    0  0.00000000000E+00  0.00000000000E+00 -0.20379070313E+04  0.20379070313E+04  0.50400001928E-02 0. -1.
    10030    2    1    2    0    0  0.00000000000E+00  0.00000000000E+00 -0.15506736878E+03  0.39207466938E+04  0.39176790001E+04 0.  0.
        1    1    3    3  502    0  0.16420590181E+04  0.90807321152E+03 -0.64019933753E+03  0.19826270371E+04  0.50400001928E-02 0.  1.
       -1    1    3    3    0  502 -0.16420590181E+04 -0.90807321152E+03  0.48513196874E+03  0.19381196567E+04  0.50400001928E-02 0. -1.
</event>
<event>
 5   0  0.3610483E-07  0.3982888E+04  0.7818609E-02  0.8008008E-01
        2   -1    0    0  501    0  0.00000000000E+00  0.00000000000E+00  0.23337742151E+04  0.23337742151E+04  0.25500000920E-02 0. -1.
       -2   -1    0    0    0  501  0.00000000000E+00  0.00000000000E+00 -0.16993284018E+04  0.16993284018E+04  0.25500000920E-02 0.  1.
    10030    2    1    2    0    0  0.00000000000E+00  0.00000000000E+00  0.63444581330E+03  0.40331026170E+04  0.39828878002E+04 0.  0.
        4    1    3    3  502    0  0.93869480381E+03 -0.56982733879E+03 -0.13650460515E+04  0.17519142291E+04  0.12699999809E+01 0.  1.
       -4    1    3    3    0  502 -0.93869480381E+03  0.56982733879E+03  0.19994918647E+04  0.22811883878E+04  0.12699999809E+01 0. -1.
</event>
<event>
 5   0  0.1187925E-07  0.3895886E+04  0.7818609E-02  0.8025885E-01
        1   -1    0    0  501    0  0.00000000000E+00  0.00000000000E+00  0.22134104473E+04  0.22134104473E+04  0.50400001928E-02 0. -1.
       -1   -1    0    0    0  501  0.00000000000E+00  0.00000000000E+00 -0.17143142028E+04  0.17143142028E+04  0.50400001928E-02 0.  1.
    10030    2    1    2    0    0  0.00000000000E+00  0.00000000000E+00  0.49909624450E+03  0.39277246500E+04  0.38958855046E+04 0.  0.
        1    1    3    3  502    0  0.17707402494E+04  0.26822502973E+03  0.10219788613E+04  0.20620151528E+04  0.50400001928E-02 0. -1.
       -1    1    3    3    0  502 -0.17707402494E+04 -0.26822502973E+03 -0.52288261677E+03  0.18657094973E+04  0.50400001928E-02 0.  1.
</event>
<event>
 5   0  0.3832389E-07  0.3857446E+04  0.7818609E-02  0.8033938E-01
       -2   -1    0    0    0  501  0.00000000000E+00  0.00000000000E+00  0.20468331362E+04  0.20468331362E+04  0.25500000920E-02 0. -1.
        2   -1    0    0  501    0  0.00000000000E+00  0.00000000000E+00 -0.18174286935E+04  0.18174286935E+04  0.25500000920E-02 0.  1.
    10030    2    1    2    0    0  0.00000000000E+00  0.00000000000E+00  0.22940444273E+03  0.38642618297E+04  0.38574464468E+04 0.  0.
        5    1    3    3  502    0 -0.18178788893E+03 -0.16820876365E+04 -0.81293900104E+03  0.18770608841E+04  0.46999998093E+01 0.  1.
       -5    1    3    3    0  502  0.18178788893E+03  0.16820876365E+04  0.10423434438E+04  0.19872009456E+04  0.46999998093E+01 0. -1.
</event>
<event>
 5   0  0.3832389E-07  0.3967164E+04  0.7818609E-02  0.8011203E-01
        2   -1    0    0  501    0  0.00000000000E+00  0.00000000000E+00  0.20141287692E+04  0.20141287692E+04  0.25500000920E-02 0.  1.
       -2   -1    0    0    0  501  0.00000000000E+00  0.00000000000E+00 -0.19534989645E+04  0.19534989645E+04  0.25500000920E-02 0. -1.
    10030    2    1    2    0    0  0.00000000000E+00  0.00000000000E+00  0.60629804692E+02  0.39676277336E+04  0.39671644608E+04 0.  0.
        5    1    3    3  502    0 -0.86289278558E+03  0.46427681123E+03 -0.16945428279E+04  0.19574561049E+04  0.46999998093E+01 0. -1.
       -5    1    3    3    0  502  0.86289278558E+03 -0.46427681123E+03  0.17551726326E+04  0.20101716288E+04  0.46999998093E+01 0.  1.
</event>
<event>
 5   0  0.3665303E-07  0.3955051E+04  0.7818609E-02  0.8013676E-01
        2   -1    0    0  501    0  0.00000000000E+00  0.00000000000E+00  0.24134050521E+04  0.24134050521E+04  0.25500000920E-02 0.  1.
       -2   -1    0    0    0  501  0.00000000000E+00  0.00000000000E+00 -0.16203694209E+04  0.16203694209E+04  0.25500000920E-02 0. -1.
    10030    2    1    2    0    0  0.00000000000E+00  0.00000000000E+00  0.79303563129E+03  0.40337744730E+04  0.39550513254E+04 0.  0.
        2    1    3    3  502    0  0.10393555170E+04 -0.14823169855E+04  0.12080210040E+04  0.21764278721E+04  0.25500000920E-02 0.  1.
       -2    1    3    3    0  502 -0.10393555170E+04  0.14823169855E+04 -0.41498537267E+03  0.18573466009E+04  0.25500000920E-02 0. -1.
</event>
<event>
 5   0  0.3665303E-07  0.3125984E+04  0.7818609E-02  0.8208643E-01
        2   -1    0    0  501    0  0.00000000000E+00  0.00000000000E+00  0.22598729824E+04  0.22598729824E+04  0.25500000920E-02 0.  1.
       -2   -1    0    0    0  501  0.00000000000E+00  0.00000000000E+00 -0.10810097326E+04  0.10810097326E+04  0.25500000920E-02 0. -1.
    10030    2    1    2    0    0  0.00000000000E+00  0.00000000000E+00  0.11788632498E+04  0.33408827150E+04  0.31259844456E+04 0.  0.
        2    1    3    3  502    0 -0.63696801698E+03  0.11028912620E+04  0.15577219742E+04  0.20121121090E+04  0.25500000920E-02 0.  1.
       -2    1    3    3    0  502  0.63696801698E+03 -0.11028912620E+04 -0.37885872432E+03  0.13287706060E+04  0.25500000920E-02 0. -1.
</event>
<event>
 5   0  0.3680814E-07  0.3912323E+04  0.7818609E-02  0.8022471E-01
       -2   -1    0    0    0  501  0.00000000000E+00  0.00000000000E+00  0.31721197514E+04  0.31721197514E+04  0.25500000920E-02 0.  1.
        2   -1    0    0  501    0  0.00000000000E+00  0.00000000000E+00 -0.12063125710E+04  0.12063125710E+04  0.25500000920E-02 0. -1.
    10030    2    1    2    0    0  0.00000000000E+00  0.00000000000E+00  0.19658071804E+04  0.43784323224E+04  0.39123230607E+04 0.  0.
        1    1    3    3  502    0  0.78903221562E+03 -0.15850902617E+04  0.52277336514E+02  0.17713881266E+04  0.50400001928E-02 0.  1.
       -1    1    3    3    0  502 -0.78903221562E+03  0.15850902617E+04  0.19135298439E+04  0.26070441958E+04  0.50400001928E-02 0. -1.
</event>
<event>
 5   0  0.1187925E-07  0.3878669E+04  0.7818609E-02  0.8029480E-01
       -1   -1    0    0    0  501  0.00000000000E+00  0.00000000000E+00  0.17841777009E+04  0.17841777009E+04  0.50400001928E-02 0. -1.
        1   -1    0    0  501    0  0.00000000000E+00  0.00000000000E+00 -0.21079844405E+04  0.21079844405E+04  0.50400001928E-02 0.  1.
    10030    2    1    2    0    0  0.00000000000E+00  0.00000000000E+00 -0.32380673957E+03  0.38921621414E+04  0.38786692732E+04 0.  0.
        5    1    3    3  502    0  0.12899849689E+04  0.14451415910E+04 -0.69380101735E+02  0.19383836376E+04  0.46999998093E+01 0. -1.
       -5    1    3    3    0  502 -0.12899849689E+04 -0.14451415910E+04 -0.25442663783E+03  0.19537785038E+04  0.46999998093E+01 0.  1.
</event>
<event>
 5   0  0.1187925E-07  0.3872839E+04  0.7818609E-02  0.8030702E-01
       -1   -1    0    0    0  501  0.00000000000E+00  0.00000000000E+00  0.25850246209E+04  0.25850246209E+04  0.50400001928E-02 0.  1.
        1   -1    0    0  501    0  0.00000000000E+00  0.00000000000E+00 -0.14505546901E+04  0.14505546902E+04  0.50400001928E-02 0. -1.
    10030    2    1    2    0    0  0.00000000000E+00  0.00000000000E+00  0.11344699308E+04  0.40355793111E+04  0.38728385394E+04 0.  0.
        3    1    3    3  502    0  0.74574995724E+02 -0.96924516845E+03 -0.11778693894E+04  0.15272111626E+04  0.10100000352E+00 0. -1.
       -3    1    3    3    0  502 -0.74574995724E+02  0.96924516845E+03  0.23123393202E+04  0.25083681485E+04  0.10100000352E+00 0.  1.
</event>
<event>
 5   0  0.3810833E-07  0.3743336E+04  0.7818609E-02  0.8058425E-01
        2   -1    0    0  501    0  0.00000000000E+00  0.00000000000E+00  0.22884492492E+04  0.22884492492E+04  0.25500000920E-02 0.  1.
       -2   -1    0    0    0  501  0.00000000000E+00  0.00000000000E+00 -0.15307925009E+04  0.15307925009E+04  0.25500000920E-02 0. -1.
    10030    2    1    2    0    0  0.00000000000E+00  0.00000000000E+00  0.75765674828E+03  0.38192417501E+04  0.37433359183E+04 0.  0.
        3    1    3    3  502    0 -0.17722725530E+04  0.13621058629E+03  0.97692134013E+03  0.20282698639E+04  0.10100000352E+00 0.  1.
       -3    1    3    3    0  502  0.17722725530E+04 -0.13621058629E+03 -0.21926459185E+03  0.17909718862E+04  0.10100000352E+00 0. -1.
</event>
<event>
 5   0  0.1187925E-07  0.3984978E+04  0.7818609E-02  0.8007584E-01
       -1   -1    0    0    0  501  0.00000000000E+00  0.00000000000E+00  0.24384868510E+04  0.24384868510E+04  0.50400001928E-02 0.  1.
        1   -1    0    0  501    0  0.00000000000E+00  0.00000000000E+00 -0.16280642899E+04  0.16280642899E+04  0.50400001928E-02 0. -1.
    10030    2    1    2    0    0  0.00000000000E+00  0.00000000000E+00  0.81042256110E+03  0.40665511410E+04  0.39849784761E+04 0.  0.
        1    1    3    3  502    0 -0.59757478189E+03 -0.12326856886E+03 -0.15303819553E+04  0.16475313924E+04  0.50400001928E-02 0. -1.
       -1    1    3    3    0  502  0.59757478189E+03  0.12326856886E+03  0.23408045164E+04  0.24190197485E+04  0.50400001928E-02 0.  1.
</event>
<event>
 5   0  0.3665303E-07  0.3266211E+04  0.7818609E-02  0.8171547E-01
        2   -1    0    0  501    0  0.00000000000E+00  0.00000000000E+00  0.22559420385E+04  0.22559420385E+04  0.25500000920E-02 0. -1.
       -2   -1    0    0    0  501  0.00000000000E+00  0.00000000000E+00 -0.11822260388E+04  0.11822260389E+04  0.25500000920E-02 0.  1.
    10030    2    1    2    0    0  0.00000000000E+00  0.00000000000E+00  0.10737159996E+04  0.34381680773E+04  0.32662109056E+04 0.  0.
        2    1    3    3  502    0 -0.49662694333E+03  0.93805377852E+03 -0.76963387054E+03  0.13110757060E+04  0.25500000920E-02 0.  1.
       -2    1    3    3    0  502  0.49662694333E+03 -0.93805377852E+03  0.18433498701E+04  0.21270923713E+04  0.25500000920E-02 0. -1.
</event>
<event>
 5   0  0.1187925E-07  0.3894645E+04  0.7818609E-02  0.8026144E-01
        1   -1    0    0  501    0  0.00000000000E+00  0.00000000000E+00  0.23723471310E+04  0.23723471311E+04  0.50400001928E-02 0. -1.
       -1   -1    0    0    0  501  0.00000000000E+00  0.00000000000E+00 -0.15984446387E+04  0.15984446387E+04  0.50400001928E-02 0.  1.
    10030    2    1    2    0    0  0.00000000000E+00  0.00000000000E+00  0.77390249236E+03  0.39707917698E+04  0.38946453254E+04 0.  0.
        4    1    3    3  502    0 -0.63184582817E+03 -0.27290429181E+03 -0.14703006936E+04  0.16234197379E+04  0.12699999809E+01 0.  1.
       -4    1    3    3    0  502  0.63184582817E+03  0.27290429181E+03  0.22442031859E+04  0.23473720318E+04  0.12699999809E+01 0. -1.
</event>
<event>
 5   0  0.1187925E-07  0.3912800E+04  0.7818609E-02  0.8022372E-01
       -1   -1    0    0    0  501  0.00000000000E+00  0.00000000000E+00  0.19403685258E+04  0.19403685258E+04  0.50400001928E-02 0.  1.
        1   -1    0    0  501    0  0.00000000000E+00  0.00000000000E+00 -0.19725636910E+04  0.19725636910E+04  0.50400001928E-02 0. -1.
    10030    2    1    2    0    0  0.00000000000E+00  0.00000000000E+00 -0.32195165214E+02  0.39129322168E+04  0.39127997654E+04 0.  0.
        1    1    3    3  502    0 -0.69351437452E+03 -0.14392154563E+03 -0.18398437463E+04  0.19714716863E+04  0.50400001928E-02 0. -1.
       -1    1    3    3    0  502  0.69351437452E+03  0.14392154563E+03  0.18076485811E+04  0.19414605305E+04  0.50400001928E-02 0.  1.
</event>
<event>
 5   0  0.1187925E-07  0.3233348E+04  0.7818609E-02  0.8180065E-01
        1   -1    0    0  501    0  0.00000000000E+00  0.00000000000E+00  0.91835883387E+03  0.91835883388E+03  0.50400001928E-02 0.  1.
       -1   -1    0    0    0  501  0.00000000000E+00  0.00000000000E+00 -0.28459836274E+04  0.28459836274E+04  0.50400001928E-02 0. -1.
    10030    2    1    2    0    0  0.00000000000E+00  0.00000000000E+00 -0.19276247935E+04  0.37643424613E+04  0.32333476184E+04 0.  0.
        2    1    3    3  502    0 -0.34194267768E+03  0.88629807764E+02 -0.28005049000E+04  0.28226951186E+04  0.25500000920E-02 0. -1.
       -2    1    3    3    0  502  0.34194267768E+03 -0.88629807764E+02  0.87288010648E+03  0.94164734266E+03  0.25500000920E-02 0.  1.
</event>
<event>
 5   0  0.1187925E-07  0.3733097E+04  0.7818609E-02  0.8060666E-01
       -1   -1    0    0    0  501  0.00000000000E+00  0.00000000000E+00  0.28277317314E+04  0.28277317314E+04  0.50400001928E-02 0. -1.
        1   -1    0    0  501    0  0.00000000000E+00  0.00000000000E+00 -0.12320842041E+04  0.12320842041E+04  0.50400001928E-02 0.  1.
    10030    2    1    2    0    0  0.00000000000E+00  0.00000000000E+00  0.15956475273E+04  0.40598159356E+04  0.37330971591E+04 0.  0.
        5    1    3    3  502    0  0.32087265904E+03  0.13827910648E+03  0.27918438081E+04  0.28136265412E+04  0.46999998093E+01 0. -1.
       -5    1    3    3    0  502 -0.32087265904E+03 -0.13827910648E+03 -0.11961962808E+04  0.12461893944E+04  0.46999998093E+01 0.  1.
</event>
<event>
 5   0  0.3610483E-07  0.3918012E+04  0.7818609E-02  0.8021293E-01
        2   -1    0    0  501    0  0.00000000000E+00  0.00000000000E+00  0.17076529886E+04  0.17076529886E+04  0.25500000920E-02 0. -1.
       -2   -1    0    0    0  501  0.00000000000E+00  0.00000000000E+00 -0.22473561542E+04  0.22473561542E+04  0.25500000920E-02 0.  1.
    10030    2    1    2    0    0  0.00000000000E+00  0.00000000000E+00 -0.53970316559E+03  0.39550091427E+04  0.39180119719E+04 0.  0.
        4    1    3    3  502    0  0.14404300229E+04 -0.19147103801E+03 -0.15961085259E+04  0.21584864717E+04  0.12699999809E+01 0.  1.
       -4    1    3    3    0  502 -0.14404300229E+04  0.19147103801E+03  0.10564053603E+04  0.17965226710E+04  0.12699999809E+01 0. -1.
</event>
<event>
 5   0  0.3610483E-07  0.3914259E+04  0.7818609E-02  0.8022070E-01
       -2   -1    0    0    0  501  0.00000000000E+00  0.00000000000E+00  0.17327182821E+04  0.17327182821E+04  0.25500000920E-02 0. -1.
        2   -1    0    0  501    0  0.00000000000E+00  0.00000000000E+00 -0.22106046296E+04  0.22106046296E+04  0.25500000920E-02 0.  1.
    10030    2    1    2    0    0  0.00000000000E+00  0.00000000000E+00 -0.47788634748E+03  0.39433229118E+04  0.39142585793E+04 0.  0.
        4    1    3    3  502    0 -0.17142414780E+03 -0.16011961169E+04  0.88158282753E+03  0.18358663181E+04  0.12699999809E+01 0. -1.
       -4    1    3    3    0  502  0.17142414780E+03  0.16011961169E+04 -0.13594691750E+04  0.21074565936E+04  0.12699999809E+01 0.  1.
</event>
<event>
 5   0  0.1187925E-07  0.3700898E+04  0.7818609E-02  0.8067763E-01
       -1   -1    0    0    0  501  0.00000000000E+00  0.00000000000E+00  0.21309097283E+04  0.21309097283E+04  0.50400001928E-02 0. -1.
        1   -1    0    0  501    0  0.00000000000E+00  0.00000000000E+00 -0.16069009932E+04  0.16069009932E+04  0.50400001928E-02 0.  1.
    10030    2    1    2    0    0  0.00000000000E+00  0.00000000000E+00  0.52400873512E+03  0.37378107216E+04  0.37008977067E+04 0.  0.
        2    1    3    3  502    0  0.49456599434E+03  0.93978856425E+03  0.17924943246E+04  0.20834668157E+04  0.25500000920E-02 0. -1.
       -2    1    3    3    0  502 -0.49456599434E+03 -0.93978856425E+03 -0.12684855895E+04  0.16543439059E+04  0.25500000920E-02 0.  1.
</event>
<event>
 5   0  0.3610483E-07  0.3960451E+04  0.7818609E-02  0.8012573E-01
       -2   -1    0    0    0  501  0.00000000000E+00  0.00000000000E+00  0.18345637138E+04  0.18345637138E+04  0.25500000920E-02 0. -1.
        2   -1    0    0  501    0  0.00000000000E+00  0.00000000000E+00 -0.21374529790E+04  0.21374529790E+04  0.25500000920E-02 0.  1.
    10030    2    1    2    0    0  0.00000000000E+00  0.00000000000E+00 -0.30288926525E+03  0.39720166928E+04  0.39604513254E+04 0.  0.
        4    1    3    3  502    0 -0.32925697085E+03  0.19305067643E+04  0.14271298197E+03  0.19635771255E+04  0.12699999809E+01 0.  1.
       -4    1    3    3    0  502  0.32925697085E+03 -0.19305067643E+04 -0.44560224722E+03  0.20084395673E+04  0.12699999809E+01 0. -1.
</event>
<event>
 5   0  0.3680814E-07  0.3993933E+04  0.7818609E-02  0.8005772E-01
       -2   -1    0    0    0  501  0.00000000000E+00  0.00000000000E+00  0.13557233505E+04  0.13557233505E+04  0.25500000920E-02 0. -1.
        2   -1    0    0  501    0  0.00000000000E+00  0.00000000000E+00 -0.29415115305E+04  0.29415115305E+04  0.25500000920E-02 0.  1.
    10030    2    1    2    0    0  0.00000000000E+00  0.00000000000E+00 -0.15857881800E+04  0.42972348811E+04  0.39939333334E+04 0.  0.
        1    1    3    3  502    0 -0.64712365888E+03 -0.17251298832E+04  0.35673566503E+02  0.18428550532E+04  0.50400001928E-02 0. -1.
       -1    1    3    3    0  502  0.64712365888E+03  0.17251298832E+04 -0.16214617465E+04  0.24543798278E+04  0.50400001928E-02 0.  1.
</event>
<event>
 5   0  0.3610483E-07  0.3874109E+04  0.7818609E-02  0.8030436E-01
        2   -1    0    0  501    0  0.00000000000E+00  0.00000000000E+00  0.25460337065E+04  0.25460337065E+04  0.25500000920E-02 0. -1.
       -2   -1    0    0    0  501  0.00000000000E+00  0.00000000000E+00 -0.14737358236E+04  0.14737358236E+04  0.25500000920E-02 0.  1.
    10030    2    1    2    0    0  0.00000000000E+00  0.00000000000E+00  0.10722978828E+04  0.40197695301E+04  0.38741094881E+04 0.  0.
        4    1    3    3  502    0  0.17418443818E+04  0.26934464236E+03 -0.29756056129E+03  0.17874877027E+04  0.12699999809E+01 0.  1.
       -4    1    3    3    0  502 -0.17418443818E+04 -0.26934464236E+03  0.13698584441E+04  0.22322818274E+04  0.12699999809E+01 0. -1.
</event>
<event>
 5   0  0.1187925E-07  0.3902051E+04  0.7818609E-02  0.8024603E-01
       -1   -1    0    0    0  501  0.00000000000E+00  0.00000000000E+00  0.30048534934E+04  0.30048534934E+04  0.50400001928E-02 0.  1.
        1   -1    0    0  501    0  0.00000000000E+00  0.00000000000E+00 -0.12667838522E+04  0.12667838522E+04  0.50400001928E-02 0. -1.
    10030    2    1    2    0    0  0.00000000000E+00  0.00000000000E+00  0.17380696411E+04  0.42716373456E+04  0.39020506833E+04 0.  0.
        5    1    3    3  502    0 -0.70286251950E+03 -0.37827560364E+03  0.28179274600E+04  0.29287958983E+04  0.46999998093E+01 0.  1.
       -5    1    3    3    0  502  0.70286251950E+03  0.37827560364E+03 -0.10798578189E+04  0.13428414473E+04  0.46999998093E+01 0. -1.
</event>
<event>
 5   0  0.3832389E-07  0.3605158E+04  0.7818609E-02  0.8089311E-01
       -2   -1    0    0    0  501  0.00000000000E+00  0.00000000000E+00  0.12303503139E+04  0.12303503139E+04  0.25500000920E-02 0.  1.
        2   -1    0    0  501    0  0.00000000000E+00  0.00000000000E+00 -0.26409484526E+04  0.26409484526E+04  0.25500000920E-02 0. -1.
    10030    2    1    2    0    0  0.00000000000E+00  0.00000000000E+00 -0.14105981387E+04  0.38712987665E+04  0.36051583918E+04 0.  0.
        5    1    3    3  502    0  0.42569875513E+03  0.70254341750E+03  0.10176694876E+04  0.13078455411E+04  0.46999998093E+01 0.  1.
       -5    1    3    3    0  502 -0.42569875513E+03 -0.70254341750E+03 -0.24282676263E+04  0.25634532253E+04  0.46999998093E+01 0. -1.
</event>
<event>
 5   0  0.1187925E-07  0.3926685E+04  0.7818609E-02  0.8019502E-01
       -1   -1    0    0    0  501  0.00000000000E+00  0.00000000000E+00  0.15951332022E+04  0.15951332022E+04  0.50400001928E-02 0.  1.
        1   -1    0    0  501    0  0.00000000000E+00  0.00000000000E+00 -0.24165463105E+04  0.24165463105E+04  0.50400001928E-02 0. -1.
    10030    2    1    2    0    0  0.00000000000E+00  0.00000000000E+00 -0.82141310830E+03  0.40116795127E+04  0.39266847362E+04 0.  0.
        5    1    3    3  502    0 -0.43265671744E+03  0.45673336145E+03 -0.23107731403E+04  0.23948886810E+04  0.46999998093E+01 0. -1.
       -5    1    3    3    0  502  0.43265671744E+03 -0.45673336145E+03  0.14893600320E+04  0.16167908317E+04  0.46999998093E+01 0.  1.
</event>
<event>
 5   0  0.1187925E-07  0.3486421E+04  0.7818609E-02  0.8117016E-01
        1   -1    0    0  501    0  0.00000000000E+00  0.00000000000E+00  0.16008643153E+04  0.16008643153E+04  0.50400001928E-02 0.  1.
       -1   -1    0    0    0  501  0.00000000000E+00  0.00000000000E+00 -0.18982135266E+04  0.18982135266E+04  0.50400001928E-02 0. -1.
    10030    2    1    2    0    0  0.00000000000E+00  0.00000000000E+00 -0.29734921127E+03  0.34990778419E+04  0.34864206846E+04 0.  0.
        3    1    3    3  502    0 -0.13378735844E+04 -0.53081833853E+03  0.83831232902E+03  0.16656654549E+04  0.10100000352E+00 0.  1.
       -3    1    3    3    0  502  0.13378735844E+04  0.53081833853E+03 -0.11356615403E+04  0.18334123870E+04  0.10100000352E+00 0. -1.
</event>
<event>
 5   0  0.3810833E-07  0.3899059E+04  0.7818609E-02  0.8025225E-01
        2   -1    0    0  501    0  0.00000000000E+00  0.00000000000E+00  0.25939046468E+04  0.25939046468E+04  0.25500000920E-02 0. -1.
       -2   -1    0    0    0  501  0.00000000000E+00  0.00000000000E+00 -0.14652297337E+04  0.14652297337E+04  0.25500000920E-02 0.  1.
    10030    2    1    2    0    0  0.00000000000E+00  0.00000000000E+00  0.11286749131E+04  0.40591343805E+04  0.38990594840E+04 0.  0.
        3    1    3    3  502    0 -0.13490145847E+04 -0.12768371210E+04 -0.52009878522E+02  0.18581868639E+04  0.10100000352E+00 0.  1.
       -3    1    3    3    0  502  0.13490145847E+04  0.12768371210E+04  0.11806847917E+04  0.22009475166E+04  0.10100000352E+00 0. -1.
</event>
<event>
 5   0  0.1187925E-07  0.3281208E+04  0.7818609E-02  0.8167694E-01
       -1   -1    0    0    0  501  0.00000000000E+00  0.00000000000E+00  0.17008778515E+04  0.17008778515E+04  0.50400001928E-02 0.  1.
        1   -1    0    0  501    0  0.00000000000E+00  0.00000000000E+00 -0.15824659279E+04  0.15824659279E+04  0.50400001928E-02 0. -1.
    10030    2    1    2    0    0  0.00000000000E+00  0.00000000000E+00  0.11841192365E+03  0.32833437794E+04  0.32812078553E+04 0.  0.
        1    1    3    3  502    0 -0.73342951429E+03 -0.79042213869E+03  0.12964958933E+04  0.16862940465E+04  0.50400001928E-02 0.  1.
       -1    1    3    3    0  502  0.73342951429E+03  0.79042213869E+03 -0.11780839697E+04  0.15970497329E+04  0.50400001928E-02 0. -1.
</event>
<event>
 5   0  0.1187925E-07  0.3884947E+04  0.7818609E-02  0.8028167E-01
       -1   -1    0    0    0  501  0.00000000000E+00  0.00000000000E+00  0.14962238934E+04  0.14962238934E+04  0.50400001928E-02 0.  1.
        1   -1    0    0  501    0  0.00000000000E+00  0.00000000000E+00 -0.25218168300E+04  0.25218168300E+04  0.50400001928E-02 0. -1.
    10030    2    1    2    0    0  0.00000000000E+00  0.00000000000E+00 -0.10255929366E+04  0.40180407234E+04  0.38849466384E+04 0.  0.
        4    1    3    3  502    0  0.84688272951E+03  0.94428991241E+02 -0.23181853433E+04  0.24698404990E+04  0.12699999809E+01 0. -1.
       -4    1    3    3    0  502 -0.84688272951E+03 -0.94428991241E+02  0.12925924067E+04  0.15482002243E+04  0.12699999809E+01 0.  1.
</event>
<event>
 5   0  0.1187925E-07  0.3722443E+04  0.7818609E-02  0.8063006E-01
        1   -1    0    0  501    0  0.00000000000E+00  0.00000000000E+00  0.13412858976E+04  0.13412858977E+04  0.50400001928E-02 0. -1.
       -1   -1    0    0    0  501  0.00000000000E+00  0.00000000000E+00 -0.25827053813E+04  0.25827053813E+04  0.50400001928E-02 0.  1.
    10030    2    1    2    0    0  0.00000000000E+00  0.00000000000E+00 -0.12414194837E+04  0.39239912790E+04  0.37224434479E+04 0.  0.
        5    1    3    3  502    0 -0.47794439867E+03  0.50496560316E+03 -0.24406590227E+04  0.25377666685E+04  0.46999998093E+01 0.  1.
       -5    1    3    3    0  502  0.47794439867E+03 -0.50496560316E+03  0.11992395391E+04  0.13862246105E+04  0.46999998093E+01 0. -1.
</event>
<event>
 5   0  0.1187925E-07  0.3852425E+04  0.7818609E-02  0.8034997E-01
       -1   -1    0    0    0  501  0.00000000000E+00  0.00000000000E+00  0.14707661018E+04  0.14707661018E+04  0.50400001928E-02 0.  1.
        1   -1    0    0  501    0  0.00000000000E+00  0.00000000000E+00 -0.25226951568E+04  0.25226951568E+04  0.50400001928E-02 0. -1.
    10030    2    1    2    0    0  0.00000000000E+00  0.00000000000E+00 -0.10519290550E+04  0.39934612586E+04  0.38524249619E+04 0.  0.
        1    1    3    3  502    0  0.26382293506E+03  0.15707707391E+04 -0.16488436620E+04  0.22925114346E+04  0.50400001928E-02 0. -1.
       -1    1    3    3    0  502 -0.26382293506E+03 -0.15707707391E+04  0.59691460700E+03  0.17009498240E+04  0.50400001928E-02 0.  1.
</event>
<event>
 5   0  0.1187925E-07  0.2902755E+04  0.7818609E-02  0.8272058E-01
       -1   -1    0    0    0  501  0.00000000000E+00  0.00000000000E+00  0.88976252765E+03  0.88976252766E+03  0.50400001928E-02 0.  1.
        1   -1    0    0  501    0  0.00000000000E+00  0.00000000000E+00 -0.23674811423E+04  0.23674811423E+04  0.50400001928E-02 0. -1.
    10030    2    1    2    0    0  0.00000000000E+00  0.00000000000E+00 -0.14777186147E+04  0.32572436700E+04  0.29027545576E+04 0.  0.
        1    1    3    3  502    0 -0.11215722990E+04  0.91705851355E+03 -0.83652429073E+03  0.16729296543E+04  0.50400001928E-02 0.  1.
       -1    1    3    3    0  502  0.11215722990E+04 -0.91705851355E+03 -0.64119432394E+03  0.15843140157E+04  0.50400001928E-02 0. -1.
</event>
<event>
 5   0  0.3610483E-07  0.3992928E+04  0.7818609E-02  0.8005975E-01
        2   -1    0    0  501    0  0.00000000000E+00  0.00000000000E+00  0.17745425595E+04  0.17745425595E+04  0.25500000920E-02 0. -1.
       -2   -1    0    0    0  501  0.00000000000E+00  0.00000000000E+00 -0.22461382118E+04  0.22461382118E+04  0.25500000920E-02 0.  1.
    10030    2    1    2    0    0  0.00000000000E+00  0.00000000000E+00 -0.47159565229E+03  0.40206807713E+04  0.39929276735E+04 0.  0.
        4    1    3    3  502    0  0.50375528335E+03  0.56177240286E+03  0.16254294556E+04  0.17920324065E+04  0.12699999809E+01 0. -1.
       -4    1    3    3    0  502 -0.50375528335E+03 -0.56177240286E+03 -0.20970251078E+04  0.22286483648E+04  0.12699999809E+01 0.  1.
</event>
<event>
 5   0  0.1187925E-07  0.3799617E+04  0.7818609E-02  0.8046237E-01
        1   -1    0    0  501    0  0.00000000000E+00  0.00000000000E+00  0.18016940005E+04  0.18016940005E+04  0.50400001928E-02 0.  1.
       -1   -1    0    0    0  501  0.00000000000E+00  0.00000000000E+00 -0.20032664527E+04  0.20032664527E+04  0.50400001928E-02 0. -1.
    10030    2    1    2    0    0  0.00000000000E+00  0.00000000000E+00 -0.20157245223E+03  0.38049604533E+04  0.37996174278E+04 0.  0.
        4    1    3    3  502    0 -0.17291952772E+04  0.75684477564E+03 -0.31635903809E+03  0.19139004611E+04  0.12699999809E+01 0. -1.
       -4    1    3    3    0  502  0.17291952772E+04 -0.75684477564E+03  0.11478658586E+03  0.18910599922E+04  0.12699999809E+01 0.  1.
</event>
<event>
 5   0  0.1187925E-07  0.3945836E+04  0.7818609E-02  0.8015563E-01
        1   -1    0    0  501    0  0.00000000000E+00  0.00000000000E+00  0.16514526098E+04  0.16514526098E+04  0.50400001928E-02 0. -1.
       -1   -1    0    0    0  501  0.00000000000E+00  0.00000000000E+00 -0.23569587696E+04  0.23569587696E+04  0.50400001928E-02 0.  1.
    10030    2    1    2    0    0  0.00000000000E+00  0.00000000000E+00 -0.70550615982E+03  0.40084113794E+04  0.39458361402E+04 0.  0.
        1    1    3    3  502    0  0.27623714075E+03 -0.92749971682E+03 -0.20992745291E+04  0.23116046875E+04  0.50400001928E-02 0.  1.
       -1    1    3    3    0  502 -0.27623714075E+03  0.92749971682E+03  0.13937683693E+04  0.16968066919E+04  0.50400001928E-02 0. -1.
</event>
<event>
 5   0  0.1187925E-07  0.3886445E+04  0.7818609E-02  0.8027854E-01
       -1   -1    0    0    0  501  0.00000000000E+00  0.00000000000E+00  0.26412132619E+04  0.26412132619E+04  0.50400001928E-02 0.  1.
        1   -1    0    0  501    0  0.00000000000E+00  0.00000000000E+00 -0.14296890804E+04  0.14296890804E+04  0.50400001928E-02 0. -1.
    10030    2    1    2    0    0  0.00000000000E+00  0.00000000000E+00  0.12115241815E+04  0.40709023423E+04  0.38864450386E+04 0.  0.
        3    1    3    3  502    0  0.47507437616E+03 -0.18718480307E+04  0.83188536313E+03  0.21027467704E+04  0.10100000352E+00 0.  1.
       -3    1    3    3    0  502 -0.47507437616E+03  0.18718480307E+04  0.37963881834E+03  0.19681555719E+04  0.10100000352E+00 0. -1.
</event>
<event>
 5   0  0.1187925E-07  0.3311100E+04  0.7818609E-02  0.8160077E-01
       -1   -1    0    0    0  501  0.00000000000E+00  0.00000000000E+00  0.14853588108E+04  0.14853588108E+04  0.50400001928E-02 0.  1.
        1   -1    0    0  501    0  0.00000000000E+00  0.00000000000E+00 -0.18452412866E+04  0.18452412866E+04  0.50400001928E-02 0. -1.
    10030    2    1    2    0    0  0.00000000000E+00  0.00000000000E+00 -0.35988247586E+03  0.33306000974E+04  0.33110997588E+04 0.  0.
        5    1    3    3  502    0 -0.90244481076E+03 -0.12481319427E+04 -0.79062738657E+03  0.17312867288E+04  0.46999998093E+01 0. -1.
       -5    1    3    3    0  502  0.90244481076E+03  0.12481319427E+04  0.43074491071E+03  0.15993133686E+04  0.46999998093E+01 0.  1.
</event>
<event>
 5   0  0.3610483E-07  0.3901162E+04  0.7818609E-02  0.8024788E-01
       -2   -1    0    0    0  501  0.00000000000E+00  0.00000000000E+00  0.19414600870E+04  0.19414600870E+04  0.25500000920E-02 0. -1.
        2   -1    0    0  501    0  0.00000000000E+00  0.00000000000E+00 -0.19597446983E+04  0.19597446983E+04  0.25500000920E-02 0.  1.
    10030    2    1    2    0    0  0.00000000000E+00  0.00000000000E+00 -0.18284611332E+02  0.39012047854E+04  0.39011619359E+04 0.  0.
        4    1    3    3  502    0  0.64970500358E+03 -0.50813809655E+03 -0.17767712881E+04  0.19588871177E+04  0.12699999809E+01 0.  1.
       -4    1    3    3    0  502 -0.64970500358E+03  0.50813809655E+03  0.17584866768E+04  0.19423176677E+04  0.12699999809E+01 0. -1.
</event>
<event>
 5   0  0.1187925E-07  0.3759032E+04  0.7818609E-02  0.8055004E-01
       -1   -1    0    0    0  501  0.00000000000E+00  0.00000000000E+00  0.12802540898E+04  0.12802540898E+04  0.50400001928E-02 0. -1.
        1   -1    0    0  501    0  0.00000000000E+00  0.00000000000E+00 -0.27592805962E+04  0.27592805962E+04  0.50400001928E-02 0.  1.
    10030    2    1    2    0    0  0.00000000000E+00  0.00000000000E+00 -0.14790265064E+04  0.40395346860E+04  0.37590319329E+04 0.  0.
        2    1    3    3  502    0  0.60459005501E+03 -0.43355201233E+03 -0.25943115374E+04  0.26988791813E+04  0.25500000920E-02 0.  1.
       -2    1    3    3    0  502 -0.60459005501E+03  0.43355201233E+03  0.11152850310E+04  0.13406555047E+04  0.25500000920E-02 0. -1.
</event>
<event>
 5   0  0.1187925E-07  0.3865748E+04  0.7818609E-02  0.8032191E-01
       -1   -1    0    0    0  501  0.00000000000E+00  0.00000000000E+00  0.25238214079E+04  0.25238214079E+04  0.50400001928E-02 0. -1.
        1   -1    0    0  501    0  0.00000000000E+00  0.00000000000E+00 -0.14802956521E+04  0.14802956521E+04  0.50400001928E-02 0.  1.
    10030    2    1    2    0    0  0.00000000000E+00  0.00000000000E+00  0.10435257558E+04  0.40041170600E+04  0.38657479777E+04 0.  0.
        4    1    3    3  502    0 -0.34688187224E+03 -0.57711372343E+03 -0.13548861930E+04  0.15129790124E+04  0.12699999809E+01 0.  1.
       -4    1    3    3    0  502  0.34688187224E+03  0.57711372343E+03  0.23984119488E+04  0.24911380476E+04  0.12699999809E+01 0. -1.
</event>
<event>
 5   0  0.3610483E-07  0.3879461E+04  0.7818609E-02  0.8029314E-01
       -2   -1    0    0    0  501  0.00000000000E+00  0.00000000000E+00  0.16299176107E+04  0.16299176107E+04  0.25500000920E-02 0. -1.
        2   -1    0    0  501    0  0.00000000000E+00  0.00000000000E+00 -0.23084328148E+04  0.23084328148E+04  0.25500000920E-02 0.  1.
    10030    2    1    2    0    0  0.00000000000E+00  0.00000000000E+00 -0.67851520409E+03  0.39383504254E+04  0.38794614563E+04 0.  0.
        4    1    3    3  502    0  0.46437974944E+03 -0.18481434356E+04 -0.70707076697E+03  0.20325435771E+04  0.12699999809E+01 0. -1.
       -4    1    3    3    0  502 -0.46437974944E+03  0.18481434356E+04  0.28555562886E+02  0.19058068484E+04  0.12699999809E+01 0.  1.
</event>
<event>
 5   0  0.3832389E-07  0.3886399E+04  0.7818609E-02  0.8027864E-01
        2   -1    0    0  501    0  0.00000000000E+00  0.00000000000E+00  0.14982714701E+04  0.14982714701E+04  0.25500000920E-02 0. -1.
       -2   -1    0    0    0  501  0.00000000000E+00  0.00000000000E+00 -0.25202543636E+04  0.25202543636E+04  0.25500000920E-02 0.  1.
    10030    2    1    2    0    0  0.00000000000E+00  0.00000000000E+00 -0.10219828936E+04  0.40185258337E+04  0.38863994701E+04 0.  0.
        5    1    3    3  502    0  0.11764384151E+04  0.14275202661E+04 -0.11263558418E+04  0.21657610734E+04  0.46999998093E+01 0.  1.
       -5    1    3    3    0  502 -0.11764384151E+04 -0.14275202661E+04  0.10437294824E+03  0.18527647603E+04  0.46999998093E+01 0. -1.
</event>
<event>
 5   0  0.1187925E-07  0.3780438E+04  0.7818609E-02  0.8050366E-01
        1   -1    0    0  501    0  0.00000000000E+00  0.00000000000E+00  0.29104155356E+04  0.29104155356E+04  0.50400001928E-02 0. -1.
       -1   -1    0    0    0  501  0.00000000000E+00  0.00000000000E+00 -0.12276347458E+04  0.12276347458E+04  0.50400001928E-02 0.  1.
    10030    2    1    2    0    0  0.00000000000E+00  0.00000000000E+00  0.16827807898E+04  0.41380502815E+04  0.37804376659E+04 0.  0.
        4    1    3    3  502    0 -0.13052736564E+03  0.33011521673E+01 -0.12226921788E+04  0.12296446917E+04  0.12699999809E+01 0.  1.
       -4    1    3    3    0  502  0.13052736564E+03 -0.33011521673E+01  0.29054729686E+04  0.29084055898E+04  0.12699999809E+01 0. -1.
</event>
<event>
 5   0  0.3610483E-07  0.3025402E+04  0.7818609E-02  0.8236514E-01
        2   -1    0    0  501    0  0.00000000000E+00  0.00000000000E+00  0.15580018146E+04  0.15580018146E+04  0.25500000920E-02 0.  1.
       -2   -1    0    0    0  501  0.00000000000E+00  0.00000000000E+00 -0.14687175818E+04  0.14687175818E+04  0.25500000920E-02 0. -1.
    10030    2    1    2    0    0  0.00000000000E+00  0.00000000000E+00  0.89284232747E+02  0.30267193964E+04  0.30254022262E+04 0.  0.
        4    1    3    3  502    0  0.11085733548E+04  0.29114552469E+03  0.10322712072E+04  0.15424934546E+04  0.12699999809E+01 0.  1.
       -4    1    3    3    0  502 -0.11085733548E+04 -0.29114552469E+03 -0.94298697443E+03  0.14842259418E+04  0.12699999809E+01 0. -1.
</event>
<event>
 5   0  0.3810833E-07  0.3871112E+04  0.7818609E-02  0.8031064E-01
       -2   -1    0    0    0  501  0.00000000000E+00  0.00000000000E+00  0.11824201115E+04  0.11824201115E+04  0.25500000920E-02 0.  1.
        2   -1    0    0  501    0  0.00000000000E+00  0.00000000000E+00 -0.31683970984E+04  0.31683970984E+04  0.25500000920E-02 0. -1.
    10030    2    1    2    0    0  0.00000000000E+00  0.00000000000E+00 -0.19859769870E+04  0.43508172099E+04  0.38711117009E+04 0.  0.
        3    1    3    3  502    0 -0.25284878691E+03 -0.43258013547E+03  0.11082652667E+04  0.12162688824E+04  0.10100000352E+00 0.  1.
       -3    1    3    3    0  502  0.25284878691E+03  0.43258013547E+03 -0.30942422537E+04  0.31345483275E+04  0.10100000352E+00 0. -1.
</event>
<event>
 5   0  0.1187925E-07  0.3863928E+04  0.7818609E-02  0.8032574E-01
       -1   -1    0    0    0  501  0.00000000000E+00  0.00000000000E+00  0.13248758547E+04  0.13248758547E+04  0.50400001928E-02 0.  1.
        1   -1    0    0  501    0  0.00000000000E+00  0.00000000000E+00 -0.28172335200E+04  0.28172335200E+04  0.50400001928E-02 0. -1.
    10030    2    1    2    0    0  0.00000000000E+00  0.00000000000E+00 -0.14923576654E+04  0.41421093747E+04  0.38639278811E+04 0.  0.
        5    1    3    3  502    0 -0.71666183722E+03  0.16727767035E+04 -0.50887731503E+02  0.18205487469E+04  0.46999998093E+01 0.  1.
       -5    1    3    3    0  502  0.71666183722E+03 -0.16727767035E+04 -0.14414699338E+04  0.23215606278E+04  0.46999998093E+01 0. -1.
</event>
<event>
 5   0  0.3665303E-07  0.3905555E+04  0.7818609E-02  0.8023875E-01
       -2   -1    0    0    0  501  0.00000000000E+00  0.00000000000E+00  0.24457778899E+04  0.24457778899E+04  0.25500000920E-02 0. -1.
        2   -1    0    0  501    0  0.00000000000E+00  0.00000000000E+00 -0.15591522200E+04  0.15591522200E+04  0.25500000920E-02 0.  1.
    10030    2    1    2    0    0  0.00000000000E+00  0.00000000000E+00  0.88662566997E+03  0.40049301099E+04  0.39055550318E+04 0.  0.
        2    1    3    3  502    0 -0.16708304446E+04 -0.41571503903E+03  0.13880843735E+04  0.22116219379E+04  0.25500000920E-02 0. -1.
       -2    1    3    3    0  502  0.16708304446E+04  0.41571503903E+03 -0.50145870354E+03  0.17933081720E+04  0.25500000920E-02 0.  1.
</event>
<event>
 5   0  0.1187925E-07  0.3532321E+04  0.7818609E-02  0.8106173E-01
        3   -1    0    0  501    0  0.00000000000E+00  0.00000000000E+00  0.22603911598E+04  0.22603911621E+04  0.10100000352E+00 0.  1.
       -3   -1    0    0    0  501  0.00000000000E+00  0.00000000000E+00 -0.13799928632E+04  0.13799928669E+04  0.10100000352E+00 0. -1.
    10030    2    1    2    0    0  0.00000000000E+00  0.00000000000E+00  0.88039829660E+03  0.36403840290E+04  0.35323214347E+04 0.  0.
        3    1    3    3  502    0 -0.54070516936E+02  0.78983631104E+03 -0.11868837363E+04  0.14266947932E+04  0.10100000352E+00 0. -1.
       -3    1    3    3    0  502  0.54070516936E+02 -0.78983631104E+03  0.20672820329E+04  0.22136892359E+04  0.10100000352E+00 0.  1.
</event>
<event>
 5   0  0.3665303E-07  0.3923059E+04  0.7818609E-02  0.8020250E-01
        2   -1    0    0  501    0  0.00000000000E+00  0.00000000000E+00  0.20562884898E+04  0.20562884898E+04  0.25500000920E-02 0. -1.
       -2   -1    0    0    0  501  0.00000000000E+00  0.00000000000E+00 -0.18711373417E+04  0.18711373417E+04  0.25500000920E-02 0.  1.
    10030    2    1    2    0    0  0.00000000000E+00  0.00000000000E+00  0.18515114806E+03  0.39274258315E+04  0.39230591016E+04 0.  0.
        2    1    3    3  502    0  0.27109166346E+03 -0.18195768476E+03  0.20288946811E+04  0.20549970599E+04  0.25500000920E-02 0. -1.
       -2    1    3    3    0  502 -0.27109166346E+03  0.18195768476E+03 -0.18437435331E+04  0.18724287716E+04  0.25500000920E-02 0.  1.
</event>
<event>
 5   0  0.1187925E-07  0.3874161E+04  0.7818609E-02  0.8030425E-01
        1   -1    0    0  501    0  0.00000000000E+00  0.00000000000E+00  0.11521952095E+04  0.11521952095E+04  0.50400001928E-02 0. -1.
       -1   -1    0    0    0  501  0.00000000000E+00  0.00000000000E+00 -0.32566357702E+04  0.32566357702E+04  0.50400001928E-02 0.  1.
    10030    2    1    2    0    0  0.00000000000E+00  0.00000000000E+00 -0.21044405606E+04  0.44088309797E+04  0.38741606232E+04 0.  0.
        3    1    3    3  502    0  0.29087955618E+03 -0.48957201179E+03 -0.31592249697E+04  0.32101392634E+04  0.10100000352E+00 0.  1.
       -3    1    3    3    0  502 -0.29087955618E+03  0.48957201179E+03  0.10547844091E+04  0.11986917163E+04  0.10100000352E+00 0. -1.
</event>
<event>
 5   0  0.3680814E-07  0.3844815E+04  0.7818609E-02  0.8036606E-01
        2   -1    0    0  501    0  0.00000000000E+00  0.00000000000E+00  0.27852984340E+04  0.27852984340E+04  0.25500000920E-02 0.  1.
       -2   -1    0    0    0  501  0.00000000000E+00  0.00000000000E+00 -0.13268416940E+04  0.13268416940E+04  0.25500000920E-02 0. -1.
    10030    2    1    2    0    0  0.00000000000E+00  0.00000000000E+00  0.14584567400E+04  0.41121401279E+04  0.38448147380E+04 0.  0.
        1    1    3    3  502    0 -0.14189979907E+04 -0.71188397584E+03 -0.43026911632E+03  0.16448299624E+04  0.50400001928E-02 0. -1.
       -1    1    3    3    0  502  0.14189979907E+04  0.71188397584E+03  0.18887258563E+04  0.24673101656E+04  0.50400001928E-02 0.  1.
</event>
<event>
 5   0  0.1187925E-07  0.3889710E+04  0.7818609E-02  0.8027173E-01
        1   -1    0    0  501    0  0.00000000000E+00  0.00000000000E+00  0.19194821589E+04  0.19194821589E+04  0.50400001928E-02 0. -1.
       -1   -1    0    0    0  501  0.00000000000E+00  0.00000000000E+00 -0.19705636530E+04  0.19705636530E+04  0.50400001928E-02 0.  1.
    10030    2    1    2    0    0  0.00000000000E+00  0.00000000000E+00 -0.51081494130E+02  0.38900458119E+04  0.38897104134E+04 0.  0.
        4    1    3    3  502    0  0.56764926327E+02 -0.16859501659E+03  0.19113279881E+04  0.19195892340E+04  0.12699999809E+01 0. -1.
       -4    1    3    3    0  502 -0.56764926327E+02  0.16859501659E+03 -0.19624094822E+04  0.19704565779E+04  0.12699999809E+01 0.  1.
</event>
<event>
 5   0  0.1187925E-07  0.3324948E+04  0.7818609E-02  0.8156576E-01
       -1   -1    0    0    0  501  0.00000000000E+00  0.00000000000E+00  0.12060272115E+04  0.12060272115E+04  0.50400001928E-02 0.  1.
        1   -1    0    0  501    0  0.00000000000E+00  0.00000000000E+00 -0.22916729999E+04  0.22916729999E+04  0.50400001928E-02 0. -1.
    10030    2    1    2    0    0  0.00000000000E+00  0.00000000000E+00 -0.10856457884E+04  0.34977002114E+04  0.33249481185E+04 0.  0.
        1    1    3    3  502    0 -0.10233798205E+04 -0.12787097999E+04 -0.24266491522E+03  0.16556845323E+04  0.50400001928E-02 0.  1.
       -1    1    3    3    0  502  0.10233798205E+04  0.12787097999E+04 -0.84298087322E+03  0.18420156791E+04  0.50400001928E-02 0. -1.
</event>
<event>
 5   0  0.3665303E-07  0.3809130E+04  0.7818609E-02  0.8044198E-01
       -2   -1    0    0    0  501  0.00000000000E+00  0.00000000000E+00  0.19617263631E+04  0.19617263631E+04  0.25500000920E-02 0.  1.
        2   -1    0    0  501    0  0.00000000000E+00  0.00000000000E+00 -0.18490689965E+04  0.18490689965E+04  0.25500000920E-02 0. -1.
    10030    2    1    2    0    0  0.00000000000E+00  0.00000000000E+00  0.11265736658E+03  0.38107953597E+04  0.38091297682E+04 0.  0.
        2    1    3    3  502    0  0.55542584567E+03 -0.12435058342E+04 -0.12756297466E+04  0.18660214040E+04  0.25500000920E-02 0. -1.
       -2    1    3    3    0  502 -0.55542584567E+03  0.12435058342E+04  0.13882871132E+04  0.19447739556E+04  0.25500000920E-02 0.  1.
</event>
<event>
 5   0  0.1187925E-07  0.3796248E+04  0.7818609E-02  0.8046961E-01
        1   -1    0    0  501    0  0.00000000000E+00  0.00000000000E+00  0.13392802222E+04  0.13392802223E+04  0.50400001928E-02 0. -1.
       -1   -1    0    0    0  501  0.00000000000E+00  0.00000000000E+00 -0.26901570771E+04  0.26901570771E+04  0.50400001928E-02 0.  1.
    10030    2    1    2    0    0  0.00000000000E+00  0.00000000000E+00 -0.13508768548E+04  0.40294372993E+04  0.37962477096E+04 0.  0.
        5    1    3    3  502    0 -0.16884383104E+04  0.18975684582E+03  0.22271924560E+03  0.17136095065E+04  0.46999998093E+01 0. -1.
       -5    1    3    3    0  502  0.16884383104E+04 -0.18975684582E+03 -0.15735961004E+04  0.23158277928E+04  0.46999998093E+01 0.  1.
</event>
<event>
 5   0  0.3610483E-07  0.3772701E+04  0.7818609E-02  0.8052039E-01
        2   -1    0    0  501    0  0.00000000000E+00  0.00000000000E+00  0.18515240412E+04  0.18515240412E+04  0.25500000920E-02 0.  1.
       -2   -1    0    0    0  501  0.00000000000E+00  0.00000000000E+00 -0.19218321930E+04  0.19218321930E+04  0.25500000920E-02 0. -1.
    10030    2    1    2    0    0  0.00000000000E+00  0.00000000000E+00 -0.70308151877E+02  0.37733562342E+04  0.37727011589E+04 0.  0.
        4    1    3    3  502    0 -0.56596109531E+03  0.65799242924E+03 -0.17102735032E+04  0.19178902645E+04  0.12699999809E+01 0. -1.
       -4    1    3    3    0  502  0.56596109531E+03 -0.65799242924E+03  0.16399653513E+04  0.18554659697E+04  0.12699999809E+01 0.  1.
</event>
<event>
 5   0  0.3810833E-07  0.3899053E+04  0.7818609E-02  0.8025226E-01
        2   -1    0    0  501    0  0.00000000000E+00  0.00000000000E+00  0.14120616077E+04  0.14120616077E+04  0.25500000920E-02 0.  1.
       -2   -1    0    0    0  501  0.00000000000E+00  0.00000000000E+00 -0.26915636370E+04  0.26915636370E+04  0.25500000920E-02 0. -1.
    10030    2    1    2    0    0  0.00000000000E+00  0.00000000000E+00 -0.12795020293E+04  0.41036252447E+04  0.38990530525E+04 0.  0.
        3    1    3    3  502    0 -0.34065495999E+03  0.64149875541E+03  0.12643383927E+04  0.14581214066E+04  0.10100000352E+00 0.  1.
       -3    1    3    3    0  502  0.34065495999E+03 -0.64149875541E+03 -0.25438404220E+04  0.26455038381E+04  0.10100000352E+00 0. -1.
</event>
<event>
 5   0  0.3832389E-07  0.3887560E+04  0.7818609E-02  0.8027622E-01
       -2   -1    0    0    0  501  0.00000000000E+00  0.00000000000E+00  0.22385385679E+04  0.22385385679E+04  0.25500000920E-02 0.  1.
        2   -1    0    0  501    0  0.00000000000E+00  0.00000000000E+00 -0.16878333730E+04  0.16878333730E+04  0.25500000920E-02 0. -1.
    10030    2    1    2    0    0  0.00000000000E+00  0.00000000000E+00  0.55070519494E+03  0.39263719409E+04  0.38875596981E+04 0.  0.
        5    1    3    3  502    0  0.27729474545E+03 -0.10201171702E+03 -0.16650148996E+04  0.16910338471E+04  0.46999998093E+01 0. -1.
       -5    1    3    3    0  502 -0.27729474545E+03  0.10201171702E+03  0.22157200945E+04  0.22353380938E+04  0.46999998093E+01 0.  1.
</event>
<event>
 5   0  0.1187925E-07  0.3926694E+04  0.7818609E-02  0.8019500E-01
       -1   -1    0    0    0  501  0.00000000000E+00  0.00000000000E+00  0.30307377198E+04  0.30307377198E+04  0.50400001928E-02 0.  1.
        1   -1    0    0  501    0  0.00000000000E+00  0.00000000000E+00 -0.12718786341E+04  0.12718786341E+04  0.50400001928E-02 0. -1.
    10030    2    1    2    0    0  0.00000000000E+00  0.00000000000E+00  0.17588590856E+04  0.43026163539E+04  0.39266935462E+04 0.  0.
        4    1    3    3  502    0 -0.99121853854E+03  0.15063317956E+04  0.28430996384E+02  0.18034299554E+04  0.12699999809E+01 0.  1.
       -4    1    3    3    0  502  0.99121853854E+03 -0.15063317956E+04  0.17304280892E+04  0.24991863985E+04  0.12699999809E+01 0. -1.
</event>
<event>
 5   0  0.1187925E-07  0.4004580E+04  0.7818609E-02  0.8003623E-01
       -1   -1    0    0    0  501  0.00000000000E+00  0.00000000000E+00  0.17062103272E+04  0.17062103273E+04  0.50400001928E-02 0.  1.
        1   -1    0    0  501    0  0.00000000000E+00  0.00000000000E+00 -0.23497485086E+04  0.23497485086E+04  0.50400001928E-02 0. -1.
    10030    2    1    2    0    0  0.00000000000E+00  0.00000000000E+00 -0.64353818133E+03  0.40559588358E+04  0.40045799639E+04 0.  0.
        3    1    3    3  502    0 -0.95253076417E+02 -0.39159184808E+03  0.16647073909E+04  0.17127953852E+04  0.10100000352E+00 0.  1.
       -3    1    3    3    0  502  0.95253076417E+02  0.39159184808E+03 -0.23082455723E+04  0.23431634506E+04  0.10100000352E+00 0. -1.
</event>
<event>
 5   0  0.1187925E-07  0.3939030E+04  0.7818609E-02  0.8016960E-01
        1   -1    0    0  501    0  0.00000000000E+00  0.00000000000E+00  0.28159482861E+04  0.28159482861E+04  0.50400001928E-02 0.  1.
       -1   -1    0    0    0  501  0.00000000000E+00  0.00000000000E+00 -0.13775071195E+04  0.13775071195E+04  0.50400001928E-02 0. -1.
    10030    2    1    2    0    0  0.00000000000E+00  0.00000000000E+00  0.14384411667E+04  0.41934554056E+04  0.39390297344E+04 0.  0.
        5    1    3    3  502    0 -0.13262374279E+03  0.13655552020E+04  0.22235130816E+04  0.26127308665E+04  0.46999998093E+01 0. -1.
       -5    1    3    3    0  502  0.13262374279E+03 -0.13655552020E+04 -0.78507191493E+03  0.15807245391E+04  0.46999998093E+01 0.  1.
</event>
<event>
 5   0  0.3610483E-07  0.3894816E+04  0.7818609E-02  0.8026108E-01
        2   -1    0    0  501    0  0.00000000000E+00  0.00000000000E+00  0.26558771680E+04  0.26558771680E+04  0.25500000920E-02 0.  1.
       -2   -1    0    0    0  501  0.00000000000E+00  0.00000000000E+00 -0.14279263657E+04  0.14279263657E+04  0.25500000920E-02 0. -1.
    10030    2    1    2    0    0  0.00000000000E+00  0.00000000000E+00  0.12279508023E+04  0.40838035337E+04  0.38948155449E+04 0.  0.
        4    1    3    3  502    0  0.97873584257E+03  0.58737258992E+03 -0.10403881730E+04  0.15444544579E+04  0.12699999809E+01 0. -1.
       -4    1    3    3    0  502 -0.97873584257E+03 -0.58737258992E+03  0.22683389754E+04  0.25393490759E+04  0.12699999809E+01 0.  1.
</event>
<event>
 5   0  0.3610483E-07  0.3937601E+04  0.7818609E-02  0.8017254E-01
        2   -1    0    0  501    0  0.00000000000E+00  0.00000000000E+00  0.21706946400E+04  0.21706946400E+04  0.25500000920E-02 0. -1.
       -2   -1    0    0    0  501  0.00000000000E+00  0.00000000000E+00 -0.17856841050E+04  0.17856841050E+04  0.25500000920E-02 0.  1.
    10030    2    1    2    0    0  0.00000000000E+00  0.00000000000E+00  0.38501053502E+03  0.39563787450E+04  0.39376007494E+04 0.  0.
        4    1    3    3  502    0  0.16487262328E+04 -0.92559542445E+03 -0.35888149139E+03  0.19245317920E+04  0.12699999809E+01 0.  1.
       -4    1    3    3    0  502 -0.16487262328E+04  0.92559542445E+03  0.74389202641E+03  0.20318469530E+04  0.12699999809E+01 0. -1.
</event>
<event>
 5   0  0.3832389E-07  0.3894321E+04  0.7818609E-02  0.8026211E-01
        2   -1    0    0  501    0  0.00000000000E+00  0.00000000000E+00  0.21288773813E+04  0.21288773813E+04  0.25500000920E-02 0.  1.
       -2   -1    0    0    0  501  0.00000000000E+00  0.00000000000E+00 -0.17809545388E+04  0.17809545388E+04  0.25500000920E-02 0. -1.
    10030    2    1    2    0    0  0.00000000000E+00  0.00000000000E+00  0.34792284252E+03  0.39098319202E+04  0.38943209086E+04 0.  0.
        5    1    3    3  502    0 -0.14273384736E+03 -0.14407103003E+04  0.14812199872E+04  0.20712445198E+04  0.46999998093E+01 0.  1.
       -5    1    3    3    0  502  0.14273384736E+03  0.14407103003E+04 -0.11332971447E+04  0.18385874003E+04  0.46999998093E+01 0. -1.
</event>
<event>
 5   0  0.3610483E-07  0.3896534E+04  0.7818609E-02  0.8025750E-01
       -2   -1    0    0    0  501  0.00000000000E+00  0.00000000000E+00  0.13386268903E+04  0.13386268903E+04  0.25500000920E-02 0. -1.
        2   -1    0    0  501    0  0.00000000000E+00  0.00000000000E+00 -0.28355503745E+04  0.28355503745E+04  0.25500000920E-02 0.  1.
    10030    2    1    2    0    0  0.00000000000E+00  0.00000000000E+00 -0.14969234843E+04  0.41741772648E+04  0.38965338341E+04 0.  0.
        4    1    3    3  502    0  0.51309396940E+03 -0.89734089056E+03  0.10206505956E+04  0.14526580281E+04  0.12699999809E+01 0. -1.
       -4    1    3    3    0  502 -0.51309396940E+03  0.89734089056E+03 -0.25175740799E+04  0.27215192367E+04  0.12699999809E+01 0.  1.
</event>
<event>
 5   0  0.3665303E-07  0.3871673E+04  0.7818609E-02  0.8030947E-01
       -2   -1    0    0    0  501  0.00000000000E+00  0.00000000000E+00  0.13371572493E+04  0.13371572493E+04  0.25500000920E-02 0. -1.
        2   -1    0    0  501    0  0.00000000000E+00  0.00000000000E+00 -0.28025592927E+04  0.28025592927E+04  0.25500000920E-02 0.  1.
    10030    2    1    2    0    0  0.00000000000E+00  0.00000000000E+00 -0.14654020434E+04  0.41397165420E+04  0.38716727521E+04 0.  0.
        2    1    3    3  502    0 -0.10935767596E+04 -0.14103637763E+04  0.69170514866E+02  0.17860069067E+04  0.25500000920E-02 0. -1.
       -2    1    3    3    0  502  0.10935767596E+04  0.14103637763E+04 -0.15345725582E+04  0.23537096353E+04  0.25500000920E-02 0.  1.
</event>
<event>
 5   0  0.3832389E-07  0.3542044E+04  0.7818609E-02  0.8103898E-01
        2   -1    0    0  501    0  0.00000000000E+00  0.00000000000E+00  0.17089103390E+04  0.17089103390E+04  0.25500000920E-02 0. -1.
       -2   -1    0    0    0  501  0.00000000000E+00  0.00000000000E+00 -0.18353914261E+04  0.18353914261E+04  0.25500000920E-02 0.  1.
    10030    2    1    2    0    0  0.00000000000E+00  0.00000000000E+00 -0.12648108706E+03  0.35443017651E+04  0.35420442595E+04 0.  0.
        5    1    3    3  502    0  0.10910853846E+03  0.73111370489E+03 -0.16736342705E+04  0.18296189997E+04  0.46999998093E+01 0.  1.
       -5    1    3    3    0  502 -0.10910853846E+03 -0.73111370489E+03  0.15471531835E+04  0.17146827653E+04  0.46999998093E+01 0. -1.
</event>
<event>
 5   0  0.3832389E-07  0.3899727E+04  0.7818609E-02  0.8025086E-01
       -2   -1    0    0    0  501  0.00000000000E+00  0.00000000000E+00  0.33229945132E+04  0.33229945132E+04  0.25500000920E-02 0.  1.
        2   -1    0    0  501    0  0.00000000000E+00  0.00000000000E+00 -0.11441392687E+04  0.11441392687E+04  0.25500000920E-02 0. -1.
    10030    2    1    2    0    0  0.00000000000E+00  0.00000000000E+00  0.21788552445E+04  0.44671337819E+04  0.38997274327E+04 0.  0.
        5    1    3    3  502    0 -0.98208981546E+02  0.18637133821E+04  0.44257676749E+03  0.19180638310E+04  0.46999998093E+01 0. -1.
       -5    1    3    3    0  502  0.98208981546E+02 -0.18637133821E+04  0.17362784770E+04  0.25490699509E+04  0.46999998093E+01 0.  1.
</event>
<event>
 5   0  0.1187925E-07  0.3824786E+04  0.7818609E-02  0.8040857E-01
        1   -1    0    0  501    0  0.00000000000E+00  0.00000000000E+00  0.19663541533E+04  0.19663541533E+04  0.50400001928E-02 0.  1.
       -1   -1    0    0    0  501  0.00000000000E+00  0.00000000000E+00 -0.18599127387E+04  0.18599127387E+04  0.50400001928E-02 0. -1.
    10030    2    1    2    0    0  0.00000000000E+00  0.00000000000E+00  0.10644141461E+03  0.38262668920E+04  0.38247860796E+04 0.  0.
        2    1    3    3  502    0  0.20061803287E+03 -0.75361489171E+03  0.18000537160E+04  0.19617279068E+04  0.25500000920E-02 0.  1.
       -2    1    3    3    0  502 -0.20061803287E+03  0.75361489171E+03 -0.16936123013E+04  0.18645389852E+04  0.25500000920E-02 0. -1.
</event>
<event>
 5   0  0.1187925E-07  0.3887979E+04  0.7818609E-02  0.8027534E-01
        1   -1    0    0  501    0  0.00000000000E+00  0.00000000000E+00  0.17303697375E+04  0.17303697375E+04  0.50400001928E-02 0.  1.
       -1   -1    0    0    0  501  0.00000000000E+00  0.00000000000E+00 -0.21839811791E+04  0.21839811791E+04  0.50400001928E-02 0. -1.
    10030    2    1    2    0    0  0.00000000000E+00  0.00000000000E+00 -0.45361144163E+03  0.39143509166E+04  0.38879788784E+04 0.  0.
        2    1    3    3  502    0  0.29242545353E+03  0.10593729732E+04  0.13876018317E+04  0.17700911236E+04  0.25500000920E-02 0.  1.
       -2    1    3    3    0  502 -0.29242545353E+03 -0.10593729732E+04 -0.18412132734E+04  0.21442597931E+04  0.25500000920E-02 0. -1.
</event>
<event>
 5   0  0.1187925E-07  0.3090131E+04  0.7818609E-02  0.8218452E-01
       -4   -1    0    0    0  501  0.00000000000E+00  0.00000000000E+00  0.12341542516E+04  0.12341549051E+04  0.12699999809E+01 0.  1.
        4   -1    0    0  501    0  0.00000000000E+00  0.00000000000E+00 -0.19343004708E+04  0.19343008877E+04  0.12699999809E+01 0. -1.
    10030    2    1    2    0    0  0.00000000000E+00  0.00000000000E+00 -0.70014621919E+03  0.31684557928E+04  0.30901306417E+04 0.  0.
        4    1    3    3  502    0  0.31478999352E+03  0.50122709290E+03 -0.18134496240E+04  0.19075959977E+04  0.12699999809E+01 0. -1.
       -4    1    3    3    0  502 -0.31478999352E+03 -0.50122709290E+03  0.11133034048E+04  0.12608597951E+04  0.12699999809E+01 0.  1.
</event>
<event>
 5   0  0.1187925E-07  0.3151230E+04  0.7818609E-02  0.8201817E-01
       -1   -1    0    0    0  501  0.00000000000E+00  0.00000000000E+00  0.14654279049E+04  0.14654279049E+04  0.50400001928E-02 0.  1.
        1   -1    0    0  501    0  0.00000000000E+00  0.00000000000E+00 -0.16940876877E+04  0.16940876877E+04  0.50400001928E-02 0. -1.
    10030    2    1    2    0    0  0.00000000000E+00  0.00000000000E+00 -0.22865978281E+03  0.31595155926E+04  0.31512304714E+04 0.  0.
        5    1    3    3  502    0 -0.33231633698E+03  0.14470316929E+04  0.41450963061E+03  0.15414847362E+04  0.46999998093E+01 0.  1.
       -5    1    3    3    0  502  0.33231633698E+03 -0.14470316929E+04 -0.64316941342E+03  0.16180308564E+04  0.46999998093E+01 0. -1.
</event>
<event>
 5   0  0.3810833E-07  0.3879405E+04  0.7818609E-02  0.8029326E-01
       -2   -1    0    0    0  501  0.00000000000E+00  0.00000000000E+00  0.25105744006E+04  0.25105744006E+04  0.25500000920E-02 0.  1.
        2   -1    0    0  501    0  0.00000000000E+00  0.00000000000E+00 -0.14986397396E+04  0.14986397397E+04  0.25500000920E-02 0. -1.
    10030    2    1    2    0    0  0.00000000000E+00  0.00000000000E+00  0.10119346609E+04  0.40092141402E+04  0.38794054009E+04 0.  0.
        3    1    3    3  502    0  0.14609269746E+04 -0.16215665400E+03  0.18139567084E+04  0.23347465292E+04  0.10100000352E+00 0.  1.
       -3    1    3    3    0  502 -0.14609269746E+04  0.16215665400E+03 -0.80202204749E+03  0.16744676110E+04  0.10100000352E+00 0. -1.
</event>
<event>
 5   0  0.1187925E-07  0.3947400E+04  0.7818609E-02  0.8015242E-01
        1   -1    0    0  501    0  0.00000000000E+00  0.00000000000E+00  0.21700402678E+04  0.21700402678E+04  0.50400001928E-02 0.  1.
       -1   -1    0    0    0  501  0.00000000000E+00  0.00000000000E+00 -0.17951244084E+04  0.17951244084E+04  0.50400001928E-02 0. -1.
    10030    2    1    2    0    0  0.00000000000E+00  0.00000000000E+00  0.37491585939E+03  0.39651646762E+04  0.39474002848E+04 0.  0.
        3    1    3    3  502    0  0.72548763023E+03  0.61506958893E+03 -0.15497321029E+04  0.18183268413E+04  0.10100000352E+00 0. -1.
       -3    1    3    3    0  502 -0.72548763023E+03 -0.61506958893E+03  0.19246479623E+04  0.21468378350E+04  0.10100000352E+00 0.  1.
</event>
<event>
 5   0  0.1187925E-07  0.3724183E+04  0.7818609E-02  0.8062624E-01
        1   -1    0    0  501    0  0.00000000000E+00  0.00000000000E+00  0.25949303743E+04  0.25949303743E+04  0.50400001928E-02 0. -1.
       -1   -1    0    0    0  501  0.00000000000E+00  0.00000000000E+00 -0.13362148074E+04  0.13362148074E+04  0.50400001928E-02 0.  1.
    10030    2    1    2    0    0  0.00000000000E+00  0.00000000000E+00  0.12587155669E+04  0.39311451817E+04  0.37241828045E+04 0.  0.
        2    1    3    3  502    0  0.65191999094E+03  0.16930371370E+04  0.18650770578E+03  0.18237761777E+04  0.25500000920E-02 0.  1.
       -2    1    3    3    0  502 -0.65191999094E+03 -0.16930371370E+04  0.10722078611E+04  0.21073690041E+04  0.25500000920E-02 0. -1.
</event>
<event>
 5   0  0.1187925E-07  0.3739064E+04  0.7818609E-02  0.8059360E-01
       -1   -1    0    0    0  501  0.00000000000E+00  0.00000000000E+00  0.25743107816E+04  0.25743107816E+04  0.50400001928E-02 0.  1.
        1   -1    0    0  501    0  0.00000000000E+00  0.00000000000E+00 -0.13577028243E+04  0.13577028243E+04  0.50400001928E-02 0. -1.
    10030    2    1    2    0    0  0.00000000000E+00  0.00000000000E+00  0.12166079573E+04  0.39320136059E+04  0.37390635291E+04 0.  0.
        5    1    3    3  502    0 -0.82643802150E+03  0.59868098754E+03  0.22555695629E+04  0.24756887671E+04  0.46999998093E+01 0.  1.
       -5    1    3    3    0  502  0.82643802150E+03 -0.59868098754E+03 -0.10389616056E+04  0.14563248388E+04  0.46999998093E+01 0. -1.
</event>
<event>
 5   0  0.3665303E-07  0.3917182E+04  0.7818609E-02  0.8021465E-01
        2   -1    0    0  501    0  0.00000000000E+00  0.00000000000E+00  0.27664076073E+04  0.27664076073E+04  0.25500000920E-02 0.  1.
       -2   -1    0    0    0  501  0.00000000000E+00  0.00000000000E+00 -0.13866640630E+04  0.13866640630E+04  0.25500000920E-02 0. -1.
    10030    2    1    2    0    0  0.00000000000E+00  0.00000000000E+00  0.13797435443E+04  0.41530716703E+04  0.39171816464E+04 0.  0.
        2    1    3    3  502    0 -0.23186392202E+03  0.84846267712E+03 -0.11654902981E+04  0.14601429477E+04  0.25500000920E-02 0. -1.
       -2    1    3    3    0  502  0.23186392202E+03 -0.84846267712E+03  0.25452338424E+04  0.26929287226E+04  0.25500000920E-02 0.  1.
</event>
<event>
 5   0  0.3610483E-07  0.3934431E+04  0.7818609E-02  0.8017906E-01
        2   -1    0    0  501    0  0.00000000000E+00  0.00000000000E+00  0.26031686390E+04  0.26031686390E+04  0.25500000920E-02 0.  1.
       -2   -1    0    0    0  501  0.00000000000E+00  0.00000000000E+00 -0.14866256198E+04  0.14866256198E+04  0.25500000920E-02 0. -1.
    10030    2    1    2    0    0  0.00000000000E+00  0.00000000000E+00  0.11165430191E+04  0.40897942588E+04  0.39344311871E+04 0.  0.
        4    1    3    3  502    0  0.81294855738E+03 -0.12752265943E+04  0.18660645576E+04  0.24019339645E+04  0.12699999809E+01 0.  1.
       -4    1    3    3    0  502 -0.81294855738E+03  0.12752265943E+04 -0.74952153842E+03  0.16878602943E+04  0.12699999809E+01 0. -1.
</event>
<event>
 5   0  0.1187925E-07  0.3873719E+04  0.7818609E-02  0.8030517E-01
        1   -1    0    0  501    0  0.00000000000E+00  0.00000000000E+00  0.24582457214E+04  0.24582457214E+04  0.50400001928E-02 0.  1.
       -1   -1    0    0    0  501  0.00000000000E+00  0.00000000000E+00 -0.15260578419E+04  0.15260578419E+04  0.50400001928E-02 0. -1.
    10030    2    1    2    0    0  0.00000000000E+00  0.00000000000E+00  0.93218787945E+03  0.39843035633E+04  0.38737192260E+04 0.  0.
        3    1    3    3  502    0 -0.16000162757E+04 -0.92369937030E+03 -0.13201543342E+03  0.18522150777E+04  0.10100000352E+00 0. -1.
       -3    1    3    3    0  502  0.16000162757E+04  0.92369937030E+03  0.10642033129E+04  0.21320884856E+04  0.10100000352E+00 0.  1.
</event>
<event>
 5   0  0.3665303E-07  0.3919066E+04  0.7818609E-02  0.8021075E-01
       -2   -1    0    0    0  501  0.00000000000E+00  0.00000000000E+00  0.20008343037E+04  0.20008343037E+04  0.25500000920E-02 0. -1.
        2   -1    0    0  501    0  0.00000000000E+00  0.00000000000E+00 -0.19190846934E+04  0.19190846934E+04  0.25500000920E-02 0.  1.
    10030    2    1    2    0    0  0.00000000000E+00  0.00000000000E+00  0.81749610307E+02  0.39199189970E+04  0.39190664634E+04 0.  0.
        2    1    3    3  502    0  0.12806494359E+03  0.10972487903E+04 -0.15779379390E+04  0.19261992828E+04  0.25500000920E-02 0.  1.
       -2    1    3    3    0  502 -0.12806494359E+03 -0.10972487903E+04  0.16596875493E+04  0.19937197142E+04  0.25500000920E-02 0. -1.
</event>
<event>
 5   0  0.1187925E-07  0.3857794E+04  0.7818609E-02  0.8033865E-01
        1   -1    0    0  501    0  0.00000000000E+00  0.00000000000E+00  0.26770911089E+04  0.26770911089E+04  0.50400001928E-02 0.  1.
       -1   -1    0    0    0  501  0.00000000000E+00  0.00000000000E+00 -0.13898083820E+04  0.13898083820E+04  0.50400001928E-02 0. -1.
    10030    2    1    2    0    0  0.00000000000E+00  0.00000000000E+00  0.12872827269E+04  0.40668994909E+04  0.38577940134E+04 0.  0.
        5    1    3    3  502    0  0.46256759843E+03  0.16600628492E+04 -0.26983917329E+03  0.17443086641E+04  0.46999998093E+01 0. -1.
       -5    1    3    3    0  502 -0.46256759843E+03 -0.16600628492E+04  0.15571219002E+04  0.23225908267E+04  0.46999998093E+01 0.  1.
</event>
<event>
 5   0  0.1187925E-07  0.3937445E+04  0.7818609E-02  0.8017286E-01
        1   -1    0    0  501    0  0.00000000000E+00  0.00000000000E+00  0.26469741472E+04  0.26469741472E+04  0.50400001928E-02 0. -1.
       -1   -1    0    0    0  501  0.00000000000E+00  0.00000000000E+00 -0.14642638737E+04  0.14642638737E+04  0.50400001928E-02 0.  1.
    10030    2    1    2    0    0  0.00000000000E+00  0.00000000000E+00  0.11827102735E+04  0.41112380208E+04  0.39374451708E+04 0.  0.
        4    1    3    3  502    0 -0.10581758083E+04  0.64608724819E+02  0.23234788132E+04  0.25539118499E+04  0.12699999809E+01 0. -1.
       -4    1    3    3    0  502  0.10581758083E+04 -0.64608724819E+02 -0.11407685397E+04  0.15573261710E+04  0.12699999809E+01 0.  1.
</event>
<event>
 5   0  0.1187925E-07  0.3950876E+04  0.7818609E-02  0.8014530E-01
        1   -1    0    0  501    0  0.00000000000E+00  0.00000000000E+00  0.24630147921E+04  0.24630147921E+04  0.50400001928E-02 0. -1.
       -1   -1    0    0    0  501  0.00000000000E+00  0.00000000000E+00 -0.15843818263E+04  0.15843818263E+04  0.50400001928E-02 0.  1.
    10030    2    1    2    0    0  0.00000000000E+00  0.00000000000E+00  0.87863296575E+03  0.40473966184E+04  0.39508762950E+04 0.  0.
        2    1    3    3  502    0 -0.19478978180E+04 -0.12500430605E+03  0.75075652645E+03  0.20913075689E+04  0.25500000920E-02 0. -1.
       -2    1    3    3    0  502  0.19478978180E+04  0.12500430605E+03  0.12787643930E+03  0.19560890495E+04  0.25500000920E-02 0.  1.
</event>
<event>
 5   0  0.1187925E-07  0.3880548E+04  0.7818609E-02  0.8029087E-01
        1   -1    0    0  501    0  0.00000000000E+00  0.00000000000E+00  0.20091985605E+04  0.20091985605E+04  0.50400001928E-02 0. -1.
       -1   -1    0    0    0  501  0.00000000000E+00  0.00000000000E+00 -0.18737141377E+04  0.18737141377E+04  0.50400001928E-02 0.  1.
    10030    2    1    2    0    0  0.00000000000E+00  0.00000000000E+00  0.13548442280E+03  0.38829126983E+04  0.38805482852E+04 0.  0.
        5    1    3    3  502    0 -0.72615328859E+03 -0.13720779261E+04  0.12323866278E+04  0.19820936719E+04  0.46999998093E+01 0. -1.
       -5    1    3    3    0  502  0.72615328859E+03  0.13720779261E+04 -0.10969022050E+04  0.19008190264E+04  0.46999998093E+01 0.  1.
</event>
<event>
 5   0  0.1187925E-07  0.3924171E+04  0.7818609E-02  0.8020021E-01
        1   -1    0    0  501    0  0.00000000000E+00  0.00000000000E+00  0.23814860916E+04  0.23814860916E+04  0.50400001928E-02 0. -1.
       -1   -1    0    0    0  501  0.00000000000E+00  0.00000000000E+00 -0.16165450509E+04  0.16165450509E+04  0.50400001928E-02 0.  1.
    10030    2    1    2    0    0  0.00000000000E+00  0.00000000000E+00  0.76494104066E+03  0.39980311425E+04  0.39241710233E+04 0.  0.
        1    1    3    3  502    0 -0.14476903455E+04  0.60468172853E+03 -0.81798189138E+03  0.17693336892E+04  0.50400001928E-02 0.  1.
       -1    1    3    3    0  502  0.14476903455E+04 -0.60468172853E+03  0.15829229320E+04  0.22286974532E+04  0.50400001928E-02 0. -1.
</event>
<event>
 5   0  0.3810833E-07  0.3909644E+04  0.7818609E-02  0.8023026E-01
       -2   -1    0    0    0  501  0.00000000000E+00  0.00000000000E+00  0.23411361129E+04  0.23411361129E+04  0.25500000920E-02 0.  1.
        2   -1    0    0  501    0  0.00000000000E+00  0.00000000000E+00 -0.16322540634E+04  0.16322540634E+04  0.25500000920E-02 0. -1.
    10030    2    1    2    0    0  0.00000000000E+00  0.00000000000E+00  0.70888204952E+03  0.39733901763E+04  0.39096439394E+04 0.  0.
        3    1    3    3  502    0  0.53716710951E+03  0.10803762400E+04  0.19175587516E+04  0.22655667943E+04  0.10100000352E+00 0. -1.
       -3    1    3    3    0  502 -0.53716710951E+03 -0.10803762400E+04 -0.12086767021E+04  0.17078233819E+04  0.10100000352E+00 0.  1.
</event>
<event>
 5   0  0.3810833E-07  0.3968595E+04  0.7818609E-02  0.8010912E-01
        2   -1    0    0  501    0  0.00000000000E+00  0.00000000000E+00  0.21129170315E+04  0.21129170315E+04  0.25500000920E-02 0.  1.
       -2   -1    0    0    0  501  0.00000000000E+00  0.00000000000E+00 -0.18635075152E+04  0.18635075152E+04  0.25500000920E-02 0. -1.
    10030    2    1    2    0    0  0.00000000000E+00  0.00000000000E+00  0.24940951632E+03  0.39764245467E+04  0.39685951001E+04 0.  0.
        3    1    3    3  502    0  0.19663198052E+04 -0.19732490954E+03 -0.54774454569E+02  0.19769549684E+04  0.10100000352E+00 0.  1.
       -3    1    3    3    0  502 -0.19663198052E+04  0.19732490954E+03  0.30418397088E+03  0.19994695783E+04  0.10100000352E+00 0. -1.
</event>
<event>
 5   0  0.1187925E-07  0.3900218E+04  0.7818609E-02  0.8024984E-01
       -1   -1    0    0    0  501  0.00000000000E+00  0.00000000000E+00  0.17511994814E+04  0.17511994814E+04  0.50400001928E-02 0. -1.
        1   -1    0    0  501    0  0.00000000000E+00  0.00000000000E+00 -0.21716115263E+04  0.21716115263E+04  0.50400001928E-02 0.  1.
    10030    2    1    2    0    0  0.00000000000E+00  0.00000000000E+00 -0.42041204491E+03  0.39228110077E+04  0.39002179317E+04 0.  0.
        5    1    3    3  502    0 -0.19273605956E+03 -0.14458758975E+04  0.10915861621E+04  0.18218909789E+04  0.46999998093E+01 0. -1.
       -5    1    3    3    0  502  0.19273605956E+03  0.14458758975E+04 -0.15119982070E+04  0.21009200289E+04  0.46999998093E+01 0.  1.
</event>
<event>
 5   0  0.1187925E-07  0.2912539E+04  0.7818609E-02  0.8269156E-01
        1   -1    0    0  501    0  0.00000000000E+00  0.00000000000E+00  0.21784119193E+04  0.21784119193E+04  0.50400001928E-02 0. -1.
       -1   -1    0    0    0  501  0.00000000000E+00  0.00000000000E+00 -0.97351719641E+03  0.97351719642E+03  0.50400001928E-02 0.  1.
    10030    2    1    2    0    0  0.00000000000E+00  0.00000000000E+00  0.12048947229E+04  0.31519291157E+04  0.29125394173E+04 0.  0.
        3    1    3    3  502    0 -0.79484110371E+03  0.78294840501E+03  0.16152901150E+04  0.19631461359E+04  0.10100000352E+00 0. -1.
       -3    1    3    3    0  502  0.79484110371E+03 -0.78294840501E+03 -0.41039539211E+03  0.11887829798E+04  0.10100000352E+00 0.  1.
</event>
<event>
 5   0  0.1187925E-07  0.3949241E+04  0.7818609E-02  0.8014865E-01
       -1   -1    0    0    0  501  0.00000000000E+00  0.00000000000E+00  0.18597841352E+04  0.18597841352E+04  0.50400001928E-02 0. -1.
        1   -1    0    0  501    0  0.00000000000E+00  0.00000000000E+00 -0.20965480667E+04  0.20965480667E+04  0.50400001928E-02 0.  1.
    10030    2    1    2    0    0  0.00000000000E+00  0.00000000000E+00 -0.23676393150E+03  0.39563322019E+04  0.39492413617E+04 0.  0.
        3    1    3    3  502    0 -0.86030545491E+03  0.11719545391E+04 -0.14570161419E+04  0.20582757263E+04  0.10100000352E+00 0.  1.
       -3    1    3    3    0  502  0.86030545491E+03 -0.11719545391E+04  0.12202522104E+04  0.18980564756E+04  0.10100000352E+00 0. -1.
</event>
<event>
 5   0  0.3665303E-07  0.3939219E+04  0.7818609E-02  0.8016921E-01
       -2   -1    0    0    0  501  0.00000000000E+00  0.00000000000E+00  0.19874429079E+04  0.19874429079E+04  0.25500000920E-02 0.  1.
        2   -1    0    0  501    0  0.00000000000E+00  0.00000000000E+00 -0.19519365870E+04  0.19519365870E+04  0.25500000920E-02 0. -1.
    10030    2    1    2    0    0  0.00000000000E+00  0.00000000000E+00  0.35506320978E+02  0.39393794949E+04  0.39392194793E+04 0.  0.
        2    1    3    3  502    0 -0.13041166762E+04 -0.42590271168E+03 -0.13955448852E+04  0.19569514433E+04  0.25500000920E-02 0. -1.
       -2    1    3    3    0  502  0.13041166762E+04  0.42590271168E+03  0.14310512061E+04  0.19824280516E+04  0.25500000920E-02 0.  1.
</event>
<event>
 5   0  0.3665303E-07  0.3847590E+04  0.7818609E-02  0.8036019E-01
       -2   -1    0    0    0  501  0.00000000000E+00  0.00000000000E+00  0.16071142511E+04  0.16071142511E+04  0.25500000920E-02 0.  1.
        2   -1    0    0  501    0  0.00000000000E+00  0.00000000000E+00 -0.23028772531E+04  0.23028772531E+04  0.25500000920E-02 0. -1.
    10030    2    1    2    0    0  0.00000000000E+00  0.00000000000E+00 -0.69576300202E+03  0.39099915042E+04  0.38475898180E+04 0.  0.
        2    1    3    3  502    0 -0.60069342163E+03  0.10308559725E+04 -0.18814928303E+04  0.22278940490E+04  0.25500000920E-02 0. -1.
       -2    1    3    3    0  502  0.60069342163E+03 -0.10308559725E+04  0.11857298283E+04  0.16820974552E+04  0.25500000920E-02 0.  1.
</event>
<event>
 5   0  0.1187925E-07  0.3740913E+04  0.7818609E-02  0.8058955E-01
        1   -1    0    0  501    0  0.00000000000E+00  0.00000000000E+00  0.12928580475E+04  0.12928580475E+04  0.50400001928E-02 0. -1.
       -1   -1    0    0    0  501  0.00000000000E+00  0.00000000000E+00 -0.27061033566E+04  0.27061033566E+04  0.50400001928E-02 0.  1.
    10030    2    1    2    0    0  0.00000000000E+00  0.00000000000E+00 -0.14132453091E+04  0.39989614042E+04  0.37409129913E+04 0.  0.
        4    1    3    3  502    0 -0.40811505637E+03  0.28409411364E+03 -0.26341506761E+04  0.26806750572E+04  0.12699999809E+01 0.  1.
       -4    1    3    3    0  502  0.40811505637E+03 -0.28409411364E+03  0.12209053670E+04  0.13182863470E+04  0.12699999809E+01 0. -1.
</event>
<event>
 5   0  0.3680814E-07  0.3896792E+04  0.7818609E-02  0.8025697E-01
       -2   -1    0    0    0  501  0.00000000000E+00  0.00000000000E+00  0.15212495482E+04  0.15212495482E+04  0.25500000920E-02 0. -1.
        2   -1    0    0  501    0  0.00000000000E+00  0.00000000000E+00 -0.24954792916E+04  0.24954792916E+04  0.25500000920E-02 0.  1.
    10030    2    1    2    0    0  0.00000000000E+00  0.00000000000E+00 -0.97422974339E+03  0.40167288399E+04  0.38967918831E+04 0.  0.
        1    1    3    3  502    0  0.13141721970E+04  0.93793783902E+03  0.63708153704E+03  0.17356983719E+04  0.50400001928E-02 0. -1.
       -1    1    3    3    0  502 -0.13141721970E+04 -0.93793783902E+03 -0.16113112804E+04  0.22810304680E+04  0.50400001928E-02 0.  1.
</event>
<event>
 5   0  0.3832389E-07  0.4160407E+04  0.7818609E-02  0.7972947E-01
       -2   -1    0    0    0  501  0.00000000000E+00  0.00000000000E+00  0.13839228730E+04  0.13839228730E+04  0.25500000920E-02 0. -1.
        2   -1    0    0  501    0  0.00000000000E+00  0.00000000000E+00 -0.31267981604E+04  0.31267981604E+04  0.25500000920E-02 0.  1.
    10030    2    1    2    0    0  0.00000000000E+00  0.00000000000E+00 -0.17428752874E+04  0.45107210333E+04  0.41604074287E+04 0.  0.
        5    1    3    3  502    0  0.88507809534E+03 -0.15681511987E+04 -0.20006554945E+04  0.26916734413E+04  0.46999998093E+01 0.  1.
       -5    1    3    3    0  502 -0.88507809534E+03  0.15681511987E+04  0.25778020713E+03  0.18190475920E+04  0.46999998093E+01 0. -1.
</event>
<event>
 5   0  0.3832389E-07  0.3950295E+04  0.7818609E-02  0.8014649E-01
       -2   -1    0    0    0  501  0.00000000000E+00  0.00000000000E+00  0.12766919417E+04  0.12766919417E+04  0.25500000920E-02 0.  1.
        2   -1    0    0  501    0  0.00000000000E+00  0.00000000000E+00 -0.30557158052E+04  0.30557158052E+04  0.25500000920E-02 0. -1.
    10030    2    1    2    0    0  0.00000000000E+00  0.00000000000E+00 -0.17790238635E+04  0.43324077469E+04  0.39502950496E+04 0.  0.
        5    1    3    3  502    0  0.14959619056E+04 -0.71617091431E+03 -0.20658197652E+04  0.26492331331E+04  0.46999998093E+01 0. -1.
       -5    1    3    3    0  502 -0.14959619056E+04  0.71617091431E+03  0.28679590169E+03  0.16831746138E+04  0.46999998093E+01 0.  1.
</event>
<event>
 5   0  0.3665303E-07  0.3906205E+04  0.7818609E-02  0.8023740E-01
       -2   -1    0    0    0  501  0.00000000000E+00  0.00000000000E+00  0.17819802031E+04  0.17819802031E+04  0.25500000920E-02 0. -1.
        2   -1    0    0  501    0  0.00000000000E+00  0.00000000000E+00 -0.21406575744E+04  0.21406575744E+04  0.25500000920E-02 0.  1.
    10030    2    1    2    0    0  0.00000000000E+00  0.00000000000E+00 -0.35867737131E+03  0.39226377775E+04  0.39062050224E+04 0.  0.
        2    1    3    3  502    0 -0.13369867868E+04 -0.33496531744E+03 -0.15689497783E+04  0.20883818709E+04  0.25500000920E-02 0.  1.
       -2    1    3    3    0  502  0.13369867868E+04  0.33496531744E+03  0.12102724070E+04  0.18342559066E+04  0.25500000920E-02 0. -1.
</event>
<event>
 5   0  0.1187925E-07  0.3881463E+04  0.7818609E-02  0.8028896E-01
        3   -1    0    0  501    0  0.00000000000E+00  0.00000000000E+00  0.19367579232E+04  0.19367579258E+04  0.10100000352E+00 0. -1.
       -3   -1    0    0    0  501  0.00000000000E+00  0.00000000000E+00 -0.19447131755E+04  0.19447131781E+04  0.10100000352E+00 0.  1.
    10030    2    1    2    0    0  0.00000000000E+00  0.00000000000E+00 -0.79552523523E+01  0.38814711039E+04  0.38814629516E+04 0.  0.
        4    1    3    3  502    0  0.10186255770E+04  0.16509649034E+04 -0.60137070288E+02  0.19408506533E+04  0.12699999809E+01 0. -1.
       -4    1    3    3    0  502 -0.10186255770E+04 -0.16509649034E+04  0.52181817936E+02  0.19406204506E+04  0.12699999809E+01 0.  1.
</event>
<event>
 5   0  0.3810833E-07  0.3886291E+04  0.7818609E-02  0.8027886E-01
        2   -1    0    0  501    0  0.00000000000E+00  0.00000000000E+00  0.13550141322E+04  0.13550141322E+04  0.25500000920E-02 0. -1.
       -2   -1    0    0    0  501  0.00000000000E+00  0.00000000000E+00 -0.27865499059E+04  0.27865499059E+04  0.25500000920E-02 0.  1.
    10030    2    1    2    0    0  0.00000000000E+00  0.00000000000E+00 -0.14315357736E+04  0.41415640381E+04  0.38862910352E+04 0.  0.
        3    1    3    3  502    0  0.92491336058E+03 -0.11119468412E+04  0.66713060272E+03  0.15927817658E+04  0.10100000352E+00 0. -1.
       -3    1    3    3    0  502 -0.92491336058E+03  0.11119468412E+04 -0.20986663764E+04  0.25487822723E+04  0.10100000352E+00 0.  1.
</event>
<event>
 5   0  0.1187925E-07  0.3876708E+04  0.7818609E-02  0.8029891E-01
       -1   -1    0    0    0  501  0.00000000000E+00  0.00000000000E+00  0.27117912456E+04  0.27117912457E+04  0.50400001928E-02 0. -1.
        1   -1    0    0  501    0  0.00000000000E+00  0.00000000000E+00 -0.13855110963E+04  0.13855110963E+04  0.50400001928E-02 0.  1.
    10030    2    1    2    0    0  0.00000000000E+00  0.00000000000E+00  0.13262801494E+04  0.40973023419E+04  0.38767083262E+04 0.  0.
        3    1    3    3  502    0  0.77585883492E+03  0.17731464689E+04  0.55123053226E+03  0.20124265060E+04  0.10100000352E+00 0. -1.
       -3    1    3    3    0  502 -0.77585883492E+03 -0.17731464689E+04  0.77504961713E+03  0.20848758359E+04  0.10100000352E+00 0.  1.
</event>
<event>
 5   0  0.3610483E-07  0.3902394E+04  0.7818609E-02  0.8024531E-01
       -2   -1    0    0    0  501  0.00000000000E+00  0.00000000000E+00  0.15414681413E+04  0.15414681413E+04  0.25500000920E-02 0. -1.
        2   -1    0    0  501    0  0.00000000000E+00  0.00000000000E+00 -0.24698338596E+04  0.24698338596E+04  0.25500000920E-02 0.  1.
    10030    2    1    2    0    0  0.00000000000E+00  0.00000000000E+00 -0.92836571825E+03  0.40113020009E+04  0.39023942440E+04 0.  0.
        4    1    3    3  502    0  0.20206604465E+03  0.19083306334E+04 -0.10132684077E+03  0.19216725097E+04  0.12699999809E+01 0.  1.
       -4    1    3    3    0  502 -0.20206604465E+03 -0.19083306334E+04 -0.82703887748E+03  0.20896294913E+04  0.12699999809E+01 0. -1.
</event>
<event>
 5   0  0.1187925E-07  0.2939353E+04  0.7818609E-02  0.8261264E-01
        1   -1    0    0  501    0  0.00000000000E+00  0.00000000000E+00  0.13348710711E+04  0.13348710711E+04  0.50400001928E-02 0. -1.
       -1   -1    0    0    0  501  0.00000000000E+00  0.00000000000E+00 -0.16180952965E+04  0.16180952965E+04  0.50400001928E-02 0.  1.
    10030    2    1    2    0    0  0.00000000000E+00  0.00000000000E+00 -0.28322422537E+03  0.29529663676E+04  0.29393527189E+04 0.  0.
        2    1    3    3  502    0 -0.38029257937E+03 -0.71798348206E+02  0.12827595166E+04  0.13398691824E+04  0.25500000920E-02 0. -1.
       -2    1    3    3    0  502  0.38029257937E+03  0.71798348206E+02 -0.15659837419E+04  0.16130971851E+04  0.25500000920E-02 0.  1.
</event>
<event>
 5   0  0.1187925E-07  0.3917158E+04  0.7818609E-02  0.8021470E-01
       -1   -1    0    0    0  501  0.00000000000E+00  0.00000000000E+00  0.17815637329E+04  0.17815637330E+04  0.50400001928E-02 0. -1.
        1   -1    0    0  501    0  0.00000000000E+00  0.00000000000E+00 -0.21531824820E+04  0.21531824820E+04  0.50400001928E-02 0.  1.
    10030    2    1    2    0    0  0.00000000000E+00  0.00000000000E+00 -0.37161874906E+03  0.39347462150E+04  0.39171580618E+04 0.  0.
        1    1    3    3  502    0 -0.18474752907E+04  0.60236646833E+03  0.60283524631E+02  0.19441307609E+04  0.50400001928E-02 0. -1.
       -1    1    3    3    0  502  0.18474752907E+04 -0.60236646833E+03 -0.43190227369E+03  0.19906154541E+04  0.50400001928E-02 0.  1.
</event>
<event>
 5   0  0.3832389E-07  0.3845004E+04  0.7818609E-02  0.8036566E-01
       -2   -1    0    0    0  501  0.00000000000E+00  0.00000000000E+00  0.19379434183E+04  0.19379434183E+04  0.25500000920E-02 0.  1.
        2   -1    0    0  501    0  0.00000000000E+00  0.00000000000E+00 -0.19071834554E+04  0.19071834554E+04  0.25500000920E-02 0. -1.
    10030    2    1    2    0    0  0.00000000000E+00  0.00000000000E+00  0.30759962963E+02  0.38451268737E+04  0.38450038361E+04 0.  0.
        5    1    3    3  502    0 -0.21421032210E+02  0.36599929131E+03 -0.18718945436E+04  0.19074657570E+04  0.46999998093E+01 0. -1.
       -5    1    3    3    0  502  0.21421032210E+02 -0.36599929131E+03  0.19026545066E+04  0.19376611167E+04  0.46999998093E+01 0.  1.
</event>
<event>
 5   0  0.1187925E-07  0.3868224E+04  0.7818609E-02  0.8031671E-01
        1   -1    0    0  501    0  0.00000000000E+00  0.00000000000E+00  0.14186370231E+04  0.14186370231E+04  0.50400001928E-02 0.  1.
       -1   -1    0    0    0  501  0.00000000000E+00  0.00000000000E+00 -0.26368892412E+04  0.26368892412E+04  0.50400001928E-02 0. -1.
    10030    2    1    2    0    0  0.00000000000E+00  0.00000000000E+00 -0.12182522181E+04  0.40555262643E+04  0.38682237285E+04 0.  0.
        5    1    3    3  502    0 -0.18410238145E+04 -0.43508902448E+03 -0.10312316672E+04  0.21545607409E+04  0.46999998093E+01 0. -1.
       -5    1    3    3    0  502  0.18410238145E+04  0.43508902448E+03 -0.18702055086E+03  0.19009655234E+04  0.46999998093E+01 0.  1.
</event>
<event>
 5   0  0.3810833E-07  0.3962817E+04  0.7818609E-02  0.8012090E-01
       -2   -1    0    0    0  501  0.00000000000E+00  0.00000000000E+00  0.26326216669E+04  0.26326216669E+04  0.25500000920E-02 0.  1.
        2   -1    0    0  501    0  0.00000000000E+00  0.00000000000E+00 -0.14912813016E+04  0.14912813016E+04  0.25500000920E-02 0. -1.
    10030    2    1    2    0    0  0.00000000000E+00  0.00000000000E+00  0.11413403652E+04  0.41239029685E+04  0.39628169103E+04 0.  0.
        3    1    3    3  502    0 -0.11999184312E+04 -0.45658308111E+03 -0.99988560963E+03  0.16272810433E+04  0.10100000352E+00 0. -1.
       -3    1    3    3    0  502  0.11999184312E+04  0.45658308111E+03  0.21412259749E+04  0.24966219251E+04  0.10100000352E+00 0.  1.
</event>
<event>
 5   0  0.3680814E-07  0.3886619E+04  0.7818609E-02  0.8027818E-01
        2   -1    0    0  501    0  0.00000000000E+00  0.00000000000E+00  0.19600140440E+04  0.19600140440E+04  0.25500000920E-02 0.  1.
       -2   -1    0    0    0  501  0.00000000000E+00  0.00000000000E+00 -0.19267471712E+04  0.19267471712E+04  0.25500000920E-02 0. -1.
    10030    2    1    2    0    0  0.00000000000E+00  0.00000000000E+00  0.33266872811E+02  0.38867612151E+04  0.38866188466E+04 0.  0.
        1    1    3    3  502    0 -0.66924829104E+03  0.18193709088E+04 -0.11919398065E+03  0.19422180578E+04  0.50400001928E-02 0. -1.
       -1    1    3    3    0  502  0.66924829104E+03 -0.18193709088E+04  0.15246085346E+03  0.19445431573E+04  0.50400001928E-02 0.  1.
</event>
<event>
 5   0  0.1187925E-07  0.3937752E+04  0.7818609E-02  0.8017223E-01
        1   -1    0    0  501    0  0.00000000000E+00  0.00000000000E+00  0.21908991870E+04  0.21908991870E+04  0.50400001928E-02 0.  1.
       -1   -1    0    0    0  501  0.00000000000E+00  0.00000000000E+00 -0.17693522152E+04  0.17693522152E+04  0.50400001928E-02 0. -1.
    10030    2    1    2    0    0  0.00000000000E+00  0.00000000000E+00  0.42154697179E+03  0.39602514023E+04  0.39377518103E+04 0.  0.
        2    1    3    3  502    0 -0.62474322175E+03  0.15654739501E+04  0.12341630529E+04  0.20890598897E+04  0.25500000920E-02 0.  1.
       -2    1    3    3    0  502  0.62474322175E+03 -0.15654739501E+04 -0.81261608109E+03  0.18711915126E+04  0.25500000920E-02 0. -1.
</event>
<event>
 5   0  0.1187925E-07  0.3526554E+04  0.7818609E-02  0.8107526E-01
        1   -1    0    0  501    0  0.00000000000E+00  0.00000000000E+00  0.92936533973E+03  0.92936533975E+03  0.50400001928E-02 0. -1.
       -1   -1    0    0    0  501  0.00000000000E+00  0.00000000000E+00 -0.33454509082E+04  0.33454509083E+04  0.50400001928E-02 0.  1.
    10030    2    1    2    0    0  0.00000000000E+00  0.00000000000E+00 -0.24160855685E+04  0.42748162480E+04  0.35265541935E+04 0.  0.
        2    1    3    3  502    0 -0.20517571619E+03  0.89956383441E+03 -0.30294744774E+04  0.31668640287E+04  0.25500000920E-02 0.  1.
       -2    1    3    3    0  502  0.20517571619E+03 -0.89956383441E+03  0.61338890892E+03  0.11079522193E+04  0.25500000920E-02 0. -1.
</event>
<event>
 5   0  0.3810833E-07  0.3041598E+04  0.7818609E-02  0.8231951E-01
       -2   -1    0    0    0  501  0.00000000000E+00  0.00000000000E+00  0.30855748717E+04  0.30855748717E+04  0.25500000920E-02 0.  1.
        2   -1    0    0  501    0  0.00000000000E+00  0.00000000000E+00 -0.74956214448E+03  0.74956214448E+03  0.25500000920E-02 0. -1.
    10030    2    1    2    0    0  0.00000000000E+00  0.00000000000E+00  0.23360127272E+04  0.38351370162E+04  0.30415983415E+04 0.  0.
        3    1    3    3  502    0  0.88884761017E+02 -0.14438797390E+04  0.17596080409E+04  0.22779178364E+04  0.10100000352E+00 0.  1.
       -3    1    3    3    0  502 -0.88884761017E+02  0.14438797390E+04  0.57640468634E+03  0.15572191798E+04  0.10100000352E+00 0. -1.
</event>
<event>
 5   0  0.3810833E-07  0.3903671E+04  0.7818609E-02  0.8024266E-01
        2   -1    0    0  501    0  0.00000000000E+00  0.00000000000E+00  0.15778359837E+04  0.15778359837E+04  0.25500000920E-02 0. -1.
       -2   -1    0    0    0  501  0.00000000000E+00  0.00000000000E+00 -0.24144849752E+04  0.24144849752E+04  0.25500000920E-02 0.  1.
    10030    2    1    2    0    0  0.00000000000E+00  0.00000000000E+00 -0.83664899154E+03  0.39923209589E+04  0.39036707217E+04 0.  0.
        3    1    3    3  502    0 -0.19219101914E+04 -0.34027568131E+03 -0.40644420330E+03  0.19936707912E+04  0.10100000352E+00 0. -1.
       -3    1    3    3    0  502  0.19219101914E+04  0.34027568131E+03 -0.43020478824E+03  0.19986501677E+04  0.10100000352E+00 0.  1.
</event>
<event>
 5   0  0.1187925E-07  0.3785159E+04  0.7818609E-02  0.8049347E-01
        1   -1    0    0  501    0  0.00000000000E+00  0.00000000000E+00  0.19988204065E+04  0.19988204065E+04  0.50400001928E-02 0. -1.
       -1   -1    0    0    0  501  0.00000000000E+00  0.00000000000E+00 -0.17919855215E+04  0.17919855216E+04  0.50400001928E-02 0.  1.
    10030    2    1    2    0    0  0.00000000000E+00  0.00000000000E+00  0.20683488500E+03  0.37908059281E+04  0.37851590343E+04 0.  0.
        4    1    3    3  502    0 -0.76128531927E+03 -0.41665633116E+03 -0.15809649570E+04  0.18034992775E+04  0.12699999809E+01 0.  1.
       -4    1    3    3    0  502  0.76128531927E+03  0.41665633116E+03  0.17877998420E+04  0.19873066506E+04  0.12699999809E+01 0. -1.
</event>
<event>
 5   0  0.1187925E-07  0.3858145E+04  0.7818609E-02  0.8033791E-01
       -1   -1    0    0    0  501  0.00000000000E+00  0.00000000000E+00  0.18932456458E+04  0.18932456458E+04  0.50400001928E-02 0.  1.
        1   -1    0    0  501    0  0.00000000000E+00  0.00000000000E+00 -0.19655774039E+04  0.19655774039E+04  0.50400001928E-02 0. -1.
    10030    2    1    2    0    0  0.00000000000E+00  0.00000000000E+00 -0.72331758066E+02  0.38588230497E+04  0.38581450783E+04 0.  0.
        4    1    3    3  502    0 -0.25422772668E+03  0.15596471412E+04 -0.11427907407E+04  0.19501546687E+04  0.12699999809E+01 0. -1.
       -4    1    3    3    0  502  0.25422772668E+03 -0.15596471412E+04  0.10704589826E+04  0.19086683809E+04  0.12699999809E+01 0.  1.
</event>
<event>
 5   0  0.1187925E-07  0.2934467E+04  0.7818609E-02  0.8262696E-01
       -1   -1    0    0    0  501  0.00000000000E+00  0.00000000000E+00  0.15670472941E+04  0.15670472941E+04  0.50400001928E-02 0. -1.
        1   -1    0    0  501    0  0.00000000000E+00  0.00000000000E+00 -0.13737776325E+04  0.13737776325E+04  0.50400001928E-02 0.  1.
    10030    2    1    2    0    0  0.00000000000E+00  0.00000000000E+00  0.19326966168E+03  0.29408249266E+04  0.29344672577E+04 0.  0.
        1    1    3    3  502    0  0.55972607416E+03 -0.87603795490E+03 -0.94100143851E+03  0.14022194849E+04  0.50400001928E-02 0.  1.
       -1    1    3    3    0  502 -0.55972607416E+03  0.87603795490E+03  0.11342711002E+04  0.15386054417E+04  0.50400001928E-02 0. -1.
</event>
<event>
 5   0  0.1187925E-07  0.3928361E+04  0.7818609E-02  0.8019156E-01
       -1   -1    0    0    0  501  0.00000000000E+00  0.00000000000E+00  0.21742784033E+04  0.21742784033E+04  0.50400001928E-02 0. -1.
        1   -1    0    0  501    0  0.00000000000E+00  0.00000000000E+00 -0.17743841157E+04  0.17743841157E+04  0.50400001928E-02 0.  1.
    10030    2    1    2    0    0  0.00000000000E+00  0.00000000000E+00  0.39989428762E+03  0.39486625190E+04  0.39283610129E+04 0.  0.
        1    1    3    3  502    0  0.45433161198E+03 -0.17275614681E+04  0.10209418418E+04  0.20574761442E+04  0.50400001928E-02 0. -1.
       -1    1    3    3    0  502 -0.45433161198E+03  0.17275614681E+04 -0.62104755422E+03  0.18911863748E+04  0.50400001928E-02 0.  1.
</event>
<event>
 5   0  0.1187925E-07  0.3916345E+04  0.7818609E-02  0.8021638E-01
        1   -1    0    0  501    0  0.00000000000E+00  0.00000000000E+00  0.15010653330E+04  0.15010653330E+04  0.50400001928E-02 0.  1.
       -1   -1    0    0    0  501  0.00000000000E+00  0.00000000000E+00 -0.25544794086E+04  0.25544794086E+04  0.50400001928E-02 0. -1.
    10030    2    1    2    0    0  0.00000000000E+00  0.00000000000E+00 -0.10534140756E+04  0.40555447416E+04  0.39163454823E+04 0.  0.
        2    1    3    3  502    0  0.16588230800E+04 -0.52174897453E+03 -0.14589975599E+04  0.22699316912E+04  0.25500000920E-02 0. -1.
       -2    1    3    3    0  502 -0.16588230800E+04  0.52174897453E+03  0.40558348428E+03  0.17856130504E+04  0.25500000920E-02 0.  1.
</event>
<event>
 5   0  0.1187925E-07  0.3892511E+04  0.7818609E-02  0.8026589E-01
       -1   -1    0    0    0  501  0.00000000000E+00  0.00000000000E+00  0.14582492631E+04  0.14582492631E+04  0.50400001928E-02 0. -1.
        1   -1    0    0  501    0  0.00000000000E+00  0.00000000000E+00 -0.25975738331E+04  0.25975738331E+04  0.50400001928E-02 0.  1.
    10030    2    1    2    0    0  0.00000000000E+00  0.00000000000E+00 -0.11393245700E+04  0.40558230963E+04  0.38925108237E+04 0.  0.
        5    1    3    3  502    0  0.42064933601E+03  0.92517581938E+03 -0.22991175649E+04  0.25137342397E+04  0.46999998093E+01 0.  1.
       -5    1    3    3    0  502 -0.42064933601E+03 -0.92517581938E+03  0.11597929949E+04  0.15420888566E+04  0.46999998093E+01 0. -1.
</event>
<event>
 5   0  0.1187925E-07  0.3853082E+04  0.7818609E-02  0.8034859E-01
        1   -1    0    0  501    0  0.00000000000E+00  0.00000000000E+00  0.24085800446E+04  0.24085800446E+04  0.50400001928E-02 0. -1.
       -1   -1    0    0    0  501  0.00000000000E+00  0.00000000000E+00 -0.15409747986E+04  0.15409747986E+04  0.50400001928E-02 0.  1.
    10030    2    1    2    0    0  0.00000000000E+00  0.00000000000E+00  0.86760524600E+03  0.39495548432E+04  0.38530824799E+04 0.  0.
        2    1    3    3  502    0  0.42965051636E+03  0.72783049938E+03  0.22083985033E+04  0.23646058343E+04  0.25500000920E-02 0. -1.
       -2    1    3    3    0  502 -0.42965051636E+03 -0.72783049938E+03 -0.13407932573E+04  0.15849490089E+04  0.25500000920E-02 0.  1.
</event>
<event>
 5   0  0.3680814E-07  0.3852840E+04  0.7818609E-02  0.8034910E-01
       -2   -1    0    0    0  501  0.00000000000E+00  0.00000000000E+00  0.16931929592E+04  0.16931929592E+04  0.25500000920E-02 0.  1.
        2   -1    0    0  501    0  0.00000000000E+00  0.00000000000E+00 -0.21917729430E+04  0.21917729430E+04  0.25500000920E-02 0. -1.
    10030    2    1    2    0    0  0.00000000000E+00  0.00000000000E+00 -0.49857998377E+03  0.38849659022E+04  0.38528402590E+04 0.  0.
        1    1    3    3  502    0 -0.22041536149E+02  0.14931110946E+04 -0.14764951064E+04  0.20999772307E+04  0.50400001928E-02 0. -1.
       -1    1    3    3    0  502  0.22041536149E+02 -0.14931110946E+04  0.97791512266E+03  0.17849886715E+04  0.50400001928E-02 0.  1.
</event>
<event>
 5   0  0.3680814E-07  0.4136732E+04  0.7818609E-02  0.7977517E-01
        2   -1    0    0  501    0  0.00000000000E+00  0.00000000000E+00  0.22332516048E+04  0.22332516048E+04  0.25500000920E-02 0. -1.
       -2   -1    0    0    0  501  0.00000000000E+00  0.00000000000E+00 -0.19156546537E+04  0.19156546537E+04  0.25500000920E-02 0.  1.
    10030    2    1    2    0    0  0.00000000000E+00  0.00000000000E+00  0.31759695116E+03  0.41489062585E+04  0.41367324446E+04 0.  0.
        1    1    3    3  502    0 -0.12343594159E+04  0.54018929006E+03  0.17327130918E+04  0.21949356016E+04  0.50400001928E-02 0. -1.
       -1    1    3    3    0  502  0.12343594159E+04 -0.54018929006E+03 -0.14151161406E+04  0.19539706569E+04  0.50400001928E-02 0.  1.
</event>
<event>
 5   0  0.3665303E-07  0.3831811E+04  0.7818609E-02  0.8039363E-01
       -2   -1    0    0    0  501  0.00000000000E+00  0.00000000000E+00  0.17037817703E+04  0.17037817703E+04  0.25500000920E-02 0.  1.
        2   -1    0    0  501    0  0.00000000000E+00  0.00000000000E+00 -0.21544390634E+04  0.21544390634E+04  0.25500000920E-02 0. -1.
    10030    2    1    2    0    0  0.00000000000E+00  0.00000000000E+00 -0.45065729312E+03  0.38582208338E+04  0.38318110609E+04 0.  0.
        2    1    3    3  502    0  0.14477563770E+04 -0.11367582452E+04 -0.76047663891E+03  0.19916180742E+04  0.25500000920E-02 0. -1.
       -2    1    3    3    0  502 -0.14477563770E+04  0.11367582452E+04  0.30981934580E+03  0.18666027596E+04  0.25500000920E-02 0.  1.
</event>
<event>
 5   0  0.1187925E-07  0.3874597E+04  0.7818609E-02  0.8030333E-01
        1   -1    0    0  501    0  0.00000000000E+00  0.00000000000E+00  0.21574925636E+04  0.21574925636E+04  0.50400001928E-02 0. -1.
       -1   -1    0    0    0  501  0.00000000000E+00  0.00000000000E+00 -0.17395772137E+04  0.17395772137E+04  0.50400001928E-02 0.  1.
    10030    2    1    2    0    0  0.00000000000E+00  0.00000000000E+00  0.41791534987E+03  0.38970697773E+04  0.38745967028E+04 0.  0.
        4    1    3    3  502    0  0.13048491408E+03 -0.15859730910E+04 -0.90234281648E+03  0.18293608527E+04  0.12699999809E+01 0.  1.
       -4    1    3    3    0  502 -0.13048491408E+03  0.15859730910E+04  0.13202581663E+04  0.20677089246E+04  0.12699999809E+01 0. -1.
</event>
<event>
 5   0  0.1187925E-07  0.3052669E+04  0.7818609E-02  0.8228849E-01
        1   -1    0    0  501    0  0.00000000000E+00  0.00000000000E+00  0.19053952401E+04  0.19053952401E+04  0.50400001928E-02 0.  1.
       -1   -1    0    0    0  501  0.00000000000E+00  0.00000000000E+00 -0.12226842357E+04  0.12226842357E+04  0.50400001928E-02 0. -1.
    10030    2    1    2    0    0  0.00000000000E+00  0.00000000000E+00  0.68271100442E+03  0.31280794758E+04  0.30526688146E+04 0.  0.
        4    1    3    3  502    0 -0.53521633546E+02  0.12269030237E+04 -0.58742334824E+03  0.13613314798E+04  0.12699999809E+01 0. -1.
       -4    1    3    3    0  502  0.53521633546E+02 -0.12269030237E+04  0.12701343527E+04  0.17667479960E+04  0.12699999809E+01 0.  1.
</event>
<event>
 5   0  0.1187925E-07  0.3925981E+04  0.7818609E-02  0.8019647E-01
       -1   -1    0    0    0  501  0.00000000000E+00  0.00000000000E+00  0.15901523476E+04  0.15901523476E+04  0.50400001928E-02 0.  1.
        1   -1    0    0  501    0  0.00000000000E+00  0.00000000000E+00 -0.24232470764E+04  0.24232470764E+04  0.50400001928E-02 0. -1.
    10030    2    1    2    0    0  0.00000000000E+00  0.00000000000E+00 -0.83309472881E+03  0.40133994240E+04  0.39259811652E+04 0.  0.
        1    1    3    3  502    0 -0.48845631758E+03 -0.11783618949E+04  0.11087229477E+04  0.16900866559E+04  0.50400001928E-02 0.  1.
       -1    1    3    3    0  502  0.48845631758E+03  0.11783618949E+04 -0.19418176765E+04  0.23233127681E+04  0.50400001928E-02 0. -1.
</event>
<event>
 5   0  0.1187925E-07  0.3335621E+04  0.7818609E-02  0.8153890E-01
        1   -1    0    0  501    0  0.00000000000E+00  0.00000000000E+00  0.13065695266E+04  0.13065695266E+04  0.50400001928E-02 0.  1.
       -1   -1    0    0    0  501  0.00000000000E+00  0.00000000000E+00 -0.21289281357E+04  0.21289281357E+04  0.50400001928E-02 0. -1.
    10030    2    1    2    0    0  0.00000000000E+00  0.00000000000E+00 -0.82235860914E+03  0.34354976623E+04  0.33356214572E+04 0.  0.
        2    1    3    3  502    0 -0.77986777112E+03  0.11407897973E+04  0.55058914133E+03  0.14875293290E+04  0.25500000920E-02 0.  1.
       -2    1    3    3    0  502  0.77986777112E+03 -0.11407897973E+04 -0.13729477505E+04  0.19479683333E+04  0.25500000920E-02 0. -1.
</event>
<event>
 5   0  0.1187925E-07  0.3916482E+04  0.7818609E-02  0.8021610E-01
        1   -1    0    0  501    0  0.00000000000E+00  0.00000000000E+00  0.25403833593E+04  0.25403833593E+04  0.50400001928E-02 0.  1.
       -1   -1    0    0    0  501  0.00000000000E+00  0.00000000000E+00 -0.15094998182E+04  0.15094998182E+04  0.50400001928E-02 0. -1.
    10030    2    1    2    0    0  0.00000000000E+00  0.00000000000E+00  0.10308835411E+04  0.40498831775E+04  0.39164822067E+04 0.  0.
        2    1    3    3  502    0  0.14353551183E+04  0.96265544116E+03 -0.43665784551E+03  0.17825879749E+04  0.25500000920E-02 0. -1.
       -2    1    3    3    0  502 -0.14353551183E+04 -0.96265544116E+03  0.14675413866E+04  0.22672952026E+04  0.25500000920E-02 0.  1.
</event>
<event>
 5   0  0.3810833E-07  0.3896628E+04  0.7818609E-02  0.8025731E-01
       -2   -1    0    0    0  501  0.00000000000E+00  0.00000000000E+00  0.21365486363E+04  0.21365486363E+04  0.25500000920E-02 0. -1.
        2   -1    0    0  501    0  0.00000000000E+00  0.00000000000E+00 -0.17766628849E+04  0.17766628849E+04  0.25500000920E-02 0.  1.
    10030    2    1    2    0    0  0.00000000000E+00  0.00000000000E+00  0.35988575140E+03  0.39132115212E+04  0.38966276003E+04 0.  0.
        3    1    3    3  502    0  0.10545828600E+04 -0.39602534779E+02 -0.14647737242E+04  0.18053463497E+04  0.10100000352E+00 0.  1.
       -3    1    3    3    0  502 -0.10545828600E+04  0.39602534779E+02  0.18246594756E+04  0.21078651715E+04  0.10100000352E+00 0. -1.
</event>
<event>
 5   0  0.3680814E-07  0.3908424E+04  0.7818609E-02  0.8023279E-01
       -2   -1    0    0    0  501  0.00000000000E+00  0.00000000000E+00  0.14552396146E+04  0.14552396146E+04  0.25500000920E-02 0. -1.
        2   -1    0    0  501    0  0.00000000000E+00  0.00000000000E+00 -0.26242726459E+04  0.26242726459E+04  0.25500000920E-02 0.  1.
    10030    2    1    2    0    0  0.00000000000E+00  0.00000000000E+00 -0.11690330312E+04  0.40795122605E+04  0.39084244979E+04 0.  0.
        1    1    3    3  502    0 -0.11840786148E+04  0.19363334505E+03  0.10255399576E+04  0.15783751908E+04  0.50400001928E-02 0. -1.
       -1    1    3    3    0  502  0.11840786148E+04 -0.19363334505E+03 -0.21945729888E+04  0.25011370697E+04  0.50400001928E-02 0.  1.
</event>
<event>
 5   0  0.3810833E-07  0.3915620E+04  0.7818609E-02  0.8021788E-01
       -2   -1    0    0    0  501  0.00000000000E+00  0.00000000000E+00  0.13158645017E+04  0.13158645017E+04  0.25500000920E-02 0. -1.
        2   -1    0    0  501    0  0.00000000000E+00  0.00000000000E+00 -0.29129285810E+04  0.29129285810E+04  0.25500000920E-02 0.  1.
    10030    2    1    2    0    0  0.00000000000E+00  0.00000000000E+00 -0.15970640793E+04  0.42287930826E+04  0.39156196524E+04 0.  0.
        3    1    3    3  502    0 -0.49408051530E+03  0.18376661523E+04 -0.30140435314E+03  0.19266491733E+04  0.10100000352E+00 0. -1.
       -3    1    3    3    0  502  0.49408051530E+03 -0.18376661523E+04 -0.12956597262E+04  0.23021439093E+04  0.10100000352E+00 0.  1.
</event>
<event>
 5   0  0.1187925E-07  0.3931754E+04  0.7818609E-02  0.8018457E-01
        1   -1    0    0  501    0  0.00000000000E+00  0.00000000000E+00  0.24470558988E+04  0.24470558988E+04  0.50400001928E-02 0. -1.
       -1   -1    0    0    0  501  0.00000000000E+00  0.00000000000E+00 -0.15793148178E+04  0.15793148179E+04  0.50400001928E-02 0.  1.
    10030    2    1    2    0    0  0.00000000000E+00  0.00000000000E+00  0.86774108092E+03  0.40263707166E+04  0.39317536246E+04 0.  0.
        1    1    3    3  502    0  0.11949508167E+04  0.96434301220E+03 -0.82319013413E+03  0.17422706152E+04  0.50400001928E-02 0.  1.
       -1    1    3    3    0  502 -0.11949508167E+04 -0.96434301220E+03  0.16909312150E+04  0.22841001015E+04  0.50400001928E-02 0. -1.
</event>
<event>
 5   0  0.3665303E-07  0.3904702E+04  0.7818609E-02  0.8024052E-01
        2   -1    0    0  501    0  0.00000000000E+00  0.00000000000E+00  0.22013518765E+04  0.22013518765E+04  0.25500000920E-02 0. -1.
       -2   -1    0    0    0  501  0.00000000000E+00  0.00000000000E+00 -0.17315153730E+04  0.17315153730E+04  0.25500000920E-02 0.  1.
    10030    2    1    2    0    0  0.00000000000E+00  0.00000000000E+00  0.46983650350E+03  0.39328672496E+04  0.39047020965E+04 0.  0.
        2    1    3    3  502    0  0.59488749929E+03  0.35508821852E+03 -0.16035411963E+04  0.17468036947E+04  0.25500000920E-02 0.  1.
       -2    1    3    3    0  502 -0.59488749929E+03 -0.35508821852E+03  0.20733776998E+04  0.21860635548E+04  0.25500000920E-02 0. -1.
</event>
<event>
 5   0  0.3665303E-07  0.3210943E+04  0.7818609E-02  0.8185933E-01
        2   -1    0    0  501    0  0.00000000000E+00  0.00000000000E+00  0.31741246817E+04  0.31741246817E+04  0.25500000920E-02 0.  1.
       -2   -1    0    0    0  501  0.00000000000E+00  0.00000000000E+00 -0.81204693990E+03  0.81204693991E+03  0.25500000920E-02 0. -1.
    10030    2    1    2    0    0  0.00000000000E+00  0.00000000000E+00  0.23620777418E+04  0.39861716216E+04  0.32109426869E+04 0.  0.
        2    1    3    3  502    0  0.26948446133E+03  0.99521446228E+03  0.27087913351E+04  0.28983830316E+04  0.25500000920E-02 0.  1.
       -2    1    3    3    0  502 -0.26948446133E+03 -0.99521446228E+03 -0.34671359327E+03  0.10877885900E+04  0.25500000920E-02 0. -1.
</event>
<event>
 5   0  0.1187925E-07  0.2792952E+04  0.7818609E-02  0.8305460E-01
        1   -1    0    0  501    0  0.00000000000E+00  0.00000000000E+00  0.14961405099E+04  0.14961405099E+04  0.50400001928E-02 0.  1.
       -1   -1    0    0    0  501  0.00000000000E+00  0.00000000000E+00 -0.13034502406E+04  0.13034502407E+04  0.50400001928E-02 0. -1.
    10030    2    1    2    0    0  0.00000000000E+00  0.00000000000E+00  0.19269026929E+03  0.27995907506E+04  0.27929516342E+04 0.  0.
        1    1    3    3  502    0 -0.89601279218E+03 -0.70350669811E+03  0.90596810640E+03  0.14555201159E+04  0.50400001928E-02 0.  1.
       -1    1    3    3    0  502  0.89601279218E+03  0.70350669811E+03 -0.71327783711E+03  0.13440706347E+04  0.50400001928E-02 0. -1.
</event>
<event>
 5   0  0.1187925E-07  0.3915454E+04  0.7818609E-02  0.8021823E-01
       -1   -1    0    0    0  501  0.00000000000E+00  0.00000000000E+00  0.19370223148E+04  0.19370223148E+04  0.50400001928E-02 0.  1.
        1   -1    0    0  501    0  0.00000000000E+00  0.00000000000E+00 -0.19786528227E+04  0.19786528227E+04  0.50400001928E-02 0. -1.
    10030    2    1    2    0    0  0.00000000000E+00  0.00000000000E+00 -0.41630507895E+02  0.39156751376E+04  0.39154538286E+04 0.  0.
        4    1    3    3  502    0  0.19218515429E+04 -0.22665385371E+03 -0.31715570363E+03  0.19609881885E+04  0.12699999809E+01 0. -1.
       -4    1    3    3    0  502 -0.19218515429E+04  0.22665385371E+03  0.27552519574E+03  0.19546869490E+04  0.12699999809E+01 0.  1.
</event>
<event>
 5   0  0.1187925E-07  0.3871729E+04  0.7818609E-02  0.8030935E-01
        1   -1    0    0  501    0  0.00000000000E+00  0.00000000000E+00  0.23343006050E+04  0.23343006050E+04  0.50400001928E-02 0.  1.
       -1   -1    0    0    0  501  0.00000000000E+00  0.00000000000E+00 -0.16054367503E+04  0.16054367503E+04  0.50400001928E-02 0. -1.
    10030    2    1    2    0    0  0.00000000000E+00  0.00000000000E+00  0.72886385470E+03  0.39397373553E+04  0.38717293178E+04 0.  0.
        5    1    3    3  502    0 -0.61039101749E+03  0.16575230006E+04  0.11705531564E+04  0.21190036512E+04  0.46999998093E+01 0.  1.
       -5    1    3    3    0  502  0.61039101749E+03 -0.16575230006E+04 -0.44168930173E+03  0.18207337041E+04  0.46999998093E+01 0. -1.
</event>
<event>
 5   0  0.3610483E-07  0.3817471E+04  0.7818609E-02  0.8042416E-01
       -2   -1    0    0    0  501  0.00000000000E+00  0.00000000000E+00  0.13981172083E+04  0.13981172083E+04  0.25500000920E-02 0. -1.
        2   -1    0    0  501    0  0.00000000000E+00  0.00000000000E+00 -0.26058409142E+04  0.26058409142E+04  0.25500000920E-02 0.  1.
    10030    2    1    2    0    0  0.00000000000E+00  0.00000000000E+00 -0.12077237058E+04  0.40039581225E+04  0.38174709032E+04 0.  0.
        4    1    3    3  502    0 -0.76042907798E+03  0.17386961873E+04 -0.38903269960E+03  0.19371796170E+04  0.12699999809E+01 0. -1.
       -4    1    3    3    0  502  0.76042907798E+03 -0.17386961873E+04 -0.81869100624E+03  0.20667785055E+04  0.12699999809E+01 0.  1.
</event>
<event>
 5   0  0.1187925E-07  0.3822248E+04  0.7818609E-02  0.8041397E-01
        1   -1    0    0  501    0  0.00000000000E+00  0.00000000000E+00  0.19898150356E+04  0.19898150357E+04  0.50400001928E-02 0.  1.
       -1   -1    0    0    0  501  0.00000000000E+00  0.00000000000E+00 -0.18355450155E+04  0.18355450155E+04  0.50400001928E-02 0. -1.
    10030    2    1    2    0    0  0.00000000000E+00  0.00000000000E+00  0.15427002017E+03  0.38253600511E+04  0.38222480665E+04 0.  0.
        5    1    3    3  502    0  0.72043768315E+03  0.16776328183E+04  0.64229881826E+03  0.19354720846E+04  0.46999998093E+01 0.  1.
       -5    1    3    3    0  502 -0.72043768315E+03 -0.16776328183E+04 -0.48802879809E+03  0.18898879665E+04  0.46999998093E+01 0. -1.
</event>
<event>
 5   0  0.3680814E-07  0.3684947E+04  0.7818609E-02  0.8071306E-01
        2   -1    0    0  501    0  0.00000000000E+00  0.00000000000E+00  0.17101882677E+04  0.17101882678E+04  0.25500000920E-02 0. -1.
       -2   -1    0    0    0  501  0.00000000000E+00  0.00000000000E+00 -0.19849911045E+04  0.19849911045E+04  0.25500000920E-02 0.  1.
    10030    2    1    2    0    0  0.00000000000E+00  0.00000000000E+00 -0.27480283679E+03  0.36951793723E+04  0.36849469459E+04 0.  0.
        1    1    3    3  502    0  0.16238736626E+04 -0.84864942446E+03  0.56881203287E+02  0.18331412900E+04  0.50400001928E-02 0.  1.
       -1    1    3    3    0  502 -0.16238736626E+04  0.84864942446E+03 -0.33168404007E+03  0.18620380823E+04  0.50400001928E-02 0. -1.
</event>
<event>
 5   0  0.1187925E-07  0.3917684E+04  0.7818609E-02  0.8021361E-01
       -1   -1    0    0    0  501  0.00000000000E+00  0.00000000000E+00  0.14603741906E+04  0.14603741906E+04  0.50400001928E-02 0. -1.
        1   -1    0    0  501    0  0.00000000000E+00  0.00000000000E+00 -0.26274510568E+04  0.26274510568E+04  0.50400001928E-02 0.  1.
    10030    2    1    2    0    0  0.00000000000E+00  0.00000000000E+00 -0.11670768662E+04  0.40878252474E+04  0.39176838619E+04 0.  0.
        5    1    3    3  502    0 -0.55913096584E+03  0.81949530086E+03 -0.23459267853E+04  0.25470756873E+04  0.46999998093E+01 0.  1.
       -5    1    3    3    0  502  0.55913096584E+03 -0.81949530086E+03  0.11788499191E+04  0.15407495601E+04  0.46999998093E+01 0. -1.
</event>
<event>
 5   0  0.1187925E-07  0.2968270E+04  0.7818609E-02  0.8252850E-01
        1   -1    0    0  501    0  0.00000000000E+00  0.00000000000E+00  0.24217897359E+04  0.24217897359E+04  0.50400001928E-02 0. -1.
       -1   -1    0    0    0  501  0.00000000000E+00  0.00000000000E+00 -0.90951611212E+03  0.90951611214E+03  0.50400001928E-02 0.  1.
    10030    2    1    2    0    0  0.00000000000E+00  0.00000000000E+00  0.15122736238E+04  0.33313058480E+04  0.29682700585E+04 0.  0.
        3    1    3    3  502    0 -0.48374700866E+03  0.13343124191E+04  0.26918556745E+03  0.14445974111E+04  0.10100000352E+00 0.  1.
       -3    1    3    3    0  502  0.48374700866E+03 -0.13343124191E+04  0.12430880563E+04  0.18867084370E+04  0.10100000352E+00 0. -1.
</event>
<event>
 5   0  0.1187925E-07  0.3829388E+04  0.7818609E-02  0.8039878E-01
        1   -1    0    0  501    0  0.00000000000E+00  0.00000000000E+00  0.20081447515E+04  0.20081447515E+04  0.50400001928E-02 0. -1.
       -1   -1    0    0    0  501  0.00000000000E+00  0.00000000000E+00 -0.18255916927E+04  0.18255916927E+04  0.50400001928E-02 0.  1.
    10030    2    1    2    0    0  0.00000000000E+00  0.00000000000E+00  0.18255305887E+03  0.38337364442E+04  0.38293876148E+04 0.  0.
        3    1    3    3  502    0  0.45299003285E+03  0.10328744409E+04  0.16402966709E+04  0.19906287347E+04  0.10100000352E+00 0. -1.
       -3    1    3    3    0  502 -0.45299003285E+03 -0.10328744409E+04 -0.14577436120E+04  0.18431077096E+04  0.10100000352E+00 0.  1.
</event>
<event>
 5   0  0.1187925E-07  0.3828686E+04  0.7818609E-02  0.8040027E-01
       -3   -1    0    0    0  501  0.00000000000E+00  0.00000000000E+00  0.26466290915E+04  0.26466290934E+04  0.10100000352E+00 0. -1.
        3   -1    0    0  501    0  0.00000000000E+00  0.00000000000E+00 -0.13846701489E+04  0.13846701526E+04  0.10100000352E+00 0.  1.
    10030    2    1    2    0    0  0.00000000000E+00  0.00000000000E+00  0.12619589425E+04  0.40312992460E+04  0.38286855758E+04 0.  0.
        2    1    3    3  502    0  0.10166930442E+04  0.10875607388E+04 -0.63614093159E+03  0.16189899294E+04  0.25500000920E-02 0.  1.
       -2    1    3    3    0  502 -0.10166930442E+04 -0.10875607388E+04  0.18980998741E+04  0.24123093166E+04  0.25500000920E-02 0. -1.
</event>
<event>
 5   0  0.3610483E-07  0.3886422E+04  0.7818609E-02  0.8027859E-01
       -2   -1    0    0    0  501  0.00000000000E+00  0.00000000000E+00  0.17746676786E+04  0.17746676786E+04  0.25500000920E-02 0.  1.
        2   -1    0    0  501    0  0.00000000000E+00  0.00000000000E+00 -0.21277609609E+04  0.21277609609E+04  0.25500000920E-02 0. -1.
    10030    2    1    2    0    0  0.00000000000E+00  0.00000000000E+00 -0.35309328228E+03  0.39024286395E+04  0.38864218017E+04 0.  0.
        4    1    3    3  502    0 -0.72962368793E+02 -0.10240964995E+04 -0.18331811023E+04  0.21011072591E+04  0.12699999809E+01 0. -1.
       -4    1    3    3    0  502  0.72962368793E+02  0.10240964995E+04  0.14800878200E+04  0.18013213804E+04  0.12699999809E+01 0.  1.
</event>
<event>
 5   0  0.3810833E-07  0.3895733E+04  0.7818609E-02  0.8025917E-01
        2   -1    0    0  501    0  0.00000000000E+00  0.00000000000E+00  0.23920092572E+04  0.23920092572E+04  0.25500000920E-02 0.  1.
       -2   -1    0    0    0  501  0.00000000000E+00  0.00000000000E+00 -0.15861911254E+04  0.15861911254E+04  0.25500000920E-02 0. -1.
    10030    2    1    2    0    0  0.00000000000E+00  0.00000000000E+00  0.80581813173E+03  0.39782003826E+04  0.38957329763E+04 0.  0.
        3    1    3    3  502    0  0.10455214628E+04  0.10562449041E+04 -0.88287787956E+03  0.17286531714E+04  0.10100000352E+00 0. -1.
       -3    1    3    3    0  502 -0.10455214628E+04 -0.10562449041E+04  0.16886960113E+04  0.22495472112E+04  0.10100000352E+00 0.  1.
</event>
<event>
 5   0  0.3665303E-07  0.3930722E+04  0.7818609E-02  0.8018670E-01
       -2   -1    0    0    0  501  0.00000000000E+00  0.00000000000E+00  0.14022925247E+04  0.14022925247E+04  0.25500000920E-02 0.  1.
        2   -1    0    0  501    0  0.00000000000E+00  0.00000000000E+00 -0.27545203396E+04  0.27545203396E+04  0.25500000920E-02 0. -1.
    10030    2    1    2    0    0  0.00000000000E+00  0.00000000000E+00 -0.13522278149E+04  0.41568128642E+04  0.39307217054E+04 0.  0.
        2    1    3    3  502    0  0.12928860453E+04 -0.11778837673E+04  0.27193213334E+03  0.17700032713E+04  0.25500000920E-02 0.  1.
       -2    1    3    3    0  502 -0.12928860453E+04  0.11778837673E+04 -0.16241599482E+04  0.23868095929E+04  0.25500000920E-02 0. -1.
</event>
<event>
 5   0  0.3680814E-07  0.3856369E+04  0.7818609E-02  0.8034165E-01
       -2   -1    0    0    0  501  0.00000000000E+00  0.00000000000E+00  0.12465280671E+04  0.12465280671E+04  0.25500000920E-02 0.  1.
        2   -1    0    0  501    0  0.00000000000E+00  0.00000000000E+00 -0.29826006863E+04  0.29826006863E+04  0.25500000920E-02 0. -1.
    10030    2    1    2    0    0  0.00000000000E+00  0.00000000000E+00 -0.17360726192E+04  0.42291287534E+04  0.38563690013E+04 0.  0.
        1    1    3    3  502    0 -0.70341476876E+03  0.87469116817E+03  0.85131608131E+03  0.14087640139E+04  0.50400001928E-02 0.  1.
       -1    1    3    3    0  502  0.70341476876E+03 -0.87469116817E+03 -0.25873887005E+04  0.28203647395E+04  0.50400001928E-02 0. -1.
</event>
<event>
 5   0  0.3832389E-07  0.3900140E+04  0.7818609E-02  0.8025000E-01
       -2   -1    0    0    0  501  0.00000000000E+00  0.00000000000E+00  0.14382605243E+04  0.14382605243E+04  0.25500000920E-02 0. -1.
        2   -1    0    0  501    0  0.00000000000E+00  0.00000000000E+00 -0.26440087971E+04  0.26440087971E+04  0.25500000920E-02 0.  1.
    10030    2    1    2    0    0  0.00000000000E+00  0.00000000000E+00 -0.12057482728E+04  0.40822693215E+04  0.39001402431E+04 0.  0.
        5    1    3    3  502    0 -0.13031744083E+03 -0.12157854319E+04 -0.21929027670E+04  0.25107691028E+04  0.46999998093E+01 0.  1.
       -5    1    3    3    0  502  0.13031744083E+03  0.12157854319E+04  0.98715449422E+03  0.15715002187E+04  0.46999998093E+01 0. -1.
</event>
<event>
 5   0  0.3810833E-07  0.4069282E+04  0.7818609E-02  0.7990714E-01
       -2   -1    0    0    0  501  0.00000000000E+00  0.00000000000E+00  0.15735665072E+04  0.15735665072E+04  0.25500000920E-02 0.  1.
        2   -1    0    0  501    0  0.00000000000E+00  0.00000000000E+00 -0.26308157001E+04  0.26308157001E+04  0.25500000920E-02 0. -1.
    10030    2    1    2    0    0  0.00000000000E+00  0.00000000000E+00 -0.10572491929E+04  0.42043822072E+04  0.40692817411E+04 0.  0.
        3    1    3    3  502    0 -0.76860034746E+03 -0.11340461557E+04 -0.20828804511E+04  0.24930299158E+04  0.10100000352E+00 0. -1.
       -3    1    3    3    0  502  0.76860034746E+03  0.11340461557E+04  0.10256312582E+04  0.17113522914E+04  0.10100000352E+00 0.  1.
</event>
<event>
 5   0  0.1187925E-07  0.3905074E+04  0.7818609E-02  0.8023975E-01
       -1   -1    0    0    0  501  0.00000000000E+00  0.00000000000E+00  0.15922698388E+04  0.15922698388E+04  0.50400001928E-02 0. -1.
        1   -1    0    0  501    0  0.00000000000E+00  0.00000000000E+00 -0.23943186849E+04  0.23943186850E+04  0.50400001928E-02 0.  1.
    10030    2    1    2    0    0  0.00000000000E+00  0.00000000000E+00 -0.80204884618E+03  0.39865885237E+04  0.39050743534E+04 0.  0.
        1    1    3    3  502    0 -0.12176839918E+04 -0.77619733448E+03 -0.17426736868E+04  0.22632163362E+04  0.50400001928E-02 0.  1.
       -1    1    3    3    0  502  0.12176839918E+04  0.77619733448E+03  0.94062484060E+03  0.17233721875E+04  0.50400001928E-02 0. -1.
</event>
<event>
 5   0  0.1187925E-07  0.3818925E+04  0.7818609E-02  0.8042106E-01
       -1   -1    0    0    0  501  0.00000000000E+00  0.00000000000E+00  0.19868362277E+04  0.19868362278E+04  0.50400001928E-02 0.  1.
        1   -1    0    0  501    0  0.00000000000E+00  0.00000000000E+00 -0.18351018512E+04  0.18351018512E+04  0.50400001928E-02 0. -1.
    10030    2    1    2    0    0  0.00000000000E+00  0.00000000000E+00  0.15173437652E+03  0.38219380790E+04  0.38189248957E+04 0.  0.
        3    1    3    3  502    0  0.54259291719E+03 -0.10375527222E+04  0.15854087505E+04  0.19708991961E+04  0.10100000352E+00 0.  1.
       -3    1    3    3    0  502 -0.54259291719E+03  0.10375527222E+04 -0.14336743739E+04  0.18510388828E+04  0.10100000352E+00 0. -1.
</event>
<event>
 5   0  0.1187925E-07  0.3902630E+04  0.7818609E-02  0.8024482E-01
       -1   -1    0    0    0  501  0.00000000000E+00  0.00000000000E+00  0.28026318395E+04  0.28026318395E+04  0.50400001928E-02 0.  1.
        1   -1    0    0  501    0  0.00000000000E+00  0.00000000000E+00 -0.13585910924E+04  0.13585910924E+04  0.50400001928E-02 0. -1.
    10030    2    1    2    0    0  0.00000000000E+00  0.00000000000E+00  0.14440407470E+04  0.41612229319E+04  0.39026302169E+04 0.  0.
        5    1    3    3  502    0 -0.99898742619E+03 -0.16316474590E+04  0.11313303103E+04  0.22226514952E+04  0.46999998093E+01 0. -1.
       -5    1    3    3    0  502  0.99898742619E+03  0.16316474590E+04  0.31271043670E+03  0.19385714367E+04  0.46999998093E+01 0.  1.
</event>
<event>
 5   0  0.1187925E-07  0.3904893E+04  0.7818609E-02  0.8024012E-01
        1   -1    0    0  501    0  0.00000000000E+00  0.00000000000E+00  0.25670376708E+04  0.25670376708E+04  0.50400001928E-02 0. -1.
       -1   -1    0    0    0  501  0.00000000000E+00  0.00000000000E+00 -0.14849985963E+04  0.14849985963E+04  0.50400001928E-02 0.  1.
    10030    2    1    2    0    0  0.00000000000E+00  0.00000000000E+00  0.10820390745E+04  0.40520362671E+04  0.39048930012E+04 0.  0.
        3    1    3    3  502    0  0.14352869482E+04 -0.93168053125E+03  0.15166446514E+04  0.22865450454E+04  0.10100000352E+00 0. -1.
       -3    1    3    3    0  502 -0.14352869482E+04  0.93168053125E+03 -0.43460557691E+03  0.17654912216E+04  0.10100000352E+00 0.  1.
</event>
<event>
 5   0  0.3665303E-07  0.3902207E+04  0.7818609E-02  0.8024570E-01
       -2   -1    0    0    0  501  0.00000000000E+00  0.00000000000E+00  0.18479843174E+04  0.18479843174E+04  0.25500000920E-02 0.  1.
        2   -1    0    0  501    0  0.00000000000E+00  0.00000000000E+00 -0.20599765237E+04  0.20599765237E+04  0.25500000920E-02 0. -1.
    10030    2    1    2    0    0  0.00000000000E+00  0.00000000000E+00 -0.21199220620E+03  0.39079608411E+04  0.39022067142E+04 0.  0.
        2    1    3    3  502    0  0.15172739531E+03  0.70049781688E+03  0.17113659776E+04  0.18553953496E+04  0.25500000920E-02 0.  1.
       -2    1    3    3    0  502 -0.15172739531E+03 -0.70049781688E+03 -0.19233581838E+04  0.20525654915E+04  0.25500000920E-02 0. -1.
</event>
<event>
 5   0  0.3680814E-07  0.3887066E+04  0.7818609E-02  0.8027725E-01
       -2   -1    0    0    0  501  0.00000000000E+00  0.00000000000E+00  0.17826554085E+04  0.17826554085E+04  0.25500000920E-02 0. -1.
        2   -1    0    0  501    0  0.00000000000E+00  0.00000000000E+00 -0.21189288443E+04  0.21189288443E+04  0.25500000920E-02 0.  1.
    10030    2    1    2    0    0  0.00000000000E+00  0.00000000000E+00 -0.33627343578E+03  0.39015842528E+04  0.38870657132E+04 0.  0.
        1    1    3    3  502    0 -0.43372020848E+03 -0.20209533934E+03 -0.20588827718E+04  0.21137535366E+04  0.50400001928E-02 0.  1.
       -1    1    3    3    0  502  0.43372020848E+03  0.20209533934E+03  0.17226093360E+04  0.17878307163E+04  0.50400001928E-02 0. -1.
</event>
<event>
 5   0  0.1187925E-07  0.3753465E+04  0.7818609E-02  0.8056216E-01
        1   -1    0    0  501    0  0.00000000000E+00  0.00000000000E+00  0.17874034507E+04  0.17874034507E+04  0.50400001928E-02 0. -1.
       -1   -1    0    0    0  501  0.00000000000E+00  0.00000000000E+00 -0.19705258275E+04  0.19705258275E+04  0.50400001928E-02 0.  1.
    10030    2    1    2    0    0  0.00000000000E+00  0.00000000000E+00 -0.18312237676E+03  0.37579292783E+04  0.37534648867E+04 0.  0.
        3    1    3    3  502    0 -0.16709446630E+04  0.15252853864E+02 -0.94688166131E+03  0.19206440605E+04  0.10100000352E+00 0.  1.
       -3    1    3    3    0  502  0.16709446630E+04 -0.15252853864E+02  0.76375928455E+03  0.18372852178E+04  0.10100000352E+00 0. -1.
</event>
<event>
 5   0  0.1187925E-07  0.3617519E+04  0.7818609E-02  0.8086490E-01
       -1   -1    0    0    0  501  0.00000000000E+00  0.00000000000E+00  0.20489864170E+04  0.20489864170E+04  0.50400001928E-02 0. -1.
        1   -1    0    0  501    0  0.00000000000E+00  0.00000000000E+00 -0.15966973938E+04  0.15966973938E+04  0.50400001928E-02 0.  1.
    10030    2    1    2    0    0  0.00000000000E+00  0.00000000000E+00  0.45228902316E+03  0.36456838108E+04  0.36175191898E+04 0.  0.
        2    1    3    3  502    0  0.95922777262E+03 -0.74923853892E+03  0.15745206042E+04  0.19901234738E+04  0.25500000920E-02 0. -1.
       -2    1    3    3    0  502 -0.95922777262E+03  0.74923853892E+03 -0.11222315811E+04  0.16555603370E+04  0.25500000920E-02 0.  1.
</event>
<event>
 5   0  0.3665303E-07  0.3947083E+04  0.7818609E-02  0.8015308E-01
        2   -1    0    0  501    0  0.00000000000E+00  0.00000000000E+00  0.25311785305E+04  0.25311785305E+04  0.25500000920E-02 0.  1.
       -2   -1    0    0    0  501  0.00000000000E+00  0.00000000000E+00 -0.15387557237E+04  0.15387557237E+04  0.25500000920E-02 0. -1.
    10030    2    1    2    0    0  0.00000000000E+00  0.00000000000E+00  0.99242280684E+03  0.40699342541E+04  0.39470826956E+04 0.  0.
        2    1    3    3  502    0  0.25675248257E+03  0.16450265666E+04  0.15888295420E+04  0.23013938289E+04  0.25500000920E-02 0.  1.
       -2    1    3    3    0  502 -0.25675248257E+03 -0.16450265666E+04 -0.59640673517E+03  0.17685404253E+04  0.25500000920E-02 0. -1.
</event>
<event>
 5   0  0.1187925E-07  0.3859786E+04  0.7818609E-02  0.8033445E-01
        1   -1    0    0  501    0  0.00000000000E+00  0.00000000000E+00  0.26178926414E+04  0.26178926414E+04  0.50400001928E-02 0.  1.
       -1   -1    0    0    0  501  0.00000000000E+00  0.00000000000E+00 -0.14227044941E+04  0.14227044941E+04  0.50400001928E-02 0. -1.
    10030    2    1    2    0    0  0.00000000000E+00  0.00000000000E+00  0.11951881474E+04  0.40405971355E+04  0.38597863288E+04 0.  0.
        4    1    3    3  502    0 -0.15233119724E+04 -0.98930171327E+03  0.12802851790E+04  0.22222351356E+04  0.12699999809E+01 0.  1.
       -4    1    3    3    0  502  0.15233119724E+04  0.98930171327E+03 -0.85097031643E+02  0.18183620000E+04  0.12699999809E+01 0. -1.
</event>
<event>
 5   0  0.3680814E-07  0.3943398E+04  0.7818609E-02  0.8016063E-01
        2   -1    0    0  501    0  0.00000000000E+00  0.00000000000E+00  0.15930820276E+04  0.15930820276E+04  0.25500000920E-02 0. -1.
       -2   -1    0    0    0  501  0.00000000000E+00  0.00000000000E+00 -0.24402987346E+04  0.24402987346E+04  0.25500000920E-02 0.  1.
    10030    2    1    2    0    0  0.00000000000E+00  0.00000000000E+00 -0.84721670698E+03  0.40333807623E+04  0.39433975484E+04 0.  0.
        1    1    3    3  502    0 -0.73866701911E+03  0.14527353767E+04 -0.15586730919E+04  0.22551121584E+04  0.50400001928E-02 0.  1.
       -1    1    3    3    0  502  0.73866701911E+03 -0.14527353767E+04  0.71145638491E+03  0.17782686038E+04  0.50400001928E-02 0. -1.
</event>
<event>
 5   0  0.1187925E-07  0.4060360E+04  0.7818609E-02  0.7992480E-01
       -1   -1    0    0    0  501  0.00000000000E+00  0.00000000000E+00  0.19371008915E+04  0.19371008915E+04  0.50400001928E-02 0. -1.
        1   -1    0    0  501    0  0.00000000000E+00  0.00000000000E+00 -0.21277311548E+04  0.21277311548E+04  0.50400001928E-02 0.  1.
    10030    2    1    2    0    0  0.00000000000E+00  0.00000000000E+00 -0.19063026328E+03  0.40648320463E+04  0.40603595491E+04 0.  0.
        4    1    3    3  502    0 -0.15169394975E+04  0.43462436601E+03 -0.13740727251E+04  0.20923864952E+04  0.12699999809E+01 0.  1.
       -4    1    3    3    0  502  0.15169394975E+04 -0.43462436601E+03  0.11834424618E+04  0.19724455511E+04  0.12699999809E+01 0. -1.
</event>
<event>
 5   0  0.1187925E-07  0.3685185E+04  0.7818609E-02  0.8071253E-01
       -1   -1    0    0    0  501  0.00000000000E+00  0.00000000000E+00  0.27504831097E+04  0.27504831097E+04  0.50400001928E-02 0.  1.
        1   -1    0    0  501    0  0.00000000000E+00  0.00000000000E+00 -0.12343820921E+04  0.12343820921E+04  0.50400001928E-02 0. -1.
    10030    2    1    2    0    0  0.00000000000E+00  0.00000000000E+00  0.15161010176E+04  0.39848652018E+04  0.36851849859E+04 0.  0.
        3    1    3    3  502    0 -0.87412701552E+03 -0.14551457317E+04 -0.16887256730E+02  0.16975960442E+04  0.10100000352E+00 0. -1.
       -3    1    3    3    0  502  0.87412701552E+03  0.14551457317E+04  0.15329882743E+04  0.22872691576E+04  0.10100000352E+00 0.  1.
</event>
<event>
 5   0  0.1187925E-07  0.3890289E+04  0.7818609E-02  0.8027052E-01
        1   -1    0    0  501    0  0.00000000000E+00  0.00000000000E+00  0.15601139820E+04  0.15601139820E+04  0.50400001928E-02 0.  1.
       -1   -1    0    0    0  501  0.00000000000E+00  0.00000000000E+00 -0.24251996051E+04  0.24251996051E+04  0.50400001928E-02 0. -1.
    10030    2    1    2    0    0  0.00000000000E+00  0.00000000000E+00 -0.86508562313E+03  0.39853135871E+04  0.38902893533E+04 0.  0.
        2    1    3    3  502    0 -0.11754260550E+04 -0.15498262132E+04 -0.43288432434E+03  0.19927309252E+04  0.25500000920E-02 0. -1.
       -2    1    3    3    0  502  0.11754260550E+04  0.15498262132E+04 -0.43220129879E+03  0.19925826619E+04  0.25500000920E-02 0.  1.
</event>
<event>
 5   0  0.3680814E-07  0.3837494E+04  0.7818609E-02  0.8038156E-01
       -2   -1    0    0    0  501  0.00000000000E+00  0.00000000000E+00  0.14491615028E+04  0.14491615028E+04  0.25500000920E-02 0.  1.
        2   -1    0    0  501    0  0.00000000000E+00  0.00000000000E+00 -0.25404967149E+04  0.25404967149E+04  0.25500000920E-02 0. -1.
    10030    2    1    2    0    0  0.00000000000E+00  0.00000000000E+00 -0.10913352120E+04  0.39896582177E+04  0.38374939934E+04 0.  0.
        1    1    3    3  502    0 -0.14191950062E+04  0.38303165087E+03 -0.18277580300E+04  0.23455334420E+04  0.50400001928E-02 0.  1.
       -1    1    3    3    0  502  0.14191950062E+04 -0.38303165087E+03  0.73642281800E+03  0.16441247757E+04  0.50400001928E-02 0. -1.
</event>
<event>
 5   0  0.3832389E-07  0.3417201E+04  0.7818609E-02  0.8133697E-01
        2   -1    0    0  501    0  0.00000000000E+00  0.00000000000E+00  0.20111838729E+04  0.20111838729E+04  0.25500000920E-02 0. -1.
       -2   -1    0    0    0  501  0.00000000000E+00  0.00000000000E+00 -0.14515410143E+04  0.14515410143E+04  0.25500000920E-02 0.  1.
    10030    2    1    2    0    0  0.00000000000E+00  0.00000000000E+00  0.55964285854E+03  0.34627248872E+04  0.34172011231E+04 0.  0.
        5    1    3    3  502    0  0.88383760715E+03 -0.91999855923E+03  0.14315042925E+04  0.19174965174E+04  0.46999998093E+01 0. -1.
       -5    1    3    3    0  502 -0.88383760715E+03  0.91999855923E+03 -0.87186143397E+03  0.15452283698E+04  0.46999998093E+01 0.  1.
</event>
<event>
 5   0  0.1187925E-07  0.3913308E+04  0.7818609E-02  0.8022267E-01
       -1   -1    0    0    0  501  0.00000000000E+00  0.00000000000E+00  0.26439178231E+04  0.26439178231E+04  0.50400001928E-02 0. -1.
        1   -1    0    0  501    0  0.00000000000E+00  0.00000000000E+00 -0.14480385507E+04  0.14480385507E+04  0.50400001928E-02 0.  1.
    10030    2    1    2    0    0  0.00000000000E+00  0.00000000000E+00  0.11958792724E+04  0.40919563738E+04  0.39133080292E+04 0.  0.
        5    1    3    3  502    0  0.49217401721E+03  0.15788368051E+04  0.16913891156E+04  0.23655401393E+04  0.46999998093E+01 0. -1.
       -5    1    3    3    0  502 -0.49217401721E+03 -0.15788368051E+04 -0.49550984312E+03  0.17264162345E+04  0.46999998093E+01 0.  1.
</event>
<event>
 5   0  0.3610483E-07  0.3074397E+04  0.7818609E-02  0.8222800E-01
       -2   -1    0    0    0  501  0.00000000000E+00  0.00000000000E+00  0.16350742188E+04  0.16350742188E+04  0.25500000920E-02 0. -1.
        2   -1    0    0  501    0  0.00000000000E+00  0.00000000000E+00 -0.14451812547E+04  0.14451812547E+04  0.25500000920E-02 0.  1.
    10030    2    1    2    0    0  0.00000000000E+00  0.00000000000E+00  0.18989296417E+03  0.30802554735E+04  0.30743965984E+04 0.  0.
        4    1    3    3  502    0  0.89280231406E+01 -0.26548509143E+03 -0.14220111926E+04  0.14466096530E+04  0.12699999809E+01 0.  1.
       -4    1    3    3    0  502 -0.89280231406E+01  0.26548509143E+03  0.16119041568E+04  0.16336458205E+04  0.12699999809E+01 0. -1.
</event>
<event>
 5   0  0.1187925E-07  0.3925295E+04  0.7818609E-02  0.8019789E-01
       -1   -1    0    0    0  501  0.00000000000E+00  0.00000000000E+00  0.25462952268E+04  0.25462952268E+04  0.50400001928E-02 0.  1.
        1   -1    0    0  501    0  0.00000000000E+00  0.00000000000E+00 -0.15127799618E+04  0.15127799618E+04  0.50400001928E-02 0. -1.
    10030    2    1    2    0    0  0.00000000000E+00  0.00000000000E+00  0.10335152650E+04  0.40590751886E+04  0.39252945856E+04 0.  0.
        1    1    3    3  502    0  0.21720602913E+03 -0.34969984814E+03  0.25011482241E+04  0.25347999688E+04  0.50400001928E-02 0.  1.
       -1    1    3    3    0  502 -0.21720602913E+03  0.34969984814E+03 -0.14676329591E+04  0.15242752198E+04  0.50400001928E-02 0. -1.
</event>
<event>
 5   0  0.1187925E-07  0.3932873E+04  0.7818609E-02  0.8018227E-01
       -1   -1    0    0    0  501  0.00000000000E+00  0.00000000000E+00  0.23374978474E+04  0.23374978474E+04  0.50400001928E-02 0. -1.
        1   -1    0    0  501    0  0.00000000000E+00  0.00000000000E+00 -0.16542783460E+04  0.16542783460E+04  0.50400001928E-02 0.  1.
    10030    2    1    2    0    0  0.00000000000E+00  0.00000000000E+00  0.68321950134E+03  0.39917761934E+04  0.39328727784E+04 0.  0.
        5    1    3    3  502    0  0.63356756974E+03  0.79013548633E+03 -0.13691998873E+04  0.17030714529E+04  0.46999998093E+01 0.  1.
       -5    1    3    3    0  502 -0.63356756974E+03 -0.79013548633E+03  0.20524193887E+04  0.22887047405E+04  0.46999998093E+01 0. -1.
</event>
<event>
 5   0  0.1187925E-07  0.3850594E+04  0.7818609E-02  0.8035384E-01
        1   -1    0    0  501    0  0.00000000000E+00  0.00000000000E+00  0.12476115532E+04  0.12476115532E+04  0.50400001928E-02 0. -1.
       -1   -1    0    0    0  501  0.00000000000E+00  0.00000000000E+00 -0.29710912214E+04  0.29710912214E+04  0.50400001928E-02 0.  1.
    10030    2    1    2    0    0  0.00000000000E+00  0.00000000000E+00 -0.17234796682E+04  0.42187027746E+04  0.38505935821E+04 0.  0.
        2    1    3    3  502    0 -0.15174738355E+04 -0.26510031876E+03  0.40355149535E+03  0.15924380144E+04  0.25500000920E-02 0. -1.
       -2    1    3    3    0  502  0.15174738355E+04  0.26510031876E+03 -0.21270311635E+04  0.26262647602E+04  0.25500000920E-02 0.  1.
</event>
<event>
 5   0  0.1187925E-07  0.3919786E+04  0.7818609E-02  0.8020927E-01
       -1   -1    0    0    0  501  0.00000000000E+00  0.00000000000E+00  0.15200802097E+04  0.15200802097E+04  0.50400001928E-02 0. -1.
        1   -1    0    0  501    0  0.00000000000E+00  0.00000000000E+00 -0.25269589045E+04  0.25269589045E+04  0.50400001928E-02 0.  1.
    10030    2    1    2    0    0  0.00000000000E+00  0.00000000000E+00 -0.10068786948E+04  0.40470391142E+04  0.39197858214E+04 0.  0.
        2    1    3    3  502    0  0.25079775500E+03 -0.16077856463E+04 -0.16312884037E+04  0.23041215364E+04  0.25500000920E-02 0.  1.
       -2    1    3    3    0  502 -0.25079775500E+03  0.16077856463E+04  0.62440970888E+03  0.17429175778E+04  0.25500000920E-02 0. -1.
</event>
<event>
 5   0  0.1187925E-07  0.3829233E+04  0.7818609E-02  0.8039911E-01
        3   -1    0    0  501    0  0.00000000000E+00  0.00000000000E+00  0.11979693040E+04  0.11979693083E+04  0.10100000352E+00 0. -1.
       -3   -1    0    0    0  501  0.00000000000E+00  0.00000000000E+00 -0.30599750623E+04  0.30599750640E+04  0.10100000352E+00 0.  1.
    10030    2    1    2    0    0  0.00000000000E+00  0.00000000000E+00 -0.18620057583E+04  0.42579443722E+04  0.38292329301E+04 0.  0.
        2    1    3    3  502    0 -0.82014779007E+03  0.10620756326E+04  0.58758638740E+03  0.14648907159E+04  0.25500000920E-02 0. -1.
       -2    1    3    3    0  502  0.82014779007E+03 -0.10620756326E+04 -0.24495921457E+04  0.27930536563E+04  0.25500000920E-02 0.  1.
</event>
<event>
 5   0  0.1187925E-07  0.3923881E+04  0.7818609E-02  0.8020081E-01
       -1   -1    0    0    0  501  0.00000000000E+00  0.00000000000E+00  0.21951811296E+04  0.21951811296E+04  0.50400001928E-02 0. -1.
        1   -1    0    0  501    0  0.00000000000E+00  0.00000000000E+00 -0.17534821807E+04  0.17534821807E+04  0.50400001928E-02 0.  1.
    10030    2    1    2    0    0  0.00000000000E+00  0.00000000000E+00  0.44169894895E+03  0.39486633103E+04  0.39238812388E+04 0.  0.
        5    1    3    3  502    0 -0.14429378687E+03  0.13609678284E+04  0.16354783888E+04  0.21325725725E+04  0.46999998093E+01 0. -1.
       -5    1    3    3    0  502  0.14429378687E+03 -0.13609678284E+04 -0.11937794398E+04  0.18160907378E+04  0.46999998093E+01 0.  1.
</event>
<event>
 5   0  0.1187925E-07  0.4021320E+04  0.7818609E-02  0.8000259E-01
        1   -1    0    0  501    0  0.00000000000E+00  0.00000000000E+00  0.26660708315E+04  0.26660708315E+04  0.50400001928E-02 0. -1.
       -1   -1    0    0    0  501  0.00000000000E+00  0.00000000000E+00 -0.15163711066E+04  0.15163711066E+04  0.50400001928E-02 0.  1.
    10030    2    1    2    0    0  0.00000000000E+00  0.00000000000E+00  0.11496997248E+04  0.41824419381E+04  0.40213195730E+04 0.  0.
        2    1    3    3  502    0 -0.16925531750E+04  0.86902878082E+02  0.17000776293E+04  0.24005316715E+04  0.25500000920E-02 0. -1.
       -2    1    3    3    0  502  0.16925531750E+04 -0.86902878082E+02 -0.55037790442E+03  0.17819102666E+04  0.25500000920E-02 0.  1.
</event>
<event>
 5   0  0.1187925E-07  0.4340066E+04  0.7818609E-02  0.7939251E-01
        1   -1    0    0  501    0  0.00000000000E+00  0.00000000000E+00  0.19714255157E+04  0.19714255158E+04  0.50400001928E-02 0.  1.
       -1   -1    0    0    0  501  0.00000000000E+00  0.00000000000E+00 -0.23886493554E+04  0.23886493554E+04  0.50400001928E-02 0. -1.
    10030    2    1    2    0    0  0.00000000000E+00  0.00000000000E+00 -0.41722383969E+03  0.43600748712E+04  0.43400664914E+04 0.  0.
        2    1    3    3  502    0  0.67286431878E+03  0.44124940360E+03  0.18160194951E+04  0.19862966128E+04  0.25500000920E-02 0.  1.
       -2    1    3    3    0  502 -0.67286431878E+03 -0.44124940360E+03 -0.22332433348E+04  0.23737782584E+04  0.25500000920E-02 0. -1.
</event>
<event>
 5   0  0.3832389E-07  0.3827274E+04  0.7818609E-02  0.8040327E-01
       -2   -1    0    0    0  501  0.00000000000E+00  0.00000000000E+00  0.17285413751E+04  0.17285413751E+04  0.25500000920E-02 0.  1.
        2   -1    0    0  501    0  0.00000000000E+00  0.00000000000E+00 -0.21185532824E+04  0.21185532824E+04  0.25500000920E-02 0. -1.
    10030    2    1    2    0    0  0.00000000000E+00  0.00000000000E+00 -0.39001190727E+03  0.38470946575E+04  0.38272742279E+04 0.  0.
        5    1    3    3  502    0  0.21361299816E+03 -0.17812197068E+04 -0.86449630993E+03  0.19914191213E+04  0.46999998093E+01 0.  1.
       -5    1    3    3    0  502 -0.21361299816E+03  0.17812197068E+04  0.47448440266E+03  0.18556755361E+04  0.46999998093E+01 0. -1.
</event>
<event>
 5   0  0.3680814E-07  0.3784218E+04  0.7818609E-02  0.8049550E-01
        2   -1    0    0  501    0  0.00000000000E+00  0.00000000000E+00  0.29731556679E+04  0.29731556679E+04  0.25500000920E-02 0.  1.
       -2   -1    0    0    0  501  0.00000000000E+00  0.00000000000E+00 -0.12041336743E+04  0.12041336743E+04  0.25500000920E-02 0. -1.
    10030    2    1    2    0    0  0.00000000000E+00  0.00000000000E+00  0.17690219936E+04  0.41772893422E+04  0.37842182065E+04 0.  0.
        1    1    3    3  502    0 -0.18329571062E+04 -0.44664577778E+03  0.72510705220E+03  0.20211393918E+04  0.50400001928E-02 0. -1.
       -1    1    3    3    0  502  0.18329571062E+04  0.44664577778E+03  0.10439149414E+04  0.21561499504E+04  0.50400001928E-02 0.  1.
</event>
<event>
 5   0  0.1187925E-07  0.3956333E+04  0.7818609E-02  0.8013414E-01
        1   -1    0    0  501    0  0.00000000000E+00  0.00000000000E+00  0.16344826020E+04  0.16344826020E+04  0.50400001928E-02 0. -1.
       -1   -1    0    0    0  501  0.00000000000E+00  0.00000000000E+00 -0.23941164986E+04  0.23941164986E+04  0.50400001928E-02 0.  1.
    10030    2    1    2    0    0  0.00000000000E+00  0.00000000000E+00 -0.75963389658E+03  0.40285991007E+04  0.39563325261E+04 0.  0.
        5    1    3    3  502    0  0.63163894621E+03  0.42619978248E+03  0.14790431833E+04  0.16637923071E+04  0.46999998093E+01 0. -1.
       -5    1    3    3    0  502 -0.63163894621E+03 -0.42619978248E+03 -0.22386770799E+04  0.23648067936E+04  0.46999998093E+01 0.  1.
</event>
<event>
 5   0  0.1187925E-07  0.4012347E+04  0.7818609E-02  0.8002060E-01
        1   -1    0    0  501    0  0.00000000000E+00  0.00000000000E+00  0.24891876079E+04  0.24891876079E+04  0.50400001928E-02 0.  1.
       -1   -1    0    0    0  501  0.00000000000E+00  0.00000000000E+00 -0.16168856592E+04  0.16168856592E+04  0.50400001928E-02 0. -1.
    10030    2    1    2    0    0  0.00000000000E+00  0.00000000000E+00  0.87230194874E+03  0.41060732672E+04  0.40123468177E+04 0.  0.
        2    1    3    3  502    0 -0.18336770631E+04  0.29115815357E+03  0.12138955185E+04  0.22182621513E+04  0.25500000920E-02 0. -1.
       -2    1    3    3    0  502  0.18336770631E+04 -0.29115815357E+03 -0.34159356973E+03  0.18878111158E+04  0.25500000920E-02 0.  1.
</event>
<event>
 5   0  0.1187925E-07  0.3209021E+04  0.7818609E-02  0.8186439E-01
       -1   -1    0    0    0  501  0.00000000000E+00  0.00000000000E+00  0.21918418900E+04  0.21918418900E+04  0.50400001928E-02 0.  1.
        1   -1    0    0  501    0  0.00000000000E+00  0.00000000000E+00 -0.11745621516E+04  0.11745621517E+04  0.50400001928E-02 0. -1.
    10030    2    1    2    0    0  0.00000000000E+00  0.00000000000E+00  0.10172797383E+04  0.33664040416E+04  0.32090213626E+04 0.  0.
        1    1    3    3  502    0 -0.48064828530E+03  0.15307397768E+04  0.52579704093E+03  0.16883866757E+04  0.50400001928E-02 0.  1.
       -1    1    3    3    0  502  0.48064828530E+03 -0.15307397768E+04  0.49148269740E+03  0.16780173659E+04  0.50400001928E-02 0. -1.
</event>
<event>
 5   0  0.3832389E-07  0.3914163E+04  0.7818609E-02  0.8022090E-01
        2   -1    0    0  501    0  0.00000000000E+00  0.00000000000E+00  0.27021640520E+04  0.27021640520E+04  0.25500000920E-02 0. -1.
       -2   -1    0    0    0  501  0.00000000000E+00  0.00000000000E+00 -0.14174448630E+04  0.14174448630E+04  0.25500000920E-02 0.  1.
    10030    2    1    2    0    0  0.00000000000E+00  0.00000000000E+00  0.12847191890E+04  0.41196089150E+04  0.39141632846E+04 0.  0.
        5    1    3    3  502    0  0.44153179801E+03 -0.10454105208E+04 -0.10357934213E+04  0.15364646391E+04  0.46999998093E+01 0.  1.
       -5    1    3    3    0  502 -0.44153179801E+03  0.10454105208E+04  0.23205126103E+04  0.25831442759E+04  0.46999998093E+01 0. -1.
</event>
<event>
 5   0  0.3832389E-07  0.3049580E+04  0.7818609E-02  0.8229713E-01
       -2   -1    0    0    0  501  0.00000000000E+00  0.00000000000E+00  0.16370274576E+04  0.16370274576E+04  0.25500000920E-02 0. -1.
        2   -1    0    0  501    0  0.00000000000E+00  0.00000000000E+00 -0.14202477007E+04  0.14202477007E+04  0.25500000920E-02 0.  1.
    10030    2    1    2    0    0  0.00000000000E+00  0.00000000000E+00  0.21677975686E+03  0.30572751582E+04  0.30495799596E+04 0.  0.
        5    1    3    3  502    0  0.61949234517E+03 -0.94555629991E+02  0.15019517556E+04  0.16274497531E+04  0.46999998093E+01 0. -1.
       -5    1    3    3    0  502 -0.61949234517E+03  0.94555629991E+02 -0.12851719987E+04  0.14298254051E+04  0.46999998093E+01 0.  1.
</event>
<event>
 5   0  0.3610483E-07  0.3125486E+04  0.7818609E-02  0.8208778E-01
       -2   -1    0    0    0  501  0.00000000000E+00  0.00000000000E+00  0.18586140762E+04  0.18586140762E+04  0.25500000920E-02 0.  1.
        2   -1    0    0  501    0  0.00000000000E+00  0.00000000000E+00 -0.13139717755E+04  0.13139717755E+04  0.25500000920E-02 0. -1.
    10030    2    1    2    0    0  0.00000000000E+00  0.00000000000E+00  0.54464230073E+03  0.31725858517E+04  0.31254864822E+04 0.  0.
        4    1    3    3  502    0 -0.84400427786E+03 -0.13061306427E+04  0.42906426861E+03  0.16132012387E+04  0.12699999809E+01 0.  1.
       -4    1    3    3    0  502  0.84400427786E+03  0.13061306427E+04  0.11557803212E+03  0.15593846130E+04  0.12699999809E+01 0. -1.
</event>
<event>
 5   0  0.1187925E-07  0.3795644E+04  0.7818609E-02  0.8047090E-01
        1   -1    0    0  501    0  0.00000000000E+00  0.00000000000E+00  0.19350905417E+04  0.19350905417E+04  0.50400001928E-02 0. -1.
       -1   -1    0    0    0  501  0.00000000000E+00  0.00000000000E+00 -0.18612709772E+04  0.18612709772E+04  0.50400001928E-02 0.  1.
    10030    2    1    2    0    0  0.00000000000E+00  0.00000000000E+00  0.73819564558E+02  0.37963615189E+04  0.37956437470E+04 0.  0.
        5    1    3    3  502    0  0.11782851214E+04  0.48653835663E+03 -0.13692829579E+04  0.18708375954E+04  0.46999998093E+01 0.  1.
       -5    1    3    3    0  502 -0.11782851214E+04 -0.48653835663E+03  0.14431025224E+04  0.19255239235E+04  0.46999998093E+01 0. -1.
</event>
<event>
 5   0  0.3665303E-07  0.3899044E+04  0.7818609E-02  0.8025228E-01
       -2   -1    0    0    0  501  0.00000000000E+00  0.00000000000E+00  0.15680223179E+04  0.15680223179E+04  0.25500000920E-02 0.  1.
        2   -1    0    0  501    0  0.00000000000E+00  0.00000000000E+00 -0.24238409966E+04  0.24238409966E+04  0.25500000920E-02 0. -1.
    10030    2    1    2    0    0  0.00000000000E+00  0.00000000000E+00 -0.85581867870E+03  0.39918633144E+04  0.38990443842E+04 0.  0.
        2    1    3    3  502    0 -0.10278830796E+04 -0.10842136472E+04  0.85433260141E+03  0.17210308109E+04  0.25500000920E-02 0.  1.
       -2    1    3    3    0  502  0.10278830796E+04  0.10842136472E+04 -0.17101512801E+04  0.22708325035E+04  0.25500000920E-02 0. -1.
</event>
<event>
 5   0  0.1187925E-07  0.3163663E+04  0.7818609E-02  0.8198480E-01
       -1   -1    0    0    0  501  0.00000000000E+00  0.00000000000E+00  0.17621109969E+04  0.17621109969E+04  0.50400001928E-02 0. -1.
        1   -1    0    0  501    0  0.00000000000E+00  0.00000000000E+00 -0.14199962388E+04  0.14199962388E+04  0.50400001928E-02 0.  1.
    10030    2    1    2    0    0  0.00000000000E+00  0.00000000000E+00  0.34211475807E+03  0.31821072357E+04  0.31636630591E+04 0.  0.
        2    1    3    3  502    0  0.15117859119E+04 -0.40860816539E+03 -0.53253338445E+02  0.15669375208E+04  0.25500000920E-02 0. -1.
       -2    1    3    3    0  502 -0.15117859119E+04  0.40860816539E+03  0.39536809652E+03  0.16151697149E+04  0.25500000920E-02 0.  1.
</event>
<event>
 5   0  0.3665303E-07  0.3944894E+04  0.7818609E-02  0.8015756E-01
        2   -1    0    0  501    0  0.00000000000E+00  0.00000000000E+00  0.19791583186E+04  0.19791583186E+04  0.25500000920E-02 0.  1.
       -2   -1    0    0    0  501  0.00000000000E+00  0.00000000000E+00 -0.19657582997E+04  0.19657582997E+04  0.25500000920E-02 0. -1.
    10030    2    1    2    0    0  0.00000000000E+00  0.00000000000E+00  0.13400018871E+02  0.39449166184E+04  0.39448938598E+04 0.  0.
        2    1    3    3  502    0 -0.10800874948E+04 -0.16005301485E+04  0.40951884070E+03  0.19738265966E+04  0.25500000920E-02 0.  1.
       -2    1    3    3    0  502  0.10800874948E+04  0.16005301485E+04 -0.39611882183E+03  0.19710900217E+04  0.25500000920E-02 0. -1.
</event>
<event>
 5   0  0.1187925E-07  0.3531722E+04  0.7818609E-02  0.8106313E-01
        1   -1    0    0  501    0  0.00000000000E+00  0.00000000000E+00  0.29388389663E+04  0.29388389663E+04  0.50400001928E-02 0. -1.
       -1   -1    0    0    0  501  0.00000000000E+00  0.00000000000E+00 -0.10610531458E+04  0.10610531458E+04  0.50400001928E-02 0.  1.
    10030    2    1    2    0    0  0.00000000000E+00  0.00000000000E+00  0.18777858206E+04  0.39998921121E+04  0.35317215803E+04 0.  0.
        5    1    3    3  502    0 -0.16674528093E+03 -0.10147399285E+04 -0.68693111814E+03  0.12366881427E+04  0.46999998093E+01 0.  1.
       -5    1    3    3    0  502  0.16674528093E+03  0.10147399285E+04  0.25647169387E+04  0.27632039695E+04  0.46999998093E+01 0. -1.
</event>
<event>
 5   0  0.3610483E-07  0.3237156E+04  0.7818609E-02  0.8179073E-01
        2   -1    0    0  501    0  0.00000000000E+00  0.00000000000E+00  0.17028758494E+04  0.17028758494E+04  0.25500000920E-02 0. -1.
       -2   -1    0    0    0  501  0.00000000000E+00  0.00000000000E+00 -0.15384530973E+04  0.15384530973E+04  0.25500000920E-02 0.  1.
    10030    2    1    2    0    0  0.00000000000E+00  0.00000000000E+00  0.16442275213E+03  0.32413289467E+04  0.32371559276E+04 0.  0.
        4    1    3    3  502    0  0.13109301557E+03  0.58350759951E+03  0.15881869703E+04  0.16970580317E+04  0.12699999809E+01 0. -1.
       -4    1    3    3    0  502 -0.13109301557E+03 -0.58350759951E+03 -0.14237642181E+04  0.15442709151E+04  0.12699999809E+01 0.  1.
</event>
<event>
 5   0  0.1187925E-07  0.3969452E+04  0.7818609E-02  0.8010738E-01
       -1   -1    0    0    0  501  0.00000000000E+00  0.00000000000E+00  0.24782830921E+04  0.24782830921E+04  0.50400001928E-02 0.  1.
        1   -1    0    0  501    0  0.00000000000E+00  0.00000000000E+00 -0.15894621828E+04  0.15894621828E+04  0.50400001928E-02 0. -1.
    10030    2    1    2    0    0  0.00000000000E+00  0.00000000000E+00  0.88882090935E+03  0.40677452749E+04  0.39694519788E+04 0.  0.
        1    1    3    3  502    0 -0.81560842915E+03  0.65420034263E+03  0.21731764984E+04  0.24116159088E+04  0.50400001928E-02 0.  1.
       -1    1    3    3    0  502  0.81560842915E+03 -0.65420034263E+03 -0.12843555891E+04  0.16561293661E+04  0.50400001928E-02 0. -1.
</event>
<event>
 5   0  0.1187925E-07  0.3928226E+04  0.7818609E-02  0.8019184E-01
       -1   -1    0    0    0  501  0.00000000000E+00  0.00000000000E+00  0.13806523495E+04  0.13806523495E+04  0.50400001928E-02 0.  1.
        1   -1    0    0  501    0  0.00000000000E+00  0.00000000000E+00 -0.27941423623E+04  0.27941423623E+04  0.50400001928E-02 0. -1.
    10030    2    1    2    0    0  0.00000000000E+00  0.00000000000E+00 -0.14134900129E+04  0.41747947118E+04  0.39282256643E+04 0.  0.
        5    1    3    3  502    0 -0.10331206279E+03  0.16363755888E+04 -0.18559702032E+04  0.24764987250E+04  0.46999998093E+01 0. -1.
       -5    1    3    3    0  502  0.10331206279E+03 -0.16363755888E+04  0.44248019029E+03  0.16982959868E+04  0.46999998093E+01 0.  1.
</event>
<event>
 5   0  0.1187925E-07  0.3334913E+04  0.7818609E-02  0.8154068E-01
       -1   -1    0    0    0  501  0.00000000000E+00  0.00000000000E+00  0.12890152757E+04  0.12890152757E+04  0.50400001928E-02 0. -1.
        1   -1    0    0  501    0  0.00000000000E+00  0.00000000000E+00 -0.21570035732E+04  0.21570035732E+04  0.50400001928E-02 0.  1.
    10030    2    1    2    0    0  0.00000000000E+00  0.00000000000E+00 -0.86798829751E+03  0.34460188488E+04  0.33349126258E+04 0.  0.
        1    1    3    3  502    0 -0.95643056056E+02  0.35735235330E+03  0.12460781067E+04  0.12998303530E+04  0.50400001928E-02 0. -1.
       -1    1    3    3    0  502  0.95643056056E+02 -0.35735235330E+03 -0.21140664042E+04  0.21461884959E+04  0.50400001928E-02 0.  1.
</event>
<event>
 5   0  0.3665303E-07  0.3888370E+04  0.7818609E-02  0.8027452E-01
        2   -1    0    0  501    0  0.00000000000E+00  0.00000000000E+00  0.23133086622E+04  0.23133086622E+04  0.25500000920E-02 0.  1.
       -2   -1    0    0    0  501  0.00000000000E+00  0.00000000000E+00 -0.16339608539E+04  0.16339608539E+04  0.25500000920E-02 0. -1.
    10030    2    1    2    0    0  0.00000000000E+00  0.00000000000E+00  0.67934780828E+03  0.39472695160E+04  0.38883702483E+04 0.  0.
        2    1    3    3  502    0  0.16246735609E+04 -0.10362194463E+04  0.77811332788E+02  0.19285667019E+04  0.25500000920E-02 0. -1.
       -2    1    3    3    0  502 -0.16246735609E+04  0.10362194463E+04  0.60153647549E+03  0.20187028141E+04  0.25500000920E-02 0.  1.
</event>
<event>
 5   0  0.3680814E-07  0.3891988E+04  0.7818609E-02  0.8026698E-01
       -2   -1    0    0    0  501  0.00000000000E+00  0.00000000000E+00  0.20740276537E+04  0.20740276537E+04  0.25500000920E-02 0. -1.
        2   -1    0    0  501    0  0.00000000000E+00  0.00000000000E+00 -0.18258644092E+04  0.18258644092E+04  0.25500000920E-02 0.  1.
    10030    2    1    2    0    0  0.00000000000E+00  0.00000000000E+00  0.24816324445E+03  0.38998920629E+04  0.38919883230E+04 0.  0.
        1    1    3    3  502    0  0.46603846639E+03 -0.57713560897E+03  0.19267948322E+04  0.20646587342E+04  0.50400001928E-02 0. -1.
       -1    1    3    3    0  502 -0.46603846639E+03  0.57713560897E+03 -0.16786315878E+04  0.18352333287E+04  0.50400001928E-02 0.  1.
</event>
<event>
 5   0  0.1187925E-07  0.3953824E+04  0.7818609E-02  0.8013927E-01
       -1   -1    0    0    0  501  0.00000000000E+00  0.00000000000E+00  0.20215054494E+04  0.20215054494E+04  0.50400001928E-02 0.  1.
        1   -1    0    0  501    0  0.00000000000E+00  0.00000000000E+00 -0.19333027013E+04  0.19333027013E+04  0.50400001928E-02 0. -1.
    10030    2    1    2    0    0  0.00000000000E+00  0.00000000000E+00  0.88202748072E+02  0.39548081507E+04  0.39538244503E+04 0.  0.
        5    1    3    3  502    0  0.61465260493E+03  0.31425591557E+02 -0.18350289777E+04  0.19354944669E+04  0.46999998093E+01 0. -1.
       -5    1    3    3    0  502 -0.61465260493E+03 -0.31425591557E+02  0.19232317257E+04  0.20193136838E+04  0.46999998093E+01 0.  1.
</event>
<event>
 5   0  0.3832389E-07  0.3912853E+04  0.7818609E-02  0.8022361E-01
       -2   -1    0    0    0  501  0.00000000000E+00  0.00000000000E+00  0.14909562713E+04  0.14909562713E+04  0.25500000920E-02 0. -1.
        2   -1    0    0  501    0  0.00000000000E+00  0.00000000000E+00 -0.25672148182E+04  0.25672148182E+04  0.25500000920E-02 0.  1.
    10030    2    1    2    0    0  0.00000000000E+00  0.00000000000E+00 -0.10762585469E+04  0.40581710894E+04  0.39128531957E+04 0.  0.
        5    1    3    3  502    0  0.13441926056E+04 -0.48103353542E+03 -0.19254687318E+04  0.23970187631E+04  0.46999998093E+01 0.  1.
       -5    1    3    3    0  502 -0.13441926056E+04  0.48103353542E+03  0.84921018494E+03  0.16611523264E+04  0.46999998093E+01 0. -1.
</event>
<event>
 5   0  0.3832389E-07  0.3891455E+04  0.7818609E-02  0.8026809E-01
        2   -1    0    0  501    0  0.00000000000E+00  0.00000000000E+00  0.20357403089E+04  0.20357403089E+04  0.25500000920E-02 0. -1.
       -2   -1    0    0    0  501  0.00000000000E+00  0.00000000000E+00 -0.18596942584E+04  0.18596942584E+04  0.25500000920E-02 0.  1.
    10030    2    1    2    0    0  0.00000000000E+00  0.00000000000E+00  0.17604605056E+03  0.38954345673E+04  0.38914545168E+04 0.  0.
        5    1    3    3  502    0 -0.11778685809E+04 -0.10051669359E+04 -0.10913574746E+04  0.18944176388E+04  0.46999998093E+01 0.  1.
       -5    1    3    3    0  502  0.11778685809E+04  0.10051669359E+04  0.12674035251E+04  0.20010169285E+04  0.46999998093E+01 0. -1.
</event>
<event>
 5   0  0.3832389E-07  0.3908051E+04  0.7818609E-02  0.8023357E-01
        2   -1    0    0  501    0  0.00000000000E+00  0.00000000000E+00  0.27422521851E+04  0.27422521851E+04  0.25500000920E-02 0. -1.
       -2   -1    0    0    0  501  0.00000000000E+00  0.00000000000E+00 -0.13923645794E+04  0.13923645794E+04  0.25500000920E-02 0.  1.
    10030    2    1    2    0    0  0.00000000000E+00  0.00000000000E+00  0.13498876058E+04  0.41346167645E+04  0.39080505679E+04 0.  0.
        5    1    3    3  502    0 -0.19263975100E+04  0.15532462424E+03  0.97985266230E+03  0.21668563485E+04  0.46999998093E+01 0. -1.
       -5    1    3    3    0  502  0.19263975100E+04 -0.15532462424E+03  0.37003494349E+03  0.19677604160E+04  0.46999998093E+01 0.  1.
</event>
<event>
 5   0  0.1187925E-07  0.3900576E+04  0.7818609E-02  0.8024909E-01
       -1   -1    0    0    0  501  0.00000000000E+00  0.00000000000E+00  0.25048897896E+04  0.25048897896E+04  0.50400001928E-02 0. -1.
        1   -1    0    0  501    0  0.00000000000E+00  0.00000000000E+00 -0.15184793889E+04  0.15184793890E+04  0.50400001928E-02 0.  1.
    10030    2    1    2    0    0  0.00000000000E+00  0.00000000000E+00  0.98641040067E+03  0.40233691786E+04  0.39005761201E+04 0.  0.
        1    1    3    3  502    0  0.21832723727E+03 -0.13997883196E+04 -0.88934435925E+03  0.16727245773E+04  0.50400001928E-02 0.  1.
       -1    1    3    3    0  502 -0.21832723727E+03  0.13997883196E+04  0.18757547599E+04  0.23506446013E+04  0.50400001928E-02 0. -1.
</event>
<event>
 5   0  0.3610483E-07  0.3188593E+04  0.7818609E-02  0.8191836E-01
       -2   -1    0    0    0  501  0.00000000000E+00  0.00000000000E+00  0.11255028911E+04  0.11255028911E+04  0.25500000920E-02 0.  1.
        2   -1    0    0  501    0  0.00000000000E+00  0.00000000000E+00 -0.22583510215E+04  0.22583510215E+04  0.25500000920E-02 0. -1.
    10030    2    1    2    0    0  0.00000000000E+00  0.00000000000E+00 -0.11328481304E+04  0.33838539126E+04  0.31885925445E+04 0.  0.
        4    1    3    3  502    0 -0.11430279363E+04  0.11076593255E+04 -0.66343850681E+03  0.17244054946E+04  0.12699999809E+01 0. -1.
       -4    1    3    3    0  502  0.11430279363E+04 -0.11076593255E+04 -0.46940962355E+03  0.16594484180E+04  0.12699999809E+01 0.  1.
</event>
<event>
 5   0  0.1187925E-07  0.3894297E+04  0.7818609E-02  0.8026216E-01
        1   -1    0    0  501    0  0.00000000000E+00  0.00000000000E+00  0.25858301422E+04  0.25858301422E+04  0.50400001928E-02 0. -1.
       -1   -1    0    0    0  501  0.00000000000E+00  0.00000000000E+00 -0.14662168392E+04  0.14662168392E+04  0.50400001928E-02 0.  1.
    10030    2    1    2    0    0  0.00000000000E+00  0.00000000000E+00  0.11196133030E+04  0.40520469814E+04  0.38942972140E+04 0.  0.
        1    1    3    3  502    0 -0.10189722326E+04 -0.44248756994E+03  0.22237372253E+04  0.24857809452E+04  0.50400001928E-02 0. -1.
       -1    1    3    3    0  502  0.10189722326E+04  0.44248756994E+03 -0.11041239222E+04  0.15662660362E+04  0.50400001928E-02 0.  1.
</event>
<event>
 5   0  0.1187925E-07  0.3924644E+04  0.7818609E-02  0.8019923E-01
        1   -1    0    0  501    0  0.00000000000E+00  0.00000000000E+00  0.12041480829E+04  0.12041480829E+04  0.50400001928E-02 0. -1.
       -1   -1    0    0    0  501  0.00000000000E+00  0.00000000000E+00 -0.31978692947E+04  0.31978692947E+04  0.50400001928E-02 0.  1.
    10030    2    1    2    0    0  0.00000000000E+00  0.00000000000E+00 -0.19937212118E+04  0.44020173776E+04  0.39246442797E+04 0.  0.
        3    1    3    3  502    0  0.17893494754E+04 -0.25153750922E+03 -0.13848715510E+03  0.18122420826E+04  0.10100000352E+00 0. -1.
       -3    1    3    3    0  502 -0.17893494754E+04  0.25153750922E+03 -0.18552340567E+04  0.25897752951E+04  0.10100000352E+00 0.  1.
</event>
<event>
 5   0  0.1187925E-07  0.3899077E+04  0.7818609E-02  0.8025221E-01
       -1   -1    0    0    0  501  0.00000000000E+00  0.00000000000E+00  0.29007052175E+04  0.29007052175E+04  0.50400001928E-02 0.  1.
        1   -1    0    0  501    0  0.00000000000E+00  0.00000000000E+00 -0.13102679323E+04  0.13102679323E+04  0.50400001928E-02 0. -1.
    10030    2    1    2    0    0  0.00000000000E+00  0.00000000000E+00  0.15904372852E+04  0.42109731498E+04  0.38990773409E+04 0.  0.
        2    1    3    3  502    0 -0.11977536456E+04 -0.15315065910E+04  0.64030546272E+03  0.20469776060E+04  0.25500000920E-02 0.  1.
       -2    1    3    3    0  502  0.11977536456E+04  0.15315065910E+04  0.95013182244E+03  0.21639955439E+04  0.25500000920E-02 0. -1.
</event>
<event>
 5   0  0.3610483E-07  0.3927518E+04  0.7818609E-02  0.8019330E-01
       -2   -1    0    0    0  501  0.00000000000E+00  0.00000000000E+00  0.21494090969E+04  0.21494090969E+04  0.25500000920E-02 0.  1.
        2   -1    0    0  501    0  0.00000000000E+00  0.00000000000E+00 -0.17941438115E+04  0.17941438116E+04  0.25500000920E-02 0. -1.
    10030    2    1    2    0    0  0.00000000000E+00  0.00000000000E+00  0.35526528536E+03  0.39435529085E+04  0.39275178063E+04 0.  0.
        4    1    3    3  502    0 -0.67414818746E+03 -0.11795628096E+04  0.16013438222E+04  0.21000352022E+04  0.12699999809E+01 0.  1.
       -4    1    3    3    0  502  0.67414818746E+03  0.11795628096E+04 -0.12460785369E+04  0.18435177063E+04  0.12699999809E+01 0. -1.
</event>
<event>
 5   0  0.1187925E-07  0.3893707E+04  0.7818609E-02  0.8026339E-01
        1   -1    0    0  501    0  0.00000000000E+00  0.00000000000E+00  0.23884237178E+04  0.23884237178E+04  0.50400001928E-02 0.  1.
       -1   -1    0    0    0  501  0.00000000000E+00  0.00000000000E+00 -0.15869205295E+04  0.15869205295E+04  0.50400001928E-02 0. -1.
    10030    2    1    2    0    0  0.00000000000E+00  0.00000000000E+00  0.80150318824E+03  0.39753442473E+04  0.38937070414E+04 0.  0.
        4    1    3    3  502    0  0.18666076742E+04 -0.12403697810E+02  0.96539215401E+03  0.21015141411E+04  0.12699999809E+01 0. -1.
       -4    1    3    3    0  502 -0.18666076742E+04  0.12403697810E+02 -0.16388896577E+03  0.18738301063E+04  0.12699999809E+01 0.  1.
</event>
<event>
 5   0  0.1187925E-07  0.3896437E+04  0.7818609E-02  0.8025771E-01
       -1   -1    0    0    0  501  0.00000000000E+00  0.00000000000E+00  0.27735886396E+04  0.27735886396E+04  0.50400001928E-02 0. -1.
        1   -1    0    0  501    0  0.00000000000E+00  0.00000000000E+00 -0.13684634581E+04  0.13684634581E+04  0.50400001928E-02 0.  1.
    10030    2    1    2    0    0  0.00000000000E+00  0.00000000000E+00  0.14051251815E+04  0.41420520977E+04  0.38964366804E+04 0.  0.
        3    1    3    3  502    0  0.11787325588E+04 -0.74131994345E+03  0.21510202979E+04  0.25623922487E+04  0.10100000352E+00 0. -1.
       -3    1    3    3    0  502 -0.11787325588E+04  0.74131994345E+03 -0.74589511639E+03  0.15796598490E+04  0.10100000352E+00 0.  1.
</event>
<event>
 5   0  0.3680814E-07  0.3889315E+04  0.7818609E-02  0.8027255E-01
        2   -1    0    0  501    0  0.00000000000E+00  0.00000000000E+00  0.22006123056E+04  0.22006123056E+04  0.25500000920E-02 0. -1.
       -2   -1    0    0    0  501  0.00000000000E+00  0.00000000000E+00 -0.17184729944E+04  0.17184729944E+04  0.25500000920E-02 0.  1.
    10030    2    1    2    0    0  0.00000000000E+00  0.00000000000E+00  0.48213931117E+03  0.39190853000E+04  0.38893150134E+04 0.  0.
        1    1    3    3  502    0  0.94104176236E+03 -0.10750264979E+04  0.15704294127E+04  0.21230850454E+04  0.50400001928E-02 0. -1.
       -1    1    3    3    0  502 -0.94104176236E+03  0.10750264979E+04 -0.10882901015E+04  0.17960002547E+04  0.50400001928E-02 0.  1.
</event>
<event>
 5   0  0.3832389E-07  0.3865275E+04  0.7818609E-02  0.8032290E-01
        2   -1    0    0  501    0  0.00000000000E+00  0.00000000000E+00  0.25678501816E+04  0.25678501816E+04  0.25500000920E-02 0.  1.
       -2   -1    0    0    0  501  0.00000000000E+00  0.00000000000E+00 -0.14545584908E+04  0.14545584908E+04  0.25500000920E-02 0. -1.
    10030    2    1    2    0    0  0.00000000000E+00  0.00000000000E+00  0.11132916908E+04  0.40224086724E+04  0.38652752992E+04 0.  0.
        5    1    3    3  502    0 -0.12724594531E+04 -0.76661583889E+03 -0.72981847909E+03  0.16551465212E+04  0.46999998093E+01 0. -1.
       -5    1    3    3    0  502  0.12724594531E+04  0.76661583889E+03  0.18431101699E+04  0.23672621512E+04  0.46999998093E+01 0.  1.
</event>
<event>
 5   0  0.1187925E-07  0.3905509E+04  0.7818609E-02  0.8023884E-01
       -1   -1    0    0    0  501  0.00000000000E+00  0.00000000000E+00  0.16461474073E+04  0.16461474073E+04  0.50400001928E-02 0. -1.
        1   -1    0    0  501    0  0.00000000000E+00  0.00000000000E+00 -0.23164689972E+04  0.23164689972E+04  0.50400001928E-02 0.  1.
    10030    2    1    2    0    0  0.00000000000E+00  0.00000000000E+00 -0.67032158990E+03  0.39626164045E+04  0.39055086398E+04 0.  0.
        4    1    3    3  502    0 -0.93379863326E+03  0.15751028599E+04 -0.10235496655E+04  0.20977570015E+04  0.12699999809E+01 0.  1.
       -4    1    3    3    0  502  0.93379863326E+03 -0.15751028599E+04  0.35322807556E+03  0.18648594030E+04  0.12699999809E+01 0. -1.
</event>
<event>
 5   0  0.3610483E-07  0.3937430E+04  0.7818609E-02  0.8017289E-01
       -2   -1    0    0    0  501  0.00000000000E+00  0.00000000000E+00  0.16640373251E+04  0.16640373251E+04  0.25500000920E-02 0.  1.
        2   -1    0    0  501    0  0.00000000000E+00  0.00000000000E+00 -0.23291781654E+04  0.23291781654E+04  0.25500000920E-02 0. -1.
    10030    2    1    2    0    0  0.00000000000E+00  0.00000000000E+00 -0.66514084032E+03  0.39932154906E+04  0.39374303316E+04 0.  0.
        4    1    3    3  502    0  0.53634344004E+03 -0.21153717706E+03  0.15764981138E+04  0.16786185328E+04  0.12699999809E+01 0.  1.
       -4    1    3    3    0  502 -0.53634344004E+03  0.21153717706E+03 -0.22416389542E+04  0.23145969577E+04  0.12699999809E+01 0. -1.
</event>
<event>
 5   0  0.3665303E-07  0.3809298E+04  0.7818609E-02  0.8044163E-01
        2   -1    0    0  501    0  0.00000000000E+00  0.00000000000E+00  0.19832546113E+04  0.19832546113E+04  0.25500000920E-02 0. -1.
       -2   -1    0    0    0  501  0.00000000000E+00  0.00000000000E+00 -0.18291584669E+04  0.18291584669E+04  0.25500000920E-02 0.  1.
    10030    2    1    2    0    0  0.00000000000E+00  0.00000000000E+00  0.15409614440E+03  0.38124130782E+04  0.38092975543E+04 0.  0.
        2    1    3    3  502    0  0.14376352312E+04 -0.41987527011E+03 -0.11006031666E+04  0.18586063679E+04  0.25500000920E-02 0.  1.
       -2    1    3    3    0  502 -0.14376352312E+04  0.41987527011E+03  0.12546993110E+04  0.19538067103E+04  0.25500000920E-02 0. -1.
</event>
<event>
 5   0  0.1187925E-07  0.3513678E+04  0.7818609E-02  0.8110556E-01
        1   -1    0    0  501    0  0.00000000000E+00  0.00000000000E+00  0.12463183660E+04  0.12463183660E+04  0.50400001928E-02 0. -1.
       -1   -1    0    0    0  501  0.00000000000E+00  0.00000000000E+00 -0.24764802516E+04  0.24764802516E+04  0.50400001928E-02 0.  1.
    10030    2    1    2    0    0  0.00000000000E+00  0.00000000000E+00 -0.12301618856E+04  0.37227986176E+04  0.35136777431E+04 0.  0.
        1    1    3    3  502    0 -0.96993295588E+03 -0.55139368845E+03  0.82277194000E+03  0.13862750823E+04  0.50400001928E-02 0. -1.
       -1    1    3    3    0  502  0.96993295588E+03  0.55139368845E+03 -0.20529338256E+04  0.23365235353E+04  0.50400001928E-02 0.  1.
</event>
<event>
 5   0  0.3665303E-07  0.3917183E+04  0.7818609E-02  0.8021465E-01
       -2   -1    0    0    0  501  0.00000000000E+00  0.00000000000E+00  0.14181973926E+04  0.14181973926E+04  0.25500000920E-02 0. -1.
        2   -1    0    0  501    0  0.00000000000E+00  0.00000000000E+00 -0.27048989097E+04  0.27048989097E+04  0.25500000920E-02 0.  1.
    10030    2    1    2    0    0  0.00000000000E+00  0.00000000000E+00 -0.12867015171E+04  0.41230963023E+04  0.39171829576E+04 0.  0.
        2    1    3    3  502    0  0.15248117405E+04 -0.33850038191E+03  0.60048170193E+03  0.16733832875E+04  0.25500000920E-02 0. -1.
       -2    1    3    3    0  502 -0.15248117405E+04  0.33850038191E+03 -0.18871832191E+04  0.24497130148E+04  0.25500000920E-02 0.  1.
</event>
<event>
 5   0  0.1187925E-07  0.3133337E+04  0.7818609E-02  0.8206648E-01
        1   -1    0    0  501    0  0.00000000000E+00  0.00000000000E+00  0.17146224839E+04  0.17146224839E+04  0.50400001928E-02 0.  1.
       -1   -1    0    0    0  501  0.00000000000E+00  0.00000000000E+00 -0.14314817947E+04  0.14314817947E+04  0.50400001928E-02 0. -1.
    10030    2    1    2    0    0  0.00000000000E+00  0.00000000000E+00  0.28314068923E+03  0.31461042786E+04  0.31333374350E+04 0.  0.
        2    1    3    3  502    0  0.12472298794E+04 -0.94670182251E+03  0.19300559960E+03  0.15776811701E+04  0.25500000920E-02 0.  1.
       -2    1    3    3    0  502 -0.12472298794E+04  0.94670182251E+03  0.90135089628E+02  0.15684231085E+04  0.25500000920E-02 0. -1.
</event>
<event>
 5   0  0.1187925E-07  0.3807361E+04  0.7818609E-02  0.8044577E-01
       -1   -1    0    0    0  501  0.00000000000E+00  0.00000000000E+00  0.24344190716E+04  0.24344190716E+04  0.50400001928E-02 0. -1.
        1   -1    0    0  501    0  0.00000000000E+00  0.00000000000E+00 -0.14886504286E+04  0.14886504286E+04  0.50400001928E-02 0.  1.
    10030    2    1    2    0    0  0.00000000000E+00  0.00000000000E+00  0.94576864301E+03  0.39230695003E+04  0.38073607628E+04 0.  0.
        4    1    3    3  502    0 -0.14345285171E+04  0.11674884333E+04  0.93724211138E+03  0.20734815400E+04  0.12699999809E+01 0. -1.
       -4    1    3    3    0  502  0.14345285171E+04 -0.11674884333E+04  0.85265316357E+01  0.18495879603E+04  0.12699999809E+01 0.  1.
</event>
<event>
 5   0  0.3680814E-07  0.3912095E+04  0.7818609E-02  0.8022518E-01
        2   -1    0    0  501    0  0.00000000000E+00  0.00000000000E+00  0.30904827786E+04  0.30904827786E+04  0.25500000920E-02 0.  1.
       -2   -1    0    0    0  501  0.00000000000E+00  0.00000000000E+00 -0.12380338311E+04  0.12380338311E+04  0.25500000920E-02 0. -1.
    10030    2    1    2    0    0  0.00000000000E+00  0.00000000000E+00  0.18524489474E+04  0.43285166097E+04  0.39120952107E+04 0.  0.
        1    1    3    3  502    0 -0.11607123041E+04 -0.42876710657E+03 -0.74996713408E+03  0.14469087693E+04  0.50400001928E-02 0. -1.
       -1    1    3    3    0  502  0.11607123041E+04  0.42876710657E+03  0.26024160815E+04  0.28816078404E+04  0.50400001928E-02 0.  1.
</event>
<event>
 5   0  0.3665303E-07  0.3845896E+04  0.7818609E-02  0.8036377E-01
        2   -1    0    0  501    0  0.00000000000E+00  0.00000000000E+00  0.21819835236E+04  0.21819835236E+04  0.25500000920E-02 0. -1.
       -2   -1    0    0    0  501  0.00000000000E+00  0.00000000000E+00 -0.16946640618E+04  0.16946640618E+04  0.25500000920E-02 0.  1.
    10030    2    1    2    0    0  0.00000000000E+00  0.00000000000E+00  0.48731946179E+03  0.38766475854E+04  0.38458960261E+04 0.  0.
        2    1    3    3  502    0 -0.11097667351E+04 -0.48515543187E+03  0.17491788824E+04  0.21275772047E+04  0.25500000920E-02 0. -1.
       -2    1    3    3    0  502  0.11097667351E+04  0.48515543187E+03 -0.12618594206E+04  0.17490703807E+04  0.25500000920E-02 0.  1.
</event>
<event>
 5   0  0.1187925E-07  0.3890184E+04  0.7818609E-02  0.8027074E-01
        1   -1    0    0  501    0  0.00000000000E+00  0.00000000000E+00  0.16391872295E+04  0.16391872295E+04  0.50400001928E-02 0. -1.
       -1   -1    0    0    0  501  0.00000000000E+00  0.00000000000E+00 -0.23080840899E+04  0.23080840899E+04  0.50400001928E-02 0.  1.
    10030    2    1    2    0    0  0.00000000000E+00  0.00000000000E+00 -0.66889686044E+03  0.39472713194E+04  0.38901835251E+04 0.  0.
        1    1    3    3  502    0  0.83099208970E+03  0.10562052837E+04 -0.17612358598E+04  0.22154162607E+04  0.50400001928E-02 0.  1.
       -1    1    3    3    0  502 -0.83099208970E+03 -0.10562052837E+04  0.10923389994E+04  0.17318550586E+04  0.50400001928E-02 0. -1.
</event>
<event>
 5   0  0.1187925E-07  0.3882865E+04  0.7818609E-02  0.8028602E-01
        1   -1    0    0  501    0  0.00000000000E+00  0.00000000000E+00  0.14021823579E+04  0.14021823579E+04  0.50400001928E-02 0.  1.
       -1   -1    0    0    0  501  0.00000000000E+00  0.00000000000E+00 -0.26880667721E+04  0.26880667721E+04  0.50400001928E-02 0. -1.
    10030    2    1    2    0    0  0.00000000000E+00  0.00000000000E+00 -0.12858844142E+04  0.40902491300E+04  0.38828648211E+04 0.  0.
        2    1    3    3  502    0  0.46564395599E+03  0.34623730378E+03 -0.25945831978E+04  0.26586775913E+04  0.25500000920E-02 0. -1.
       -2    1    3    3    0  502 -0.46564395599E+03 -0.34623730378E+03  0.13086987836E+04  0.14315715387E+04  0.25500000920E-02 0.  1.
</event>
<event>
 5   0  0.3680814E-07  0.3723285E+04  0.7818609E-02  0.8062821E-01
       -2   -1    0    0    0  501  0.00000000000E+00  0.00000000000E+00  0.24512513464E+04  0.24512513465E+04  0.25500000920E-02 0. -1.
        2   -1    0    0  501    0  0.00000000000E+00  0.00000000000E+00 -0.14138546176E+04  0.14138546176E+04  0.25500000920E-02 0.  1.
    10030    2    1    2    0    0  0.00000000000E+00  0.00000000000E+00  0.10373967288E+04  0.38651059641E+04  0.37232851275E+04 0.  0.
        1    1    3    3  502    0  0.13472801169E+03 -0.10100645693E+04 -0.10986352287E+04  0.14984596882E+04  0.50400001928E-02 0.  1.
       -1    1    3    3    0  502 -0.13472801169E+03  0.10100645693E+04  0.21360319576E+04  0.23666462759E+04  0.50400001928E-02 0. -1.
</event>
<event>
 5   0  0.1187925E-07  0.4027404E+04  0.7818609E-02  0.7999041E-01
        1   -1    0    0  501    0  0.00000000000E+00  0.00000000000E+00  0.14577584713E+04  0.14577584713E+04  0.50400001928E-02 0. -1.
       -1   -1    0    0    0  501  0.00000000000E+00  0.00000000000E+00 -0.27816650016E+04  0.27816650016E+04  0.50400001928E-02 0.  1.
    10030    2    1    2    0    0  0.00000000000E+00  0.00000000000E+00 -0.13239065303E+04  0.42394234729E+04  0.40274039878E+04 0.  0.
        2    1    3    3  502    0  0.36789665835E+03 -0.13591972959E+04  0.85335374715E+03  0.16465047398E+04  0.25500000920E-02 0. -1.
       -2    1    3    3    0  502 -0.36789665835E+03  0.13591972959E+04 -0.21772602774E+04  0.25929187330E+04  0.25500000920E-02 0.  1.
</event>
<event>
 5   0  0.1187925E-07  0.3637009E+04  0.7818609E-02  0.8082067E-01
        1   -1    0    0  501    0  0.00000000000E+00  0.00000000000E+00  0.22837771199E+04  0.22837771199E+04  0.50400001928E-02 0. -1.
       -1   -1    0    0    0  501  0.00000000000E+00  0.00000000000E+00 -0.14480214156E+04  0.14480214156E+04  0.50400001928E-02 0.  1.
    10030    2    1    2    0    0  0.00000000000E+00  0.00000000000E+00  0.83575570429E+03  0.37317985356E+04  0.36370087590E+04 0.  0.
        3    1    3    3  502    0  0.76678789647E+03 -0.48274614433E+02  0.21090655506E+04  0.22446495547E+04  0.10100000352E+00 0. -1.
       -3    1    3    3    0  502 -0.76678789647E+03  0.48274614433E+02 -0.12733098463E+04  0.14871489809E+04  0.10100000352E+00 0.  1.
</event>
<event>
 5   0  0.3610483E-07  0.3896657E+04  0.7818609E-02  0.8025725E-01
        2   -1    0    0  501    0  0.00000000000E+00  0.00000000000E+00  0.26201779340E+04  0.26201779340E+04  0.25500000920E-02 0. -1.
       -2   -1    0    0    0  501  0.00000000000E+00  0.00000000000E+00 -0.14487504858E+04  0.14487504858E+04  0.25500000920E-02 0.  1.
    10030    2    1    2    0    0  0.00000000000E+00  0.00000000000E+00  0.11714274483E+04  0.40689284198E+04  0.38966570569E+04 0.  0.
        4    1    3    3  502    0  0.76976548303E+03  0.55000382608E+03 -0.11927998648E+04  0.15224375974E+04  0.12699999809E+01 0.  1.
       -4    1    3    3    0  502 -0.76976548303E+03 -0.55000382608E+03  0.23642273131E+04  0.25464908224E+04  0.12699999809E+01 0. -1.
</event>
<event>
 5   0  0.3610483E-07  0.3867356E+04  0.7818609E-02  0.8031853E-01
       -2   -1    0    0    0  501  0.00000000000E+00  0.00000000000E+00  0.17730333321E+04  0.17730333321E+04  0.25500000920E-02 0.  1.
        2   -1    0    0  501    0  0.00000000000E+00  0.00000000000E+00 -0.21088778008E+04  0.21088778008E+04  0.25500000920E-02 0. -1.
    10030    2    1    2    0    0  0.00000000000E+00  0.00000000000E+00 -0.33584446872E+03  0.38819111328E+04  0.38673560136E+04 0.  0.
        4    1    3    3  502    0  0.13146996580E+04 -0.12546320727E+04  0.49530060054E+03  0.18835766845E+04  0.12699999809E+01 0.  1.
       -4    1    3    3    0  502 -0.13146996580E+04  0.12546320727E+04 -0.83114506926E+03  0.19983344484E+04  0.12699999809E+01 0. -1.
</event>
<event>
 5   0  0.3610483E-07  0.3398367E+04  0.7818609E-02  0.8138307E-01
       -2   -1    0    0    0  501  0.00000000000E+00  0.00000000000E+00  0.11724257057E+04  0.11724257057E+04  0.25500000920E-02 0.  1.
        2   -1    0    0  501    0  0.00000000000E+00  0.00000000000E+00 -0.24626078514E+04  0.24626078514E+04  0.25500000920E-02 0. -1.
    10030    2    1    2    0    0  0.00000000000E+00  0.00000000000E+00 -0.12901821457E+04  0.36350335570E+04  0.33983671067E+04 0.  0.
        4    1    3    3  502    0  0.11172357756E+04  0.10121855938E+04 -0.14835749635E+04  0.21151197932E+04  0.12699999809E+01 0. -1.
       -4    1    3    3    0  502 -0.11172357756E+04 -0.10121855938E+04  0.19339281777E+03  0.15199137638E+04  0.12699999809E+01 0.  1.
</event>
<event>
 5   0  0.3810833E-07  0.2978120E+04  0.7818609E-02  0.8250007E-01
       -2   -1    0    0    0  501  0.00000000000E+00  0.00000000000E+00  0.16859561067E+04  0.16859561067E+04  0.25500000920E-02 0.  1.
        2   -1    0    0  501    0  0.00000000000E+00  0.00000000000E+00 -0.13151584771E+04  0.13151584771E+04  0.25500000920E-02 0. -1.
    10030    2    1    2    0    0  0.00000000000E+00  0.00000000000E+00  0.37079762955E+03  0.30011145838E+04  0.29781198537E+04 0.  0.
        3    1    3    3  502    0 -0.45595282799E+03 -0.75435006487E+03  0.13948164623E+04  0.16499848410E+04  0.10100000352E+00 0.  1.
       -3    1    3    3    0  502  0.45595282799E+03  0.75435006487E+03 -0.10240188328E+04  0.13511297428E+04  0.10100000352E+00 0. -1.
</event>
<event>
 5   0  0.1187925E-07  0.3833084E+04  0.7818609E-02  0.8039092E-01
        1   -1    0    0  501    0  0.00000000000E+00  0.00000000000E+00  0.15238720609E+04  0.15238720609E+04  0.50400001928E-02 0. -1.
       -1   -1    0    0    0  501  0.00000000000E+00  0.00000000000E+00 -0.24103942619E+04  0.24103942619E+04  0.50400001928E-02 0.  1.
    10030    2    1    2    0    0  0.00000000000E+00  0.00000000000E+00 -0.88652220103E+03  0.39342663228E+04  0.38330836001E+04 0.  0.
        1    1    3    3  502    0  0.11248922873E+04 -0.15516436306E+04 -0.43061277789E+03  0.19642830699E+04  0.50400001928E-02 0.  1.
       -1    1    3    3    0  502 -0.11248922873E+04  0.15516436306E+04 -0.45590942314E+03  0.19699832528E+04  0.50400001928E-02 0. -1.
</event>
<event>
 5   0  0.3665303E-07  0.3908673E+04  0.7818609E-02  0.8023228E-01
       -2   -1    0    0    0  501  0.00000000000E+00  0.00000000000E+00  0.19760301373E+04  0.19760301373E+04  0.25500000920E-02 0. -1.
        2   -1    0    0  501    0  0.00000000000E+00  0.00000000000E+00 -0.19328806559E+04  0.19328806559E+04  0.25500000920E-02 0.  1.
    10030    2    1    2    0    0  0.00000000000E+00  0.00000000000E+00  0.43149481413E+02  0.39089107933E+04  0.39086726279E+04 0.  0.
        2    1    3    3  502    0 -0.14853538100E+04  0.97191339464E+03 -0.79611732513E+03  0.19454290999E+04  0.25500000920E-02 0.  1.
       -2    1    3    3    0  502  0.14853538100E+04 -0.97191339464E+03  0.83926680654E+03  0.19634816933E+04  0.25500000920E-02 0. -1.
</event>
<event>
 5   0  0.3680814E-07  0.3861835E+04  0.7818609E-02  0.8033014E-01
       -2   -1    0    0    0  501  0.00000000000E+00  0.00000000000E+00  0.24635050771E+04  0.24635050771E+04  0.25500000920E-02 0.  1.
        2   -1    0    0  501    0  0.00000000000E+00  0.00000000000E+00 -0.15134702448E+04  0.15134702448E+04  0.25500000920E-02 0. -1.
    10030    2    1    2    0    0  0.00000000000E+00  0.00000000000E+00  0.95003483226E+03  0.39769753219E+04  0.38618346066E+04 0.  0.
        1    1    3    3  502    0 -0.77460255081E+03 -0.12204599704E+04 -0.84335095744E+03  0.16735508622E+04  0.50400001928E-02 0. -1.
       -1    1    3    3    0  502  0.77460255081E+03  0.12204599704E+04  0.17933857897E+04  0.23034244597E+04  0.50400001928E-02 0.  1.
</event>
<event>
 5   0  0.1187925E-07  0.3834815E+04  0.7818609E-02  0.8038725E-01
        1   -1    0    0  501    0  0.00000000000E+00  0.00000000000E+00  0.14767953147E+04  0.14767953147E+04  0.50400001928E-02 0. -1.
       -1   -1    0    0    0  501  0.00000000000E+00  0.00000000000E+00 -0.24894796640E+04  0.24894796640E+04  0.50400001928E-02 0.  1.
    10030    2    1    2    0    0  0.00000000000E+00  0.00000000000E+00 -0.10126843493E+04  0.39662749787E+04  0.38348151997E+04 0.  0.
        2    1    3    3  502    0 -0.14703024146E+04  0.34085169132E+02 -0.17787599400E+04  0.23080160123E+04  0.25500000920E-02 0.  1.
       -2    1    3    3    0  502  0.14703024146E+04 -0.34085169132E+02  0.76607559069E+03  0.16582589664E+04  0.25500000920E-02 0. -1.
</event>
<event>
 5   0  0.1187925E-07  0.3849220E+04  0.7818609E-02  0.8035674E-01
        1   -1    0    0  501    0  0.00000000000E+00  0.00000000000E+00  0.26905152112E+04  0.26905152112E+04  0.50400001928E-02 0. -1.
       -1   -1    0    0    0  501  0.00000000000E+00  0.00000000000E+00 -0.13767336788E+04  0.13767336788E+04  0.50400001928E-02 0.  1.
    10030    2    1    2    0    0  0.00000000000E+00  0.00000000000E+00  0.13137815325E+04  0.40672488901E+04  0.38492196116E+04 0.  0.
        2    1    3    3  502    0 -0.19128917935E+04 -0.18871856555E+03  0.75908067952E+03  0.20666332981E+04  0.25500000920E-02 0. -1.
       -2    1    3    3    0  502  0.19128917935E+04  0.18871856555E+03  0.55470085294E+03  0.20006155920E+04  0.25500000920E-02 0.  1.
</event>
<event>
 5   0  0.3610483E-07  0.3889877E+04  0.7818609E-02  0.8027138E-01
        2   -1    0    0  501    0  0.00000000000E+00  0.00000000000E+00  0.24230155546E+04  0.24230155546E+04  0.25500000920E-02 0. -1.
       -2   -1    0    0    0  501  0.00000000000E+00  0.00000000000E+00 -0.15611896127E+04  0.15611896127E+04  0.25500000920E-02 0.  1.
    10030    2    1    2    0    0  0.00000000000E+00  0.00000000000E+00  0.86182594193E+03  0.39842051673E+04  0.38898774866E+04 0.  0.
        4    1    3    3  502    0 -0.16244427051E+04  0.29217648776E+03 -0.62292178083E+03  0.17641469214E+04  0.12699999809E+01 0.  1.
       -4    1    3    3    0  502  0.16244427051E+04 -0.29217648776E+03  0.14847477228E+04  0.22200582459E+04  0.12699999809E+01 0. -1.
</event>
<event>
 5   0  0.3610483E-07  0.3861290E+04  0.7818609E-02  0.8033129E-01
       -2   -1    0    0    0  501  0.00000000000E+00  0.00000000000E+00  0.15212590460E+04  0.15212590460E+04  0.25500000920E-02 0. -1.
        2   -1    0    0  501    0  0.00000000000E+00  0.00000000000E+00 -0.24502011796E+04  0.24502011796E+04  0.25500000920E-02 0.  1.
    10030    2    1    2    0    0  0.00000000000E+00  0.00000000000E+00 -0.92894213360E+03  0.39714602256E+04  0.38612903071E+04 0.  0.
        4    1    3    3  502    0  0.10291280353E+04  0.11213791075E+04  0.75718648666E+03  0.16999790012E+04  0.12699999809E+01 0. -1.
       -4    1    3    3    0  502 -0.10291280353E+04 -0.11213791075E+04 -0.16861286203E+04  0.22714812244E+04  0.12699999809E+01 0.  1.
</event>
<event>
 5   0  0.3610483E-07  0.3487457E+04  0.7818609E-02  0.8116769E-01
        2   -1    0    0  501    0  0.00000000000E+00  0.00000000000E+00  0.21492065812E+04  0.21492065812E+04  0.25500000920E-02 0. -1.
       -2   -1    0    0    0  501  0.00000000000E+00  0.00000000000E+00 -0.14147494697E+04  0.14147494697E+04  0.25500000920E-02 0.  1.
    10030    2    1    2    0    0  0.00000000000E+00  0.00000000000E+00  0.73445711153E+03  0.35639560508E+04  0.34874568791E+04 0.  0.
        4    1    3    3  502    0 -0.66655802628E+03  0.15921872444E+02 -0.12793357402E+04  0.14426554189E+04  0.12699999809E+01 0.  1.
       -4    1    3    3    0  502  0.66655802628E+03 -0.15921872444E+02  0.20137928518E+04  0.21213006320E+04  0.12699999809E+01 0. -1.
</event>
<event>
 5   0  0.1187925E-07  0.3909596E+04  0.7818609E-02  0.8023036E-01
        1   -1    0    0  501    0  0.00000000000E+00  0.00000000000E+00  0.19675209536E+04  0.19675209537E+04  0.50400001928E-02 0.  1.
       -1   -1    0    0    0  501  0.00000000000E+00  0.00000000000E+00 -0.19421576212E+04  0.19421576212E+04  0.50400001928E-02 0. -1.
    10030    2    1    2    0    0  0.00000000000E+00  0.00000000000E+00  0.25363332405E+02  0.39096785749E+04  0.39095963040E+04 0.  0.
        3    1    3    3  502    0 -0.16695313454E+04  0.23581092468E+03 -0.97642665591E+03  0.19484226262E+04  0.10100000352E+00 0. -1.
       -3    1    3    3    0  502  0.16695313454E+04 -0.23581092468E+03  0.10017899883E+04  0.19612559487E+04  0.10100000352E+00 0.  1.
</event>
<event>
 5   0  0.1187925E-07  0.3903850E+04  0.7818609E-02  0.8024229E-01
        1   -1    0    0  501    0  0.00000000000E+00  0.00000000000E+00  0.17761166219E+04  0.17761166219E+04  0.50400001928E-02 0. -1.
       -1   -1    0    0    0  501  0.00000000000E+00  0.00000000000E+00 -0.21451357318E+04  0.21451357318E+04  0.50400001928E-02 0.  1.
    10030    2    1    2    0    0  0.00000000000E+00  0.00000000000E+00 -0.36901910992E+03  0.39212523537E+04  0.39038500122E+04 0.  0.
        5    1    3    3  502    0  0.14906218029E+04  0.34205699840E+03 -0.14027775796E+04  0.20752742896E+04  0.46999998093E+01 0.  1.
       -5    1    3    3    0  502 -0.14906218029E+04 -0.34205699840E+03  0.10337584697E+04  0.18459780641E+04  0.46999998093E+01 0. -1.
</event>
<event>
 5   0  0.3665303E-07  0.3891576E+04  0.7818609E-02  0.8026784E-01
       -2   -1    0    0    0  501  0.00000000000E+00  0.00000000000E+00  0.11827433508E+04  0.11827433508E+04  0.25500000920E-02 0. -1.
        2   -1    0    0  501    0  0.00000000000E+00  0.00000000000E+00 -0.32011091569E+04  0.32011091569E+04  0.25500000920E-02 0.  1.
    10030    2    1    2    0    0  0.00000000000E+00  0.00000000000E+00 -0.20183658061E+04  0.43838525078E+04  0.38915758097E+04 0.  0.
        2    1    3    3  502    0 -0.34529897697E+03  0.19083000762E+04 -0.83017954197E+03  0.21095114686E+04  0.25500000920E-02 0. -1.
       -2    1    3    3    0  502  0.34529897697E+03 -0.19083000762E+04 -0.11881862641E+04  0.22743410392E+04  0.25500000920E-02 0.  1.
</event>
<event>
 5   0  0.1187925E-07  0.3790542E+04  0.7818609E-02  0.8048188E-01
        1   -1    0    0  501    0  0.00000000000E+00  0.00000000000E+00  0.12117507419E+04  0.12117507419E+04  0.50400001928E-02 0.  1.
       -1   -1    0    0    0  501  0.00000000000E+00  0.00000000000E+00 -0.29643496539E+04  0.29643496539E+04  0.50400001928E-02 0. -1.
    10030    2    1    2    0    0  0.00000000000E+00  0.00000000000E+00 -0.17525989120E+04  0.41761003958E+04  0.37905423845E+04 0.  0.
        2    1    3    3  502    0 -0.71014814922E+03  0.29138110340E+03  0.10328311383E+04  0.12868385685E+04  0.25500000920E-02 0.  1.
       -2    1    3    3    0  502  0.71014814922E+03 -0.29138110340E+03 -0.27854300503E+04  0.28892618272E+04  0.25500000920E-02 0. -1.
</event>
<event>
 5   0  0.1187925E-07  0.3398653E+04  0.7818609E-02  0.8138237E-01
       -1   -1    0    0    0  501  0.00000000000E+00  0.00000000000E+00  0.13216578918E+04  0.13216578918E+04  0.50400001928E-02 0. -1.
        1   -1    0    0  501    0  0.00000000000E+00  0.00000000000E+00 -0.21849151913E+04  0.21849151913E+04  0.50400001928E-02 0.  1.
    10030    2    1    2    0    0  0.00000000000E+00  0.00000000000E+00 -0.86325729947E+03  0.35065730832E+04  0.33986529129E+04 0.  0.
        2    1    3    3  502    0  0.37322925140E+03 -0.15921553884E+02  0.12787680002E+04  0.13322166371E+04  0.25500000920E-02 0. -1.
       -2    1    3    3    0  502 -0.37322925140E+03  0.15921553884E+02 -0.21420252997E+04  0.21743564460E+04  0.25500000920E-02 0.  1.
</event>
<event>
 5   0  0.1187925E-07  0.3846998E+04  0.7818609E-02  0.8036144E-01
       -1   -1    0    0    0  501  0.00000000000E+00  0.00000000000E+00  0.17241652874E+04  0.17241652874E+04  0.50400001928E-02 0. -1.
        1   -1    0    0  501    0  0.00000000000E+00  0.00000000000E+00 -0.21458780834E+04  0.21458780834E+04  0.50400001928E-02 0.  1.
    10030    2    1    2    0    0  0.00000000000E+00  0.00000000000E+00 -0.42171279603E+03  0.38700433709E+04  0.38469980517E+04 0.  0.
        1    1    3    3  502    0 -0.12088974450E+04  0.13300736030E+04  0.47831659300E+03  0.18599235428E+04  0.50400001928E-02 0. -1.
       -1    1    3    3    0  502  0.12088974450E+04 -0.13300736030E+04 -0.90002938902E+03  0.20101198280E+04  0.50400001928E-02 0.  1.
</event>
<event>
 5   0  0.3665303E-07  0.3209411E+04  0.7818609E-02  0.8186336E-01
       -2   -1    0    0    0  501  0.00000000000E+00  0.00000000000E+00  0.18333888970E+04  0.18333888970E+04  0.25500000920E-02 0.  1.
        2   -1    0    0  501    0  0.00000000000E+00  0.00000000000E+00 -0.14045465213E+04  0.14045465213E+04  0.25500000920E-02 0. -1.
    10030    2    1    2    0    0  0.00000000000E+00  0.00000000000E+00  0.42884237569E+03  0.32379354183E+04  0.32094111594E+04 0.  0.
        2    1    3    3  502    0  0.81470406941E+03 -0.13825093060E+04  0.21674287356E+03  0.16192752005E+04  0.25500000920E-02 0.  1.
       -2    1    3    3    0  502 -0.81470406941E+03  0.13825093060E+04  0.21209950213E+03  0.16186602178E+04  0.25500000920E-02 0. -1.
</event>
<event>
 5   0  0.3610483E-07  0.3060715E+04  0.7818609E-02  0.8226603E-01
        2   -1    0    0  501    0  0.00000000000E+00  0.00000000000E+00  0.17236528898E+04  0.17236528898E+04  0.25500000920E-02 0. -1.
       -2   -1    0    0    0  501  0.00000000000E+00  0.00000000000E+00 -0.13587392041E+04  0.13587392041E+04  0.25500000920E-02 0.  1.
    10030    2    1    2    0    0  0.00000000000E+00  0.00000000000E+00  0.36491368578E+03  0.30823920939E+04  0.30607154429E+04 0.  0.
        4    1    3    3  502    0 -0.12645268594E+04 -0.81413020375E+03  0.46758203395E+03  0.15749510272E+04  0.12699999809E+01 0. -1.
       -4    1    3    3    0  502  0.12645268594E+04  0.81413020375E+03 -0.10266834818E+03  0.15074410667E+04  0.12699999809E+01 0.  1.
</event>
<event>
 5   0  0.1187925E-07  0.3710851E+04  0.7818609E-02  0.8065561E-01
       -1   -1    0    0    0  501  0.00000000000E+00  0.00000000000E+00  0.17170868984E+04  0.17170868984E+04  0.50400001928E-02 0. -1.
        1   -1    0    0  501    0  0.00000000000E+00  0.00000000000E+00 -0.20049089936E+04  0.20049089936E+04  0.50400001928E-02 0.  1.
    10030    2    1    2    0    0  0.00000000000E+00  0.00000000000E+00 -0.28782209520E+03  0.37219958920E+04  0.37108505577E+04 0.  0.
        3    1    3    3  502    0  0.52059391879E+03 -0.88405266721E+03  0.14067062646E+04  0.17410886456E+04  0.10100000352E+00 0. -1.
       -3    1    3    3    0  502 -0.52059391879E+03  0.88405266721E+03 -0.16945283598E+04  0.19809072465E+04  0.10100000352E+00 0.  1.
</event>
<event>
 5   0  0.3680814E-07  0.3938207E+04  0.7818609E-02  0.8017129E-01
        2   -1    0    0  501    0  0.00000000000E+00  0.00000000000E+00  0.16340917912E+04  0.16340917912E+04  0.25500000920E-02 0.  1.
       -2   -1    0    0    0  501  0.00000000000E+00  0.00000000000E+00 -0.23727975544E+04  0.23727975544E+04  0.25500000920E-02 0. -1.
    10030    2    1    2    0    0  0.00000000000E+00  0.00000000000E+00 -0.73870576324E+03  0.40068893456E+04  0.39382072093E+04 0.  0.
        1    1    3    3  502    0 -0.16177461791E+03  0.11644665128E+04  0.12378208856E+04  0.17071478645E+04  0.50400001928E-02 0.  1.
       -1    1    3    3    0  502  0.16177461791E+03 -0.11644665128E+04 -0.19765266488E+04  0.22997414811E+04  0.50400001928E-02 0. -1.
</event>
<event>
 5   0  0.1187925E-07  0.3901988E+04  0.7818609E-02  0.8024616E-01
        1   -1    0    0  501    0  0.00000000000E+00  0.00000000000E+00  0.34860482082E+04  0.34860482082E+04  0.50400001928E-02 0. -1.
       -1   -1    0    0    0  501  0.00000000000E+00  0.00000000000E+00 -0.10918889105E+04  0.10918889105E+04  0.50400001928E-02 0.  1.
    10030    2    1    2    0    0  0.00000000000E+00  0.00000000000E+00  0.23941592977E+04  0.45779371186E+04  0.39019878933E+04 0.  0.
        2    1    3    3  502    0 -0.15160022617E+04 -0.10620899967E+04  0.19203839527E+04  0.26672406236E+04  0.25500000920E-02 0.  1.
       -2    1    3    3    0  502  0.15160022617E+04  0.10620899967E+04  0.47377534500E+03  0.19106964950E+04  0.25500000920E-02 0. -1.
</event>
<event>
 5   0  0.1187925E-07  0.3567681E+04  0.7818609E-02  0.8097935E-01
       -1   -1    0    0    0  501  0.00000000000E+00  0.00000000000E+00  0.13134517754E+04  0.13134517754E+04  0.50400001928E-02 0. -1.
        1   -1    0    0  501    0  0.00000000000E+00  0.00000000000E+00 -0.24226903479E+04  0.24226903479E+04  0.50400001928E-02 0.  1.
    10030    2    1    2    0    0  0.00000000000E+00  0.00000000000E+00 -0.11092385725E+04  0.37361421233E+04  0.35676810052E+04 0.  0.
        1    1    3    3  502    0 -0.80901975910E+03  0.12791550063E+04  0.43406630001E+03  0.15745361392E+04  0.50400001928E-02 0. -1.
       -1    1    3    3    0  502  0.80901975910E+03 -0.12791550063E+04 -0.15433048725E+04  0.21616059841E+04  0.50400001928E-02 0.  1.
</event>
<event>
 5   0  0.1187925E-07  0.3892729E+04  0.7818609E-02  0.8026543E-01
        1   -1    0    0  501    0  0.00000000000E+00  0.00000000000E+00  0.12068683693E+04  0.12068683693E+04  0.50400001928E-02 0. -1.
       -1   -1    0    0    0  501  0.00000000000E+00  0.00000000000E+00 -0.31389793666E+04  0.31389793666E+04  0.50400001928E-02 0.  1.
    10030    2    1    2    0    0  0.00000000000E+00  0.00000000000E+00 -0.19321109973E+04  0.43458477359E+04  0.38927290733E+04 0.  0.
        3    1    3    3  502    0 -0.13883684653E+03  0.18832382955E+04 -0.14926286850E+04  0.24070318961E+04  0.10100000352E+00 0.  1.
       -3    1    3    3    0  502  0.13883684653E+03 -0.18832382955E+04 -0.43948231237E+03  0.19388158398E+04  0.10100000352E+00 0. -1.
</event>
<event>
 5   0  0.1187925E-07  0.3899369E+04  0.7818609E-02  0.8025160E-01
       -1   -1    0    0    0  501  0.00000000000E+00  0.00000000000E+00  0.16134251425E+04  0.16134251425E+04  0.50400001928E-02 0.  1.
        1   -1    0    0  501    0  0.00000000000E+00  0.00000000000E+00 -0.23560249974E+04  0.23560249974E+04  0.50400001928E-02 0. -1.
    10030    2    1    2    0    0  0.00000000000E+00  0.00000000000E+00 -0.74259985491E+03  0.39694501400E+04  0.38993691630E+04 0.  0.
        1    1    3    3  502    0  0.17183692451E+04 -0.52484584195E+03 -0.11418814563E+04  0.21288845156E+04  0.50400001928E-02 0. -1.
       -1    1    3    3    0  502 -0.17183692451E+04  0.52484584195E+03  0.39928160143E+03  0.18405656244E+04  0.50400001928E-02 0.  1.
</event>
<event>
 5   0  0.1187925E-07  0.3883173E+04  0.7818609E-02  0.8028538E-01
        1   -1    0    0  501    0  0.00000000000E+00  0.00000000000E+00  0.12179336850E+04  0.12179336850E+04  0.50400001928E-02 0.  1.
       -1   -1    0    0    0  501  0.00000000000E+00  0.00000000000E+00 -0.30952078116E+04  0.30952078116E+04  0.50400001928E-02 0. -1.
    10030    2    1    2    0    0  0.00000000000E+00  0.00000000000E+00 -0.18772741266E+04  0.43131414967E+04  0.38831728553E+04 0.  0.
        1    1    3    3  502    0 -0.71630982462E+03  0.27307592588E+03 -0.29199955084E+04  0.30189474980E+04  0.50400001928E-02 0. -1.
       -1    1    3    3    0  502  0.71630982462E+03 -0.27307592588E+03  0.10427213818E+04  0.12941939987E+04  0.50400001928E-02 0.  1.
</event>
<event>
 5   0  0.1187925E-07  0.3839355E+04  0.7818609E-02  0.8037762E-01
        1   -1    0    0  501    0  0.00000000000E+00  0.00000000000E+00  0.17510578370E+04  0.17510578370E+04  0.50400001928E-02 0. -1.
       -1   -1    0    0    0  501  0.00000000000E+00  0.00000000000E+00 -0.21045347026E+04  0.21045347026E+04  0.50400001928E-02 0.  1.
    10030    2    1    2    0    0  0.00000000000E+00  0.00000000000E+00 -0.35347686558E+03  0.38555925396E+04  0.38393551459E+04 0.  0.
        2    1    3    3  502    0 -0.14706174439E+04  0.95582732890E+03  0.60684381473E+03  0.18559582335E+04  0.25500000920E-02 0. -1.
       -2    1    3    3    0  502  0.14706174439E+04 -0.95582732890E+03 -0.96032068031E+03  0.19996343061E+04  0.25500000920E-02 0.  1.
</event>
<event>
 5   0  0.1187925E-07  0.3964442E+04  0.7818609E-02  0.8011758E-01
        1   -1    0    0  501    0  0.00000000000E+00  0.00000000000E+00  0.25641061700E+04  0.25641061700E+04  0.50400001928E-02 0.  1.
       -1   -1    0    0    0  501  0.00000000000E+00  0.00000000000E+00 -0.15323861090E+04  0.15323861090E+04  0.50400001928E-02 0. -1.
    10030    2    1    2    0    0  0.00000000000E+00  0.00000000000E+00  0.10317200610E+04  0.40964922790E+04  0.39644422947E+04 0.  0.
        1    1    3    3  502    0  0.90365049670E+03  0.14945662348E+04 -0.45285684013E+03  0.18042704255E+04  0.50400001928E-02 0. -1.
       -1    1    3    3    0  502 -0.90365049670E+03 -0.14945662348E+04  0.14845769011E+04  0.22922218536E+04  0.50400001928E-02 0.  1.
</event>
<event>
 5   0  0.3665303E-07  0.2835992E+04  0.7818609E-02  0.8292181E-01
        2   -1    0    0  501    0  0.00000000000E+00  0.00000000000E+00  0.14964164490E+04  0.14964164490E+04  0.25500000920E-02 0. -1.
       -2   -1    0    0    0  501  0.00000000000E+00  0.00000000000E+00 -0.13436851757E+04  0.13436851757E+04  0.25500000920E-02 0.  1.
    10030    2    1    2    0    0  0.00000000000E+00  0.00000000000E+00  0.15273127334E+03  0.28401016247E+04  0.28359919599E+04 0.  0.
        2    1    3    3  502    0 -0.11161912019E+04  0.60512665258E+03  0.70866916461E+03  0.14540540051E+04  0.25500000920E-02 0. -1.
       -2    1    3    3    0  502  0.11161912019E+04 -0.60512665258E+03 -0.55593789127E+03  0.13860476196E+04  0.25500000920E-02 0.  1.
</event>
<event>
 5   0  0.1187925E-07  0.3885816E+04  0.7818609E-02  0.8027986E-01
        1   -1    0    0  501    0  0.00000000000E+00  0.00000000000E+00  0.16933026344E+04  0.16933026344E+04  0.50400001928E-02 0.  1.
       -1   -1    0    0    0  501  0.00000000000E+00  0.00000000000E+00 -0.22293071796E+04  0.22293071796E+04  0.50400001928E-02 0. -1.
    10030    2    1    2    0    0  0.00000000000E+00  0.00000000000E+00 -0.53600454516E+03  0.39226098140E+04  0.38858161151E+04 0.  0.
        2    1    3    3  502    0 -0.14331793290E+04  0.11807001103E+04 -0.84511120453E+03  0.20401638874E+04  0.25500000920E-02 0. -1.
       -2    1    3    3    0  502  0.14331793290E+04 -0.11807001103E+04  0.30910665937E+03  0.18824459265E+04  0.25500000920E-02 0.  1.
</event>
<event>
 5   0  0.1187925E-07  0.3847203E+04  0.7818609E-02  0.8036100E-01
       -1   -1    0    0    0  501  0.00000000000E+00  0.00000000000E+00  0.29846554421E+04  0.29846554421E+04  0.50400001928E-02 0. -1.
        1   -1    0    0  501    0  0.00000000000E+00  0.00000000000E+00 -0.12397555641E+04  0.12397555642E+04  0.50400001928E-02 0.  1.
    10030    2    1    2    0    0  0.00000000000E+00  0.00000000000E+00  0.17448998780E+04  0.42244110063E+04  0.38472032395E+04 0.  0.
        5    1    3    3  502    0 -0.16480943675E+02  0.18812573195E+04  0.43210645452E+03  0.19303209064E+04  0.46999998093E+01 0. -1.
       -5    1    3    3    0  502  0.16480943675E+02 -0.18812573195E+04  0.13127934234E+04  0.22940900999E+04  0.46999998093E+01 0.  1.
</event>
<event>
 5   0  0.3680814E-07  0.3906037E+04  0.7818609E-02  0.8023775E-01
       -2   -1    0    0    0  501  0.00000000000E+00  0.00000000000E+00  0.25795939002E+04  0.25795939002E+04  0.25500000920E-02 0.  1.
        2   -1    0    0  501    0  0.00000000000E+00  0.00000000000E+00 -0.14786363167E+04  0.14786363167E+04  0.25500000920E-02 0. -1.
    10030    2    1    2    0    0  0.00000000000E+00  0.00000000000E+00  0.11009575835E+04  0.40582302169E+04  0.39060369805E+04 0.  0.
        1    1    3    3  502    0 -0.15213134618E+04  0.44411723934E+03  0.17362847004E+04  0.23508124834E+04  0.50400001928E-02 0.  1.
       -1    1    3    3    0  502  0.15213134618E+04 -0.44411723934E+03 -0.63532711685E+03  0.17074177335E+04  0.50400001928E-02 0. -1.
</event>
<event>
 5   0  0.3680814E-07  0.3565401E+04  0.7818609E-02  0.8098463E-01
        2   -1    0    0  501    0  0.00000000000E+00  0.00000000000E+00  0.25188565596E+04  0.25188565596E+04  0.25500000920E-02 0.  1.
       -2   -1    0    0    0  501  0.00000000000E+00  0.00000000000E+00 -0.12616919609E+04  0.12616919609E+04  0.25500000920E-02 0. -1.
    10030    2    1    2    0    0  0.00000000000E+00  0.00000000000E+00  0.12571645987E+04  0.37805485206E+04  0.35654009996E+04 0.  0.
        1    1    3    3  502    0 -0.41390110313E+03  0.17339425995E+04  0.64156924684E+03  0.18945928745E+04  0.50400001928E-02 0. -1.
       -1    1    3    3    0  502  0.41390110313E+03 -0.17339425995E+04  0.61559535186E+03  0.18859556461E+04  0.50400001928E-02 0.  1.
</event>
<event>
 5   0  0.3665303E-07  0.4241301E+04  0.7818609E-02  0.7957562E-01
       -2   -1    0    0    0  501  0.00000000000E+00  0.00000000000E+00  0.31349357462E+04  0.31349357462E+04  0.25500000920E-02 0. -1.
        2   -1    0    0  501    0  0.00000000000E+00  0.00000000000E+00 -0.14345298797E+04  0.14345298797E+04  0.25500000920E-02 0.  1.
    10030    2    1    2    0    0  0.00000000000E+00  0.00000000000E+00  0.17004058664E+04  0.45694656259E+04  0.42413012149E+04 0.  0.
        2    1    3    3  502    0 -0.11078127664E+04 -0.12424732004E+04 -0.56529131078E+03  0.17579940401E+04  0.25500000920E-02 0.  1.
       -2    1    3    3    0  502  0.11078127664E+04  0.12424732004E+04  0.22656971772E+04  0.28114715858E+04  0.25500000920E-02 0. -1.
</event>
<event>
 5   0  0.3832389E-07  0.3830829E+04  0.7818609E-02  0.8039571E-01
        2   -1    0    0  501    0  0.00000000000E+00  0.00000000000E+00  0.31567489018E+04  0.31567489018E+04  0.25500000920E-02 0. -1.
       -2   -1    0    0    0  501  0.00000000000E+00  0.00000000000E+00 -0.11622126478E+04  0.11622126478E+04  0.25500000920E-02 0.  1.
    10030    2    1    2    0    0  0.00000000000E+00  0.00000000000E+00  0.19945362540E+04  0.43189615496E+04  0.38308294138E+04 0.  0.
        5    1    3    3  502    0 -0.18939352976E+04 -0.18250695340E+03  0.12455358570E+04  0.22741331009E+04  0.46999998093E+01 0.  1.
       -5    1    3    3    0  502  0.18939352976E+04  0.18250695340E+03  0.74900039701E+03  0.20448284486E+04  0.46999998093E+01 0. -1.
</event>
<event>
 5   0  0.1187925E-07  0.4007294E+04  0.7818609E-02  0.8003077E-01
        1   -1    0    0  501    0  0.00000000000E+00  0.00000000000E+00  0.23028538734E+04  0.23028538734E+04  0.50400001928E-02 0. -1.
       -1   -1    0    0    0  501  0.00000000000E+00  0.00000000000E+00 -0.17433156700E+04  0.17433156700E+04  0.50400001928E-02 0.  1.
    10030    2    1    2    0    0  0.00000000000E+00  0.00000000000E+00  0.55953820339E+03  0.40461695434E+04  0.40072939714E+04 0.  0.
        4    1    3    3  502    0 -0.87618196605E+03  0.15942654507E+03 -0.15324935094E+04  0.17724699236E+04  0.12699999809E+01 0.  1.
       -4    1    3    3    0  502  0.87618196605E+03 -0.15942654507E+03  0.20920317128E+04  0.22736996198E+04  0.12699999809E+01 0. -1.
</event>
<event>
 5   0  0.3680814E-07  0.3780427E+04  0.7818609E-02  0.8050368E-01
        2   -1    0    0  501    0  0.00000000000E+00  0.00000000000E+00  0.16891891551E+04  0.16891891551E+04  0.25500000920E-02 0. -1.
       -2   -1    0    0    0  501  0.00000000000E+00  0.00000000000E+00 -0.21151610367E+04  0.21151610367E+04  0.25500000920E-02 0.  1.
    10030    2    1    2    0    0  0.00000000000E+00  0.00000000000E+00 -0.42597188163E+03  0.38043501918E+04  0.37804270047E+04 0.  0.
        1    1    3    3  502    0 -0.82962172925E+03 -0.84922604783E+03 -0.16931609267E+04  0.20679098185E+04  0.50400001928E-02 0.  1.
       -1    1    3    3    0  502  0.82962172925E+03  0.84922604783E+03  0.12671890450E+04  0.17364403732E+04  0.50400001928E-02 0. -1.
</event>
<event>
 5   0  0.1187925E-07  0.3499287E+04  0.7818609E-02  0.8113959E-01
       -1   -1    0    0    0  501  0.00000000000E+00  0.00000000000E+00  0.11595110231E+04  0.11595110231E+04  0.50400001928E-02 0.  1.
        1   -1    0    0  501    0  0.00000000000E+00  0.00000000000E+00 -0.26401239485E+04  0.26401239485E+04  0.50400001928E-02 0. -1.
    10030    2    1    2    0    0  0.00000000000E+00  0.00000000000E+00 -0.14806129255E+04  0.37996349716E+04  0.34992872535E+04 0.  0.
        1    1    3    3  502    0  0.13020848271E+04 -0.11211417819E+04 -0.38203315351E+03  0.17602082611E+04  0.50400001928E-02 0. -1.
       -1    1    3    3    0  502 -0.13020848271E+04  0.11211417819E+04 -0.10985797719E+04  0.20394267105E+04  0.50400001928E-02 0.  1.
</event>
<event>
 5   0  0.1187925E-07  0.3854898E+04  0.7818609E-02  0.8034475E-01
        1   -1    0    0  501    0  0.00000000000E+00  0.00000000000E+00  0.16863052968E+04  0.16863052968E+04  0.50400001928E-02 0. -1.
       -1   -1    0    0    0  501  0.00000000000E+00  0.00000000000E+00 -0.22030765256E+04  0.22030765256E+04  0.50400001928E-02 0.  1.
    10030    2    1    2    0    0  0.00000000000E+00  0.00000000000E+00 -0.51677122880E+03  0.38893818225E+04  0.38548979828E+04 0.  0.
        2    1    3    3  502    0  0.45830130109E+02  0.12686606899E+01 -0.22025262870E+04  0.22030034170E+04  0.25500000920E-02 0.  1.
       -2    1    3    3    0  502 -0.45830130109E+02 -0.12686606899E+01  0.16857550582E+04  0.16863784055E+04  0.25500000920E-02 0. -1.
</event>
<event>
 5   0  0.1187925E-07  0.3694076E+04  0.7818609E-02  0.8069276E-01
       -1   -1    0    0    0  501  0.00000000000E+00  0.00000000000E+00  0.15285893711E+04  0.15285893711E+04  0.50400001928E-02 0. -1.
        1   -1    0    0  501    0  0.00000000000E+00  0.00000000000E+00 -0.22318281573E+04  0.22318281573E+04  0.50400001928E-02 0.  1.
    10030    2    1    2    0    0  0.00000000000E+00  0.00000000000E+00 -0.70323878626E+03  0.37604175284E+04  0.36940756892E+04 0.  0.
        1    1    3    3  502    0 -0.12378446439E+04 -0.11003423519E+04  0.48070519649E+03  0.17245550556E+04  0.50400001928E-02 0. -1.
       -1    1    3    3    0  502  0.12378446439E+04  0.11003423519E+04 -0.11839439828E+04  0.20358624728E+04  0.50400001928E-02 0.  1.
</event>
<event>
 5   0  0.1187925E-07  0.3208300E+04  0.7818609E-02  0.8186628E-01
       -1   -1    0    0    0  501  0.00000000000E+00  0.00000000000E+00  0.17963702118E+04  0.17963702118E+04  0.50400001928E-02 0.  1.
        1   -1    0    0  501    0  0.00000000000E+00  0.00000000000E+00 -0.14324986948E+04  0.14324986948E+04  0.50400001928E-02 0. -1.
    10030    2    1    2    0    0  0.00000000000E+00  0.00000000000E+00  0.36387151699E+03  0.32288689066E+04  0.32083004746E+04 0.  0.
        5    1    3    3  502    0 -0.13796675595E+03  0.28428699287E+03 -0.14008585673E+04  0.14360643215E+04  0.46999998093E+01 0. -1.
       -5    1    3    3    0  502  0.13796675595E+03 -0.28428699287E+03  0.17647300843E+04  0.17928045851E+04  0.46999998093E+01 0.  1.
</event>
<event>
 5   0  0.1187925E-07  0.3924769E+04  0.7818609E-02  0.8019897E-01
        1   -1    0    0  501    0  0.00000000000E+00  0.00000000000E+00  0.26414159885E+04  0.26414159885E+04  0.50400001928E-02 0. -1.
       -1   -1    0    0    0  501  0.00000000000E+00  0.00000000000E+00 -0.14579122683E+04  0.14579122683E+04  0.50400001928E-02 0.  1.
    10030    2    1    2    0    0  0.00000000000E+00  0.00000000000E+00  0.11835037202E+04  0.40993282568E+04  0.39247689232E+04 0.  0.
        2    1    3    3  502    0  0.16492716831E+04 -0.22785300593E+03  0.16766700462E+04  0.23628873271E+04  0.25500000920E-02 0. -1.
       -2    1    3    3    0  502 -0.16492716831E+04  0.22785300593E+03 -0.49316632593E+03  0.17364409296E+04  0.25500000920E-02 0.  1.
</event>
<event>
 5   0  0.3680814E-07  0.3955860E+04  0.7818609E-02  0.8013511E-01
       -2   -1    0    0    0  501  0.00000000000E+00  0.00000000000E+00  0.18291576567E+04  0.18291576567E+04  0.25500000920E-02 0. -1.
        2   -1    0    0  501    0  0.00000000000E+00  0.00000000000E+00 -0.21388023129E+04  0.21388023129E+04  0.25500000920E-02 0.  1.
    10030    2    1    2    0    0  0.00000000000E+00  0.00000000000E+00 -0.30964465616E+03  0.39679599696E+04  0.39558597684E+04 0.  0.
        1    1    3    3  502    0  0.14002570578E+04 -0.12884049188E+04  0.38673613743E+03  0.19417188012E+04  0.50400001928E-02 0.  1.
       -1    1    3    3    0  502 -0.14002570578E+04  0.12884049188E+04 -0.69638079358E+03  0.20262411684E+04  0.50400001928E-02 0. -1.
</event>
<event>
 5   0  0.3810833E-07  0.3877134E+04  0.7818609E-02  0.8029802E-01
       -2   -1    0    0    0  501  0.00000000000E+00  0.00000000000E+00  0.13621407584E+04  0.13621407584E+04  0.25500000920E-02 0.  1.
        2   -1    0    0  501    0  0.00000000000E+00  0.00000000000E+00 -0.27589240174E+04  0.27589240174E+04  0.25500000920E-02 0. -1.
    10030    2    1    2    0    0  0.00000000000E+00  0.00000000000E+00 -0.13967832591E+04  0.41210647758E+04  0.38771344333E+04 0.  0.
        3    1    3    3  502    0 -0.26752709854E+03  0.85791239073E+03  0.11273668689E+04  0.14417144259E+04  0.10100000352E+00 0.  1.
       -3    1    3    3    0  502  0.26752709854E+03 -0.85791239073E+03 -0.25241501280E+04  0.26793503499E+04  0.10100000352E+00 0. -1.
</event>
<event>
 5   0  0.1187925E-07  0.3903633E+04  0.7818609E-02  0.8024274E-01
       -1   -1    0    0    0  501  0.00000000000E+00  0.00000000000E+00  0.11335315174E+04  0.11335315174E+04  0.50400001928E-02 0.  1.
        1   -1    0    0  501    0  0.00000000000E+00  0.00000000000E+00 -0.33608132349E+04  0.33608132349E+04  0.50400001928E-02 0. -1.
    10030    2    1    2    0    0  0.00000000000E+00  0.00000000000E+00 -0.22272817176E+04  0.44943447523E+04  0.39036330390E+04 0.  0.
        1    1    3    3  502    0  0.15330468995E+04 -0.10979662790E+04 -0.16936897197E+04  0.25346296796E+04  0.50400001928E-02 0. -1.
       -1    1    3    3    0  502 -0.15330468995E+04  0.10979662790E+04 -0.53359199782E+03  0.19597150727E+04  0.50400001928E-02 0.  1.
</event>
<event>
 5   0  0.1187925E-07  0.3792418E+04  0.7818609E-02  0.8047784E-01
       -1   -1    0    0    0  501  0.00000000000E+00  0.00000000000E+00  0.30533923284E+04  0.30533923284E+04  0.50400001928E-02 0.  1.
        1   -1    0    0  501    0  0.00000000000E+00  0.00000000000E+00 -0.11775780697E+04  0.11775780697E+04  0.50400001928E-02 0. -1.
    10030    2    1    2    0    0  0.00000000000E+00  0.00000000000E+00  0.18758142587E+04  0.42309703982E+04  0.37924176164E+04 0.  0.
        2    1    3    3  502    0  0.38579524468E+03 -0.88898719622E+03 -0.88043844273E+03  0.13093158738E+04  0.25500000920E-02 0. -1.
       -2    1    3    3    0  502 -0.38579524468E+03  0.88898719622E+03  0.27562527014E+04  0.29216545244E+04  0.25500000920E-02 0.  1.
</event>
<event>
 5   0  0.1187925E-07  0.3911486E+04  0.7818609E-02  0.8022645E-01
        1   -1    0    0  501    0  0.00000000000E+00  0.00000000000E+00  0.24155550023E+04  0.24155550023E+04  0.50400001928E-02 0.  1.
       -1   -1    0    0    0  501  0.00000000000E+00  0.00000000000E+00 -0.15834580632E+04  0.15834580632E+04  0.50400001928E-02 0. -1.
    10030    2    1    2    0    0  0.00000000000E+00  0.00000000000E+00  0.83209693912E+03  0.39990130655E+04  0.39114856745E+04 0.  0.
        1    1    3    3  502    0 -0.88393248159E+03  0.17216341426E+04  0.12765605880E+03  0.19394991163E+04  0.50400001928E-02 0. -1.
       -1    1    3    3    0  502  0.88393248159E+03 -0.17216341426E+04  0.70444088033E+03  0.20595139492E+04  0.50400001928E-02 0.  1.
</event>
<event>
 5   0  0.1187925E-07  0.3931522E+04  0.7818609E-02  0.8018505E-01
        1   -1    0    0  501    0  0.00000000000E+00  0.00000000000E+00  0.17194707509E+04  0.17194707509E+04  0.50400001928E-02 0.  1.
       -1   -1    0    0    0  501  0.00000000000E+00  0.00000000000E+00 -0.22473284739E+04  0.22473284739E+04  0.50400001928E-02 0. -1.
    10030    2    1    2    0    0  0.00000000000E+00  0.00000000000E+00 -0.52785772307E+03  0.39667992248E+04  0.39315216283E+04 0.  0.
        2    1    3    3  502    0  0.80298577911E+03  0.17435113903E+04 -0.69152092159E+03  0.20402988297E+04  0.25500000920E-02 0.  1.
       -2    1    3    3    0  502 -0.80298577911E+03 -0.17435113903E+04  0.16366319852E+03  0.19265003951E+04  0.25500000920E-02 0. -1.
</event>
<event>
 5   0  0.1187925E-07  0.3970816E+04  0.7818609E-02  0.8010460E-01
       -1   -1    0    0    0  501  0.00000000000E+00  0.00000000000E+00  0.21450362993E+04  0.21450362993E+04  0.50400001928E-02 0.  1.
        1   -1    0    0  501    0  0.00000000000E+00  0.00000000000E+00 -0.18376589453E+04  0.18376589453E+04  0.50400001928E-02 0. -1.
    10030    2    1    2    0    0  0.00000000000E+00  0.00000000000E+00  0.30737735408E+03  0.39826952446E+04  0.39708161093E+04 0.  0.
        3    1    3    3  502    0 -0.52115666630E+03 -0.18029090884E+04 -0.49613818689E+03  0.19411951377E+04  0.10100000352E+00 0. -1.
       -3    1    3    3    0  502  0.52115666630E+03  0.18029090884E+04  0.80351554096E+03  0.20415001069E+04  0.10100000352E+00 0.  1.
</event>
<event>
 5   0  0.3680814E-07  0.2931032E+04  0.7818609E-02  0.8263704E-01
        2   -1    0    0  501    0  0.00000000000E+00  0.00000000000E+00  0.16564008361E+04  0.16564008361E+04  0.25500000920E-02 0. -1.
       -2   -1    0    0    0  501  0.00000000000E+00  0.00000000000E+00 -0.12966286007E+04  0.12966286007E+04  0.25500000920E-02 0.  1.
    10030    2    1    2    0    0  0.00000000000E+00  0.00000000000E+00  0.35977223548E+03  0.29530294368E+04  0.29310316943E+04 0.  0.
        1    1    3    3  502    0  0.60059029081E+03 -0.11346269747E+04 -0.53227793140E+03  0.13897506487E+04  0.50400001928E-02 0.  1.
       -1    1    3    3    0  502 -0.60059029081E+03  0.11346269747E+04  0.89205016688E+03  0.15632787881E+04  0.50400001928E-02 0. -1.
</event>
<event>
 5   0  0.1187925E-07  0.3225222E+04  0.7818609E-02  0.8182188E-01
       -1   -1    0    0    0  501  0.00000000000E+00  0.00000000000E+00  0.13593887388E+04  0.13593887388E+04  0.50400001928E-02 0.  1.
        1   -1    0    0  501    0  0.00000000000E+00  0.00000000000E+00 -0.19130027312E+04  0.19130027312E+04  0.50400001928E-02 0. -1.
    10030    2    1    2    0    0  0.00000000000E+00  0.00000000000E+00 -0.55361399240E+03  0.32723914700E+04  0.32252220823E+04 0.  0.
        5    1    3    3  502    0  0.61640728446E+03 -0.90959640391E+03  0.92078113993E+03  0.14335911398E+04  0.46999998093E+01 0.  1.
       -5    1    3    3    0  502 -0.61640728446E+03  0.90959640391E+03 -0.14743951323E+04  0.18388003303E+04  0.46999998093E+01 0. -1.
</event>
<event>
 5   0  0.3665303E-07  0.3659311E+04  0.7818609E-02  0.8077039E-01
        2   -1    0    0  501    0  0.00000000000E+00  0.00000000000E+00  0.20789619811E+04  0.20789619811E+04  0.25500000920E-02 0.  1.
       -2   -1    0    0    0  501  0.00000000000E+00  0.00000000000E+00 -0.16102451144E+04  0.16102451144E+04  0.25500000920E-02 0. -1.
    10030    2    1    2    0    0  0.00000000000E+00  0.00000000000E+00  0.46871686668E+03  0.36892070955E+04  0.36593105214E+04 0.  0.
        2    1    3    3  502    0 -0.72249337093E+03 -0.54538105708E+03 -0.13686639548E+04  0.16409382041E+04  0.25500000920E-02 0. -1.
       -2    1    3    3    0  502  0.72249337093E+03  0.54538105708E+03  0.18373808215E+04  0.20482688914E+04  0.25500000920E-02 0.  1.
</event>
<event>
 5   0  0.1187925E-07  0.3184024E+04  0.7818609E-02  0.8193049E-01
        1   -1    0    0  501    0  0.00000000000E+00  0.00000000000E+00  0.12833443929E+04  0.12833443929E+04  0.50400001928E-02 0. -1.
       -1   -1    0    0    0  501  0.00000000000E+00  0.00000000000E+00 -0.19749195504E+04  0.19749195504E+04  0.50400001928E-02 0.  1.
    10030    2    1    2    0    0  0.00000000000E+00  0.00000000000E+00 -0.69157515748E+03  0.32582639434E+04  0.31840238262E+04 0.  0.
        2    1    3    3  502    0  0.26625184905E+03  0.15262292605E+04 -0.72071280557E+03  0.17087108447E+04  0.25500000920E-02 0.  1.
       -2    1    3    3    0  502 -0.26625184905E+03 -0.15262292605E+04  0.29137648089E+02  0.15495530986E+04  0.25500000920E-02 0. -1.
</event>
<event>
 5   0  0.3810833E-07  0.3812262E+04  0.7818609E-02  0.8043529E-01
       -2   -1    0    0    0  501  0.00000000000E+00  0.00000000000E+00  0.21303825847E+04  0.21303825847E+04  0.25500000920E-02 0. -1.
        2   -1    0    0  501    0  0.00000000000E+00  0.00000000000E+00 -0.17054849107E+04  0.17054849107E+04  0.25500000920E-02 0.  1.
    10030    2    1    2    0    0  0.00000000000E+00  0.00000000000E+00  0.42489767398E+03  0.38358674954E+04  0.38122619807E+04 0.  0.
        3    1    3    3  502    0 -0.69812193410E+03  0.16644351330E+04  0.82911960233E+03  0.19862421484E+04  0.10100000352E+00 0.  1.
       -3    1    3    3    0  502  0.69812193410E+03 -0.16644351330E+04 -0.40422192834E+03  0.18496253470E+04  0.10100000352E+00 0. -1.
</event>
<event>
 5   0  0.1187925E-07  0.3939351E+04  0.7818609E-02  0.8016894E-01
        1   -1    0    0  501    0  0.00000000000E+00  0.00000000000E+00  0.19495521525E+04  0.19495521525E+04  0.50400001928E-02 0.  1.
       -1   -1    0    0    0  501  0.00000000000E+00  0.00000000000E+00 -0.19900069937E+04  0.19900069937E+04  0.50400001928E-02 0. -1.
    10030    2    1    2    0    0  0.00000000000E+00  0.00000000000E+00 -0.40454841202E+02  0.39395591462E+04  0.39393514278E+04 0.  0.
        1    1    3    3  502    0 -0.12877326775E+03 -0.49030721376E+03 -0.19236508486E+04  0.19893255907E+04  0.50400001928E-02 0. -1.
       -1    1    3    3    0  502  0.12877326775E+03  0.49030721376E+03  0.18831960074E+04  0.19502335555E+04  0.50400001928E-02 0.  1.
</event>
<event>
 5   0  0.3810833E-07  0.3904717E+04  0.7818609E-02  0.8024049E-01
        2   -1    0    0  501    0  0.00000000000E+00  0.00000000000E+00  0.15014293386E+04  0.15014293386E+04  0.25500000920E-02 0. -1.
       -2   -1    0    0    0  501  0.00000000000E+00  0.00000000000E+00 -0.25387166430E+04  0.25387166430E+04  0.25500000920E-02 0.  1.
    10030    2    1    2    0    0  0.00000000000E+00  0.00000000000E+00 -0.10372873044E+04  0.40401459817E+04  0.39047169682E+04 0.  0.
        3    1    3    3  502    0  0.44813397986E+02 -0.18312965112E+04 -0.12173794728E+04  0.21994699233E+04  0.10100000352E+00 0.  1.
       -3    1    3    3    0  502 -0.44813397986E+02  0.18312965112E+04  0.18009216840E+03  0.18406760584E+04  0.10100000352E+00 0. -1.
</event>
<event>
 5   0  0.1187925E-07  0.4023870E+04  0.7818609E-02  0.7999749E-01
       -1   -1    0    0    0  501  0.00000000000E+00  0.00000000000E+00  0.21368703515E+04  0.21368703516E+04  0.50400001928E-02 0. -1.
        1   -1    0    0  501    0  0.00000000000E+00  0.00000000000E+00 -0.18943038571E+04  0.18943038572E+04  0.50400001928E-02 0.  1.
    10030    2    1    2    0    0  0.00000000000E+00  0.00000000000E+00  0.24256649440E+03  0.40311742087E+04  0.40238696545E+04 0.  0.
        5    1    3    3  502    0  0.35933245886E+03 -0.88270926566E+03  0.18963812952E+04  0.21223994842E+04  0.46999998093E+01 0. -1.
       -5    1    3    3    0  502 -0.35933245886E+03  0.88270926566E+03 -0.16538148008E+04  0.19087747245E+04  0.46999998093E+01 0.  1.
</event>
<event>
 5   0  0.1187925E-07  0.3755249E+04  0.7818609E-02  0.8055827E-01
        1   -1    0    0  501    0  0.00000000000E+00  0.00000000000E+00  0.16161348530E+04  0.16161348530E+04  0.50400001928E-02 0.  1.
       -1   -1    0    0    0  501  0.00000000000E+00  0.00000000000E+00 -0.21814230402E+04  0.21814230402E+04  0.50400001928E-02 0. -1.
    10030    2    1    2    0    0  0.00000000000E+00  0.00000000000E+00 -0.56528818719E+03  0.37975578931E+04  0.37552490220E+04 0.  0.
        5    1    3    3  502    0 -0.64491145522E+03  0.10180459263E+04  0.11734124510E+04  0.16820366117E+04  0.46999998093E+01 0.  1.
       -5    1    3    3    0  502  0.64491145522E+03 -0.10180459263E+04 -0.17387006382E+04  0.21155212814E+04  0.46999998093E+01 0. -1.
</event>
<event>
 5   0  0.1187925E-07  0.3974272E+04  0.7818609E-02  0.8009757E-01
        1   -1    0    0  501    0  0.00000000000E+00  0.00000000000E+00  0.21630642837E+04  0.21630642837E+04  0.50400001928E-02 0. -1.
       -1   -1    0    0    0  501  0.00000000000E+00  0.00000000000E+00 -0.18255167581E+04  0.18255167581E+04  0.50400001928E-02 0.  1.
    10030    2    1    2    0    0  0.00000000000E+00  0.00000000000E+00  0.33754752558E+03  0.39885810418E+04  0.39742723101E+04 0.  0.
        3    1    3    3  502    0  0.17895567664E+03  0.19356394437E+04  0.58255040346E+03  0.20293078064E+04  0.10100000352E+00 0.  1.
       -3    1    3    3    0  502 -0.17895567664E+03 -0.19356394437E+04 -0.24500287788E+03  0.19592732353E+04  0.10100000352E+00 0. -1.
</event>
<event>
 5   0  0.3832389E-07  0.3865755E+04  0.7818609E-02  0.8032189E-01
        2   -1    0    0  501    0  0.00000000000E+00  0.00000000000E+00  0.26968321565E+04  0.26968321565E+04  0.25500000920E-02 0. -1.
       -2   -1    0    0    0  501  0.00000000000E+00  0.00000000000E+00 -0.13853346101E+04  0.13853346101E+04  0.25500000920E-02 0.  1.
    10030    2    1    2    0    0  0.00000000000E+00  0.00000000000E+00  0.13114975463E+04  0.40821667666E+04  0.38657547383E+04 0.  0.
        5    1    3    3  502    0 -0.64496254687E+02  0.10369494824E+04 -0.10653943378E+04  0.14881233756E+04  0.46999998093E+01 0.  1.
       -5    1    3    3    0  502  0.64496254687E+02 -0.10369494824E+04  0.23768918841E+04  0.25940433910E+04  0.46999998093E+01 0. -1.
</event>
<event>
 5   0  0.3680814E-07  0.3890601E+04  0.7818609E-02  0.8026987E-01
        2   -1    0    0  501    0  0.00000000000E+00  0.00000000000E+00  0.21112408273E+04  0.21112408273E+04  0.25500000920E-02 0.  1.
       -2   -1    0    0    0  501  0.00000000000E+00  0.00000000000E+00 -0.17924028230E+04  0.17924028230E+04  0.25500000920E-02 0. -1.
    10030    2    1    2    0    0  0.00000000000E+00  0.00000000000E+00  0.31883800421E+03  0.39036436503E+04  0.38906009916E+04 0.  0.
        1    1    3    3  502    0  0.12624158790E+04  0.20490878690E+03 -0.13112753362E+04  0.18316998853E+04  0.50400001928E-02 0. -1.
       -1    1    3    3    0  502 -0.12624158790E+04 -0.20490878690E+03  0.16301133404E+04  0.20719437650E+04  0.50400001928E-02 0.  1.
</event>
<event>
 5   0  0.3680814E-07  0.3015792E+04  0.7818609E-02  0.8239236E-01
       -2   -1    0    0    0  501  0.00000000000E+00  0.00000000000E+00  0.24831892039E+04  0.24831892039E+04  0.25500000920E-02 0. -1.
        2   -1    0    0  501    0  0.00000000000E+00  0.00000000000E+00 -0.91565731024E+03  0.91565731025E+03  0.25500000920E-02 0.  1.
    10030    2    1    2    0    0  0.00000000000E+00  0.00000000000E+00  0.15675318936E+04  0.33988465141E+04  0.30157920003E+04 0.  0.
        1    1    3    3  502    0  0.11266093496E+04  0.86439581560E+03  0.21206582439E+03  0.14357578718E+04  0.50400001928E-02 0.  1.
       -1    1    3    3    0  502 -0.11266093496E+04 -0.86439581560E+03  0.13554660693E+04  0.19630886423E+04  0.50400001928E-02 0. -1.
</event>
<event>
 5   0  0.1187925E-07  0.3565513E+04  0.7818609E-02  0.8098437E-01
        1   -1    0    0  501    0  0.00000000000E+00  0.00000000000E+00  0.23015380739E+04  0.23015380739E+04  0.50400001928E-02 0. -1.
       -1   -1    0    0    0  501  0.00000000000E+00  0.00000000000E+00 -0.13809115147E+04  0.13809115147E+04  0.50400001928E-02 0.  1.
    10030    2    1    2    0    0  0.00000000000E+00  0.00000000000E+00  0.92062655918E+03  0.36824495886E+04  0.35655128258E+04 0.  0.
        2    1    3    3  502    0  0.38687953310E+03 -0.12073649978E+04 -0.83411277645E+03  0.15176133021E+04  0.25500000920E-02 0.  1.
       -2    1    3    3    0  502 -0.38687953310E+03  0.12073649978E+04  0.17547393356E+04  0.21648362864E+04  0.25500000920E-02 0. -1.
</event>
<event>
 5   0  0.3832389E-07  0.3900059E+04  0.7818609E-02  0.8025017E-01
       -2   -1    0    0    0  501  0.00000000000E+00  0.00000000000E+00  0.22869292728E+04  0.22869292728E+04  0.25500000920E-02 0. -1.
        2   -1    0    0  501    0  0.00000000000E+00  0.00000000000E+00 -0.16627598528E+04  0.16627598528E+04  0.25500000920E-02 0.  1.
    10030    2    1    2    0    0  0.00000000000E+00  0.00000000000E+00  0.62416942000E+03  0.39496891256E+04  0.39000585539E+04 0.  0.
        5    1    3    3  502    0  0.15279351764E+04  0.78372735255E+03  0.12478440515E+04  0.21227226228E+04  0.46999998093E+01 0. -1.
       -5    1    3    3    0  502 -0.15279351764E+04 -0.78372735255E+03 -0.62367463147E+03  0.18269665028E+04  0.46999998093E+01 0.  1.
</event>
<event>
 5   0  0.3665303E-07  0.3917311E+04  0.7818609E-02  0.8021438E-01
        2   -1    0    0  501    0  0.00000000000E+00  0.00000000000E+00  0.18551163686E+04  0.18551163686E+04  0.25500000920E-02 0. -1.
       -2   -1    0    0    0  501  0.00000000000E+00  0.00000000000E+00 -0.20679738505E+04  0.20679738505E+04  0.25500000920E-02 0.  1.
    10030    2    1    2    0    0  0.00000000000E+00  0.00000000000E+00 -0.21285748189E+03  0.39230902191E+04  0.39173113943E+04 0.  0.
        2    1    3    3  502    0  0.13313337728E+04  0.63153571683E+03  0.11858411002E+04  0.18914296422E+04  0.25500000920E-02 0. -1.
       -2    1    3    3    0  502 -0.13313337728E+04 -0.63153571683E+03 -0.13986985821E+04  0.20316605769E+04  0.25500000920E-02 0.  1.
</event>
<event>
 5   0  0.1187925E-07  0.3863873E+04  0.7818609E-02  0.8032585E-01
        1   -1    0    0  501    0  0.00000000000E+00  0.00000000000E+00  0.27196499238E+04  0.27196499238E+04  0.50400001928E-02 0. -1.
       -1   -1    0    0    0  501  0.00000000000E+00  0.00000000000E+00 -0.13723747903E+04  0.13723747903E+04  0.50400001928E-02 0.  1.
    10030    2    1    2    0    0  0.00000000000E+00  0.00000000000E+00  0.13472751335E+04  0.40920247142E+04  0.38638731832E+04 0.  0.
        5    1    3    3  502    0 -0.85009866640E+03  0.17345771113E+04  0.64131655396E+03  0.20353708532E+04  0.46999998093E+01 0.  1.
       -5    1    3    3    0  502  0.85009866640E+03 -0.17345771113E+04  0.70595857951E+03  0.20566538609E+04  0.46999998093E+01 0. -1.
</event>
<event>
 5   0  0.1187925E-07  0.3899120E+04  0.7818609E-02  0.8025212E-01
        1   -1    0    0  501    0  0.00000000000E+00  0.00000000000E+00  0.32775944852E+04  0.32775944852E+04  0.50400001928E-02 0. -1.
       -1   -1    0    0    0  501  0.00000000000E+00  0.00000000000E+00 -0.11596263188E+04  0.11596263188E+04  0.50400001928E-02 0.  1.
    10030    2    1    2    0    0  0.00000000000E+00  0.00000000000E+00  0.21179681664E+04  0.44372208040E+04  0.38991203250E+04 0.  0.
        4    1    3    3  502    0  0.14334590907E+04  0.16731361127E+03  0.25505897053E+04  0.29305815578E+04  0.12699999809E+01 0. -1.
       -4    1    3    3    0  502 -0.14334590907E+04 -0.16731361127E+03 -0.43262153887E+03  0.15066392462E+04  0.12699999809E+01 0.  1.
</event>
<event>
 5   0  0.1187925E-07  0.3717614E+04  0.7818609E-02  0.8064070E-01
        1   -1    0    0  501    0  0.00000000000E+00  0.00000000000E+00  0.21808442038E+04  0.21808442038E+04  0.50400001928E-02 0.  1.
       -1   -1    0    0    0  501  0.00000000000E+00  0.00000000000E+00 -0.15843238289E+04  0.15843238289E+04  0.50400001928E-02 0. -1.
    10030    2    1    2    0    0  0.00000000000E+00  0.00000000000E+00  0.59652037489E+03  0.37651680327E+04  0.37176139871E+04 0.  0.
        3    1    3    3  502    0  0.13048296044E+04 -0.29188517322E+03 -0.10095302812E+04  0.16753891040E+04  0.10100000352E+00 0. -1.
       -3    1    3    3    0  502 -0.13048296044E+04  0.29188517322E+03  0.16060506561E+04  0.20897789287E+04  0.10100000352E+00 0.  1.
</event>
<event>
 5   0  0.1187925E-07  0.3916188E+04  0.7818609E-02  0.8021671E-01
       -1   -1    0    0    0  501  0.00000000000E+00  0.00000000000E+00  0.27071734331E+04  0.27071734331E+04  0.50400001928E-02 0. -1.
        1   -1    0    0  501    0  0.00000000000E+00  0.00000000000E+00 -0.14162862583E+04  0.14162862583E+04  0.50400001928E-02 0.  1.
    10030    2    1    2    0    0  0.00000000000E+00  0.00000000000E+00  0.12908871748E+04  0.41234596914E+04  0.39161882141E+04 0.  0.
        5    1    3    3  502    0 -0.64069188102E+03  0.96498853316E+03 -0.10168546360E+04  0.15413320201E+04  0.46999998093E+01 0.  1.
       -5    1    3    3    0  502  0.64069188102E+03 -0.96498853316E+03  0.23077418108E+04  0.25821276713E+04  0.46999998093E+01 0. -1.
</event>
<event>
 5   0  0.3665303E-07  0.3836458E+04  0.7818609E-02  0.8038376E-01
       -2   -1    0    0    0  501  0.00000000000E+00  0.00000000000E+00  0.30201217195E+04  0.30201217195E+04  0.25500000920E-02 0. -1.
        2   -1    0    0  501    0  0.00000000000E+00  0.00000000000E+00 -0.12183625808E+04  0.12183625808E+04  0.25500000920E-02 0.  1.
    10030    2    1    2    0    0  0.00000000000E+00  0.00000000000E+00  0.18017591387E+04  0.42384843003E+04  0.38364584151E+04 0.  0.
        2    1    3    3  502    0  0.55797741600E+03  0.13900300983E+04  0.22248232925E+04  0.26820442118E+04  0.25500000920E-02 0. -1.
       -2    1    3    3    0  502 -0.55797741600E+03 -0.13900300983E+04 -0.42306415387E+03  0.15564400886E+04  0.25500000920E-02 0.  1.
</event>
<event>
 5   0  0.3665303E-07  0.3224260E+04  0.7818609E-02  0.8182439E-01
        2   -1    0    0  501    0  0.00000000000E+00  0.00000000000E+00  0.16373734682E+04  0.16373734682E+04  0.25500000920E-02 0.  1.
       -2   -1    0    0    0  501  0.00000000000E+00  0.00000000000E+00 -0.15872757723E+04  0.15872757723E+04  0.25500000920E-02 0. -1.
    10030    2    1    2    0    0  0.00000000000E+00  0.00000000000E+00  0.50097695937E+02  0.32246492405E+04  0.32242600617E+04 0.  0.
        2    1    3    3  502    0 -0.20123850886E+03  0.44425339299E+03  0.15618231458E+04  0.16361997291E+04  0.25500000920E-02 0.  1.
       -2    1    3    3    0  502  0.20123850886E+03 -0.44425339299E+03 -0.15117254499E+04  0.15884495114E+04  0.25500000920E-02 0. -1.
</event>
<event>
 5   0  0.1187925E-07  0.2833922E+04  0.7818609E-02  0.8292814E-01
       -1   -1    0    0    0  501  0.00000000000E+00  0.00000000000E+00  0.12592711524E+04  0.12592711524E+04  0.50400001928E-02 0. -1.
        1   -1    0    0  501    0  0.00000000000E+00  0.00000000000E+00 -0.15943973947E+04  0.15943973947E+04  0.50400001928E-02 0.  1.
    10030    2    1    2    0    0  0.00000000000E+00  0.00000000000E+00 -0.33512624229E+03  0.28536685471E+04  0.28339221193E+04 0.  0.
        4    1    3    3  502    0 -0.89440092075E+03  0.10906605458E+04 -0.31404089217E+02  0.14108441668E+04  0.12699999809E+01 0. -1.
       -4    1    3    3    0  502  0.89440092075E+03 -0.10906605458E+04 -0.30372215307E+03  0.14428243803E+04  0.12699999809E+01 0.  1.
</event>
<event>
 5   0  0.1187925E-07  0.3633753E+04  0.7818609E-02  0.8082804E-01
        1   -1    0    0  501    0  0.00000000000E+00  0.00000000000E+00  0.25815671116E+04  0.25815671116E+04  0.50400001928E-02 0.  1.
       -1   -1    0    0    0  501  0.00000000000E+00  0.00000000000E+00 -0.12786962799E+04  0.12786962799E+04  0.50400001928E-02 0. -1.
    10030    2    1    2    0    0  0.00000000000E+00  0.00000000000E+00  0.13028708317E+04  0.38602633915E+04  0.36337530252E+04 0.  0.
        1    1    3    3  502    0 -0.20959979756E+03  0.16480283090E+04 -0.13002082682E+03  0.16663837487E+04  0.50400001928E-02 0. -1.
       -1    1    3    3    0  502  0.20959979756E+03 -0.16480283090E+04  0.14328916585E+04  0.21938796429E+04  0.50400001928E-02 0.  1.
</event>
<event>
 5   0  0.1187925E-07  0.3880007E+04  0.7818609E-02  0.8029200E-01
        1   -1    0    0  501    0  0.00000000000E+00  0.00000000000E+00  0.20247308046E+04  0.20247308046E+04  0.50400001928E-02 0. -1.
       -1   -1    0    0    0  501  0.00000000000E+00  0.00000000000E+00 -0.18588216848E+04  0.18588216848E+04  0.50400001928E-02 0.  1.
    10030    2    1    2    0    0  0.00000000000E+00  0.00000000000E+00  0.16590911985E+03  0.38835524894E+04  0.38800069719E+04 0.  0.
        1    1    3    3  502    0  0.77574378982E+03  0.70902821883E+03  0.17151236857E+04  0.20115040889E+04  0.50400001928E-02 0. -1.
       -1    1    3    3    0  502 -0.77574378982E+03 -0.70902821883E+03 -0.15492145658E+04  0.18720484004E+04  0.50400001928E-02 0.  1.
</event>
<event>
 5   0  0.1187925E-07  0.3938046E+04  0.7818609E-02  0.8017163E-01
       -1   -1    0    0    0  501  0.00000000000E+00  0.00000000000E+00  0.16408873437E+04  0.16408873437E+04  0.50400001928E-02 0. -1.
        1   -1    0    0  501    0  0.00000000000E+00  0.00000000000E+00 -0.23627773573E+04  0.23627773573E+04  0.50400001928E-02 0.  1.
    10030    2    1    2    0    0  0.00000000000E+00  0.00000000000E+00 -0.72189001358E+03  0.40036647009E+04  0.39380459426E+04 0.  0.
        5    1    3    3  502    0 -0.71747707767E+03 -0.18301009505E+04 -0.47680230759E+03  0.20227222688E+04  0.46999998093E+01 0.  1.
       -5    1    3    3    0  502  0.71747707767E+03  0.18301009505E+04 -0.24508770599E+03  0.19809424322E+04  0.46999998093E+01 0. -1.
</event>
<event>
 5   0  0.3610483E-07  0.3890634E+04  0.7818609E-02  0.8026980E-01
       -2   -1    0    0    0  501  0.00000000000E+00  0.00000000000E+00  0.17351912253E+04  0.17351912253E+04  0.25500000920E-02 0. -1.
        2   -1    0    0  501    0  0.00000000000E+00  0.00000000000E+00 -0.21808884731E+04  0.21808884731E+04  0.25500000920E-02 0.  1.
    10030    2    1    2    0    0  0.00000000000E+00  0.00000000000E+00 -0.44569724781E+03  0.39160796984E+04  0.38906341601E+04 0.  0.
        4    1    3    3  502    0 -0.16558659083E+04 -0.94996638548E+03  0.15366857546E+03  0.19151876367E+04  0.12699999809E+01 0. -1.
       -4    1    3    3    0  502  0.16558659083E+04  0.94996638548E+03 -0.59936582327E+03  0.20008920617E+04  0.12699999809E+01 0.  1.
</event>
<event>
 5   0  0.3810833E-07  0.3921073E+04  0.7818609E-02  0.8020661E-01
       -2   -1    0    0    0  501  0.00000000000E+00  0.00000000000E+00  0.14377611213E+04  0.14377611213E+04  0.25500000920E-02 0. -1.
        2   -1    0    0  501    0  0.00000000000E+00  0.00000000000E+00 -0.26733945754E+04  0.26733945754E+04  0.25500000920E-02 0.  1.
    10030    2    1    2    0    0  0.00000000000E+00  0.00000000000E+00 -0.12356334541E+04  0.41111556966E+04  0.39210727013E+04 0.  0.
        3    1    3    3  502    0  0.16789803296E+04 -0.15341874334E+03 -0.16669179492E+04  0.23708917558E+04  0.10100000352E+00 0.  1.
       -3    1    3    3    0  502 -0.16789803296E+04  0.15341874334E+03  0.43128449513E+03  0.17402639409E+04  0.10100000352E+00 0. -1.
</event>
<event>
 5   0  0.3680814E-07  0.2883675E+04  0.7818609E-02  0.8277751E-01
       -2   -1    0    0    0  501  0.00000000000E+00  0.00000000000E+00  0.10816772979E+04  0.10816772979E+04  0.25500000920E-02 0. -1.
        2   -1    0    0  501    0  0.00000000000E+00  0.00000000000E+00 -0.19219183549E+04  0.19219183549E+04  0.25500000920E-02 0.  1.
    10030    2    1    2    0    0  0.00000000000E+00  0.00000000000E+00 -0.84024105706E+03  0.30035956528E+04  0.28836750531E+04 0.  0.
        1    1    3    3  502    0  0.40135006824E+03  0.69900441115E+03 -0.16653305988E+04  0.18501391968E+04  0.50400001928E-02 0.  1.
       -1    1    3    3    0  502 -0.40135006824E+03 -0.69900441115E+03  0.82508954174E+03  0.11534564560E+04  0.50400001928E-02 0. -1.
</event>
<event>
 5   0  0.3810833E-07  0.3916210E+04  0.7818609E-02  0.8021666E-01
        2   -1    0    0  501    0  0.00000000000E+00  0.00000000000E+00  0.11330329406E+04  0.11330329406E+04  0.25500000920E-02 0. -1.
       -2   -1    0    0    0  501  0.00000000000E+00  0.00000000000E+00 -0.33839927434E+04  0.33839927434E+04  0.25500000920E-02 0.  1.
    10030    2    1    2    0    0  0.00000000000E+00  0.00000000000E+00 -0.22509598029E+04  0.45170256840E+04  0.39162100296E+04 0.  0.
        3    1    3    3  502    0 -0.24066363678E+03  0.47968505420E+03 -0.32975090855E+04  0.33408955261E+04  0.10100000352E+00 0.  1.
       -3    1    3    3    0  502  0.24066363678E+03 -0.47968505420E+03  0.10465492826E+04  0.11761301579E+04  0.10100000352E+00 0. -1.
</event>
<event>
 5   0  0.3832389E-07  0.3870451E+04  0.7818609E-02  0.8031203E-01
        2   -1    0    0  501    0  0.00000000000E+00  0.00000000000E+00  0.15341561337E+04  0.15341561337E+04  0.25500000920E-02 0.  1.
       -2   -1    0    0    0  501  0.00000000000E+00  0.00000000000E+00 -0.24411448875E+04  0.24411448875E+04  0.25500000920E-02 0. -1.
    10030    2    1    2    0    0  0.00000000000E+00  0.00000000000E+00 -0.90698875379E+03  0.39753010212E+04  0.38704508277E+04 0.  0.
        5    1    3    3  502    0 -0.51597458058E+03  0.11308255273E+04 -0.19769423267E+04  0.23352342911E+04  0.46999998093E+01 0.  1.
       -5    1    3    3    0  502  0.51597458058E+03 -0.11308255273E+04  0.10699535729E+04  0.16400667301E+04  0.46999998093E+01 0. -1.
</event>
<event>
 5   0  0.3832389E-07  0.3908293E+04  0.7818609E-02  0.8023307E-01
        2   -1    0    0  501    0  0.00000000000E+00  0.00000000000E+00  0.30817027423E+04  0.30817027423E+04  0.25500000920E-02 0.  1.
       -2   -1    0    0    0  501  0.00000000000E+00  0.00000000000E+00 -0.12391489892E+04  0.12391489892E+04  0.25500000920E-02 0. -1.
    10030    2    1    2    0    0  0.00000000000E+00  0.00000000000E+00  0.18425537532E+04  0.43208517315E+04  0.39082931508E+04 0.  0.
        5    1    3    3  502    0  0.13496968458E+04  0.57571915648E+03 -0.50550900919E+03  0.15519972845E+04  0.46999998093E+01 0. -1.
       -5    1    3    3    0  502 -0.13496968458E+04 -0.57571915648E+03  0.23480627624E+04  0.27688544470E+04  0.46999998093E+01 0.  1.
</event>
<event>
 5   0  0.1187925E-07  0.3905077E+04  0.7818609E-02  0.8023974E-01
       -1   -1    0    0    0  501  0.00000000000E+00  0.00000000000E+00  0.22844306366E+04  0.22844306366E+04  0.50400001928E-02 0.  1.
        1   -1    0    0  501    0  0.00000000000E+00  0.00000000000E+00 -0.16688651271E+04  0.16688651271E+04  0.50400001928E-02 0. -1.
    10030    2    1    2    0    0  0.00000000000E+00  0.00000000000E+00  0.61556550949E+03  0.39532957636E+04  0.39050770157E+04 0.  0.
        3    1    3    3  502    0 -0.13643192549E+03  0.11275540416E+04 -0.13000392160E+04  0.17262948069E+04  0.10100000352E+00 0. -1.
       -3    1    3    3    0  502  0.13643192549E+03 -0.11275540416E+04  0.19156047255E+04  0.22270009568E+04  0.10100000352E+00 0.  1.
</event>
<event>
 5   0  0.3610483E-07  0.3898490E+04  0.7818609E-02  0.8025343E-01
       -2   -1    0    0    0  501  0.00000000000E+00  0.00000000000E+00  0.22767548097E+04  0.22767548097E+04  0.25500000920E-02 0. -1.
        2   -1    0    0  501    0  0.00000000000E+00  0.00000000000E+00 -0.16688469761E+04  0.16688469761E+04  0.25500000920E-02 0.  1.
    10030    2    1    2    0    0  0.00000000000E+00  0.00000000000E+00  0.60790783361E+03  0.39456017858E+04  0.38984896458E+04 0.  0.
        4    1    3    3  502    0  0.57167368425E+03 -0.58216423859E+03  0.20956090920E+04  0.22488452773E+04  0.12699999809E+01 0. -1.
       -4    1    3    3    0  502 -0.57167368425E+03  0.58216423859E+03 -0.14877012584E+04  0.16967565085E+04  0.12699999809E+01 0.  1.
</event>
<event>
 5   0  0.1187925E-07  0.3788054E+04  0.7818609E-02  0.8048723E-01
       -1   -1    0    0    0  501  0.00000000000E+00  0.00000000000E+00  0.15903163708E+04  0.15903163708E+04  0.50400001928E-02 0. -1.
        1   -1    0    0  501    0  0.00000000000E+00  0.00000000000E+00 -0.22557383006E+04  0.22557383006E+04  0.50400001928E-02 0.  1.
    10030    2    1    2    0    0  0.00000000000E+00  0.00000000000E+00 -0.66542192984E+03  0.38460546714E+04  0.37880536151E+04 0.  0.
        3    1    3    3  502    0  0.50489880313E+03  0.60194784715E+03 -0.20824889029E+04  0.22257637011E+04  0.10100000352E+00 0.  1.
       -3    1    3    3    0  502 -0.50489880313E+03 -0.60194784715E+03  0.14170669731E+04  0.16202909703E+04  0.10100000352E+00 0. -1.
</event>
<event>
 5   0  0.1187925E-07  0.3869214E+04  0.7818609E-02  0.8031463E-01
       -1   -1    0    0    0  501  0.00000000000E+00  0.00000000000E+00  0.12270586680E+04  0.12270586680E+04  0.50400001928E-02 0.  1.
        1   -1    0    0  501    0  0.00000000000E+00  0.00000000000E+00 -0.30501425114E+04  0.30501425114E+04  0.50400001928E-02 0. -1.
    10030    2    1    2    0    0  0.00000000000E+00  0.00000000000E+00 -0.18230838434E+04  0.42772011795E+04  0.38692137741E+04 0.  0.
        2    1    3    3  502    0  0.91767675694E+03  0.85870800968E+03  0.71432374658E+03  0.14456031582E+04  0.25500000920E-02 0. -1.
       -2    1    3    3    0  502 -0.91767675694E+03 -0.85870800968E+03 -0.25374075900E+04  0.28315980212E+04  0.25500000920E-02 0.  1.
</event>
<event>
 5   0  0.1187925E-07  0.3904478E+04  0.7818609E-02  0.8024098E-01
        1   -1    0    0  501    0  0.00000000000E+00  0.00000000000E+00  0.25132279668E+04  0.25132279668E+04  0.50400001928E-02 0. -1.
       -1   -1    0    0    0  501  0.00000000000E+00  0.00000000000E+00 -0.15164710171E+04  0.15164710171E+04  0.50400001928E-02 0.  1.
    10030    2    1    2    0    0  0.00000000000E+00  0.00000000000E+00  0.99675694968E+03  0.40296989839E+04  0.39044781321E+04 0.  0.
        4    1    3    3  502    0 -0.16058646680E+04 -0.60916397255E+03 -0.45947784264E+03  0.17779211395E+04  0.12699999809E+01 0.  1.
       -4    1    3    3    0  502  0.16058646680E+04  0.60916397255E+03  0.14562347923E+04  0.22517778444E+04  0.12699999809E+01 0. -1.
</event>
<event>
 5   0  0.3610483E-07  0.3898814E+04  0.7818609E-02  0.8025276E-01
        2   -1    0    0  501    0  0.00000000000E+00  0.00000000000E+00  0.24169654055E+04  0.24169654055E+04  0.25500000920E-02 0. -1.
       -2   -1    0    0    0  501  0.00000000000E+00  0.00000000000E+00 -0.15722970229E+04  0.15722970229E+04  0.25500000920E-02 0.  1.
    10030    2    1    2    0    0  0.00000000000E+00  0.00000000000E+00  0.84466838262E+03  0.39892624285E+04  0.38988139282E+04 0.  0.
        4    1    3    3  502    0 -0.78924242685E+03  0.72357808794E+03  0.20891492083E+04  0.23475550867E+04  0.12699999809E+01 0. -1.
       -4    1    3    3    0  502  0.78924242685E+03 -0.72357808794E+03 -0.12444808257E+04  0.16417073418E+04  0.12699999809E+01 0.  1.
</event>
<event>
 5   0  0.1187925E-07  0.3795607E+04  0.7818609E-02  0.8047098E-01
       -3   -1    0    0    0  501  0.00000000000E+00  0.00000000000E+00  0.15525565429E+04  0.15525565462E+04  0.10100000352E+00 0.  1.
        3   -1    0    0  501    0  0.00000000000E+00  0.00000000000E+00 -0.23198238882E+04  0.23198238904E+04  0.10100000352E+00 0. -1.
    10030    2    1    2    0    0  0.00000000000E+00  0.00000000000E+00 -0.76726734530E+03  0.38723804366E+04  0.37956068114E+04 0.  0.
        4    1    3    3  502    0 -0.62295026484E+03  0.38418806471E+03 -0.21700475000E+04  0.22901474334E+04  0.12699999809E+01 0. -1.
       -4    1    3    3    0  502  0.62295026484E+03 -0.38418806471E+03  0.14027801547E+04  0.15822330033E+04  0.12699999809E+01 0.  1.
</event>
<event>
 5   0  0.1187925E-07  0.3787272E+04  0.7818609E-02  0.8048892E-01
        1   -1    0    0  501    0  0.00000000000E+00  0.00000000000E+00  0.27022930566E+04  0.27022930566E+04  0.50400001928E-02 0. -1.
       -1   -1    0    0    0  501  0.00000000000E+00  0.00000000000E+00 -0.13269683699E+04  0.13269683699E+04  0.50400001928E-02 0.  1.
    10030    2    1    2    0    0  0.00000000000E+00  0.00000000000E+00  0.13753246866E+04  0.40292614265E+04  0.37872720591E+04 0.  0.
        5    1    3    3  502    0  0.10892144056E+04 -0.40452651211E+03 -0.90313904873E+03  0.14716358081E+04  0.46999998093E+01 0.  1.
       -5    1    3    3    0  502 -0.10892144056E+04  0.40452651211E+03  0.22784637354E+04  0.25576256184E+04  0.46999998093E+01 0. -1.
</event>
<event>
 5   0  0.1187925E-07  0.3289166E+04  0.7818609E-02  0.8165657E-01
       -1   -1    0    0    0  501  0.00000000000E+00  0.00000000000E+00  0.14871926340E+04  0.14871926340E+04  0.50400001928E-02 0.  1.
        1   -1    0    0  501    0  0.00000000000E+00  0.00000000000E+00 -0.18186304045E+04  0.18186304045E+04  0.50400001928E-02 0. -1.
    10030    2    1    2    0    0  0.00000000000E+00  0.00000000000E+00 -0.33143777058E+03  0.33058230385E+04  0.32891663026E+04 0.  0.
        5    1    3    3  502    0 -0.39597723429E+03 -0.15953679373E+04 -0.11412838260E+03  0.16477391186E+04  0.46999998093E+01 0. -1.
       -5    1    3    3    0  502  0.39597723429E+03  0.15953679373E+04 -0.21730938798E+03  0.16580839199E+04  0.46999998093E+01 0.  1.
</event>
<event>
 5   0  0.3832389E-07  0.3943831E+04  0.7818609E-02  0.8015974E-01
        2   -1    0    0  501    0  0.00000000000E+00  0.00000000000E+00  0.22886439628E+04  0.22886439628E+04  0.25500000920E-02 0. -1.
       -2   -1    0    0    0  501  0.00000000000E+00  0.00000000000E+00 -0.16990196927E+04  0.16990196927E+04  0.25500000920E-02 0.  1.
    10030    2    1    2    0    0  0.00000000000E+00  0.00000000000E+00  0.58962427009E+03  0.39876636555E+04  0.39438312147E+04 0.  0.
        5    1    3    3  502    0 -0.11103410925E+04  0.13457526823E+04 -0.63438003620E+03  0.18564395342E+04  0.46999998093E+01 0.  1.
       -5    1    3    3    0  502  0.11103410925E+04 -0.13457526823E+04  0.12240043063E+04  0.21312241214E+04  0.46999998093E+01 0. -1.
</event>
<event>
 5   0  0.3680814E-07  0.2953889E+04  0.7818609E-02  0.8257022E-01
        2   -1    0    0  501    0  0.00000000000E+00  0.00000000000E+00  0.15452234801E+04  0.15452234801E+04  0.25500000920E-02 0.  1.
       -2   -1    0    0    0  501  0.00000000000E+00  0.00000000000E+00 -0.14116826619E+04  0.14116826619E+04  0.25500000920E-02 0. -1.
    10030    2    1    2    0    0  0.00000000000E+00  0.00000000000E+00  0.13354081829E+03  0.29569061420E+04  0.29538890945E+04 0.  0.
        1    1    3    3  502    0  0.17776633479E+03  0.11209335469E+04 -0.87932577231E+03  0.14357251479E+04  0.50400001928E-02 0. -1.
       -1    1    3    3    0  502 -0.17776633479E+03 -0.11209335469E+04  0.10128665906E+04  0.15211809941E+04  0.50400001928E-02 0.  1.
</event>
<event>
 5   0  0.1187925E-07  0.3568329E+04  0.7818609E-02  0.8097785E-01
        1   -1    0    0  501    0  0.00000000000E+00  0.00000000000E+00  0.30647248748E+04  0.30647248748E+04  0.50400001928E-02 0. -1.
       -1   -1    0    0    0  501  0.00000000000E+00  0.00000000000E+00 -0.10386714342E+04  0.10386714342E+04  0.50400001928E-02 0.  1.
    10030    2    1    2    0    0  0.00000000000E+00  0.00000000000E+00  0.20260534406E+04  0.41033963091E+04  0.35683285618E+04 0.  0.
        2    1    3    3  502    0  0.47865868101E+03 -0.16875049076E+04  0.63782731696E+03  0.18664433108E+04  0.25500000920E-02 0.  1.
       -2    1    3    3    0  502 -0.47865868101E+03  0.16875049076E+04  0.13882261237E+04  0.22369529983E+04  0.25500000920E-02 0. -1.
</event>
<event>
 5   0  0.3832389E-07  0.3903013E+04  0.7818609E-02  0.8024403E-01
       -2   -1    0    0    0  501  0.00000000000E+00  0.00000000000E+00  0.17727482984E+04  0.17727482984E+04  0.25500000920E-02 0. -1.
        2   -1    0    0  501    0  0.00000000000E+00  0.00000000000E+00 -0.21482898291E+04  0.21482898291E+04  0.25500000920E-02 0.  1.
    10030    2    1    2    0    0  0.00000000000E+00  0.00000000000E+00 -0.37554153069E+03  0.39210381274E+04  0.39030127537E+04 0.  0.
        5    1    3    3  502    0 -0.61737013553E+03  0.15401020287E+04 -0.12197905324E+04  0.20593618371E+04  0.46999998093E+01 0. -1.
       -5    1    3    3    0  502  0.61737013553E+03 -0.15401020287E+04  0.84424900172E+03  0.18616762903E+04  0.46999998093E+01 0.  1.
</event>
<event>
 5   0  0.3680814E-07  0.3908598E+04  0.7818609E-02  0.8023243E-01
       -2   -1    0    0    0  501  0.00000000000E+00  0.00000000000E+00  0.19764962764E+04  0.19764962764E+04  0.25500000920E-02 0. -1.
        2   -1    0    0  501    0  0.00000000000E+00  0.00000000000E+00 -0.19323512727E+04  0.19323512727E+04  0.25500000920E-02 0.  1.
    10030    2    1    2    0    0  0.00000000000E+00  0.00000000000E+00  0.44145003716E+02  0.39088475491E+04  0.39085982629E+04 0.  0.
        1    1    3    3  502    0  0.15222746940E+04  0.12187342573E+04  0.15112204783E+03  0.19558812099E+04  0.50400001928E-02 0. -1.
       -1    1    3    3    0  502 -0.15222746940E+04 -0.12187342573E+04 -0.10697704411E+03  0.19529663392E+04  0.50400001928E-02 0.  1.
</event>
<event>
 5   0  0.3680814E-07  0.3847938E+04  0.7818609E-02  0.8035945E-01
       -2   -1    0    0    0  501  0.00000000000E+00  0.00000000000E+00  0.14733757456E+04  0.14733757457E+04  0.25500000920E-02 0.  1.
        2   -1    0    0  501    0  0.00000000000E+00  0.00000000000E+00 -0.25123638376E+04  0.25123638376E+04  0.25500000920E-02 0. -1.
    10030    2    1    2    0    0  0.00000000000E+00  0.00000000000E+00 -0.10389880919E+04  0.39857395832E+04  0.38479375996E+04 0.  0.
        1    1    3    3  502    0 -0.12994375345E+03 -0.14772151426E+04  0.75021278595E+03  0.16618872347E+04  0.50400001928E-02 0.  1.
       -1    1    3    3    0  502  0.12994375345E+03  0.14772151426E+04 -0.17892008779E+04  0.23238523486E+04  0.50400001928E-02 0. -1.
</event>
<event>
 5   0  0.3810833E-07  0.3951110E+04  0.7818609E-02  0.8014482E-01
        2   -1    0    0  501    0  0.00000000000E+00  0.00000000000E+00  0.23513963685E+04  0.23513963685E+04  0.25500000920E-02 0. -1.
       -2   -1    0    0    0  501  0.00000000000E+00  0.00000000000E+00 -0.16597873887E+04  0.16597873887E+04  0.25500000920E-02 0.  1.
    10030    2    1    2    0    0  0.00000000000E+00  0.00000000000E+00  0.69160897984E+03  0.40111837572E+04  0.39511102431E+04 0.  0.
        3    1    3    3  502    0 -0.13210310447E+04  0.29032245746E+03 -0.11160218491E+04  0.17535435347E+04  0.10100000352E+00 0.  1.
       -3    1    3    3    0  502  0.13210310447E+04 -0.29032245746E+03  0.18076308289E+04  0.22576402225E+04  0.10100000352E+00 0. -1.
</event>
<event>
 5   0  0.1187925E-07  0.3908277E+04  0.7818609E-02  0.8023310E-01
        1   -1    0    0  501    0  0.00000000000E+00  0.00000000000E+00  0.27158177315E+04  0.27158177315E+04  0.50400001928E-02 0. -1.
       -1   -1    0    0    0  501  0.00000000000E+00  0.00000000000E+00 -0.14060801534E+04  0.14060801534E+04  0.50400001928E-02 0.  1.
    10030    2    1    2    0    0  0.00000000000E+00  0.00000000000E+00  0.13097375781E+04  0.41218978849E+04  0.39082770692E+04 0.  0.
        4    1    3    3  502    0 -0.89264367882E+03 -0.16612184315E+04  0.11949079252E+04  0.22325469708E+04  0.12699999809E+01 0. -1.
       -4    1    3    3    0  502  0.89264367882E+03  0.16612184315E+04  0.11482965288E+03  0.18893509141E+04  0.12699999809E+01 0.  1.
</event>
<event>
 5   0  0.1187925E-07  0.3101239E+04  0.7818609E-02  0.8215398E-01
        1   -1    0    0  501    0  0.00000000000E+00  0.00000000000E+00  0.17833216901E+04  0.17833216901E+04  0.50400001928E-02 0. -1.
       -1   -1    0    0    0  501  0.00000000000E+00  0.00000000000E+00 -0.13482824579E+04  0.13482824579E+04  0.50400001928E-02 0.  1.
    10030    2    1    2    0    0  0.00000000000E+00  0.00000000000E+00  0.43503923226E+03  0.31316041480E+04  0.31012393339E+04 0.  0.
        4    1    3    3  502    0 -0.14478232437E+04 -0.53565805384E+03  0.70152214804E+02  0.15453299460E+04  0.12699999809E+01 0.  1.
       -4    1    3    3    0  502  0.14478232437E+04  0.53565805384E+03  0.36488701746E+03  0.15862742021E+04  0.12699999809E+01 0. -1.
</event>
<event>
 5   0  0.1187925E-07  0.3933426E+04  0.7818609E-02  0.8018113E-01
       -1   -1    0    0    0  501  0.00000000000E+00  0.00000000000E+00  0.12695858974E+04  0.12695858974E+04  0.50400001928E-02 0. -1.
        1   -1    0    0  501    0  0.00000000000E+00  0.00000000000E+00 -0.30466316006E+04  0.30466316006E+04  0.50400001928E-02 0.  1.
    10030    2    1    2    0    0  0.00000000000E+00  0.00000000000E+00 -0.17770457032E+04  0.43162174981E+04  0.39334262494E+04 0.  0.
        1    1    3    3  502    0 -0.12258892087E+04  0.11367987377E+04  0.24805910740E+03  0.16901624309E+04  0.50400001928E-02 0.  1.
       -1    1    3    3    0  502  0.12258892087E+04 -0.11367987377E+04 -0.20251048106E+04  0.26260550672E+04  0.50400001928E-02 0. -1.
</event>
<event>
 5   0  0.3832389E-07  0.3901261E+04  0.7818609E-02  0.8024767E-01
       -2   -1    0    0    0  501  0.00000000000E+00  0.00000000000E+00  0.20148280549E+04  0.20148280549E+04  0.25500000920E-02 0. -1.
        2   -1    0    0  501    0  0.00000000000E+00  0.00000000000E+00 -0.18884786914E+04  0.18884786914E+04  0.25500000920E-02 0.  1.
    10030    2    1    2    0    0  0.00000000000E+00  0.00000000000E+00  0.12634936351E+03  0.39033067463E+04  0.39012612569E+04 0.  0.
        5    1    3    3  502    0  0.47464289562E+03  0.17983588469E+04  0.65132414793E+03  0.19706916695E+04  0.46999998093E+01 0. -1.
       -5    1    3    3    0  502 -0.47464289562E+03 -0.17983588469E+04 -0.52497478442E+03  0.19326150768E+04  0.46999998093E+01 0.  1.
</event>
<event>
 5   0  0.1187925E-07  0.3899044E+04  0.7818609E-02  0.8025228E-01
        1   -1    0    0  501    0  0.00000000000E+00  0.00000000000E+00  0.27422920912E+04  0.27422920912E+04  0.50400001928E-02 0. -1.
       -1   -1    0    0    0  501  0.00000000000E+00  0.00000000000E+00 -0.13859343234E+04  0.13859343234E+04  0.50400001928E-02 0.  1.
    10030    2    1    2    0    0  0.00000000000E+00  0.00000000000E+00  0.13563577677E+04  0.41282264146E+04  0.38990443619E+04 0.  0.
        3    1    3    3  502    0 -0.62818258597E+02  0.18005004843E+04 -0.11051456181E+03  0.18049824393E+04  0.10100000352E+00 0.  1.
       -3    1    3    3    0  502  0.62818258597E+02 -0.18005004843E+04  0.14668723295E+04  0.23232439753E+04  0.10100000352E+00 0. -1.
</event>
<event>
 5   0  0.3832389E-07  0.3902346E+04  0.7818609E-02  0.8024541E-01
        2   -1    0    0  501    0  0.00000000000E+00  0.00000000000E+00  0.17297914686E+04  0.17297914686E+04  0.25500000920E-02 0.  1.
       -2   -1    0    0    0  501  0.00000000000E+00  0.00000000000E+00 -0.22008871058E+04  0.22008871058E+04  0.25500000920E-02 0. -1.
    10030    2    1    2    0    0  0.00000000000E+00  0.00000000000E+00 -0.47109563715E+03  0.39306785744E+04  0.39023458273E+04 0.  0.
        5    1    3    3  502    0  0.15413369035E+04  0.51207343201E+03  0.85355879061E+03  0.18348088044E+04  0.46999998093E+01 0.  1.
       -5    1    3    3    0  502 -0.15413369035E+04 -0.51207343201E+03 -0.13246544278E+04  0.20958697700E+04  0.46999998093E+01 0. -1.
</event>
<event>
 5   0  0.3680814E-07  0.3955612E+04  0.7818609E-02  0.8013561E-01
        2   -1    0    0  501    0  0.00000000000E+00  0.00000000000E+00  0.25287179737E+04  0.25287179737E+04  0.25500000920E-02 0. -1.
       -2   -1    0    0    0  501  0.00000000000E+00  0.00000000000E+00 -0.15469169570E+04  0.15469169570E+04  0.25500000920E-02 0.  1.
    10030    2    1    2    0    0  0.00000000000E+00  0.00000000000E+00  0.98180101675E+03  0.40756349307E+04  0.39556120705E+04 0.  0.
        1    1    3    3  502    0  0.19749507145E+03  0.30831724534E+02  0.25182839654E+04  0.25262044709E+04  0.50400001928E-02 0. -1.
       -1    1    3    3    0  502 -0.19749507145E+03 -0.30831724534E+02 -0.15364829486E+04  0.15494304598E+04  0.50400001928E-02 0.  1.
</event>
<event>
 5   0  0.3610483E-07  0.3884187E+04  0.7818609E-02  0.8028326E-01
       -2   -1    0    0    0  501  0.00000000000E+00  0.00000000000E+00  0.20516777352E+04  0.20516777352E+04  0.25500000920E-02 0. -1.
        2   -1    0    0  501    0  0.00000000000E+00  0.00000000000E+00 -0.18383621685E+04  0.18383621685E+04  0.25500000920E-02 0.  1.
    10030    2    1    2    0    0  0.00000000000E+00  0.00000000000E+00  0.21331556672E+03  0.38900399037E+04  0.38841867774E+04 0.  0.
        4    1    3    3  502    0 -0.10315545653E+04  0.56941292371E+03 -0.14394915447E+04  0.18602347753E+04  0.12699999809E+01 0.  1.
       -4    1    3    3    0  502  0.10315545653E+04 -0.56941292371E+03  0.16528071115E+04  0.20298051284E+04  0.12699999809E+01 0. -1.
</event>
<event>
 5   0  0.3832389E-07  0.4000635E+04  0.7818609E-02  0.8004418E-01
        2   -1    0    0  501    0  0.00000000000E+00  0.00000000000E+00  0.22679680397E+04  0.22679680397E+04  0.25500000920E-02 0.  1.
       -2   -1    0    0    0  501  0.00000000000E+00  0.00000000000E+00 -0.17642532941E+04  0.17642532941E+04  0.25500000920E-02 0. -1.
    10030    2    1    2    0    0  0.00000000000E+00  0.00000000000E+00  0.50371474567E+03  0.40322213338E+04  0.40006349920E+04 0.  0.
        5    1    3    3  502    0  0.17094165359E+04 -0.49765986103E+03 -0.66719604326E+03  0.19013003131E+04  0.46999998093E+01 0. -1.
       -5    1    3    3    0  502 -0.17094165359E+04  0.49765986103E+03  0.11709107889E+04  0.21309210206E+04  0.46999998093E+01 0.  1.
</event>
<event>
 5   0  0.1187925E-07  0.3944054E+04  0.7818609E-02  0.8015929E-01
       -1   -1    0    0    0  501  0.00000000000E+00  0.00000000000E+00  0.20688597927E+04  0.20688597927E+04  0.50400001928E-02 0. -1.
        1   -1    0    0  501    0  0.00000000000E+00  0.00000000000E+00 -0.18797264201E+04  0.18797264201E+04  0.50400001928E-02 0.  1.
    10030    2    1    2    0    0  0.00000000000E+00  0.00000000000E+00  0.18913337259E+03  0.39485862127E+04  0.39440539609E+04 0.  0.
        4    1    3    3  502    0  0.37223424430E+03 -0.10894001349E+04  0.16975117575E+04  0.20510725892E+04  0.12699999809E+01 0. -1.
       -4    1    3    3    0  502 -0.37223424430E+03  0.10894001349E+04 -0.15083783849E+04  0.18975136235E+04  0.12699999809E+01 0.  1.
</event>
<event>
 5   0  0.3680814E-07  0.3332230E+04  0.7818609E-02  0.8154742E-01
        2   -1    0    0  501    0  0.00000000000E+00  0.00000000000E+00  0.16323497605E+04  0.16323497605E+04  0.25500000920E-02 0.  1.
       -2   -1    0    0    0  501  0.00000000000E+00  0.00000000000E+00 -0.17005790841E+04  0.17005790841E+04  0.25500000920E-02 0. -1.
    10030    2    1    2    0    0  0.00000000000E+00  0.00000000000E+00 -0.68229323622E+02  0.33329288445E+04  0.33322304005E+04 0.  0.
        1    1    3    3  502    0 -0.11448240994E+03 -0.15536143437E+04 -0.62509898973E+03  0.16785626286E+04  0.50400001928E-02 0. -1.
       -1    1    3    3    0  502  0.11448240994E+03  0.15536143437E+04  0.55686966611E+03  0.16543662159E+04  0.50400001928E-02 0.  1.
</event>
<event>
 5   0  0.1187925E-07  0.3826835E+04  0.7818609E-02  0.8040421E-01
        1   -1    0    0  501    0  0.00000000000E+00  0.00000000000E+00  0.23587139625E+04  0.23587139626E+04  0.50400001928E-02 0. -1.
       -1   -1    0    0    0  501  0.00000000000E+00  0.00000000000E+00 -0.15521874875E+04  0.15521874875E+04  0.50400001928E-02 0.  1.
    10030    2    1    2    0    0  0.00000000000E+00  0.00000000000E+00  0.80652647501E+03  0.39109014501E+04  0.38268348798E+04 0.  0.
        4    1    3    3  502    0 -0.12931209241E+04  0.13431576394E+04 -0.36219115992E+02  0.18648183842E+04  0.12699999809E+01 0.  1.
       -4    1    3    3    0  502  0.12931209241E+04 -0.13431576394E+04  0.84274559100E+03  0.20460830659E+04  0.12699999809E+01 0. -1.
</event>
<event>
 5   0  0.1187925E-07  0.3794476E+04  0.7818609E-02  0.8047341E-01
       -1   -1    0    0    0  501  0.00000000000E+00  0.00000000000E+00  0.15185696467E+04  0.15185696467E+04  0.50400001928E-02 0.  1.
        1   -1    0    0  501    0  0.00000000000E+00  0.00000000000E+00 -0.23703303387E+04  0.23703303387E+04  0.50400001928E-02 0. -1.
    10030    2    1    2    0    0  0.00000000000E+00  0.00000000000E+00 -0.85176069196E+03  0.38888999854E+04  0.37944758294E+04 0.  0.
        2    1    3    3  502    0 -0.12164820077E+03  0.98229369666E+03 -0.20847416995E+04  0.23077797002E+04  0.25500000920E-02 0. -1.
       -2    1    3    3    0  502  0.12164820077E+03 -0.98229369666E+03  0.12329810075E+04  0.15811202852E+04  0.25500000920E-02 0.  1.
</event>
<event>
 5   0  0.1187925E-07  0.3900397E+04  0.7818609E-02  0.8024947E-01
        1   -1    0    0  501    0  0.00000000000E+00  0.00000000000E+00  0.17787517991E+04  0.17787517991E+04  0.50400001928E-02 0. -1.
       -1   -1    0    0    0  501  0.00000000000E+00  0.00000000000E+00 -0.21381705383E+04  0.21381705383E+04  0.50400001928E-02 0.  1.
    10030    2    1    2    0    0  0.00000000000E+00  0.00000000000E+00 -0.35941873925E+03  0.39169223374E+04  0.39003972576E+04 0.  0.
        2    1    3    3  502    0  0.32380648276E+03  0.16151660305E+04 -0.12280011250E+04  0.20546529409E+04  0.25500000920E-02 0.  1.
       -2    1    3    3    0  502 -0.32380648276E+03 -0.16151660305E+04  0.86858238576E+03  0.18622693965E+04  0.25500000920E-02 0. -1.
</event>
<event>
 5   0  0.1187925E-07  0.3839294E+04  0.7818609E-02  0.8037775E-01
        1   -1    0    0  501    0  0.00000000000E+00  0.00000000000E+00  0.12673334681E+04  0.12673334681E+04  0.50400001928E-02 0. -1.
       -1   -1    0    0    0  501  0.00000000000E+00  0.00000000000E+00 -0.29077146149E+04  0.29077146149E+04  0.50400001928E-02 0.  1.
    10030    2    1    2    0    0  0.00000000000E+00  0.00000000000E+00 -0.16403811468E+04  0.41750480830E+04  0.38392937096E+04 0.  0.
        1    1    3    3  502    0 -0.46034822650E+03 -0.18603602931E+04 -0.70016059952E+03  0.20403641281E+04  0.50400001928E-02 0.  1.
       -1    1    3    3    0  502  0.46034822650E+03  0.18603602931E+04 -0.94022054724E+03  0.21346839549E+04  0.50400001928E-02 0. -1.
</event>
<event>
 5   0  0.1187925E-07  0.3888024E+04  0.7818609E-02  0.8027525E-01
       -1   -1    0    0    0  501  0.00000000000E+00  0.00000000000E+00  0.17312311540E+04  0.17312311540E+04  0.50400001928E-02 0.  1.
        1   -1    0    0  501    0  0.00000000000E+00  0.00000000000E+00 -0.21829451862E+04  0.21829451862E+04  0.50400001928E-02 0. -1.
    10030    2    1    2    0    0  0.00000000000E+00  0.00000000000E+00 -0.45171403219E+03  0.39141763403E+04  0.38880240297E+04 0.  0.
        4    1    3    3  502    0  0.50540600671E+01 -0.12655042619E+04  0.12597568273E+04  0.17856414694E+04  0.12699999809E+01 0.  1.
       -4    1    3    3    0  502 -0.50540600671E+01  0.12655042619E+04 -0.17114708595E+04  0.21285348708E+04  0.12699999809E+01 0. -1.
</event>
<event>
 5   0  0.3610483E-07  0.3876096E+04  0.7818609E-02  0.8030019E-01
       -2   -1    0    0    0  501  0.00000000000E+00  0.00000000000E+00  0.17363161349E+04  0.17363161349E+04  0.25500000920E-02 0. -1.
        2   -1    0    0  501    0  0.00000000000E+00  0.00000000000E+00 -0.21632176986E+04  0.21632176986E+04  0.25500000920E-02 0.  1.
    10030    2    1    2    0    0  0.00000000000E+00  0.00000000000E+00 -0.42690156363E+03  0.38995338335E+04  0.38760958674E+04 0.  0.
        4    1    3    3  502    0 -0.84653861230E+03  0.35737435396E+03 -0.19301345964E+04  0.21377009201E+04  0.12699999809E+01 0.  1.
       -4    1    3    3    0  502  0.84653861230E+03 -0.35737435396E+03  0.15032330327E+04  0.17618329134E+04  0.12699999809E+01 0. -1.
</event>
<event>
 5   0  0.3665303E-07  0.3646062E+04  0.7818609E-02  0.8080021E-01
       -2   -1    0    0    0  501  0.00000000000E+00  0.00000000000E+00  0.13931221438E+04  0.13931221438E+04  0.25500000920E-02 0.  1.
        2   -1    0    0  501    0  0.00000000000E+00  0.00000000000E+00 -0.23856073543E+04  0.23856073543E+04  0.25500000920E-02 0. -1.
    10030    2    1    2    0    0  0.00000000000E+00  0.00000000000E+00 -0.99248521053E+03  0.37787294981E+04  0.36460622220E+04 0.  0.
        2    1    3    3  502    0 -0.12754895677E+04 -0.12889386604E+04 -0.69070230120E+03  0.19404396864E+04  0.25500000920E-02 0. -1.
       -2    1    3    3    0  502  0.12754895677E+04  0.12889386604E+04 -0.30178290933E+03  0.18382898117E+04  0.25500000920E-02 0.  1.
</event>
<event>
 5   0  0.1187925E-07  0.3782345E+04  0.7818609E-02  0.8049954E-01
        1   -1    0    0  501    0  0.00000000000E+00  0.00000000000E+00  0.16856814023E+04  0.16856814023E+04  0.50400001928E-02 0. -1.
       -1   -1    0    0    0  501  0.00000000000E+00  0.00000000000E+00 -0.21217138681E+04  0.21217138681E+04  0.50400001928E-02 0.  1.
    10030    2    1    2    0    0  0.00000000000E+00  0.00000000000E+00 -0.43603246581E+03  0.38073952704E+04  0.37823450971E+04 0.  0.
        5    1    3    3  502    0 -0.41698563453E+03  0.16320997683E+04  0.64726083671E+03  0.18046039327E+04  0.46999998093E+01 0. -1.
       -5    1    3    3    0  502  0.41698563453E+03 -0.16320997683E+04 -0.10832933025E+04  0.20027913377E+04  0.46999998093E+01 0.  1.
</event>
<event>
 5   0  0.3665303E-07  0.3934629E+04  0.7818609E-02  0.8017865E-01
        2   -1    0    0  501    0  0.00000000000E+00  0.00000000000E+00  0.13019403604E+04  0.13019403604E+04  0.25500000920E-02 0.  1.
       -2   -1    0    0    0  501  0.00000000000E+00  0.00000000000E+00 -0.29727367583E+04  0.29727367583E+04  0.25500000920E-02 0. -1.
    10030    2    1    2    0    0  0.00000000000E+00  0.00000000000E+00 -0.16707963979E+04  0.42746771187E+04  0.39346288091E+04 0.  0.
        2    1    3    3  502    0 -0.17704176647E+04  0.22735961183E+03 -0.17340852752E+04  0.24885985699E+04  0.25500000920E-02 0. -1.
       -2    1    3    3    0  502  0.17704176647E+04 -0.22735961183E+03  0.63288877285E+02  0.17860785488E+04  0.25500000920E-02 0.  1.
</event>
<event>
 5   0  0.1187925E-07  0.3914373E+04  0.7818609E-02  0.8022046E-01
        3   -1    0    0  501    0  0.00000000000E+00  0.00000000000E+00  0.13870042564E+04  0.13870042600E+04  0.10100000352E+00 0.  1.
       -3   -1    0    0    0  501  0.00000000000E+00  0.00000000000E+00 -0.27617650900E+04  0.27617650919E+04  0.10100000352E+00 0. -1.
    10030    2    1    2    0    0  0.00000000000E+00  0.00000000000E+00 -0.13747608336E+04  0.41487693519E+04  0.39143734857E+04 0.  0.
        2    1    3    3  502    0  0.22190129818E+03 -0.50321160342E+03 -0.26781847228E+04  0.27340694054E+04  0.25500000920E-02 0. -1.
       -2    1    3    3    0  502 -0.22190129818E+03  0.50321160342E+03  0.13034238891E+04  0.14146999465E+04  0.25500000920E-02 0.  1.
</event>
<event>
 5   0  0.3680814E-07  0.3790727E+04  0.7818609E-02  0.8048148E-01
       -2   -1    0    0    0  501  0.00000000000E+00  0.00000000000E+00  0.21058991940E+04  0.21058991941E+04  0.25500000920E-02 0. -1.
        2   -1    0    0  501    0  0.00000000000E+00  0.00000000000E+00 -0.17058756531E+04  0.17058756531E+04  0.25500000920E-02 0.  1.
    10030    2    1    2    0    0  0.00000000000E+00  0.00000000000E+00  0.40002354093E+03  0.38117748472E+04  0.37907266655E+04 0.  0.
        1    1    3    3  502    0  0.13799251572E+04  0.10373978067E+04  0.98666916709E+03  0.19884425298E+04  0.50400001928E-02 0. -1.
       -1    1    3    3    0  502 -0.13799251572E+04 -0.10373978067E+04 -0.58664562616E+03  0.18233323174E+04  0.50400001928E-02 0.  1.
</event>
<event>
 5   0  0.3610483E-07  0.3887909E+04  0.7818609E-02  0.8027549E-01
       -2   -1    0    0    0  501  0.00000000000E+00  0.00000000000E+00  0.18892380711E+04  0.18892380711E+04  0.25500000920E-02 0.  1.
        2   -1    0    0  501    0  0.00000000000E+00  0.00000000000E+00 -0.20002556615E+04  0.20002556615E+04  0.25500000920E-02 0. -1.
    10030    2    1    2    0    0  0.00000000000E+00  0.00000000000E+00 -0.11101759041E+03  0.38894937326E+04  0.38879090255E+04 0.  0.
        4    1    3    3  502    0 -0.16254791986E+04  0.10555160813E+04  0.95087315362E+02  0.19404484104E+04  0.12699999809E+01 0.  1.
       -4    1    3    3    0  502  0.16254791986E+04 -0.10555160813E+04 -0.20610490577E+03  0.19490453222E+04  0.12699999809E+01 0. -1.
</event>
<event>
 5   0  0.1187925E-07  0.3426150E+04  0.7818609E-02  0.8131518E-01
       -1   -1    0    0    0  501  0.00000000000E+00  0.00000000000E+00  0.21431308323E+04  0.21431308323E+04  0.50400001928E-02 0. -1.
        1   -1    0    0  501    0  0.00000000000E+00  0.00000000000E+00 -0.13693173194E+04  0.13693173194E+04  0.50400001928E-02 0.  1.
    10030    2    1    2    0    0  0.00000000000E+00  0.00000000000E+00  0.77381351297E+03  0.35124481517E+04  0.34261501230E+04 0.  0.
        5    1    3    3  502    0  0.82761317800E+03  0.13782688564E+04  0.99344691029E+03  0.18898485301E+04  0.46999998093E+01 0.  1.
       -5    1    3    3    0  502 -0.82761317800E+03 -0.13782688564E+04 -0.21963339731E+03  0.16225996217E+04  0.46999998093E+01 0. -1.
</event>
<event>
 5   0  0.3610483E-07  0.3871755E+04  0.7818609E-02  0.8030929E-01
       -2   -1    0    0    0  501  0.00000000000E+00  0.00000000000E+00  0.10831116056E+04  0.10831116056E+04  0.25500000920E-02 0. -1.
        2   -1    0    0  501    0  0.00000000000E+00  0.00000000000E+00 -0.34600520042E+04  0.34600520042E+04  0.25500000920E-02 0.  1.
    10030    2    1    2    0    0  0.00000000000E+00  0.00000000000E+00 -0.23769403986E+04  0.45431636098E+04  0.38717554064E+04 0.  0.
        4    1    3    3  502    0  0.71341108227E+03  0.15848313880E+04 -0.18798609701E+03  0.17481379483E+04  0.12699999809E+01 0. -1.
       -4    1    3    3    0  502 -0.71341108227E+03 -0.15848313880E+04 -0.21889543016E+04  0.27950256615E+04  0.12699999809E+01 0.  1.
</event>
<event>
 5   0  0.3832389E-07  0.3897407E+04  0.7818609E-02  0.8025569E-01
       -2   -1    0    0    0  501  0.00000000000E+00  0.00000000000E+00  0.12986195849E+04  0.12986195849E+04  0.25500000920E-02 0. -1.
        2   -1    0    0  501    0  0.00000000000E+00  0.00000000000E+00 -0.29242168105E+04  0.29242168105E+04  0.25500000920E-02 0.  1.
    10030    2    1    2    0    0  0.00000000000E+00  0.00000000000E+00 -0.16255972256E+04  0.42228363954E+04  0.38974069434E+04 0.  0.
        5    1    3    3  502    0  0.67293840217E+03  0.99986163735E+03  0.84635417521E+03  0.14727209060E+04  0.46999998093E+01 0. -1.
       -5    1    3    3    0  502 -0.67293840217E+03 -0.99986163735E+03 -0.24719514008E+04  0.27501154894E+04  0.46999998093E+01 0.  1.
</event>
<event>
 5   0  0.3680814E-07  0.3870775E+04  0.7818609E-02  0.8031135E-01
        2   -1    0    0  501    0  0.00000000000E+00  0.00000000000E+00  0.11134185433E+04  0.11134185433E+04  0.25500000920E-02 0.  1.
       -2   -1    0    0    0  501  0.00000000000E+00  0.00000000000E+00 -0.33641657301E+04  0.33641657301E+04  0.25500000920E-02 0. -1.
    10030    2    1    2    0    0  0.00000000000E+00  0.00000000000E+00 -0.22507471868E+04  0.44775842733E+04  0.38707748612E+04 0.  0.
        1    1    3    3  502    0  0.74840838484E+03  0.10526946945E+04 -0.27926609001E+04  0.30768874100E+04  0.50400001928E-02 0. -1.
       -1    1    3    3    0  502 -0.74840838484E+03 -0.10526946945E+04  0.54191371334E+03  0.14006968634E+04  0.50400001928E-02 0.  1.
</event>
<event>
 5   0  0.1187925E-07  0.3896061E+04  0.7818609E-02  0.8025849E-01
        1   -1    0    0  501    0  0.00000000000E+00  0.00000000000E+00  0.17765545182E+04  0.17765545183E+04  0.50400001928E-02 0.  1.
       -1   -1    0    0    0  501  0.00000000000E+00  0.00000000000E+00 -0.21360574189E+04  0.21360574189E+04  0.50400001928E-02 0. -1.
    10030    2    1    2    0    0  0.00000000000E+00  0.00000000000E+00 -0.35950290068E+03  0.39126119372E+04  0.38960608100E+04 0.  0.
        4    1    3    3  502    0  0.14128504201E+03  0.62973977584E+02  0.17703768803E+04  0.17771221388E+04  0.12699999809E+01 0.  1.
       -4    1    3    3    0  502 -0.14128504201E+03 -0.62973977584E+02 -0.21298797810E+04  0.21354897984E+04  0.12699999809E+01 0. -1.
</event>
<event>
 5   0  0.3680814E-07  0.3906774E+04  0.7818609E-02  0.8023622E-01
       -2   -1    0    0    0  501  0.00000000000E+00  0.00000000000E+00  0.24673620486E+04  0.24673620486E+04  0.25500000920E-02 0. -1.
        2   -1    0    0  501    0  0.00000000000E+00  0.00000000000E+00 -0.15464781568E+04  0.15464781568E+04  0.25500000920E-02 0.  1.
    10030    2    1    2    0    0  0.00000000000E+00  0.00000000000E+00  0.92088389177E+03  0.40138402055E+04  0.39067743796E+04 0.  0.
        1    1    3    3  502    0 -0.71321953923E+03 -0.11576823589E+04  0.19013061677E+04  0.23374934649E+04  0.50400001928E-02 0. -1.
       -1    1    3    3    0  502  0.71321953923E+03  0.11576823589E+04 -0.98042227591E+03  0.16763467405E+04  0.50400001928E-02 0.  1.
</event>
<event>
 5   0  0.1187925E-07  0.3892274E+04  0.7818609E-02  0.8026638E-01
       -1   -1    0    0    0  501  0.00000000000E+00  0.00000000000E+00  0.33842262118E+04  0.33842262118E+04  0.50400001928E-02 0.  1.
        1   -1    0    0  501    0  0.00000000000E+00  0.00000000000E+00 -0.11191474950E+04  0.11191474951E+04  0.50400001928E-02 0. -1.
    10030    2    1    2    0    0  0.00000000000E+00  0.00000000000E+00  0.22650787168E+04  0.45033737069E+04  0.38922735195E+04 0.  0.
        2    1    3    3  502    0  0.63465553481E+03 -0.53984395898E+03  0.31674281641E+04  0.32751824869E+04  0.25500000920E-02 0.  1.
       -2    1    3    3    0  502 -0.63465553481E+03  0.53984395898E+03 -0.90234944727E+03  0.12281912200E+04  0.25500000920E-02 0. -1.
</event>
<event>
 5   0  0.3810833E-07  0.3095969E+04  0.7818609E-02  0.8216845E-01
       -2   -1    0    0    0  501  0.00000000000E+00  0.00000000000E+00  0.10130021907E+04  0.10130021907E+04  0.25500000920E-02 0. -1.
        2   -1    0    0  501    0  0.00000000000E+00  0.00000000000E+00 -0.23654994786E+04  0.23654994786E+04  0.25500000920E-02 0.  1.
    10030    2    1    2    0    0  0.00000000000E+00  0.00000000000E+00 -0.13524972879E+04  0.33785016693E+04  0.30959690915E+04 0.  0.
        3    1    3    3  502    0  0.95908791346E+03 -0.64194953658E+03  0.44955083718E+03  0.12385656215E+04  0.10100000352E+00 0. -1.
       -3    1    3    3    0  502 -0.95908791346E+03  0.64194953658E+03 -0.18020481251E+04  0.21399360478E+04  0.10100000352E+00 0.  1.
</event>
<event>
 5   0  0.1187925E-07  0.3890251E+04  0.7818609E-02  0.8027060E-01
       -1   -1    0    0    0  501  0.00000000000E+00  0.00000000000E+00  0.14839682402E+04  0.14839682402E+04  0.50400001928E-02 0.  1.
        1   -1    0    0  501    0  0.00000000000E+00  0.00000000000E+00 -0.25495923882E+04  0.25495923882E+04  0.50400001928E-02 0. -1.
    10030    2    1    2    0    0  0.00000000000E+00  0.00000000000E+00 -0.10656241480E+04  0.40335606285E+04  0.38902514724E+04 0.  0.
        4    1    3    3  502    0  0.16645332971E+04  0.22902427611E+03 -0.15489076722E+04  0.22852220474E+04  0.12699999809E+01 0. -1.
       -4    1    3    3    0  502 -0.16645332971E+04 -0.22902427611E+03  0.48328352419E+03  0.17483385810E+04  0.12699999809E+01 0.  1.
</event>
<event>
 5   0  0.1187925E-07  0.2997413E+04  0.7818609E-02  0.8244470E-01
        1   -1    0    0  501    0  0.00000000000E+00  0.00000000000E+00  0.23714274890E+04  0.23714274890E+04  0.50400001928E-02 0.  1.
       -1   -1    0    0    0  501  0.00000000000E+00  0.00000000000E+00 -0.94716018332E+03  0.94716018333E+03  0.50400001928E-02 0. -1.
    10030    2    1    2    0    0  0.00000000000E+00  0.00000000000E+00  0.14242673057E+04  0.33185876724E+04  0.29974133484E+04 0.  0.
        1    1    3    3  502    0 -0.81826432790E+02  0.13693108788E+04  0.43783434565E+02  0.13724521256E+04  0.50400001928E-02 0. -1.
       -1    1    3    3    0  502  0.81826432790E+02 -0.13693108788E+04  0.13804838711E+04  0.19461355468E+04  0.50400001928E-02 0.  1.
</event>
<event>
 5   0  0.3680814E-07  0.3917924E+04  0.7818609E-02  0.8021312E-01
       -2   -1    0    0    0  501  0.00000000000E+00  0.00000000000E+00  0.17408282019E+04  0.17408282019E+04  0.25500000920E-02 0. -1.
        2   -1    0    0  501    0  0.00000000000E+00  0.00000000000E+00 -0.22044286715E+04  0.22044286715E+04  0.25500000920E-02 0.  1.
    10030    2    1    2    0    0  0.00000000000E+00  0.00000000000E+00 -0.46360046957E+03  0.39452568734E+04  0.39179237361E+04 0.  0.
        1    1    3    3  502    0  0.64851335704E+03 -0.11491211967E+04  0.12262246221E+04  0.18012983992E+04  0.50400001928E-02 0. -1.
       -1    1    3    3    0  502 -0.64851335704E+03  0.11491211967E+04 -0.16898250916E+04  0.21439584743E+04  0.50400001928E-02 0.  1.
</event>
<event>
 5   0  0.3610483E-07  0.3878802E+04  0.7818609E-02  0.8029452E-01
       -2   -1    0    0    0  501  0.00000000000E+00  0.00000000000E+00  0.15455413118E+04  0.15455413118E+04  0.25500000920E-02 0.  1.
        2   -1    0    0  501    0  0.00000000000E+00  0.00000000000E+00 -0.24336306219E+04  0.24336306219E+04  0.25500000920E-02 0. -1.
    10030    2    1    2    0    0  0.00000000000E+00  0.00000000000E+00 -0.88808931014E+03  0.39791719337E+04  0.38788022191E+04 0.  0.
        4    1    3    3  502    0 -0.78425631747E+03 -0.17916773977E+03 -0.22543943047E+04  0.23936278626E+04  0.12699999809E+01 0. -1.
       -4    1    3    3    0  502  0.78425631747E+03  0.17916773977E+03  0.13663049946E+04  0.15855440711E+04  0.12699999809E+01 0.  1.
</event>
<event>
 5   0  0.1187925E-07  0.4135372E+04  0.7818609E-02  0.7977781E-01
       -3   -1    0    0    0  501  0.00000000000E+00  0.00000000000E+00  0.20889555132E+04  0.20889555157E+04  0.10100000352E+00 0.  1.
        3   -1    0    0  501    0  0.00000000000E+00  0.00000000000E+00 -0.20466328087E+04  0.20466328112E+04  0.10100000352E+00 0. -1.
    10030    2    1    2    0    0  0.00000000000E+00  0.00000000000E+00  0.42322704496E+02  0.41355883269E+04  0.41353717605E+04 0.  0.
        2    1    3    3  502    0 -0.48463243822E+03  0.20088782264E+04 -0.48588776245E+02  0.20670803559E+04  0.25500000920E-02 0.  1.
       -2    1    3    3    0  502  0.48463243822E+03 -0.20088782264E+04  0.90911480742E+02  0.20685079710E+04  0.25500000920E-02 0. -1.
</event>
<event>
 5   0  0.3680814E-07  0.3917573E+04  0.7818609E-02  0.8021384E-01
       -2   -1    0    0    0  501  0.00000000000E+00  0.00000000000E+00  0.15418524724E+04  0.15418524724E+04  0.25500000920E-02 0.  1.
        2   -1    0    0  501    0  0.00000000000E+00  0.00000000000E+00 -0.24884639535E+04  0.24884639535E+04  0.25500000920E-02 0. -1.
    10030    2    1    2    0    0  0.00000000000E+00  0.00000000000E+00 -0.94661148111E+03  0.40303164258E+04  0.39175728705E+04 0.  0.
        1    1    3    3  502    0 -0.79363720086E+03  0.87503575067E+03  0.11341252813E+04  0.16376164768E+04  0.50400001928E-02 0.  1.
       -1    1    3    3    0  502  0.79363720086E+03 -0.87503575067E+03 -0.20807367624E+04  0.23926999490E+04  0.50400001928E-02 0. -1.
</event>
<event>
 5   0  0.3810833E-07  0.3914532E+04  0.7818609E-02  0.8022014E-01
        2   -1    0    0  501    0  0.00000000000E+00  0.00000000000E+00  0.20750277121E+04  0.20750277121E+04  0.25500000920E-02 0. -1.
       -2   -1    0    0    0  501  0.00000000000E+00  0.00000000000E+00 -0.18461875683E+04  0.18461875683E+04  0.25500000920E-02 0.  1.
    10030    2    1    2    0    0  0.00000000000E+00  0.00000000000E+00  0.22884014376E+03  0.39212152804E+04  0.39145320875E+04 0.  0.
        3    1    3    3  502    0  0.13220427220E+04  0.95200190220E+03 -0.97222955207E+03  0.18971913168E+04  0.10100000352E+00 0. -1.
       -3    1    3    3    0  502 -0.13220427220E+04 -0.95200190220E+03  0.12010696958E+04  0.20240239635E+04  0.10100000352E+00 0.  1.
</event>
<event>
 5   0  0.1187925E-07  0.3685329E+04  0.7818609E-02  0.8071221E-01
        1   -1    0    0  501    0  0.00000000000E+00  0.00000000000E+00  0.23322168475E+04  0.23322168475E+04  0.50400001928E-02 0. -1.
       -1   -1    0    0    0  501  0.00000000000E+00  0.00000000000E+00 -0.14558736617E+04  0.14558736617E+04  0.50400001928E-02 0.  1.
    10030    2    1    2    0    0  0.00000000000E+00  0.00000000000E+00  0.87634318584E+03  0.37880905092E+04  0.36853293375E+04 0.  0.
        1    1    3    3  502    0 -0.69071571055E+03 -0.85924114468E+03  0.19558341944E+04  0.22451438558E+04  0.50400001928E-02 0. -1.
       -1    1    3    3    0  502  0.69071571055E+03  0.85924114468E+03 -0.10794910085E+04  0.15429466533E+04  0.50400001928E-02 0.  1.
</event>
<event>
 5   0  0.1187925E-07  0.3891219E+04  0.7818609E-02  0.8026858E-01
       -1   -1    0    0    0  501  0.00000000000E+00  0.00000000000E+00  0.24865753722E+04  0.24865753722E+04  0.50400001928E-02 0.  1.
        1   -1    0    0  501    0  0.00000000000E+00  0.00000000000E+00 -0.15223335127E+04  0.15223335127E+04  0.50400001928E-02 0. -1.
    10030    2    1    2    0    0  0.00000000000E+00  0.00000000000E+00  0.96424185952E+03  0.40089088849E+04  0.38912193569E+04 0.  0.
        1    1    3    3  502    0 -0.17985882910E+04 -0.56523297267E+03  0.97727003227E+03  0.21235500630E+04  0.50400001928E-02 0. -1.
       -1    1    3    3    0  502  0.17985882910E+04  0.56523297267E+03 -0.13028172759E+02  0.18853588219E+04  0.50400001928E-02 0.  1.
</event>
<event>
 5   0  0.1187925E-07  0.3963644E+04  0.7818609E-02  0.8011921E-01
       -1   -1    0    0    0  501  0.00000000000E+00  0.00000000000E+00  0.17035940986E+04  0.17035940986E+04  0.50400001928E-02 0. -1.
        1   -1    0    0  501    0  0.00000000000E+00  0.00000000000E+00 -0.23054891201E+04  0.23054891201E+04  0.50400001928E-02 0.  1.
    10030    2    1    2    0    0  0.00000000000E+00  0.00000000000E+00 -0.60189502149E+03  0.40090832187E+04  0.39636436062E+04 0.  0.
        3    1    3    3  502    0  0.66876147163E+03 -0.13555553131E+04  0.99548179476E+03  0.18099050049E+04  0.10100000352E+00 0. -1.
       -3    1    3    3    0  502 -0.66876147163E+03  0.13555553131E+04 -0.15973768163E+04  0.21991782138E+04  0.10100000352E+00 0.  1.
</event>
<event>
 5   0  0.1187925E-07  0.3881488E+04  0.7818609E-02  0.8028890E-01
       -1   -1    0    0    0  501  0.00000000000E+00  0.00000000000E+00  0.33123733395E+04  0.33123733395E+04  0.50400001928E-02 0. -1.
        1   -1    0    0  501    0  0.00000000000E+00  0.00000000000E+00 -0.11370961224E+04  0.11370961224E+04  0.50400001928E-02 0.  1.
    10030    2    1    2    0    0  0.00000000000E+00  0.00000000000E+00  0.21752772171E+04  0.44494694619E+04  0.38814877974E+04 0.  0.
        5    1    3    3  502    0 -0.60825710132E+03  0.13337249067E+04  0.25456282182E+04  0.29375234371E+04  0.46999998093E+01 0. -1.
       -5    1    3    3    0  502  0.60825710132E+03 -0.13337249067E+04 -0.37035100111E+03  0.15119460248E+04  0.46999998093E+01 0.  1.
</event>
<event>
 5   0  0.1187925E-07  0.4279413E+04  0.7818609E-02  0.7950436E-01
       -1   -1    0    0    0  501  0.00000000000E+00  0.00000000000E+00  0.22095860269E+04  0.22095860269E+04  0.50400001928E-02 0.  1.
        1   -1    0    0  501    0  0.00000000000E+00  0.00000000000E+00 -0.20720371535E+04  0.20720371535E+04  0.50400001928E-02 0. -1.
    10030    2    1    2    0    0  0.00000000000E+00  0.00000000000E+00  0.13754887338E+03  0.42816231804E+04  0.42794132035E+04 0.  0.
        5    1    3    3  502    0 -0.17806926366E+04 -0.67710057135E+03  0.10434391029E+04  0.21721230861E+04  0.46999998093E+01 0.  1.
       -5    1    3    3    0  502  0.17806926366E+04  0.67710057135E+03 -0.90589022949E+03  0.21095000943E+04  0.46999998093E+01 0. -1.
</event>
<event>
 5   0  0.3610483E-07  0.4021717E+04  0.7818609E-02  0.8000180E-01
       -2   -1    0    0    0  501  0.00000000000E+00  0.00000000000E+00  0.16956639537E+04  0.16956639537E+04  0.25500000920E-02 0.  1.
        2   -1    0    0  501    0  0.00000000000E+00  0.00000000000E+00 -0.23846422917E+04  0.23846422917E+04  0.25500000920E-02 0. -1.
    10030    2    1    2    0    0  0.00000000000E+00  0.00000000000E+00 -0.68897833794E+03  0.40803062454E+04  0.40217170345E+04 0.  0.
        4    1    3    3  502    0  0.10376322917E+04 -0.73885649092E+03 -0.19231001412E+04  0.23067087924E+04  0.12699999809E+01 0. -1.
       -4    1    3    3    0  502 -0.10376322917E+04  0.73885649092E+03  0.12341218032E+04  0.17735974530E+04  0.12699999809E+01 0.  1.
</event>
<event>
 5   0  0.3680814E-07  0.3894603E+04  0.7818609E-02  0.8026153E-01
        2   -1    0    0  501    0  0.00000000000E+00  0.00000000000E+00  0.20479719810E+04  0.20479719810E+04  0.25500000920E-02 0.  1.
       -2   -1    0    0    0  501  0.00000000000E+00  0.00000000000E+00 -0.18515794888E+04  0.18515794888E+04  0.25500000920E-02 0. -1.
    10030    2    1    2    0    0  0.00000000000E+00  0.00000000000E+00  0.19639249215E+03  0.38995514698E+04  0.38946028879E+04 0.  0.
        1    1    3    3  502    0  0.18244422076E+04  0.38705210365E+03  0.65889368328E+03  0.19780140510E+04  0.50400001928E-02 0.  1.
       -1    1    3    3    0  502 -0.18244422076E+04 -0.38705210365E+03 -0.46250119114E+03  0.19215374188E+04  0.50400001928E-02 0. -1.
</event>
<event>
 5   0  0.1187925E-07  0.3882940E+04  0.7818609E-02  0.8028587E-01
       -1   -1    0    0    0  501  0.00000000000E+00  0.00000000000E+00  0.24460888361E+04  0.24460888361E+04  0.50400001928E-02 0. -1.
        1   -1    0    0  501    0  0.00000000000E+00  0.00000000000E+00 -0.15409521650E+04  0.15409521651E+04  0.50400001928E-02 0.  1.
    10030    2    1    2    0    0  0.00000000000E+00  0.00000000000E+00  0.90513667109E+03  0.39870410012E+04  0.38829400654E+04 0.  0.
        2    1    3    3  502    0 -0.13103573511E+04 -0.14325743207E+04  0.45314557429E+03  0.19936515451E+04  0.25500000920E-02 0. -1.
       -2    1    3    3    0  502  0.13103573511E+04  0.14325743207E+04  0.45199109679E+03  0.19933894561E+04  0.25500000920E-02 0.  1.
</event>
<event>
 5   0  0.3832389E-07  0.3898849E+04  0.7818609E-02  0.8025269E-01
       -2   -1    0    0    0  501  0.00000000000E+00  0.00000000000E+00  0.16353905469E+04  0.16353905469E+04  0.25500000920E-02 0. -1.
        2   -1    0    0  501    0  0.00000000000E+00  0.00000000000E+00 -0.23237609458E+04  0.23237609458E+04  0.25500000920E-02 0.  1.
    10030    2    1    2    0    0  0.00000000000E+00  0.00000000000E+00 -0.68837039896E+03  0.39591514927E+04  0.38988494119E+04 0.  0.
        5    1    3    3  502    0  0.10033008756E+04 -0.63240312315E+03  0.12268989651E+04  0.17064142280E+04  0.46999998093E+01 0. -1.
       -5    1    3    3    0  502 -0.10033008756E+04  0.63240312315E+03 -0.19152693640E+04  0.22527372647E+04  0.46999998093E+01 0.  1.
</event>
<event>
 5   0  0.1187925E-07  0.3811096E+04  0.7818609E-02  0.8043778E-01
       -1   -1    0    0    0  501  0.00000000000E+00  0.00000000000E+00  0.28326028542E+04  0.28326028542E+04  0.50400001928E-02 0.  1.
        1   -1    0    0  501    0  0.00000000000E+00  0.00000000000E+00 -0.12819001343E+04  0.12819001343E+04  0.50400001928E-02 0. -1.
    10030    2    1    2    0    0  0.00000000000E+00  0.00000000000E+00  0.15507027199E+04  0.41145029884E+04  0.38110964192E+04 0.  0.
        2    1    3    3  502    0 -0.50066940369E+03 -0.66519740694E+03 -0.10751530699E+04  0.13598204167E+04  0.25500000920E-02 0. -1.
       -2    1    3    3    0  502  0.50066940369E+03  0.66519740694E+03  0.26258557898E+04  0.27546825717E+04  0.25500000920E-02 0.  1.
</event>
<event>
 5   0  0.3665303E-07  0.3846013E+04  0.7818609E-02  0.8036352E-01
       -2   -1    0    0    0  501  0.00000000000E+00  0.00000000000E+00  0.22441630679E+04  0.22441630679E+04  0.25500000920E-02 0.  1.
        2   -1    0    0  501    0  0.00000000000E+00  0.00000000000E+00 -0.16478096180E+04  0.16478096180E+04  0.25500000920E-02 0. -1.
    10030    2    1    2    0    0  0.00000000000E+00  0.00000000000E+00  0.59635344988E+03  0.38919726858E+04  0.38460127340E+04 0.  0.
        2    1    3    3  502    0 -0.50053101890E+03  0.16821047724E+04 -0.49731237037E+03  0.18240963132E+04  0.25500000920E-02 0.  1.
       -2    1    3    3    0  502  0.50053101890E+03 -0.16821047724E+04  0.10936658203E+04  0.20678763726E+04  0.25500000920E-02 0. -1.
</event>
<event>
 5   0  0.3810833E-07  0.3525434E+04  0.7818609E-02  0.8107789E-01
        2   -1    0    0  501    0  0.00000000000E+00  0.00000000000E+00  0.15669325159E+04  0.15669325159E+04  0.25500000920E-02 0. -1.
       -2   -1    0    0    0  501  0.00000000000E+00  0.00000000000E+00 -0.19829642906E+04  0.19829642906E+04  0.25500000920E-02 0.  1.
    10030    2    1    2    0    0  0.00000000000E+00  0.00000000000E+00 -0.41603177475E+03  0.35498968065E+04  0.35254340015E+04 0.  0.
        3    1    3    3  502    0 -0.13987372829E+03 -0.42985688873E+03 -0.19236074905E+04  0.19760079434E+04  0.10100000352E+00 0.  1.
       -3    1    3    3    0  502  0.13987372829E+03  0.42985688873E+03  0.15075757157E+04  0.15738888631E+04  0.10100000352E+00 0. -1.
</event>
<event>
 5   0  0.3680814E-07  0.3923381E+04  0.7818609E-02  0.8020184E-01
        2   -1    0    0  501    0  0.00000000000E+00  0.00000000000E+00  0.16005330181E+04  0.16005330181E+04  0.25500000920E-02 0. -1.
       -2   -1    0    0    0  501  0.00000000000E+00  0.00000000000E+00 -0.24043427521E+04  0.24043427521E+04  0.25500000920E-02 0.  1.
    10030    2    1    2    0    0  0.00000000000E+00  0.00000000000E+00 -0.80380973402E+03  0.40048757702E+04  0.39233811753E+04 0.  0.
        1    1    3    3  502    0  0.13156707621E+04 -0.13087852765E+04  0.24716577617E+03  0.18721643558E+04  0.50400001928E-02 0. -1.
       -1    1    3    3    0  502 -0.13156707621E+04  0.13087852765E+04 -0.10509755102E+04  0.21327114144E+04  0.50400001928E-02 0.  1.
</event>
<event>
 5   0  0.3610483E-07  0.3396714E+04  0.7818609E-02  0.8138713E-01
        2   -1    0    0  501    0  0.00000000000E+00  0.00000000000E+00  0.25583654404E+04  0.25583654404E+04  0.25500000920E-02 0. -1.
       -2   -1    0    0    0  501  0.00000000000E+00  0.00000000000E+00 -0.11274449574E+04  0.11274449574E+04  0.25500000920E-02 0.  1.
    10030    2    1    2    0    0  0.00000000000E+00  0.00000000000E+00  0.14309204830E+04  0.36858103977E+04  0.33967138324E+04 0.  0.
        4    1    3    3  502    0 -0.11626846536E+04 -0.80904967581E+03 -0.30131660200E+03  0.14481679078E+04  0.12699999809E+01 0.  1.
       -4    1    3    3    0  502  0.11626846536E+04  0.80904967581E+03  0.17322370850E+04  0.22376424900E+04  0.12699999809E+01 0. -1.
</event>
<event>
 5   0  0.1187925E-07  0.3855368E+04  0.7818609E-02  0.8034376E-01
        1   -1    0    0  501    0  0.00000000000E+00  0.00000000000E+00  0.11427849183E+04  0.11427849183E+04  0.50400001928E-02 0. -1.
       -1   -1    0    0    0  501  0.00000000000E+00  0.00000000000E+00 -0.32516761324E+04  0.32516761324E+04  0.50400001928E-02 0.  1.
    10030    2    1    2    0    0  0.00000000000E+00  0.00000000000E+00 -0.21088912141E+04  0.43944610507E+04  0.38553684354E+04 0.  0.
        5    1    3    3  502    0  0.93066294433E+03 -0.15223166480E+04 -0.18861013812E+04  0.25963401169E+04  0.46999998093E+01 0.  1.
       -5    1    3    3    0  502 -0.93066294433E+03  0.15223166480E+04 -0.22278983287E+03  0.17981209337E+04  0.46999998093E+01 0. -1.
</event>
<event>
 5   0  0.1187925E-07  0.3864194E+04  0.7818609E-02  0.8032518E-01
        1   -1    0    0  501    0  0.00000000000E+00  0.00000000000E+00  0.21959189479E+04  0.21959189479E+04  0.50400001928E-02 0. -1.
       -1   -1    0    0    0  501  0.00000000000E+00  0.00000000000E+00 -0.16999711927E+04  0.16999711928E+04  0.50400001928E-02 0.  1.
    10030    2    1    2    0    0  0.00000000000E+00  0.00000000000E+00  0.49594775514E+03  0.38958901407E+04  0.38641940702E+04 0.  0.
        4    1    3    3  502    0  0.72035673500E+02  0.17694099645E+04  0.10269671256E+04  0.20471110988E+04  0.12699999809E+01 0. -1.
       -4    1    3    3    0  502 -0.72035673500E+02 -0.17694099645E+04 -0.53101937044E+03  0.18487790419E+04  0.12699999809E+01 0.  1.
</event>
<event>
 5   0  0.1187925E-07  0.3817686E+04  0.7818609E-02  0.8042370E-01
        3   -1    0    0  501    0  0.00000000000E+00  0.00000000000E+00  0.18037579958E+04  0.18037579986E+04  0.10100000352E+00 0. -1.
       -3   -1    0    0    0  501  0.00000000000E+00  0.00000000000E+00 -0.20200505463E+04  0.20200505488E+04  0.10100000352E+00 0.  1.
    10030    2    1    2    0    0  0.00000000000E+00  0.00000000000E+00 -0.21629255053E+03  0.38238085474E+04  0.38176863858E+04 0.  0.
        4    1    3    3  502    0 -0.80151691655E+03 -0.10743526559E+04  0.12530834432E+04  0.18349067347E+04  0.12699999809E+01 0. -1.
       -4    1    3    3    0  502  0.80151691655E+03  0.10743526559E+04 -0.14693759937E+04  0.19889018127E+04  0.12699999809E+01 0.  1.
</event>
<event>
 5   0  0.3810833E-07  0.3575921E+04  0.7818609E-02  0.8096030E-01
        2   -1    0    0  501    0  0.00000000000E+00  0.00000000000E+00  0.22801302124E+04  0.22801302124E+04  0.25500000920E-02 0. -1.
       -2   -1    0    0    0  501  0.00000000000E+00  0.00000000000E+00 -0.14020264145E+04  0.14020264145E+04  0.25500000920E-02 0.  1.
    10030    2    1    2    0    0  0.00000000000E+00  0.00000000000E+00  0.87810379789E+03  0.36821566268E+04  0.35759210205E+04 0.  0.
        3    1    3    3  502    0 -0.11590807451E+04  0.39467982501E+03  0.17806647769E+04  0.21610199897E+04  0.10100000352E+00 0. -1.
       -3    1    3    3    0  502  0.11590807451E+04 -0.39467982501E+03 -0.90256097904E+03  0.15211366372E+04  0.10100000352E+00 0.  1.
</event>
<event>
 5   0  0.3665303E-07  0.4085641E+04  0.7818609E-02  0.7987490E-01
       -2   -1    0    0    0  501  0.00000000000E+00  0.00000000000E+00  0.16855483934E+04  0.16855483934E+04  0.25500000920E-02 0.  1.
        2   -1    0    0  501    0  0.00000000000E+00  0.00000000000E+00 -0.24758201878E+04  0.24758201878E+04  0.25500000920E-02 0. -1.
    10030    2    1    2    0    0  0.00000000000E+00  0.00000000000E+00 -0.79027179445E+03  0.41613685812E+04  0.40856405812E+04 0.  0.
        2    1    3    3  502    0 -0.15732987255E+04 -0.70272435573E+03 -0.15127545940E+04  0.22929275744E+04  0.25500000920E-02 0.  1.
       -2    1    3    3    0  502  0.15732987255E+04  0.70272435573E+03  0.72248279958E+03  0.18684410067E+04  0.25500000920E-02 0. -1.
</event>
<event>
 5   0  0.3832389E-07  0.3142079E+04  0.7818609E-02  0.8204284E-01
        2   -1    0    0  501    0  0.00000000000E+00  0.00000000000E+00  0.17548978184E+04  0.17548978184E+04  0.25500000920E-02 0. -1.
       -2   -1    0    0    0  501  0.00000000000E+00  0.00000000000E+00 -0.14064440275E+04  0.14064440275E+04  0.25500000920E-02 0.  1.
    10030    2    1    2    0    0  0.00000000000E+00  0.00000000000E+00  0.34845379098E+03  0.31613418459E+04  0.31420792832E+04 0.  0.
        5    1    3    3  502    0  0.10528905100E+04 -0.14369946995E+03 -0.98998197937E+03  0.14523478830E+04  0.46999998093E+01 0.  1.
       -5    1    3    3    0  502 -0.10528905100E+04  0.14369946995E+03  0.13384357704E+04  0.17089939629E+04  0.46999998093E+01 0. -1.
</event>
<event>
 5   0  0.1187925E-07  0.3857134E+04  0.7818609E-02  0.8034004E-01
        1   -1    0    0  501    0  0.00000000000E+00  0.00000000000E+00  0.32221159552E+04  0.32221159552E+04  0.50400001928E-02 0.  1.
       -1   -1    0    0    0  501  0.00000000000E+00  0.00000000000E+00 -0.11543255632E+04  0.11543255632E+04  0.50400001928E-02 0. -1.
    10030    2    1    2    0    0  0.00000000000E+00  0.00000000000E+00  0.20677903920E+04  0.43764415184E+04  0.38571340732E+04 0.  0.
        4    1    3    3  502    0 -0.87154991411E+03 -0.82502355215E+03 -0.67903105419E+03  0.13788937232E+04  0.12699999809E+01 0. -1.
       -4    1    3    3    0  502  0.87154991411E+03  0.82502355215E+03  0.27468214462E+04  0.29975477952E+04  0.12699999809E+01 0.  1.
</event>
<event>
 5   0  0.1187925E-07  0.3863535E+04  0.7818609E-02  0.8032656E-01
        1   -1    0    0  501    0  0.00000000000E+00  0.00000000000E+00  0.13109265618E+04  0.13109265618E+04  0.50400001928E-02 0. -1.
       -1   -1    0    0    0  501  0.00000000000E+00  0.00000000000E+00 -0.28466323836E+04  0.28466323836E+04  0.50400001928E-02 0.  1.
    10030    2    1    2    0    0  0.00000000000E+00  0.00000000000E+00 -0.15357058217E+04  0.41575589454E+04  0.38635351705E+04 0.  0.
        1    1    3    3  502    0 -0.66321705366E+03  0.11725359112E+04  0.72208390094E+03  0.15284313800E+04  0.50400001928E-02 0. -1.
       -1    1    3    3    0  502  0.66321705366E+03 -0.11725359112E+04 -0.22577897227E+04  0.26291275654E+04  0.50400001928E-02 0.  1.
</event>
<event>
 5   0  0.3665303E-07  0.2913313E+04  0.7818609E-02  0.8268927E-01
        2   -1    0    0  501    0  0.00000000000E+00  0.00000000000E+00  0.19075793252E+04  0.19075793252E+04  0.25500000920E-02 0. -1.
       -2   -1    0    0    0  501  0.00000000000E+00  0.00000000000E+00 -0.11123249315E+04  0.11123249315E+04  0.25500000920E-02 0.  1.
    10030    2    1    2    0    0  0.00000000000E+00  0.00000000000E+00  0.79525439368E+03  0.30199042567E+04  0.29133129199E+04 0.  0.
        2    1    3    3  502    0  0.23672774071E+02 -0.55622675947E+02 -0.11110241388E+04  0.11126674792E+04  0.25500000920E-02 0.  1.
       -2    1    3    3    0  502 -0.23672774071E+02  0.55622675947E+02  0.19062785324E+04  0.19072367775E+04  0.25500000920E-02 0. -1.
</event>
<event>
 5   0  0.1187925E-07  0.3175880E+04  0.7818609E-02  0.8195216E-01
        1   -1    0    0  501    0  0.00000000000E+00  0.00000000000E+00  0.15837120282E+04  0.15837120282E+04  0.50400001928E-02 0. -1.
       -1   -1    0    0    0  501  0.00000000000E+00  0.00000000000E+00 -0.15921789725E+04  0.15921789725E+04  0.50400001928E-02 0.  1.
    10030    2    1    2    0    0  0.00000000000E+00  0.00000000000E+00 -0.84669442968E+01  0.31758910007E+04  0.31758797142E+04 0.  0.
        4    1    3    3  502    0 -0.43195017624E+03 -0.36540731004E+03  0.14794995116E+04  0.15839898594E+04  0.12699999809E+01 0. -1.
       -4    1    3    3    0  502  0.43195017624E+03  0.36540731004E+03 -0.14879664559E+04  0.15919011413E+04  0.12699999809E+01 0.  1.
</event>
<event>
 5   0  0.3610483E-07  0.2815317E+04  0.7818609E-02  0.8298529E-01
        2   -1    0    0  501    0  0.00000000000E+00  0.00000000000E+00  0.16986625600E+04  0.16986625600E+04  0.25500000920E-02 0. -1.
       -2   -1    0    0    0  501  0.00000000000E+00  0.00000000000E+00 -0.11665074202E+04  0.11665074202E+04  0.25500000920E-02 0.  1.
    10030    2    1    2    0    0  0.00000000000E+00  0.00000000000E+00  0.53215513979E+03  0.28651699802E+04  0.28153170199E+04 0.  0.
        4    1    3    3  502    0  0.11292120871E+04 -0.55175885282E+03 -0.37913879539E+03  0.13127473513E+04  0.12699999809E+01 0. -1.
       -4    1    3    3    0  502 -0.11292120871E+04  0.55175885282E+03  0.91129393518E+03  0.15524226288E+04  0.12699999809E+01 0.  1.
</event>
<event>
 5   0  0.1187925E-07  0.3871198E+04  0.7818609E-02  0.8031046E-01
       -1   -1    0    0    0  501  0.00000000000E+00  0.00000000000E+00  0.15075016092E+04  0.15075016092E+04  0.50400001928E-02 0.  1.
        1   -1    0    0  501    0  0.00000000000E+00  0.00000000000E+00 -0.24852672294E+04  0.24852672294E+04  0.50400001928E-02 0. -1.
    10030    2    1    2    0    0  0.00000000000E+00  0.00000000000E+00 -0.97776562018E+03  0.39927688386E+04  0.38711984437E+04 0.  0.
        5    1    3    3  502    0 -0.84050029860E+03 -0.16701520381E+02  0.13093727902E+04  0.15560202076E+04  0.46999998093E+01 0.  1.
       -5    1    3    3    0  502  0.84050029860E+03  0.16701520381E+02 -0.22871384104E+04  0.24367486310E+04  0.46999998093E+01 0. -1.
</event>
<event>
 5   0  0.3810833E-07  0.3638713E+04  0.7818609E-02  0.8081681E-01
       -2   -1    0    0    0  501  0.00000000000E+00  0.00000000000E+00  0.19489246440E+04  0.19489246440E+04  0.25500000920E-02 0. -1.
        2   -1    0    0  501    0  0.00000000000E+00  0.00000000000E+00 -0.16984019736E+04  0.16984019736E+04  0.25500000920E-02 0.  1.
    10030    2    1    2    0    0  0.00000000000E+00  0.00000000000E+00  0.25052267033E+03  0.36473266176E+04  0.36387126635E+04 0.  0.
        3    1    3    3  502    0 -0.75685706265E+03 -0.10132377907E+04 -0.11857239873E+04  0.17336161104E+04  0.10100000352E+00 0.  1.
       -3    1    3    3    0  502  0.75685706265E+03  0.10132377907E+04  0.14362466576E+04  0.19137105073E+04  0.10100000352E+00 0. -1.
</event>
<event>
 5   0  0.3680814E-07  0.3921871E+04  0.7818609E-02  0.8020496E-01
        2   -1    0    0  501    0  0.00000000000E+00  0.00000000000E+00  0.23747354996E+04  0.23747354996E+04  0.25500000920E-02 0. -1.
       -2   -1    0    0    0  501  0.00000000000E+00  0.00000000000E+00 -0.16192409095E+04  0.16192409095E+04  0.25500000920E-02 0.  1.
    10030    2    1    2    0    0  0.00000000000E+00  0.00000000000E+00  0.75549459003E+03  0.39939764091E+04  0.39218714259E+04 0.  0.
        1    1    3    3  502    0  0.13167911916E+04  0.11685503342E+04  0.12572337192E+04  0.21633505381E+04  0.50400001928E-02 0.  1.
       -1    1    3    3    0  502 -0.13167911916E+04 -0.11685503342E+04 -0.50173912915E+03  0.18306258710E+04  0.50400001928E-02 0. -1.
</event>
<event>
 5   0  0.1187925E-07  0.3923008E+04  0.7818609E-02  0.8020261E-01
        1   -1    0    0  501    0  0.00000000000E+00  0.00000000000E+00  0.19673619064E+04  0.19673619064E+04  0.50400001928E-02 0.  1.
       -1   -1    0    0    0  501  0.00000000000E+00  0.00000000000E+00 -0.19556635967E+04  0.19556635967E+04  0.50400001928E-02 0. -1.
    10030    2    1    2    0    0  0.00000000000E+00  0.00000000000E+00  0.11698309654E+02  0.39230255031E+04  0.39230080611E+04 0.  0.
        3    1    3    3  502    0  0.55847093274E+03  0.96572254318E+03 -0.16075359154E+04  0.19567016999E+04  0.10100000352E+00 0. -1.
       -3    1    3    3    0  502 -0.55847093274E+03 -0.96572254318E+03  0.16192342250E+04  0.19663238031E+04  0.10100000352E+00 0.  1.
</event>
<event>
 5   0  0.1187925E-07  0.3421916E+04  0.7818609E-02  0.8132548E-01
       -1   -1    0    0    0  501  0.00000000000E+00  0.00000000000E+00  0.13251569778E+04  0.13251569778E+04  0.50400001928E-02 0. -1.
        1   -1    0    0  501    0  0.00000000000E+00  0.00000000000E+00 -0.22090794296E+04  0.22090794296E+04  0.50400001928E-02 0.  1.
    10030    2    1    2    0    0  0.00000000000E+00  0.00000000000E+00 -0.88392245182E+03  0.35342364073E+04  0.34219158497E+04 0.  0.
        4    1    3    3  502    0  0.69679534137E+03  0.71432513251E+03 -0.18773974027E+04  0.21261248231E+04  0.12699999809E+01 0.  1.
       -4    1    3    3    0  502 -0.69679534137E+03 -0.71432513251E+03  0.99347495092E+03  0.14081115842E+04  0.12699999809E+01 0. -1.
</event>
<event>
 5   0  0.1187925E-07  0.3285648E+04  0.7818609E-02  0.8166557E-01
        1   -1    0    0  501    0  0.00000000000E+00  0.00000000000E+00  0.18150745653E+04  0.18150745653E+04  0.50400001928E-02 0. -1.
       -1   -1    0    0    0  501  0.00000000000E+00  0.00000000000E+00 -0.14869198613E+04  0.14869198613E+04  0.50400001928E-02 0.  1.
    10030    2    1    2    0    0  0.00000000000E+00  0.00000000000E+00  0.32815470403E+03  0.33019944267E+04  0.32856478332E+04 0.  0.
        4    1    3    3  502    0  0.90149527492E+03  0.82517357603E+03 -0.93922959368E+03  0.15413497344E+04  0.12699999809E+01 0.  1.
       -4    1    3    3    0  502 -0.90149527492E+03 -0.82517357603E+03  0.12673842977E+04  0.17606446922E+04  0.12699999809E+01 0. -1.
</event>
<event>
 5   0  0.1187925E-07  0.3764261E+04  0.7818609E-02  0.8053868E-01
        1   -1    0    0  501    0  0.00000000000E+00  0.00000000000E+00  0.12544384923E+04  0.12544384923E+04  0.50400001928E-02 0. -1.
       -1   -1    0    0    0  501  0.00000000000E+00  0.00000000000E+00 -0.28239044242E+04  0.28239044243E+04  0.50400001928E-02 0.  1.
    10030    2    1    2    0    0  0.00000000000E+00  0.00000000000E+00 -0.15694659319E+04  0.40783429166E+04  0.37642605693E+04 0.  0.
        4    1    3    3  502    0  0.74213359106E+03  0.86438796152E+03  0.83843071282E+03  0.14145304833E+04  0.12699999809E+01 0. -1.
       -4    1    3    3    0  502 -0.74213359106E+03 -0.86438796152E+03 -0.24078966448E+04  0.26638124333E+04  0.12699999809E+01 0.  1.
</event>
<event>
 5   0  0.1187925E-07  0.3485138E+04  0.7818609E-02  0.8117321E-01
        1   -1    0    0  501    0  0.00000000000E+00  0.00000000000E+00  0.21139394824E+04  0.21139394824E+04  0.50400001928E-02 0.  1.
       -1   -1    0    0    0  501  0.00000000000E+00  0.00000000000E+00 -0.14364401030E+04  0.14364401030E+04  0.50400001928E-02 0. -1.
    10030    2    1    2    0    0  0.00000000000E+00  0.00000000000E+00  0.67749937935E+03  0.35503795854E+04  0.34851384179E+04 0.  0.
        3    1    3    3  502    0 -0.14479238877E+04 -0.46711271394E+03  0.12042836693E+04  0.19403548743E+04  0.10100000352E+00 0. -1.
       -3    1    3    3    0  502  0.14479238877E+04  0.46711271394E+03 -0.52678428993E+03  0.16100247111E+04  0.10100000352E+00 0.  1.
</event>
<event>
 5   0  0.3832389E-07  0.3811018E+04  0.7818609E-02  0.8043795E-01
       -2   -1    0    0    0  501  0.00000000000E+00  0.00000000000E+00  0.19124472741E+04  0.19124472741E+04  0.25500000920E-02 0. -1.
        2   -1    0    0  501    0  0.00000000000E+00  0.00000000000E+00 -0.18985960008E+04  0.18985960008E+04  0.25500000920E-02 0.  1.
    10030    2    1    2    0    0  0.00000000000E+00  0.00000000000E+00  0.13851273335E+02  0.38110432750E+04  0.38110181036E+04 0.  0.
        5    1    3    3  502    0 -0.78805144052E+03  0.17336918592E+04 -0.58114172616E+02  0.19052852497E+04  0.46999998093E+01 0. -1.
       -5    1    3    3    0  502  0.78805144052E+03 -0.17336918592E+04  0.71965445950E+02  0.19057580253E+04  0.46999998093E+01 0.  1.
</event>
<event>
 5   0  0.3665303E-07  0.3859295E+04  0.7818609E-02  0.8033549E-01
        2   -1    0    0  501    0  0.00000000000E+00  0.00000000000E+00  0.15315060043E+04  0.15315060043E+04  0.25500000920E-02 0. -1.
       -2   -1    0    0    0  501  0.00000000000E+00  0.00000000000E+00 -0.24312926479E+04  0.24312926479E+04  0.25500000920E-02 0.  1.
    10030    2    1    2    0    0  0.00000000000E+00  0.00000000000E+00 -0.89978664354E+03  0.39627986522E+04  0.38592949038E+04 0.  0.
        2    1    3    3  502    0  0.62681796497E+03  0.14163125377E+03 -0.23181907937E+04  0.24056119241E+04  0.25500000920E-02 0.  1.
       -2    1    3    3    0  502 -0.62681796497E+03 -0.14163125377E+03  0.14184041501E+04  0.15571867282E+04  0.25500000920E-02 0. -1.
</event>
<event>
 5   0  0.1187925E-07  0.3898718E+04  0.7818609E-02  0.8025296E-01
        1   -1    0    0  501    0  0.00000000000E+00  0.00000000000E+00  0.14366325123E+04  0.14366325123E+04  0.50400001928E-02 0.  1.
       -1   -1    0    0    0  501  0.00000000000E+00  0.00000000000E+00 -0.26450751035E+04  0.26450751035E+04  0.50400001928E-02 0. -1.
    10030    2    1    2    0    0  0.00000000000E+00  0.00000000000E+00 -0.12084425912E+04  0.40817076158E+04  0.38987181951E+04 0.  0.
        2    1    3    3  502    0  0.10709225950E+04 -0.14828778757E+04 -0.13097961294E+04  0.22497484081E+04  0.25500000920E-02 0. -1.
       -2    1    3    3    0  502 -0.10709225950E+04  0.14828778757E+04  0.10135353827E+03  0.18319592077E+04  0.25500000920E-02 0.  1.
</event>
<event>
 5   0  0.1187925E-07  0.3918177E+04  0.7818609E-02  0.8021259E-01
        1   -1    0    0  501    0  0.00000000000E+00  0.00000000000E+00  0.14322007417E+04  0.14322007417E+04  0.50400001928E-02 0.  1.
       -1   -1    0    0    0  501  0.00000000000E+00  0.00000000000E+00 -0.26798115037E+04  0.26798115037E+04  0.50400001928E-02 0. -1.
    10030    2    1    2    0    0  0.00000000000E+00  0.00000000000E+00 -0.12476107620E+04  0.41120122454E+04  0.39181771391E+04 0.  0.
        1    1    3    3  502    0  0.63962500335E+03  0.14587841088E+04  0.57316961689E+03  0.16928362681E+04  0.50400001928E-02 0.  1.
       -1    1    3    3    0  502 -0.63962500335E+03 -0.14587841088E+04 -0.18207803789E+04  0.24191759773E+04  0.50400001928E-02 0. -1.
</event>
<event>
 5   0  0.1187925E-07  0.2979027E+04  0.7818609E-02  0.8249745E-01
       -1   -1    0    0    0  501  0.00000000000E+00  0.00000000000E+00  0.12235258048E+04  0.12235258048E+04  0.50400001928E-02 0.  1.
        1   -1    0    0  501    0  0.00000000000E+00  0.00000000000E+00 -0.18133255054E+04  0.18133255054E+04  0.50400001928E-02 0. -1.
    10030    2    1    2    0    0  0.00000000000E+00  0.00000000000E+00 -0.58979970055E+03  0.30368513102E+04  0.29790270548E+04 0.  0.
        3    1    3    3  502    0 -0.52997781429E+03  0.13558792380E+04 -0.61624148124E+03  0.15808347685E+04  0.10100000352E+00 0.  1.
       -3    1    3    3    0  502  0.52997781429E+03 -0.13558792380E+04  0.26441780695E+02  0.14560165417E+04  0.10100000352E+00 0. -1.
</event>
<event>
 5   0  0.1187925E-07  0.2814918E+04  0.7818609E-02  0.8298652E-01
        1   -1    0    0  501    0  0.00000000000E+00  0.00000000000E+00  0.20146048243E+04  0.20146048243E+04  0.50400001928E-02 0.  1.
       -1   -1    0    0    0  501  0.00000000000E+00  0.00000000000E+00 -0.98328971013E+03  0.98328971014E+03  0.50400001928E-02 0. -1.
    10030    2    1    2    0    0  0.00000000000E+00  0.00000000000E+00  0.10313151142E+04  0.29978945344E+04  0.28149175432E+04 0.  0.
        1    1    3    3  502    0  0.11836763905E+04  0.28912956889E+03  0.12659021890E+04  0.17570412793E+04  0.50400001928E-02 0.  1.
       -1    1    3    3    0  502 -0.11836763905E+04 -0.28912956889E+03 -0.23458707487E+03  0.12408532551E+04  0.50400001928E-02 0. -1.
</event>
<event>
 5   0  0.1187925E-07  0.3839996E+04  0.7818609E-02  0.8037626E-01
        1   -1    0    0  501    0  0.00000000000E+00  0.00000000000E+00  0.24552691269E+04  0.24552691270E+04  0.50400001928E-02 0.  1.
       -1   -1    0    0    0  501  0.00000000000E+00  0.00000000000E+00 -0.15014206891E+04  0.15014206891E+04  0.50400001928E-02 0. -1.
    10030    2    1    2    0    0  0.00000000000E+00  0.00000000000E+00  0.95384843784E+03  0.39566898161E+04  0.38399957628E+04 0.  0.
        4    1    3    3  502    0  0.92175609521E+03 -0.38330950298E+02 -0.12580768618E+04  0.15600841528E+04  0.12699999809E+01 0. -1.
       -4    1    3    3    0  502 -0.92175609521E+03  0.38330950298E+02  0.22119252997E+04  0.23966056632E+04  0.12699999809E+01 0.  1.
</event>
<event>
 5   0  0.1187925E-07  0.3804288E+04  0.7818609E-02  0.8045235E-01
       -1   -1    0    0    0  501  0.00000000000E+00  0.00000000000E+00  0.12378654953E+04  0.12378654953E+04  0.50400001928E-02 0.  1.
        1   -1    0    0  501    0  0.00000000000E+00  0.00000000000E+00 -0.29228957796E+04  0.29228957796E+04  0.50400001928E-02 0. -1.
    10030    2    1    2    0    0  0.00000000000E+00  0.00000000000E+00 -0.16850302843E+04  0.41607612750E+04  0.38042880186E+04 0.  0.
        4    1    3    3  502    0 -0.44811785104E+03 -0.11425526661E+03 -0.28604746646E+04  0.28976163987E+04  0.12699999809E+01 0. -1.
       -4    1    3    3    0  502  0.44811785104E+03  0.11425526661E+03  0.11754443803E+04  0.12631448763E+04  0.12699999809E+01 0.  1.
</event>
<event>
 5   0  0.1187925E-07  0.3892598E+04  0.7818609E-02  0.8026570E-01
       -1   -1    0    0    0  501  0.00000000000E+00  0.00000000000E+00  0.34009432327E+04  0.34009432327E+04  0.50400001928E-02 0. -1.
        1   -1    0    0  501    0  0.00000000000E+00  0.00000000000E+00 -0.11138323969E+04  0.11138323970E+04  0.50400001928E-02 0.  1.
    10030    2    1    2    0    0  0.00000000000E+00  0.00000000000E+00  0.22871108357E+04  0.45147756296E+04  0.38925984909E+04 0.  0.
        3    1    3    3  502    0  0.13834654296E+04  0.82653811312E+03  0.24092860824E+04  0.28985860837E+04  0.10100000352E+00 0. -1.
       -3    1    3    3    0  502 -0.13834654296E+04 -0.82653811312E+03 -0.12217524664E+03  0.16161895460E+04  0.10100000352E+00 0.  1.
</event>
<event>
 5   0  0.3665303E-07  0.3901199E+04  0.7818609E-02  0.8024780E-01
       -2   -1    0    0    0  501  0.00000000000E+00  0.00000000000E+00  0.14553230546E+04  0.14553230546E+04  0.25500000920E-02 0.  1.
        2   -1    0    0  501    0  0.00000000000E+00  0.00000000000E+00 -0.26144288274E+04  0.26144288274E+04  0.25500000920E-02 0. -1.
    10030    2    1    2    0    0  0.00000000000E+00  0.00000000000E+00 -0.11591057729E+04  0.40697518820E+04  0.39011990706E+04 0.  0.
        2    1    3    3  502    0  0.12722194666E+04 -0.14295016850E+04 -0.97379772865E+03  0.21471607892E+04  0.25500000920E-02 0.  1.
       -2    1    3    3    0  502 -0.12722194666E+04  0.14295016850E+04 -0.18530804422E+03  0.19225910927E+04  0.25500000920E-02 0. -1.
</event>
<event>
 5   0  0.1187925E-07  0.3968962E+04  0.7818609E-02  0.8010837E-01
        3   -1    0    0  501    0  0.00000000000E+00  0.00000000000E+00  0.22818224591E+04  0.22818224613E+04  0.10100000352E+00 0. -1.
       -3   -1    0    0    0  501  0.00000000000E+00  0.00000000000E+00 -0.17258855113E+04  0.17258855143E+04  0.10100000352E+00 0.  1.
    10030    2    1    2    0    0  0.00000000000E+00  0.00000000000E+00  0.55593694775E+03  0.40077079756E+04  0.39689617443E+04 0.  0.
        4    1    3    3  502    0  0.99281332005E+03  0.17110420718E+04  0.43704837540E+03  0.20259210634E+04  0.12699999809E+01 0.  1.
       -4    1    3    3    0  502 -0.99281332005E+03 -0.17110420718E+04  0.11888857235E+03  0.19817869122E+04  0.12699999809E+01 0. -1.
</event>
<event>
 5   0  0.3680814E-07  0.3888624E+04  0.7818609E-02  0.8027399E-01
        2   -1    0    0  501    0  0.00000000000E+00  0.00000000000E+00  0.22900440350E+04  0.22900440350E+04  0.25500000920E-02 0.  1.
       -2   -1    0    0    0  501  0.00000000000E+00  0.00000000000E+00 -0.16507759339E+04  0.16507759339E+04  0.25500000920E-02 0. -1.
    10030    2    1    2    0    0  0.00000000000E+00  0.00000000000E+00  0.63926810107E+03  0.39408199689E+04  0.38886242197E+04 0.  0.
        1    1    3    3  502    0 -0.85667672921E+03 -0.52708182359E+03  0.20058912196E+04  0.22439496099E+04  0.50400001928E-02 0.  1.
       -1    1    3    3    0  502  0.85667672921E+03  0.52708182359E+03 -0.13666231185E+04  0.16968703590E+04  0.50400001928E-02 0. -1.
</event>
<event>
 5   0  0.1187925E-07  0.3906160E+04  0.7818609E-02  0.8023749E-01
        1   -1    0    0  501    0  0.00000000000E+00  0.00000000000E+00  0.23660359694E+04  0.23660359694E+04  0.50400001928E-02 0.  1.
       -1   -1    0    0    0  501  0.00000000000E+00  0.00000000000E+00 -0.16121993319E+04  0.16121993319E+04  0.50400001928E-02 0. -1.
    10030    2    1    2    0    0  0.00000000000E+00  0.00000000000E+00  0.75383663744E+03  0.39782353013E+04  0.39061600629E+04 0.  0.
        3    1    3    3  502    0  0.55119074191E+01  0.77919360922E+03  0.22008707582E+04  0.23347387790E+04  0.10100000352E+00 0.  1.
       -3    1    3    3    0  502 -0.55119074191E+01 -0.77919360922E+03 -0.14470341208E+04  0.16434965223E+04  0.10100000352E+00 0. -1.
</event>
<event>
 5   0  0.3680814E-07  0.3897624E+04  0.7818609E-02  0.8025524E-01
       -2   -1    0    0    0  501  0.00000000000E+00  0.00000000000E+00  0.20615045542E+04  0.20615045542E+04  0.25500000920E-02 0. -1.
        2   -1    0    0  501    0  0.00000000000E+00  0.00000000000E+00 -0.18422796565E+04  0.18422796565E+04  0.25500000920E-02 0.  1.
    10030    2    1    2    0    0  0.00000000000E+00  0.00000000000E+00  0.21922489770E+03  0.39037842108E+04  0.38976238413E+04 0.  0.
        1    1    3    3  502    0 -0.11749994439E+04 -0.71113321219E+03 -0.12751550654E+04  0.18741276849E+04  0.50400001928E-02 0.  1.
       -1    1    3    3    0  502  0.11749994439E+04  0.71113321219E+03  0.14943799631E+04  0.20296565258E+04  0.50400001928E-02 0. -1.
</event>
<event>
 5   0  0.1187925E-07  0.3916233E+04  0.7818609E-02  0.8021662E-01
       -1   -1    0    0    0  501  0.00000000000E+00  0.00000000000E+00  0.16833717269E+04  0.16833717269E+04  0.50400001928E-02 0.  1.
        1   -1    0    0  501    0  0.00000000000E+00  0.00000000000E+00 -0.22777021667E+04  0.22777021667E+04  0.50400001928E-02 0. -1.
    10030    2    1    2    0    0  0.00000000000E+00  0.00000000000E+00 -0.59433043986E+03  0.39610738936E+04  0.39162325925E+04 0.  0.
        1    1    3    3  502    0 -0.37076791953E+02  0.15113371424E+04 -0.15558842164E+04  0.21693986128E+04  0.50400001928E-02 0. -1.
       -1    1    3    3    0  502  0.37076791953E+02 -0.15113371424E+04  0.96155377658E+03  0.17916752807E+04  0.50400001928E-02 0.  1.
</event>
<event>
 5   0  0.3832389E-07  0.3950176E+04  0.7818609E-02  0.8014674E-01
        2   -1    0    0  501    0  0.00000000000E+00  0.00000000000E+00  0.20651915357E+04  0.20651915357E+04  0.25500000920E-02 0. -1.
       -2   -1    0    0    0  501  0.00000000000E+00  0.00000000000E+00 -0.18889154432E+04  0.18889154432E+04  0.25500000920E-02 0.  1.
    10030    2    1    2    0    0  0.00000000000E+00  0.00000000000E+00  0.17627609250E+03  0.39541069789E+04  0.39501757859E+04 0.  0.
        5    1    3    3  502    0 -0.15944406365E+03 -0.10608766147E+04  0.17481214568E+04  0.20510563909E+04  0.46999998093E+01 0. -1.
       -5    1    3    3    0  502  0.15944406365E+03  0.10608766147E+04 -0.15718453643E+04  0.19030505880E+04  0.46999998093E+01 0.  1.
</event>
<event>
 5   0  0.1187925E-07  0.3548647E+04  0.7818609E-02  0.8102357E-01
       -1   -1    0    0    0  501  0.00000000000E+00  0.00000000000E+00  0.24713499377E+04  0.24713499377E+04  0.50400001928E-02 0. -1.
        1   -1    0    0  501    0  0.00000000000E+00  0.00000000000E+00 -0.12738880946E+04  0.12738880946E+04  0.50400001928E-02 0.  1.
    10030    2    1    2    0    0  0.00000000000E+00  0.00000000000E+00  0.11974618431E+04  0.37452380324E+04  0.35486466509E+04 0.  0.
        2    1    3    3  502    0 -0.83698410184E+03 -0.69057241765E+03  0.20803511879E+04  0.23463362324E+04  0.25500000920E-02 0. -1.
       -2    1    3    3    0  502  0.83698410184E+03  0.69057241765E+03 -0.88288934474E+03  0.13989017999E+04  0.25500000920E-02 0.  1.
</event>
<event>
 5   0  0.3810833E-07  0.3509700E+04  0.7818609E-02  0.8111495E-01
        2   -1    0    0  501    0  0.00000000000E+00  0.00000000000E+00  0.21616269078E+04  0.21616269079E+04  0.25500000920E-02 0.  1.
       -2   -1    0    0    0  501  0.00000000000E+00  0.00000000000E+00 -0.14246203968E+04  0.14246203968E+04  0.25500000920E-02 0. -1.
    10030    2    1    2    0    0  0.00000000000E+00  0.00000000000E+00  0.73700651106E+03  0.35862473046E+04  0.35096995787E+04 0.  0.
        3    1    3    3  502    0  0.42502586918E+03  0.20053653127E+03  0.20961291775E+04  0.21481665272E+04  0.10100000352E+00 0.  1.
       -3    1    3    3    0  502 -0.42502586918E+03 -0.20053653127E+03 -0.13591226664E+04  0.14380807774E+04  0.10100000352E+00 0. -1.
</event>
<event>
 5   0  0.3665303E-07  0.3645804E+04  0.7818609E-02  0.8080080E-01
       -2   -1    0    0    0  501  0.00000000000E+00  0.00000000000E+00  0.12938231998E+04  0.12938231998E+04  0.25500000920E-02 0. -1.
        2   -1    0    0  501    0  0.00000000000E+00  0.00000000000E+00 -0.25683354170E+04  0.25683354170E+04  0.25500000920E-02 0.  1.
    10030    2    1    2    0    0  0.00000000000E+00  0.00000000000E+00 -0.12745122172E+04  0.38621586168E+04  0.36458041348E+04 0.  0.
        2    1    3    3  502    0  0.50678840193E+03 -0.16201931421E+04 -0.13408321377E+04  0.21632593750E+04  0.25500000920E-02 0.  1.
       -2    1    3    3    0  502 -0.50678840193E+03  0.16201931421E+04  0.66319920523E+02  0.16988992418E+04  0.25500000920E-02 0. -1.
</event>
<event>
 5   0  0.1187925E-07  0.3838016E+04  0.7818609E-02  0.8038046E-01
       -1   -1    0    0    0  501  0.00000000000E+00  0.00000000000E+00  0.25629530583E+04  0.25629530583E+04  0.50400001928E-02 0. -1.
        1   -1    0    0  501    0  0.00000000000E+00  0.00000000000E+00 -0.14368547802E+04  0.14368547802E+04  0.50400001928E-02 0.  1.
    10030    2    1    2    0    0  0.00000000000E+00  0.00000000000E+00  0.11260982781E+04  0.39998078385E+04  0.38380158172E+04 0.  0.
        2    1    3    3  502    0 -0.14877027370E+04  0.11827005647E+04  0.83986110430E+03  0.20778370326E+04  0.25500000920E-02 0. -1.
       -2    1    3    3    0  502  0.14877027370E+04 -0.11827005647E+04  0.28623717384E+03  0.19219708060E+04  0.25500000920E-02 0.  1.
</event>
<event>
 5   0  0.3832389E-07  0.3770333E+04  0.7818609E-02  0.8052551E-01
       -2   -1    0    0    0  501  0.00000000000E+00  0.00000000000E+00  0.14262733509E+04  0.14262733509E+04  0.25500000920E-02 0. -1.
        2   -1    0    0  501    0  0.00000000000E+00  0.00000000000E+00 -0.24917057461E+04  0.24917057461E+04  0.25500000920E-02 0.  1.
    10030    2    1    2    0    0  0.00000000000E+00  0.00000000000E+00 -0.10654323952E+04  0.39179790970E+04  0.37703334091E+04 0.  0.
        5    1    3    3  502    0 -0.10618709750E+03 -0.18924514263E+03  0.14132453983E+04  0.14298160964E+04  0.46999998093E+01 0. -1.
       -5    1    3    3    0  502  0.10618709750E+03  0.18924514263E+03 -0.24786777935E+04  0.24881630007E+04  0.46999998093E+01 0.  1.
</event>
<event>
 5   0  0.3832389E-07  0.3131579E+04  0.7818609E-02  0.8207124E-01
        2   -1    0    0  501    0  0.00000000000E+00  0.00000000000E+00  0.18033180456E+04  0.18033180456E+04  0.25500000920E-02 0.  1.
       -2   -1    0    0    0  501  0.00000000000E+00  0.00000000000E+00 -0.13595473735E+04  0.13595473735E+04  0.25500000920E-02 0. -1.
    10030    2    1    2    0    0  0.00000000000E+00  0.00000000000E+00  0.44377067212E+03  0.31628654190E+04  0.31315787152E+04 0.  0.
        5    1    3    3  502    0 -0.26716626182E+03 -0.13925858225E+04 -0.44882845369E+03  0.14873271850E+04  0.46999998093E+01 0. -1.
       -5    1    3    3    0  502  0.26716626182E+03  0.13925858225E+04  0.89259912581E+03  0.16755382341E+04  0.46999998093E+01 0.  1.
</event>
<event>
 5   0  0.3810833E-07  0.3891091E+04  0.7818609E-02  0.8026885E-01
       -2   -1    0    0    0  501  0.00000000000E+00  0.00000000000E+00  0.14383971574E+04  0.14383971574E+04  0.25500000920E-02 0. -1.
        2   -1    0    0  501    0  0.00000000000E+00  0.00000000000E+00 -0.26315034872E+04  0.26315034872E+04  0.25500000920E-02 0.  1.
    10030    2    1    2    0    0  0.00000000000E+00  0.00000000000E+00 -0.11931063297E+04  0.40699006446E+04  0.38910909194E+04 0.  0.
        3    1    3    3  502    0  0.13750761907E+04 -0.76794958583E+03  0.59810996688E+03  0.16847304352E+04  0.10100000352E+00 0. -1.
       -3    1    3    3    0  502 -0.13750761907E+04  0.76794958583E+03 -0.17912162966E+04  0.23851702094E+04  0.10100000352E+00 0.  1.
</event>
<event>
 5   0  0.3680814E-07  0.2804944E+04  0.7818609E-02  0.8301735E-01
        2   -1    0    0  501    0  0.00000000000E+00  0.00000000000E+00  0.20713902139E+04  0.20713902139E+04  0.25500000920E-02 0.  1.
       -2   -1    0    0    0  501  0.00000000000E+00  0.00000000000E+00 -0.94956872832E+03  0.94956872832E+03  0.25500000920E-02 0. -1.
    10030    2    1    2    0    0  0.00000000000E+00  0.00000000000E+00  0.11218214856E+04  0.30209589422E+04  0.28049437579E+04 0.  0.
        1    1    3    3  502    0  0.11220173359E+04  0.50335868826E+03  0.12871034111E+04  0.17801483258E+04  0.50400001928E-02 0.  1.
       -1    1    3    3    0  502 -0.11220173359E+04 -0.50335868826E+03 -0.16528192547E+03  0.12408106165E+04  0.50400001928E-02 0. -1.
</event>
<event>
 5   0  0.1187925E-07  0.3990324E+04  0.7818609E-02  0.8006501E-01
        1   -1    0    0  501    0  0.00000000000E+00  0.00000000000E+00  0.33963482344E+04  0.33963482345E+04  0.50400001928E-02 0.  1.
       -1   -1    0    0    0  501  0.00000000000E+00  0.00000000000E+00 -0.11720446571E+04  0.11720446571E+04  0.50400001928E-02 0. -1.
    10030    2    1    2    0    0  0.00000000000E+00  0.00000000000E+00  0.22243035774E+04  0.45683928915E+04  0.39903241982E+04 0.  0.
        5    1    3    3  502    0  0.59032023476E+03 -0.18812471108E+04  0.14614415690E+04  0.24542620523E+04  0.46999998093E+01 0.  1.
       -5    1    3    3    0  502 -0.59032023476E+03  0.18812471108E+04  0.76286200838E+03  0.21141308392E+04  0.46999998093E+01 0. -1.
</event>
<event>
 5   0  0.1187925E-07  0.3741439E+04  0.7818609E-02  0.8058840E-01
        1   -1    0    0  501    0  0.00000000000E+00  0.00000000000E+00  0.13295631675E+04  0.13295631675E+04  0.50400001928E-02 0. -1.
       -1   -1    0    0    0  501  0.00000000000E+00  0.00000000000E+00 -0.26321367203E+04  0.26321367203E+04  0.50400001928E-02 0.  1.
    10030    2    1    2    0    0  0.00000000000E+00  0.00000000000E+00 -0.13025735528E+04  0.39616998878E+04  0.37414393140E+04 0.  0.
        1    1    3    3  502    0  0.17311392857E+04  0.22269637052E+03 -0.13640845273E+04  0.22152118403E+04  0.50400001928E-02 0. -1.
       -1    1    3    3    0  502 -0.17311392857E+04 -0.22269637052E+03  0.61510974502E+02  0.17464880475E+04  0.50400001928E-02 0.  1.
</event>
<event>
 5   0  0.3665303E-07  0.3904073E+04  0.7818609E-02  0.8024183E-01
       -2   -1    0    0    0  501  0.00000000000E+00  0.00000000000E+00  0.12115931986E+04  0.12115931986E+04  0.25500000920E-02 0. -1.
        2   -1    0    0  501    0  0.00000000000E+00  0.00000000000E+00 -0.31449875573E+04  0.31449875573E+04  0.25500000920E-02 0.  1.
    10030    2    1    2    0    0  0.00000000000E+00  0.00000000000E+00 -0.19333943587E+04  0.43565807559E+04  0.39040725066E+04 0.  0.
        2    1    3    3  502    0  0.13725154805E+04 -0.57864403347E+03 -0.23746061699E+04  0.28031022321E+04  0.25500000920E-02 0.  1.
       -2    1    3    3    0  502 -0.13725154805E+04  0.57864403347E+03  0.44121181118E+03  0.15534785238E+04  0.25500000920E-02 0. -1.
</event>
<event>
 5   0  0.1187925E-07  0.3855912E+04  0.7818609E-02  0.8034262E-01
       -1   -1    0    0    0  501  0.00000000000E+00  0.00000000000E+00  0.28813845498E+04  0.28813845498E+04  0.50400001928E-02 0.  1.
        1   -1    0    0  501    0  0.00000000000E+00  0.00000000000E+00 -0.12900099607E+04  0.12900099607E+04  0.50400001928E-02 0. -1.
    10030    2    1    2    0    0  0.00000000000E+00  0.00000000000E+00  0.15913745891E+04  0.41713945105E+04  0.38559122240E+04 0.  0.
        2    1    3    3  502    0 -0.77006389575E+01  0.15703372904E+04 -0.41430368487E+03  0.16240892983E+04  0.25500000920E-02 0. -1.
       -2    1    3    3    0  502  0.77006389575E+01 -0.15703372904E+04  0.20056782739E+04  0.25473052122E+04  0.25500000920E-02 0.  1.
</event>
<event>
 5   0  0.3680814E-07  0.4095248E+04  0.7818609E-02  0.7985603E-01
        2   -1    0    0  501    0  0.00000000000E+00  0.00000000000E+00  0.21807259731E+04  0.21807259731E+04  0.25500000920E-02 0.  1.
       -2   -1    0    0    0  501  0.00000000000E+00  0.00000000000E+00 -0.19226463152E+04  0.19226463152E+04  0.25500000920E-02 0. -1.
    10030    2    1    2    0    0  0.00000000000E+00  0.00000000000E+00  0.25807965787E+03  0.41033722883E+04  0.40952483474E+04 0.  0.
        1    1    3    3  502    0 -0.15369390756E+04 -0.91879271182E+03  0.11241882695E+04  0.21142755343E+04  0.50400001928E-02 0. -1.
       -1    1    3    3    0  502  0.15369390756E+04  0.91879271182E+03 -0.86610861168E+03  0.19890967540E+04  0.50400001928E-02 0.  1.
</event>
<event>
 5   0  0.3832389E-07  0.3941290E+04  0.7818609E-02  0.8016496E-01
       -2   -1    0    0    0  501  0.00000000000E+00  0.00000000000E+00  0.19682378262E+04  0.19682378262E+04  0.25500000920E-02 0. -1.
        2   -1    0    0  501    0  0.00000000000E+00  0.00000000000E+00 -0.19730554396E+04  0.19730554396E+04  0.25500000920E-02 0.  1.
    10030    2    1    2    0    0  0.00000000000E+00  0.00000000000E+00 -0.48176134099E+01  0.39412932657E+04  0.39412903213E+04 0.  0.
        5    1    3    3  502    0 -0.47092745183E+03 -0.60531069178E+03 -0.18176915627E+04  0.19728655316E+04  0.46999998093E+01 0.  1.
       -5    1    3    3    0  502  0.47092745183E+03  0.60531069178E+03  0.18128739493E+04  0.19684277342E+04  0.46999998093E+01 0. -1.
</event>
<event>
 5   0  0.1187925E-07  0.3876382E+04  0.7818609E-02  0.8029959E-01
        1   -1    0    0  501    0  0.00000000000E+00  0.00000000000E+00  0.13807603558E+04  0.13807603558E+04  0.50400001928E-02 0. -1.
       -1   -1    0    0    0  501  0.00000000000E+00  0.00000000000E+00 -0.27206637184E+04  0.27206637184E+04  0.50400001928E-02 0.  1.
    10030    2    1    2    0    0  0.00000000000E+00  0.00000000000E+00 -0.13399033627E+04  0.41014240742E+04  0.38763821297E+04 0.  0.
        5    1    3    3  502    0 -0.40755819782E+03  0.18837415933E+04 -0.45317583521E+03  0.19798930533E+04  0.46999998093E+01 0.  1.
       -5    1    3    3    0  502  0.40755819782E+03 -0.18837415933E+04 -0.88672752747E+03  0.21215310209E+04  0.46999998093E+01 0. -1.
</event>
<event>
 5   0  0.1187925E-07  0.3864288E+04  0.7818609E-02  0.8032498E-01
        1   -1    0    0  501    0  0.00000000000E+00  0.00000000000E+00  0.26903272234E+04  0.26903272234E+04  0.50400001928E-02 0. -1.
       -1   -1    0    0    0  501  0.00000000000E+00  0.00000000000E+00 -0.13876303681E+04  0.13876303681E+04  0.50400001928E-02 0.  1.
    10030    2    1    2    0    0  0.00000000000E+00  0.00000000000E+00  0.13026968554E+04  0.40779575915E+04  0.38642876473E+04 0.  0.
        5    1    3    3  502    0 -0.48344538236E+02 -0.66680993924E+03  0.25643673300E+04  0.26500895423E+04  0.46999998093E+01 0. -1.
       -5    1    3    3    0  502  0.48344538236E+02  0.66680993924E+03 -0.12616704746E+04  0.14278680492E+04  0.46999998093E+01 0.  1.
</event>
<event>
 5   0  0.3680814E-07  0.3940351E+04  0.7818609E-02  0.8016689E-01
        2   -1    0    0  501    0  0.00000000000E+00  0.00000000000E+00  0.18629421347E+04  0.18629421347E+04  0.25500000920E-02 0.  1.
       -2   -1    0    0    0  501  0.00000000000E+00  0.00000000000E+00 -0.20835812464E+04  0.20835812464E+04  0.25500000920E-02 0. -1.
    10030    2    1    2    0    0  0.00000000000E+00  0.00000000000E+00 -0.22063911167E+03  0.39465233811E+04  0.39403508956E+04 0.  0.
        1    1    3    3  502    0 -0.18207219361E+04  0.24653095299E+03  0.60198042557E+03  0.19334389859E+04  0.50400001928E-02 0.  1.
       -1    1    3    3    0  502  0.18207219361E+04 -0.24653095299E+03 -0.82261953724E+03  0.20130843952E+04  0.50400001928E-02 0. -1.
</event>
<event>
 5   0  0.3610483E-07  0.3852926E+04  0.7818609E-02  0.8034891E-01
       -2   -1    0    0    0  501  0.00000000000E+00  0.00000000000E+00  0.15776442996E+04  0.15776442996E+04  0.25500000920E-02 0.  1.
        2   -1    0    0  501    0  0.00000000000E+00  0.00000000000E+00 -0.23524062856E+04  0.23524062856E+04  0.25500000920E-02 0. -1.
    10030    2    1    2    0    0  0.00000000000E+00  0.00000000000E+00 -0.77476198601E+03  0.39300505851E+04  0.38529263511E+04 0.  0.
        4    1    3    3  502    0 -0.17318347481E+04 -0.71218904700E+03  0.74219179838E+02  0.18740263960E+04  0.12699999809E+01 0. -1.
       -4    1    3    3    0  502  0.17318347481E+04  0.71218904700E+03 -0.84898116585E+03  0.20560241891E+04  0.12699999809E+01 0.  1.
</event>
<event>
 5   0  0.1187925E-07  0.3347231E+04  0.7818609E-02  0.8150980E-01
        4   -1    0    0  501    0  0.00000000000E+00  0.00000000000E+00  0.11075646632E+04  0.11075653913E+04  0.12699999809E+01 0.  1.
       -4   -1    0    0    0  501  0.00000000000E+00  0.00000000000E+00 -0.25289602422E+04  0.25289605611E+04  0.12699999809E+01 0. -1.
    10030    2    1    2    0    0  0.00000000000E+00  0.00000000000E+00 -0.14213955789E+04  0.36365259524E+04  0.33472310363E+04 0.  0.
        5    1    3    3  502    0 -0.28329163371E+03  0.14816402472E+04  0.76835100081E+02  0.15104428803E+04  0.46999998093E+01 0.  1.
       -5    1    3    3    0  502  0.28329163371E+03 -0.14816402472E+04 -0.14982306790E+04  0.21260830721E+04  0.46999998093E+01 0. -1.
</event>
<event>
 5   0  0.1187925E-07  0.3740347E+04  0.7818609E-02  0.8059079E-01
        1   -1    0    0  501    0  0.00000000000E+00  0.00000000000E+00  0.22253409201E+04  0.22253409201E+04  0.50400001928E-02 0. -1.
       -1   -1    0    0    0  501  0.00000000000E+00  0.00000000000E+00 -0.15716915812E+04  0.15716915812E+04  0.50400001928E-02 0.  1.
    10030    2    1    2    0    0  0.00000000000E+00  0.00000000000E+00  0.65364933887E+03  0.37970325013E+04  0.37403473579E+04 0.  0.
        4    1    3    3  502    0  0.41059931188E+03  0.62250873171E+03  0.20678789296E+04  0.21982342451E+04  0.12699999809E+01 0. -1.
       -4    1    3    3    0  502 -0.41059931188E+03 -0.62250873171E+03 -0.14142295907E+04  0.15987982562E+04  0.12699999809E+01 0.  1.
</event>
<event>
 5   0  0.3810833E-07  0.3771993E+04  0.7818609E-02  0.8052192E-01
       -2   -1    0    0    0  501  0.00000000000E+00  0.00000000000E+00  0.16391004587E+04  0.16391004587E+04  0.25500000920E-02 0.  1.
        2   -1    0    0  501    0  0.00000000000E+00  0.00000000000E+00 -0.21700817957E+04  0.21700817957E+04  0.25500000920E-02 0. -1.
    10030    2    1    2    0    0  0.00000000000E+00  0.00000000000E+00 -0.53098133691E+03  0.38091822544E+04  0.37719926123E+04 0.  0.
        3    1    3    3  502    0  0.35107049593E+03 -0.13797505548E+04  0.98364459453E+03  0.17304677937E+04  0.10100000352E+00 0.  1.
       -3    1    3    3    0  502 -0.35107049593E+03  0.13797505548E+04 -0.15146259314E+04  0.20787144607E+04  0.10100000352E+00 0. -1.
</event>
<event>
 5   0  0.1187925E-07  0.3893641E+04  0.7818609E-02  0.8026353E-01
       -1   -1    0    0    0  501  0.00000000000E+00  0.00000000000E+00  0.13564572912E+04  0.13564572912E+04  0.50400001928E-02 0. -1.
        1   -1    0    0  501    0  0.00000000000E+00  0.00000000000E+00 -0.27941238807E+04  0.27941238807E+04  0.50400001928E-02 0.  1.
    10030    2    1    2    0    0  0.00000000000E+00  0.00000000000E+00 -0.14376665895E+04  0.41505811719E+04  0.38936408209E+04 0.  0.
        1    1    3    3  502    0  0.95842210138E+03  0.80696413798E+03 -0.23072458854E+04  0.26254804551E+04  0.50400001928E-02 0.  1.
       -1    1    3    3    0  502 -0.95842210138E+03 -0.80696413798E+03  0.86957929595E+03  0.15251007168E+04  0.50400001928E-02 0. -1.
</event>
<event>
 5   0  0.3810833E-07  0.3884420E+04  0.7818609E-02  0.8028277E-01
       -2   -1    0    0    0  501  0.00000000000E+00  0.00000000000E+00  0.16326465356E+04  0.16326465356E+04  0.25500000920E-02 0. -1.
        2   -1    0    0  501    0  0.00000000000E+00  0.00000000000E+00 -0.23104695774E+04  0.23104695774E+04  0.25500000920E-02 0.  1.
    10030    2    1    2    0    0  0.00000000000E+00  0.00000000000E+00 -0.67782304177E+03  0.39431161130E+04  0.38844202405E+04 0.  0.
        3    1    3    3  502    0  0.20786843419E+01 -0.11585943834E+04 -0.19212585575E+04  0.22435640667E+04  0.10100000352E+00 0.  1.
       -3    1    3    3    0  502 -0.20786843419E+01  0.11585943834E+04  0.12434355158E+04  0.16995520464E+04  0.10100000352E+00 0. -1.
</event>
<event>
 5   0  0.1187925E-07  0.3896846E+04  0.7818609E-02  0.8025685E-01
        1   -1    0    0  501    0  0.00000000000E+00  0.00000000000E+00  0.17293641410E+04  0.17293641410E+04  0.50400001928E-02 0. -1.
       -1   -1    0    0    0  501  0.00000000000E+00  0.00000000000E+00 -0.21952303914E+04  0.21952303914E+04  0.50400001928E-02 0.  1.
    10030    2    1    2    0    0  0.00000000000E+00  0.00000000000E+00 -0.46586625044E+03  0.39245945324E+04  0.38968462737E+04 0.  0.
        2    1    3    3  502    0  0.93306534633E+03 -0.14177049189E+04 -0.11967505480E+04  0.20767065396E+04  0.25500000920E-02 0.  1.
       -2    1    3    3    0  502 -0.93306534633E+03  0.14177049189E+04  0.73088429759E+03  0.18478879928E+04  0.25500000920E-02 0. -1.
</event>
<event>
 5   0  0.3680814E-07  0.3990911E+04  0.7818609E-02  0.8006383E-01
        2   -1    0    0  501    0  0.00000000000E+00  0.00000000000E+00  0.25847359228E+04  0.25847359228E+04  0.25500000920E-02 0.  1.
       -2   -1    0    0    0  501  0.00000000000E+00  0.00000000000E+00 -0.15405219887E+04  0.15405219887E+04  0.25500000920E-02 0. -1.
    10030    2    1    2    0    0  0.00000000000E+00  0.00000000000E+00  0.10442139340E+04  0.41252579115E+04  0.39909109357E+04 0.  0.
        1    1    3    3  502    0 -0.51625351247E+03  0.77165183410E+03  0.23478846551E+04  0.25247824849E+04  0.50400001928E-02 0.  1.
       -1    1    3    3    0  502  0.51625351247E+03 -0.77165183410E+03 -0.13036707211E+04  0.16004754266E+04  0.50400001928E-02 0. -1.
</event>
<event>
 5   0  0.3665303E-07  0.3891564E+04  0.7818609E-02  0.8026786E-01
       -2   -1    0    0    0  501  0.00000000000E+00  0.00000000000E+00  0.14144262740E+04  0.14144262740E+04  0.25500000920E-02 0.  1.
        2   -1    0    0  501    0  0.00000000000E+00  0.00000000000E+00 -0.26767513708E+04  0.26767513708E+04  0.25500000920E-02 0. -1.
    10030    2    1    2    0    0  0.00000000000E+00  0.00000000000E+00 -0.12623250968E+04  0.40911776448E+04  0.38915639365E+04 0.  0.
        2    1    3    3  502    0  0.91389147273E+03  0.15160154045E+04 -0.14804149176E+04  0.23076240290E+04  0.25500000920E-02 0.  1.
       -2    1    3    3    0  502 -0.91389147273E+03 -0.15160154045E+04  0.21808982082E+03  0.17835536159E+04  0.25500000920E-02 0. -1.
</event>
<event>
 5   0  0.1187925E-07  0.3487645E+04  0.7818609E-02  0.8116724E-01
        1   -1    0    0  501    0  0.00000000000E+00  0.00000000000E+00  0.17514780278E+04  0.17514780279E+04  0.50400001928E-02 0. -1.
       -1   -1    0    0    0  501  0.00000000000E+00  0.00000000000E+00 -0.17362008450E+04  0.17362008450E+04  0.50400001928E-02 0.  1.
    10030    2    1    2    0    0  0.00000000000E+00  0.00000000000E+00  0.15277182830E+02  0.34876788729E+04  0.34876454132E+04 0.  0.
        4    1    3    3  502    0  0.29360777561E+03  0.16587855429E+04  0.45835459237E+03  0.17458137211E+04  0.12699999809E+01 0.  1.
       -4    1    3    3    0  502 -0.29360777561E+03 -0.16587855429E+04 -0.44307740954E+03  0.17418651518E+04  0.12699999809E+01 0. -1.
</event>
<event>
 5   0  0.3610483E-07  0.4101541E+04  0.7818609E-02  0.7984370E-01
        2   -1    0    0  501    0  0.00000000000E+00  0.00000000000E+00  0.16993623852E+04  0.16993623852E+04  0.25500000920E-02 0.  1.
       -2   -1    0    0    0  501  0.00000000000E+00  0.00000000000E+00 -0.24748460271E+04  0.24748460271E+04  0.25500000920E-02 0. -1.
    10030    2    1    2    0    0  0.00000000000E+00  0.00000000000E+00 -0.77548364197E+03  0.41742084123E+04  0.41015412945E+04 0.  0.
        4    1    3    3  502    0  0.10254612581E+04 -0.31164240113E+03 -0.21671369839E+04  0.24176798998E+04  0.12699999809E+01 0. -1.
       -4    1    3    3    0  502 -0.10254612581E+04  0.31164240113E+03  0.13916533420E+04  0.17565285125E+04  0.12699999809E+01 0.  1.
</event>
<event>
 5   0  0.3832389E-07  0.3856457E+04  0.7818609E-02  0.8034147E-01
       -2   -1    0    0    0  501  0.00000000000E+00  0.00000000000E+00  0.14032202860E+04  0.14032202860E+04  0.25500000920E-02 0. -1.
        2   -1    0    0  501    0  0.00000000000E+00  0.00000000000E+00 -0.26496662543E+04  0.26496662543E+04  0.25500000920E-02 0.  1.
    10030    2    1    2    0    0  0.00000000000E+00  0.00000000000E+00 -0.12464459683E+04  0.40528865403E+04  0.38564571509E+04 0.  0.
        5    1    3    3  502    0  0.12311264617E+04  0.12465418464E+04  0.22309272539E+03  0.17661629012E+04  0.46999998093E+01 0. -1.
       -5    1    3    3    0  502 -0.12311264617E+04 -0.12465418464E+04 -0.14695386937E+04  0.22867236391E+04  0.46999998093E+01 0.  1.
</event>
<event>
 5   0  0.1187925E-07  0.3957909E+04  0.7818609E-02  0.8013092E-01
       -1   -1    0    0    0  501  0.00000000000E+00  0.00000000000E+00  0.16465195757E+04  0.16465195757E+04  0.50400001928E-02 0. -1.
        1   -1    0    0  501    0  0.00000000000E+00  0.00000000000E+00 -0.23785087187E+04  0.23785087187E+04  0.50400001928E-02 0.  1.
    10030    2    1    2    0    0  0.00000000000E+00  0.00000000000E+00 -0.73198914304E+03  0.40250282944E+04  0.39579091280E+04 0.  0.
        1    1    3    3  502    0  0.18006207348E+04  0.11235900693E+03  0.46106298883E+03  0.18621059735E+04  0.50400001928E-02 0. -1.
       -1    1    3    3    0  502 -0.18006207348E+04 -0.11235900693E+03 -0.11930521319E+04  0.21629223209E+04  0.50400001928E-02 0.  1.
</event>
<event>
 5   0  0.3610483E-07  0.3864228E+04  0.7818609E-02  0.8032511E-01
       -2   -1    0    0    0  501  0.00000000000E+00  0.00000000000E+00  0.13625427776E+04  0.13625427776E+04  0.25500000920E-02 0.  1.
        2   -1    0    0  501    0  0.00000000000E+00  0.00000000000E+00 -0.27397772162E+04  0.27397772162E+04  0.25500000920E-02 0. -1.
    10030    2    1    2    0    0  0.00000000000E+00  0.00000000000E+00 -0.13772344386E+04  0.41023199937E+04  0.38642275595E+04 0.  0.
        4    1    3    3  502    0 -0.12224499022E+04  0.54071976316E+03  0.79243979815E+03  0.15539382460E+04  0.12699999809E+01 0.  1.
       -4    1    3    3    0  502  0.12224499022E+04 -0.54071976316E+03 -0.21696742368E+04  0.25483817477E+04  0.12699999809E+01 0. -1.
</event>
<event>
 5   0  0.1187925E-07  0.3877788E+04  0.7818609E-02  0.8029665E-01
       -1   -1    0    0    0  501  0.00000000000E+00  0.00000000000E+00  0.25323396072E+04  0.25323396073E+04  0.50400001928E-02 0. -1.
        1   -1    0    0  501    0  0.00000000000E+00  0.00000000000E+00 -0.14845206996E+04  0.14845206996E+04  0.50400001928E-02 0.  1.
    10030    2    1    2    0    0  0.00000000000E+00  0.00000000000E+00  0.10478189077E+04  0.40168603068E+04  0.38777883208E+04 0.  0.
        3    1    3    3  502    0  0.79826262253E+03  0.81270229437E+03 -0.11013083706E+04  0.15844836292E+04  0.10100000352E+00 0.  1.
       -3    1    3    3    0  502 -0.79826262253E+03 -0.81270229437E+03  0.21491272782E+04  0.24323766777E+04  0.10100000352E+00 0. -1.
</event>
<event>
 5   0  0.1187925E-07  0.3893630E+04  0.7818609E-02  0.8026355E-01
        1   -1    0    0  501    0  0.00000000000E+00  0.00000000000E+00  0.24004719649E+04  0.24004719649E+04  0.50400001928E-02 0. -1.
       -1   -1    0    0    0  501  0.00000000000E+00  0.00000000000E+00 -0.15788928550E+04  0.15788928550E+04  0.50400001928E-02 0.  1.
    10030    2    1    2    0    0  0.00000000000E+00  0.00000000000E+00  0.82157910994E+03  0.39793648199E+04  0.38936296866E+04 0.  0.
        2    1    3    3  502    0 -0.40369141349E+03 -0.19044201295E+04  0.42864558360E+03  0.19933689632E+04  0.25500000920E-02 0.  1.
       -2    1    3    3    0  502  0.40369141349E+03  0.19044201295E+04  0.39293352634E+03  0.19859958568E+04  0.25500000920E-02 0. -1.
</event>
<event>
 5   0  0.1187925E-07  0.3673946E+04  0.7818609E-02  0.8073760E-01
       -1   -1    0    0    0  501  0.00000000000E+00  0.00000000000E+00  0.13017397415E+04  0.13017397415E+04  0.50400001928E-02 0.  1.
        1   -1    0    0  501    0  0.00000000000E+00  0.00000000000E+00 -0.25922774033E+04  0.25922774033E+04  0.50400001928E-02 0. -1.
    10030    2    1    2    0    0  0.00000000000E+00  0.00000000000E+00 -0.12905376618E+04  0.38940171447E+04  0.36739463887E+04 0.  0.
        2    1    3    3  502    0 -0.12785832555E+04 -0.20936487828E+03  0.73498913936E+03  0.14895696789E+04  0.25500000920E-02 0.  1.
       -2    1    3    3    0  502  0.12785832555E+04  0.20936487828E+03 -0.20255268012E+04  0.24044474658E+04  0.25500000920E-02 0. -1.
</event>
<event>
 5   0  0.1187925E-07  0.3893972E+04  0.7818609E-02  0.8026284E-01
       -1   -1    0    0    0  501  0.00000000000E+00  0.00000000000E+00  0.26048754633E+04  0.26048754633E+04  0.50400001928E-02 0.  1.
        1   -1    0    0  501    0  0.00000000000E+00  0.00000000000E+00 -0.14552536123E+04  0.14552536123E+04  0.50400001928E-02 0. -1.
    10030    2    1    2    0    0  0.00000000000E+00  0.00000000000E+00  0.11496218511E+04  0.40601290756E+04  0.38939719709E+04 0.  0.
        1    1    3    3  502    0 -0.26522893809E+03 -0.86341789491E+03  0.23732034481E+04  0.25392777432E+04  0.50400001928E-02 0.  1.
       -1    1    3    3    0  502  0.26522893809E+03  0.86341789491E+03 -0.12235815970E+04  0.15208513324E+04  0.50400001928E-02 0. -1.
</event>
<event>
 5   0  0.1187925E-07  0.3896939E+04  0.7818609E-02  0.8025666E-01
       -1   -1    0    0    0  501  0.00000000000E+00  0.00000000000E+00  0.14040118950E+04  0.14040118950E+04  0.50400001928E-02 0. -1.
        1   -1    0    0  501    0  0.00000000000E+00  0.00000000000E+00 -0.27040606368E+04  0.27040606368E+04  0.50400001928E-02 0.  1.
    10030    2    1    2    0    0  0.00000000000E+00  0.00000000000E+00 -0.13000487419E+04  0.41080725318E+04  0.38969389520E+04 0.  0.
        5    1    3    3  502    0 -0.85066799890E+03 -0.10587841701E+04 -0.21228043054E+04  0.25201151109E+04  0.46999998093E+01 0.  1.
       -5    1    3    3    0  502  0.85066799890E+03  0.10587841701E+04  0.82275556356E+03  0.15879574209E+04  0.46999998093E+01 0. -1.
</event>
<event>
 5   0  0.1187925E-07  0.3852487E+04  0.7818609E-02  0.8034984E-01
        1   -1    0    0  501    0  0.00000000000E+00  0.00000000000E+00  0.18858968966E+04  0.18858968966E+04  0.50400001928E-02 0.  1.
       -1   -1    0    0    0  501  0.00000000000E+00  0.00000000000E+00 -0.19674529572E+04  0.19674529572E+04  0.50400001928E-02 0. -1.
    10030    2    1    2    0    0  0.00000000000E+00  0.00000000000E+00 -0.81556060575E+02  0.38533498539E+04  0.38524866911E+04 0.  0.
        2    1    3    3  502    0  0.15503389136E+04 -0.32518771289E+03 -0.11369777926E+04  0.19498759696E+04  0.25500000920E-02 0. -1.
       -2    1    3    3    0  502 -0.15503389136E+04  0.32518771289E+03  0.10554217321E+04  0.19034738843E+04  0.25500000920E-02 0.  1.
</event>
<event>
 5   0  0.3610483E-07  0.3841083E+04  0.7818609E-02  0.8037396E-01
       -2   -1    0    0    0  501  0.00000000000E+00  0.00000000000E+00  0.15839492632E+04  0.15839492632E+04  0.25500000920E-02 0.  1.
        2   -1    0    0  501    0  0.00000000000E+00  0.00000000000E+00 -0.23286604522E+04  0.23286604522E+04  0.25500000920E-02 0. -1.
    10030    2    1    2    0    0  0.00000000000E+00  0.00000000000E+00 -0.74471118901E+03  0.39126097154E+04  0.38410831844E+04 0.  0.
        4    1    3    3  502    0  0.11641218132E+04  0.14785937731E+04 -0.76297965827E+03  0.20306547500E+04  0.12699999809E+01 0. -1.
       -4    1    3    3    0  502 -0.11641218132E+04 -0.14785937731E+04  0.18268469267E+02  0.18819549654E+04  0.12699999809E+01 0.  1.
</event>
<event>
 5   0  0.3610483E-07  0.3860979E+04  0.7818609E-02  0.8033194E-01
        2   -1    0    0  501    0  0.00000000000E+00  0.00000000000E+00  0.26665701280E+04  0.26665701280E+04  0.25500000920E-02 0.  1.
       -2   -1    0    0    0  501  0.00000000000E+00  0.00000000000E+00 -0.13975970920E+04  0.13975970920E+04  0.25500000920E-02 0. -1.
    10030    2    1    2    0    0  0.00000000000E+00  0.00000000000E+00  0.12689730360E+04  0.40641672200E+04  0.38609794905E+04 0.  0.
        4    1    3    3  502    0  0.83062775370E+03  0.38689760261E+03  0.24230701877E+04  0.25905410569E+04  0.12699999809E+01 0.  1.
       -4    1    3    3    0  502 -0.83062775370E+03 -0.38689760261E+03 -0.11540971517E+04  0.14736261631E+04  0.12699999809E+01 0. -1.
</event>
<event>
 5   0  0.3610483E-07  0.3776215E+04  0.7818609E-02  0.8051278E-01
       -2   -1    0    0    0  501  0.00000000000E+00  0.00000000000E+00  0.14474476549E+04  0.14474476549E+04  0.25500000920E-02 0.  1.
        2   -1    0    0  501    0  0.00000000000E+00  0.00000000000E+00 -0.24629214691E+04  0.24629214691E+04  0.25500000920E-02 0. -1.
    10030    2    1    2    0    0  0.00000000000E+00  0.00000000000E+00 -0.10154738142E+04  0.39103691240E+04  0.37762149858E+04 0.  0.
        4    1    3    3  502    0  0.10215515965E+04  0.29531937991E+03 -0.21233458075E+04  0.23747379291E+04  0.12699999809E+01 0. -1.
       -4    1    3    3    0  502 -0.10215515965E+04 -0.29531937991E+03  0.11078719933E+04  0.15356311950E+04  0.12699999809E+01 0.  1.
</event>
<event>
 5   0  0.1187925E-07  0.3849204E+04  0.7818609E-02  0.8035678E-01
       -1   -1    0    0    0  501  0.00000000000E+00  0.00000000000E+00  0.15512353278E+04  0.15512353278E+04  0.50400001928E-02 0. -1.
        1   -1    0    0  501    0  0.00000000000E+00  0.00000000000E+00 -0.23878339365E+04  0.23878339365E+04  0.50400001928E-02 0.  1.
    10030    2    1    2    0    0  0.00000000000E+00  0.00000000000E+00 -0.83659860873E+03  0.39390692643E+04  0.38492037406E+04 0.  0.
        4    1    3    3  502    0 -0.18716003518E+04 -0.34995076377E+03 -0.13114649714E+03  0.19085477281E+04  0.12699999809E+01 0. -1.
       -4    1    3    3    0  502  0.18716003518E+04  0.34995076377E+03 -0.70545211159E+03  0.20305215361E+04  0.12699999809E+01 0.  1.
</event>
<event>
 5   0  0.1187925E-07  0.3514740E+04  0.7818609E-02  0.8110306E-01
        1   -1    0    0  501    0  0.00000000000E+00  0.00000000000E+00  0.28878904772E+04  0.28878904772E+04  0.50400001928E-02 0.  1.
       -1   -1    0    0    0  501  0.00000000000E+00  0.00000000000E+00 -0.10694133236E+04  0.10694133236E+04  0.50400001928E-02 0. -1.
    10030    2    1    2    0    0  0.00000000000E+00  0.00000000000E+00  0.18184771536E+04  0.39573038008E+04  0.35147395655E+04 0.  0.
        4    1    3    3  502    0 -0.67159095756E+03 -0.29130492503E+03 -0.88957104151E+03  0.11520552176E+04  0.12699999809E+01 0. -1.
       -4    1    3    3    0  502  0.67159095756E+03  0.29130492503E+03  0.27080481951E+04  0.28052485832E+04  0.12699999809E+01 0.  1.
</event>
<event>
 5   0  0.3832389E-07  0.3550381E+04  0.7818609E-02  0.8101953E-01
        2   -1    0    0  501    0  0.00000000000E+00  0.00000000000E+00  0.22188197570E+04  0.22188197570E+04  0.25500000920E-02 0. -1.
       -2   -1    0    0    0  501  0.00000000000E+00  0.00000000000E+00 -0.14202598549E+04  0.14202598549E+04  0.25500000920E-02 0.  1.
    10030    2    1    2    0    0  0.00000000000E+00  0.00000000000E+00  0.79855990209E+03  0.36390796120E+04  0.35503806141E+04 0.  0.
        5    1    3    3  502    0  0.31736671471E+03 -0.85376567669E+03 -0.11624796428E+04  0.14768271640E+04  0.46999998093E+01 0.  1.
       -5    1    3    3    0  502 -0.31736671471E+03  0.85376567669E+03  0.19610395449E+04  0.21622524480E+04  0.46999998093E+01 0. -1.
</event>
<event>
 5   0  0.1187925E-07  0.3796577E+04  0.7818609E-02  0.8046890E-01
       -1   -1    0    0    0  501  0.00000000000E+00  0.00000000000E+00  0.34043552394E+04  0.34043552394E+04  0.50400001928E-02 0.  1.
        1   -1    0    0  501    0  0.00000000000E+00  0.00000000000E+00 -0.10584969156E+04  0.10584969156E+04  0.50400001928E-02 0. -1.
    10030    2    1    2    0    0  0.00000000000E+00  0.00000000000E+00  0.23458583238E+04  0.44628521550E+04  0.37965771534E+04 0.  0.
        5    1    3    3  502    0 -0.11308729596E+04  0.93945530355E+03 -0.23865586496E+03  0.14894390320E+04  0.46999998093E+01 0. -1.
       -5    1    3    3    0  502  0.11308729596E+04 -0.93945530355E+03  0.25845141888E+04  0.29734131230E+04  0.46999998093E+01 0.  1.
</event>
<event>
 5   0  0.1187925E-07  0.3654005E+04  0.7818609E-02  0.8078232E-01
       -3   -1    0    0    0  501  0.00000000000E+00  0.00000000000E+00  0.13825726173E+04  0.13825726210E+04  0.10100000352E+00 0. -1.
        3   -1    0    0  501    0  0.00000000000E+00  0.00000000000E+00 -0.24142952383E+04  0.24142952404E+04  0.10100000352E+00 0.  1.
    10030    2    1    2    0    0  0.00000000000E+00  0.00000000000E+00 -0.10317226210E+04  0.37968678614E+04  0.36540051985E+04 0.  0.
        4    1    3    3  502    0  0.78446384419E+03 -0.16474528501E+04 -0.42032947958E+03  0.18724750734E+04  0.12699999809E+01 0. -1.
       -4    1    3    3    0  502 -0.78446384419E+03  0.16474528501E+04 -0.61139314140E+03  0.19243927880E+04  0.12699999809E+01 0.  1.
</event>
<event>
 5   0  0.3665303E-07  0.4038358E+04  0.7818609E-02  0.7996853E-01
       -2   -1    0    0    0  501  0.00000000000E+00  0.00000000000E+00  0.15758277424E+04  0.15758277424E+04  0.25500000920E-02 0.  1.
        2   -1    0    0  501    0  0.00000000000E+00  0.00000000000E+00 -0.25872646360E+04  0.25872646360E+04  0.25500000920E-02 0. -1.
    10030    2    1    2    0    0  0.00000000000E+00  0.00000000000E+00 -0.10114368936E+04  0.41630923784E+04  0.40383577802E+04 0.  0.
        2    1    3    3  502    0  0.14978002245E+04  0.63046073473E+03  0.72971195337E+03  0.17813943375E+04  0.25500000920E-02 0.  1.
       -2    1    3    3    0  502 -0.14978002245E+04 -0.63046073473E+03 -0.17411488470E+04  0.23816980409E+04  0.25500000920E-02 0. -1.
</event>
<event>
 5   0  0.1187925E-07  0.3871147E+04  0.7818609E-02  0.8031057E-01
        1   -1    0    0  501    0  0.00000000000E+00  0.00000000000E+00  0.22057384044E+04  0.22057384044E+04  0.50400001928E-02 0.  1.
       -1   -1    0    0    0  501  0.00000000000E+00  0.00000000000E+00 -0.16984991255E+04  0.16984991255E+04  0.50400001928E-02 0. -1.
    10030    2    1    2    0    0  0.00000000000E+00  0.00000000000E+00  0.50723927891E+03  0.39042375299E+04  0.38711469881E+04 0.  0.
        3    1    3    3  502    0  0.18262980387E+04  0.40161821088E+02  0.89898574400E+03  0.20359648514E+04  0.10100000352E+00 0.  1.
       -3    1    3    3    0  502 -0.18262980387E+04 -0.40161821088E+02 -0.39174646508E+03  0.18682726785E+04  0.10100000352E+00 0. -1.
</event>
<event>
 5   0  0.3810833E-07  0.3869270E+04  0.7818609E-02  0.8031451E-01
       -2   -1    0    0    0  501  0.00000000000E+00  0.00000000000E+00  0.16309326775E+04  0.16309326775E+04  0.25500000920E-02 0. -1.
        2   -1    0    0  501    0  0.00000000000E+00  0.00000000000E+00 -0.22948912236E+04  0.22948912236E+04  0.25500000920E-02 0.  1.
    10030    2    1    2    0    0  0.00000000000E+00  0.00000000000E+00 -0.66395854615E+03  0.39258239011E+04  0.38692702608E+04 0.  0.
        3    1    3    3  502    0  0.65772971708E+03 -0.12794818576E+04  0.98042218999E+03  0.17409508567E+04  0.10100000352E+00 0. -1.
       -3    1    3    3    0  502 -0.65772971708E+03  0.12794818576E+04 -0.16443807361E+04  0.21848730444E+04  0.10100000352E+00 0.  1.
</event>
<event>
 5   0  0.3610483E-07  0.3932955E+04  0.7818609E-02  0.8018210E-01
        2   -1    0    0  501    0  0.00000000000E+00  0.00000000000E+00  0.12404219385E+04  0.12404219385E+04  0.25500000920E-02 0. -1.
       -2   -1    0    0    0  501  0.00000000000E+00  0.00000000000E+00 -0.31175147934E+04  0.31175147934E+04  0.25500000920E-02 0.  1.
    10030    2    1    2    0    0  0.00000000000E+00  0.00000000000E+00 -0.18770928549E+04  0.43579367319E+04  0.39329549926E+04 0.  0.
        4    1    3    3  502    0  0.91602875823E+03 -0.12000200987E+04  0.45772589166E+03  0.15775523852E+04  0.12699999809E+01 0. -1.
       -4    1    3    3    0  502 -0.91602875823E+03  0.12000200987E+04 -0.23348187466E+04  0.27803843467E+04  0.12699999809E+01 0.  1.
</event>
<event>
 5   0  0.3610483E-07  0.3860300E+04  0.7818609E-02  0.8033337E-01
       -2   -1    0    0    0  501  0.00000000000E+00  0.00000000000E+00  0.27117395183E+04  0.27117395183E+04  0.25500000920E-02 0. -1.
        2   -1    0    0  501    0  0.00000000000E+00  0.00000000000E+00 -0.13738335141E+04  0.13738335141E+04  0.25500000920E-02 0.  1.
    10030    2    1    2    0    0  0.00000000000E+00  0.00000000000E+00  0.13379060042E+04  0.40855730324E+04  0.38602997976E+04 0.  0.
        4    1    3    3  502    0 -0.67744350430E+03 -0.14446879598E+04  0.18183417140E+04  0.24191777951E+04  0.12699999809E+01 0. -1.
       -4    1    3    3    0  502  0.67744350430E+03  0.14446879598E+04 -0.48043570986E+03  0.16663952373E+04  0.12699999809E+01 0.  1.
</event>
<event>
 5   0  0.1187925E-07  0.3837349E+04  0.7818609E-02  0.8038187E-01
       -1   -1    0    0    0  501  0.00000000000E+00  0.00000000000E+00  0.15239329253E+04  0.15239329253E+04  0.50400001928E-02 0.  1.
        1   -1    0    0  501    0  0.00000000000E+00  0.00000000000E+00 -0.24156658805E+04  0.24156658805E+04  0.50400001928E-02 0. -1.
    10030    2    1    2    0    0  0.00000000000E+00  0.00000000000E+00 -0.89173295527E+03  0.39395988058E+04  0.38373494872E+04 0.  0.
        2    1    3    3  502    0 -0.42061090039E+02 -0.12483816739E+04 -0.19410684686E+04  0.23082401823E+04  0.25500000920E-02 0. -1.
       -2    1    3    3    0  502  0.42061090039E+02  0.12483816739E+04  0.10493355134E+04  0.16313586236E+04  0.25500000920E-02 0.  1.
</event>
<event>
 5   0  0.3680814E-07  0.3870704E+04  0.7818609E-02  0.8031150E-01
       -2   -1    0    0    0  501  0.00000000000E+00  0.00000000000E+00  0.12033870651E+04  0.12033870651E+04  0.25500000920E-02 0. -1.
        2   -1    0    0  501    0  0.00000000000E+00  0.00000000000E+00 -0.31125372751E+04  0.31125372751E+04  0.25500000920E-02 0.  1.
    10030    2    1    2    0    0  0.00000000000E+00  0.00000000000E+00 -0.19091502100E+04  0.43159243402E+04  0.38707038618E+04 0.  0.
        1    1    3    3  502    0 -0.12459355961E+03 -0.11199775365E+04  0.79984704143E+03  0.13818930954E+04  0.50400001928E-02 0. -1.
       -1    1    3    3    0  502  0.12459355961E+03  0.11199775365E+04 -0.27089972515E+04  0.29340312449E+04  0.50400001928E-02 0.  1.
</event>
<event>
 5   0  0.1187925E-07  0.3878888E+04  0.7818609E-02  0.8029434E-01
       -1   -1    0    0    0  501  0.00000000000E+00  0.00000000000E+00  0.20327235325E+04  0.20327235325E+04  0.50400001928E-02 0.  1.
        1   -1    0    0  501    0  0.00000000000E+00  0.00000000000E+00 -0.18504453913E+04  0.18504453913E+04  0.50400001928E-02 0. -1.
    10030    2    1    2    0    0  0.00000000000E+00  0.00000000000E+00  0.18227814120E+03  0.38831689237E+04  0.38788884451E+04 0.  0.
        1    1    3    3  502    0  0.12988659095E+04 -0.29682224791E+03  0.15020515693E+04  0.20078134910E+04  0.50400001928E-02 0.  1.
       -1    1    3    3    0  502 -0.12988659095E+04  0.29682224791E+03 -0.13197734281E+04  0.18753554328E+04  0.50400001928E-02 0. -1.
</event>
<event>
 5   0  0.1187925E-07  0.3862698E+04  0.7818609E-02  0.8032832E-01
       -1   -1    0    0    0  501  0.00000000000E+00  0.00000000000E+00  0.15811635600E+04  0.15811635600E+04  0.50400001928E-02 0.  1.
        1   -1    0    0  501    0  0.00000000000E+00  0.00000000000E+00 -0.23590910814E+04  0.23590910814E+04  0.50400001928E-02 0. -1.
    10030    2    1    2    0    0  0.00000000000E+00  0.00000000000E+00 -0.77792752142E+03  0.39402546414E+04  0.38626979445E+04 0.  0.
        5    1    3    3  502    0 -0.98534888612E+02 -0.12121512907E+04 -0.19194440493E+04  0.22722912278E+04  0.46999998093E+01 0. -1.
       -5    1    3    3    0  502  0.98534888612E+02  0.12121512907E+04  0.11415165278E+04  0.16679634136E+04  0.46999998093E+01 0.  1.
</event>
<event>
 5   0  0.3680814E-07  0.3954374E+04  0.7818609E-02  0.8013814E-01
       -2   -1    0    0    0  501  0.00000000000E+00  0.00000000000E+00  0.16253738390E+04  0.16253738390E+04  0.25500000920E-02 0.  1.
        2   -1    0    0  501    0  0.00000000000E+00  0.00000000000E+00 -0.24051509356E+04  0.24051509356E+04  0.25500000920E-02 0. -1.
    10030    2    1    2    0    0  0.00000000000E+00  0.00000000000E+00 -0.77977709662E+03  0.40305247746E+04  0.39543744939E+04 0.  0.
        1    1    3    3  502    0 -0.67295058719E+03 -0.81844902191E+03  0.13115531494E+04  0.16860880635E+04  0.50400001928E-02 0.  1.
       -1    1    3    3    0  502  0.67295058719E+03  0.81844902191E+03 -0.20913302460E+04  0.23444367110E+04  0.50400001928E-02 0. -1.
</event>
<event>
 5   0  0.1187925E-07  0.3999101E+04  0.7818609E-02  0.8004728E-01
       -1   -1    0    0    0  501  0.00000000000E+00  0.00000000000E+00  0.20507839530E+04  0.20507839530E+04  0.50400001928E-02 0. -1.
        1   -1    0    0  501    0  0.00000000000E+00  0.00000000000E+00 -0.19495968812E+04  0.19495968812E+04  0.50400001928E-02 0.  1.
    10030    2    1    2    0    0  0.00000000000E+00  0.00000000000E+00  0.10118707189E+03  0.40003808342E+04  0.39991008983E+04 0.  0.
        5    1    3    3  502    0  0.10100410859E+04 -0.86487716743E+03 -0.14431976364E+04  0.19624059258E+04  0.46999998093E+01 0.  1.
       -5    1    3    3    0  502 -0.10100410859E+04  0.86487716743E+03  0.15443847083E+04  0.20379749084E+04  0.46999998093E+01 0. -1.
</event>
<event>
 5   0  0.1187925E-07  0.3975114E+04  0.7818609E-02  0.8009586E-01
        1   -1    0    0  501    0  0.00000000000E+00  0.00000000000E+00  0.26571187218E+04  0.26571187218E+04  0.50400001928E-02 0.  1.
       -1   -1    0    0    0  501  0.00000000000E+00  0.00000000000E+00 -0.14867168701E+04  0.14867168701E+04  0.50400001928E-02 0. -1.
    10030    2    1    2    0    0  0.00000000000E+00  0.00000000000E+00  0.11704018517E+04  0.41438355918E+04  0.39751142018E+04 0.  0.
        3    1    3    3  502    0  0.75856235279E+03 -0.19736508604E+03 -0.13187984397E+04  0.15341444375E+04  0.10100000352E+00 0. -1.
       -3    1    3    3    0  502 -0.75856235279E+03  0.19736508604E+03  0.24892002914E+04  0.26096911544E+04  0.10100000352E+00 0.  1.
</event>
<event>
 5   0  0.1187925E-07  0.3818474E+04  0.7818609E-02  0.8042202E-01
       -1   -1    0    0    0  501  0.00000000000E+00  0.00000000000E+00  0.19619879463E+04  0.19619879463E+04  0.50400001928E-02 0. -1.
        1   -1    0    0  501    0  0.00000000000E+00  0.00000000000E+00 -0.18579047131E+04  0.18579047131E+04  0.50400001928E-02 0.  1.
    10030    2    1    2    0    0  0.00000000000E+00  0.00000000000E+00  0.10408323322E+03  0.38198926594E+04  0.38184743825E+04 0.  0.
        4    1    3    3  502    0  0.13414770706E+04  0.94183307716E+03 -0.92739034786E+03  0.18832590757E+04  0.12699999809E+01 0.  1.
       -4    1    3    3    0  502 -0.13414770706E+04 -0.94183307716E+03  0.10314735811E+04  0.19366335837E+04  0.12699999809E+01 0. -1.
</event>
<event>
 5   0  0.3832389E-07  0.3820438E+04  0.7818609E-02  0.8041783E-01
        2   -1    0    0  501    0  0.00000000000E+00  0.00000000000E+00  0.20328330653E+04  0.20328330653E+04  0.25500000920E-02 0.  1.
       -2   -1    0    0    0  501  0.00000000000E+00  0.00000000000E+00 -0.17950004212E+04  0.17950004212E+04  0.25500000920E-02 0. -1.
    10030    2    1    2    0    0  0.00000000000E+00  0.00000000000E+00  0.23783264409E+03  0.38278334866E+04  0.38204377805E+04 0.  0.
        5    1    3    3  502    0  0.38862013279E+03 -0.12624661928E+03  0.19885270453E+04  0.20300802241E+04  0.46999998093E+01 0.  1.
       -5    1    3    3    0  502 -0.38862013279E+03  0.12624661928E+03 -0.17506944012E+04  0.17977532625E+04  0.46999998093E+01 0. -1.
</event>
<event>
 5   0  0.3680814E-07  0.3599298E+04  0.7818609E-02  0.8090653E-01
       -2   -1    0    0    0  501  0.00000000000E+00  0.00000000000E+00  0.16148171422E+04  0.16148171422E+04  0.25500000920E-02 0.  1.
        2   -1    0    0  501    0  0.00000000000E+00  0.00000000000E+00 -0.20056361471E+04  0.20056361471E+04  0.25500000920E-02 0. -1.
    10030    2    1    2    0    0  0.00000000000E+00  0.00000000000E+00 -0.39081900492E+03  0.36204532893E+04  0.35992975045E+04 0.  0.
        1    1    3    3  502    0 -0.74546810110E+03  0.11655627186E+04  0.96221398656E+03  0.16852640436E+04  0.50400001928E-02 0.  1.
       -1    1    3    3    0  502  0.74546810110E+03 -0.11655627186E+04 -0.13530329915E+04  0.19351892457E+04  0.50400001928E-02 0. -1.
</event>
<event>
 5   0  0.1187925E-07  0.3942172E+04  0.7818609E-02  0.8016315E-01
        1   -1    0    0  501    0  0.00000000000E+00  0.00000000000E+00  0.27172452937E+04  0.27172452937E+04  0.50400001928E-02 0.  1.
       -1   -1    0    0    0  501  0.00000000000E+00  0.00000000000E+00 -0.14298227600E+04  0.14298227600E+04  0.50400001928E-02 0. -1.
    10030    2    1    2    0    0  0.00000000000E+00  0.00000000000E+00  0.12874225337E+04  0.41470680537E+04  0.39421715667E+04 0.  0.
        2    1    3    3  502    0  0.43000834489E+03 -0.18276473899E+04  0.12546101341E+02  0.18775940890E+04  0.25500000920E-02 0.  1.
       -2    1    3    3    0  502 -0.43000834489E+03  0.18276473899E+04  0.12748764324E+04  0.22694739647E+04  0.25500000920E-02 0. -1.
</event>
<event>
 5   0  0.1187925E-07  0.4079172E+04  0.7818609E-02  0.7988763E-01
       -1   -1    0    0    0  501  0.00000000000E+00  0.00000000000E+00  0.19957319804E+04  0.19957319804E+04  0.50400001928E-02 0. -1.
        1   -1    0    0  501    0  0.00000000000E+00  0.00000000000E+00 -0.20844041722E+04  0.20844041722E+04  0.50400001928E-02 0.  1.
    10030    2    1    2    0    0  0.00000000000E+00  0.00000000000E+00 -0.88672191759E+02  0.40801361526E+04  0.40791724977E+04 0.  0.
        5    1    3    3  502    0 -0.15424550252E+04  0.11381489755E+03 -0.13742248007E+04  0.20689700888E+04  0.46999998093E+01 0. -1.
       -5    1    3    3    0  502  0.15424550252E+04 -0.11381489755E+03  0.12855526089E+04  0.20111660638E+04  0.46999998093E+01 0.  1.
</event>
<event>
 5   0  0.3810833E-07  0.3965770E+04  0.7818609E-02  0.8011488E-01
       -2   -1    0    0    0  501  0.00000000000E+00  0.00000000000E+00  0.26614305959E+04  0.26614305959E+04  0.25500000920E-02 0.  1.
        2   -1    0    0  501    0  0.00000000000E+00  0.00000000000E+00 -0.14773380993E+04  0.14773380993E+04  0.25500000920E-02 0. -1.
    10030    2    1    2    0    0  0.00000000000E+00  0.00000000000E+00  0.11840924966E+04  0.41387686952E+04  0.39657699469E+04 0.  0.
        3    1    3    3  502    0 -0.13144045963E+04 -0.83995297687E+03 -0.68555135785E+03  0.17038665208E+04  0.10100000352E+00 0. -1.
       -3    1    3    3    0  502  0.13144045963E+04  0.83995297687E+03  0.18696438544E+04  0.24349021744E+04  0.10100000352E+00 0.  1.
</event>
<event>
 5   0  0.3680814E-07  0.3808623E+04  0.7818609E-02  0.8044307E-01
        2   -1    0    0  501    0  0.00000000000E+00  0.00000000000E+00  0.19885212040E+04  0.19885212040E+04  0.25500000920E-02 0.  1.
       -2   -1    0    0    0  501  0.00000000000E+00  0.00000000000E+00 -0.18236683673E+04  0.18236683673E+04  0.25500000920E-02 0. -1.
    10030    2    1    2    0    0  0.00000000000E+00  0.00000000000E+00  0.16485283677E+03  0.38121895713E+04  0.38086234875E+04 0.  0.
        1    1    3    3  502    0 -0.24350357723E+03 -0.41992550982E+03 -0.17607025644E+04  0.18263912358E+04  0.50400001928E-02 0. -1.
       -1    1    3    3    0  502  0.24350357723E+03  0.41992550982E+03  0.19255554012E+04  0.19857983354E+04  0.50400001928E-02 0.  1.
</event>
<event>
 5   0  0.1187925E-07  0.3888406E+04  0.7818609E-02  0.8027445E-01
        3   -1    0    0  501    0  0.00000000000E+00  0.00000000000E+00  0.19313558401E+04  0.19313558428E+04  0.10100000352E+00 0. -1.
       -3   -1    0    0    0  501  0.00000000000E+00  0.00000000000E+00 -0.19571361106E+04  0.19571361132E+04  0.10100000352E+00 0.  1.
    10030    2    1    2    0    0  0.00000000000E+00  0.00000000000E+00 -0.25780270475E+02  0.38884919560E+04  0.38884064949E+04 0.  0.
        5    1    3    3  502    0  0.59817460236E+03 -0.80225676633E+03 -0.16798027118E+04  0.19552974235E+04  0.46999998093E+01 0.  1.
       -5    1    3    3    0  502 -0.59817460236E+03  0.80225676633E+03  0.16540224413E+04  0.19331945325E+04  0.46999998093E+01 0. -1.
</event>
<event>
 5   0  0.1187925E-07  0.3839157E+04  0.7818609E-02  0.8037804E-01
       -1   -1    0    0    0  501  0.00000000000E+00  0.00000000000E+00  0.27197059429E+04  0.27197059429E+04  0.50400001928E-02 0. -1.
        1   -1    0    0  501    0  0.00000000000E+00  0.00000000000E+00 -0.13548457815E+04  0.13548457815E+04  0.50400001928E-02 0.  1.
    10030    2    1    2    0    0  0.00000000000E+00  0.00000000000E+00  0.13648601614E+04  0.40745517243E+04  0.38391572635E+04 0.  0.
        2    1    3    3  502    0 -0.16511848965E+03  0.52265299521E+03 -0.12700278587E+04  0.13832573987E+04  0.25500000920E-02 0.  1.
       -2    1    3    3    0  502  0.16511848965E+03 -0.52265299521E+03  0.26348880201E+04  0.26912943257E+04  0.25500000920E-02 0. -1.
</event>
<event>
 5   0  0.1187925E-07  0.3448761E+04  0.7818609E-02  0.8126041E-01
        1   -1    0    0  501    0  0.00000000000E+00  0.00000000000E+00  0.19372839240E+04  0.19372839240E+04  0.50400001928E-02 0. -1.
       -1   -1    0    0    0  501  0.00000000000E+00  0.00000000000E+00 -0.15348745191E+04  0.15348745191E+04  0.50400001928E-02 0.  1.
    10030    2    1    2    0    0  0.00000000000E+00  0.00000000000E+00  0.40240940495E+03  0.34721584431E+04  0.34487607810E+04 0.  0.
        5    1    3    3  502    0 -0.22957545723E+03 -0.97597993414E+03 -0.12112473576E+04  0.15723816247E+04  0.46999998093E+01 0.  1.
       -5    1    3    3    0  502  0.22957545723E+03  0.97597993414E+03  0.16136567625E+04  0.18997768184E+04  0.46999998093E+01 0. -1.
</event>
<event>
 5   0  0.1187925E-07  0.3909273E+04  0.7818609E-02  0.8023103E-01
       -1   -1    0    0    0  501  0.00000000000E+00  0.00000000000E+00  0.13798706630E+04  0.13798706630E+04  0.50400001928E-02 0.  1.
        1   -1    0    0  501    0  0.00000000000E+00  0.00000000000E+00 -0.27688135128E+04  0.27688135128E+04  0.50400001928E-02 0. -1.
    10030    2    1    2    0    0  0.00000000000E+00  0.00000000000E+00 -0.13889428498E+04  0.41486841759E+04  0.39092733533E+04 0.  0.
        2    1    3    3  502    0 -0.83738535559E+03  0.16955202746E+04 -0.16961113234E+03  0.18986234939E+04  0.25500000920E-02 0.  1.
       -2    1    3    3    0  502  0.83738535559E+03 -0.16955202746E+04 -0.12193317175E+04  0.22500606820E+04  0.25500000920E-02 0. -1.
</event>
<event>
 5   0  0.1187925E-07  0.3718408E+04  0.7818609E-02  0.8063895E-01
        1   -1    0    0  501    0  0.00000000000E+00  0.00000000000E+00  0.15125269344E+04  0.15125269344E+04  0.50400001928E-02 0. -1.
       -1   -1    0    0    0  501  0.00000000000E+00  0.00000000000E+00 -0.22853405880E+04  0.22853405880E+04  0.50400001928E-02 0.  1.
    10030    2    1    2    0    0  0.00000000000E+00  0.00000000000E+00 -0.77281365354E+03  0.37978675224E+04  0.37184078279E+04 0.  0.
        5    1    3    3  502    0  0.10375384645E+04 -0.22543167842E+03 -0.19452290381E+04  0.22161325790E+04  0.46999998093E+01 0.  1.
       -5    1    3    3    0  502 -0.10375384645E+04  0.22543167842E+03  0.11724153846E+04  0.15817349434E+04  0.46999998093E+01 0. -1.
</event>
<event>
 5   0  0.1187925E-07  0.3875889E+04  0.7818609E-02  0.8030063E-01
       -1   -1    0    0    0  501  0.00000000000E+00  0.00000000000E+00  0.20680439073E+04  0.20680439073E+04  0.50400001928E-02 0. -1.
        1   -1    0    0  501    0  0.00000000000E+00  0.00000000000E+00 -0.18160296519E+04  0.18160296519E+04  0.50400001928E-02 0.  1.
    10030    2    1    2    0    0  0.00000000000E+00  0.00000000000E+00  0.25201425537E+03  0.38840735592E+04  0.38758890888E+04 0.  0.
        2    1    3    3  502    0 -0.10031851844E+04 -0.47750920826E+03  0.17171993224E+04  0.20452797049E+04  0.25500000920E-02 0. -1.
       -2    1    3    3    0  502  0.10031851844E+04  0.47750920826E+03 -0.14651850670E+04  0.18387938544E+04  0.25500000920E-02 0.  1.
</event>
<event>
 5   0  0.3810833E-07  0.2844914E+04  0.7818609E-02  0.8289458E-01
        2   -1    0    0  501    0  0.00000000000E+00  0.00000000000E+00  0.24005000287E+04  0.24005000287E+04  0.25500000920E-02 0. -1.
       -2   -1    0    0    0  501  0.00000000000E+00  0.00000000000E+00 -0.84290121192E+03  0.84290121193E+03  0.25500000920E-02 0.  1.
    10030    2    1    2    0    0  0.00000000000E+00  0.00000000000E+00  0.15575988168E+04  0.32434012406E+04  0.28449143280E+04 0.  0.
        3    1    3    3  502    0  0.12192548184E+04 -0.37446077257E+03  0.60843882983E+02  0.12769123583E+04  0.10100000352E+00 0. -1.
       -3    1    3    3    0  502 -0.12192548184E+04  0.37446077257E+03  0.14967549338E+04  0.19664888824E+04  0.10100000352E+00 0.  1.
</event>
<event>
 5   0  0.3665303E-07  0.3763768E+04  0.7818609E-02  0.8053975E-01
        2   -1    0    0  501    0  0.00000000000E+00  0.00000000000E+00  0.16922027296E+04  0.16922027296E+04  0.25500000920E-02 0. -1.
       -2   -1    0    0    0  501  0.00000000000E+00  0.00000000000E+00 -0.20928266658E+04  0.20928266658E+04  0.25500000920E-02 0.  1.
    10030    2    1    2    0    0  0.00000000000E+00  0.00000000000E+00 -0.40062393616E+03  0.37850293954E+04  0.37637677912E+04 0.  0.
        2    1    3    3  502    0  0.77963544199E+03 -0.17079045805E+04 -0.70285329616E+02  0.18787521140E+04  0.25500000920E-02 0. -1.
       -2    1    3    3    0  502 -0.77963544199E+03  0.17079045805E+04 -0.33033860655E+03  0.19062772814E+04  0.25500000920E-02 0.  1.
</event>
<event>
 5   0  0.3680814E-07  0.3895931E+04  0.7818609E-02  0.8025876E-01
       -2   -1    0    0    0  501  0.00000000000E+00  0.00000000000E+00  0.18062868369E+04  0.18062868369E+04  0.25500000920E-02 0.  1.
        2   -1    0    0  501    0  0.00000000000E+00  0.00000000000E+00 -0.21007564344E+04  0.21007564344E+04  0.25500000920E-02 0. -1.
    10030    2    1    2    0    0  0.00000000000E+00  0.00000000000E+00 -0.29446959757E+03  0.39070432713E+04  0.38959305410E+04 0.  0.
        1    1    3    3  502    0 -0.18129372766E+04  0.15490731293E+03 -0.84479837288E+03  0.20060962428E+04  0.50400001928E-02 0.  1.
       -1    1    3    3    0  502  0.18129372766E+04 -0.15490731293E+03  0.55032877531E+03  0.19009470285E+04  0.50400001928E-02 0. -1.
</event>
<event>
 5   0  0.1187925E-07  0.3935989E+04  0.7818609E-02  0.8017585E-01
       -1   -1    0    0    0  501  0.00000000000E+00  0.00000000000E+00  0.18725329717E+04  0.18725329717E+04  0.50400001928E-02 0. -1.
        1   -1    0    0  501    0  0.00000000000E+00  0.00000000000E+00 -0.20683229272E+04  0.20683229272E+04  0.50400001928E-02 0.  1.
    10030    2    1    2    0    0  0.00000000000E+00  0.00000000000E+00 -0.19578995549E+03  0.39408558989E+04  0.39359892669E+04 0.  0.
        2    1    3    3  502    0  0.16389591617E+04  0.23046023138E+03 -0.11639667774E+04  0.20233926240E+04  0.25500000920E-02 0.  1.
       -2    1    3    3    0  502 -0.16389591617E+04 -0.23046023138E+03  0.96817682193E+03  0.19174632749E+04  0.25500000920E-02 0. -1.
</event>
<event>
 5   0  0.3610483E-07  0.3931207E+04  0.7818609E-02  0.8018570E-01
       -2   -1    0    0    0  501  0.00000000000E+00  0.00000000000E+00  0.16713756027E+04  0.16713756027E+04  0.25500000920E-02 0. -1.
        2   -1    0    0  501    0  0.00000000000E+00  0.00000000000E+00 -0.23116269748E+04  0.23116269748E+04  0.25500000920E-02 0.  1.
    10030    2    1    2    0    0  0.00000000000E+00  0.00000000000E+00 -0.64025137210E+03  0.39830025775E+04  0.39312069028E+04 0.  0.
        4    1    3    3  502    0 -0.38965747318E+01 -0.10469839798E+04 -0.20055956638E+04  0.22624336934E+04  0.12699999809E+01 0.  1.
       -4    1    3    3    0  502  0.38965747318E+01  0.10469839798E+04  0.13653442917E+04  0.17205688841E+04  0.12699999809E+01 0. -1.
</event>
<event>
 5   0  0.1187925E-07  0.3849502E+04  0.7818609E-02  0.8035614E-01
       -1   -1    0    0    0  501  0.00000000000E+00  0.00000000000E+00  0.19711456660E+04  0.19711456660E+04  0.50400001928E-02 0.  1.
        1   -1    0    0  501    0  0.00000000000E+00  0.00000000000E+00 -0.18794487165E+04  0.18794487165E+04  0.50400001928E-02 0. -1.
    10030    2    1    2    0    0  0.00000000000E+00  0.00000000000E+00  0.91696949520E+02  0.38505943826E+04  0.38495024053E+04 0.  0.
        1    1    3    3  502    0 -0.14362244265E+04  0.72278017928E+03 -0.10125232136E+04  0.19000934316E+04  0.50400001928E-02 0. -1.
       -1    1    3    3    0  502  0.14362244265E+04 -0.72278017928E+03  0.11042201632E+04  0.19505009509E+04  0.50400001928E-02 0.  1.
</event>
<event>
 5   0  0.1187925E-07  0.3869681E+04  0.7818609E-02  0.8031365E-01
        1   -1    0    0  501    0  0.00000000000E+00  0.00000000000E+00  0.21264112583E+04  0.21264112584E+04  0.50400001928E-02 0. -1.
       -1   -1    0    0    0  501  0.00000000000E+00  0.00000000000E+00 -0.17605281164E+04  0.17605281164E+04  0.50400001928E-02 0.  1.
    10030    2    1    2    0    0  0.00000000000E+00  0.00000000000E+00  0.36588314198E+03  0.38869393747E+04  0.38696805074E+04 0.  0.
        4    1    3    3  502    0  0.31298229323E+02  0.19195775177E+04 -0.58646765476E+02  0.19207286330E+04  0.12699999809E+01 0.  1.
       -4    1    3    3    0  502 -0.31298229323E+02 -0.19195775177E+04  0.42452990745E+03  0.19662107417E+04  0.12699999809E+01 0. -1.
</event>
<event>
 5   0  0.3810833E-07  0.3794980E+04  0.7818609E-02  0.8047233E-01
        2   -1    0    0  501    0  0.00000000000E+00  0.00000000000E+00  0.14429117280E+04  0.14429117280E+04  0.25500000920E-02 0.  1.
       -2   -1    0    0    0  501  0.00000000000E+00  0.00000000000E+00 -0.24952798026E+04  0.24952798026E+04  0.25500000920E-02 0. -1.
    10030    2    1    2    0    0  0.00000000000E+00  0.00000000000E+00 -0.10523680747E+04  0.39381915306E+04  0.37949801011E+04 0.  0.
        3    1    3    3  502    0 -0.11922964080E+04 -0.59581012811E+03  0.87530208187E+03  0.15945890311E+04  0.10100000352E+00 0.  1.
       -3    1    3    3    0  502  0.11922964080E+04  0.59581012811E+03 -0.19276701565E+04  0.23436024996E+04  0.10100000352E+00 0. -1.
</event>
<event>
 5   0  0.1187925E-07  0.3995661E+04  0.7818609E-02  0.8005423E-01
       -1   -1    0    0    0  501  0.00000000000E+00  0.00000000000E+00  0.23868392454E+04  0.23868392454E+04  0.50400001928E-02 0.  1.
        1   -1    0    0  501    0  0.00000000000E+00  0.00000000000E+00 -0.16722223688E+04  0.16722223688E+04  0.50400001928E-02 0. -1.
    10030    2    1    2    0    0  0.00000000000E+00  0.00000000000E+00  0.71461687661E+03  0.40590616143E+04  0.39956606348E+04 0.  0.
        5    1    3    3  502    0 -0.27562856359E+03  0.10058285161E+04 -0.13737373951E+04  0.17247720515E+04  0.46999998093E+01 0. -1.
       -5    1    3    3    0  502  0.27562856359E+03 -0.10058285161E+04  0.20883542717E+04  0.23342895628E+04  0.46999998093E+01 0.  1.
</event>
<event>
 5   0  0.3810833E-07  0.3572172E+04  0.7818609E-02  0.8096896E-01
        2   -1    0    0  501    0  0.00000000000E+00  0.00000000000E+00  0.20104856639E+04  0.20104856639E+04  0.25500000920E-02 0.  1.
       -2   -1    0    0    0  501  0.00000000000E+00  0.00000000000E+00 -0.15867322210E+04  0.15867322210E+04  0.25500000920E-02 0. -1.
    10030    2    1    2    0    0  0.00000000000E+00  0.00000000000E+00  0.42375344294E+03  0.35972178849E+04  0.35721715428E+04 0.  0.
        3    1    3    3  502    0  0.83732589505E+03  0.11683166888E+04  0.12795102335E+04  0.19243765193E+04  0.10100000352E+00 0.  1.
       -3    1    3    3    0  502 -0.83732589505E+03 -0.11683166888E+04 -0.85575679060E+03  0.16728413657E+04  0.10100000352E+00 0. -1.
</event>
<event>
 5   0  0.1187925E-07  0.3902849E+04  0.7818609E-02  0.8024437E-01
        1   -1    0    0  501    0  0.00000000000E+00  0.00000000000E+00  0.13709783354E+04  0.13709783354E+04  0.50400001928E-02 0. -1.
       -1   -1    0    0    0  501  0.00000000000E+00  0.00000000000E+00 -0.27776210185E+04  0.27776210185E+04  0.50400001928E-02 0.  1.
    10030    2    1    2    0    0  0.00000000000E+00  0.00000000000E+00 -0.14066426831E+04  0.41485993539E+04  0.39028493388E+04 0.  0.
        4    1    3    3  502    0  0.66296016428E+03 -0.64763394225E+03 -0.25287516122E+04  0.26932382426E+04  0.12699999809E+01 0.  1.
       -4    1    3    3    0  502 -0.66296016428E+03  0.64763394225E+03  0.11221089291E+04  0.14553611113E+04  0.12699999809E+01 0. -1.
</event>
<event>
 5   0  0.1187925E-07  0.3876025E+04  0.7818609E-02  0.8030034E-01
       -1   -1    0    0    0  501  0.00000000000E+00  0.00000000000E+00  0.31292848751E+04  0.31292848751E+04  0.50400001928E-02 0.  1.
        1   -1    0    0  501    0  0.00000000000E+00  0.00000000000E+00 -0.12002398170E+04  0.12002398170E+04  0.50400001928E-02 0. -1.
    10030    2    1    2    0    0  0.00000000000E+00  0.00000000000E+00  0.19290450581E+04  0.43295246921E+04  0.38760249256E+04 0.  0.
        5    1    3    3  502    0  0.15121017451E+04  0.28427349648E+03 -0.35174252614E+03  0.15782927494E+04  0.46999998093E+01 0. -1.
       -5    1    3    3    0  502 -0.15121017451E+04 -0.28427349648E+03  0.22807875842E+04  0.27512319427E+04  0.46999998093E+01 0.  1.
</event>
<event>
 5   0  0.3810833E-07  0.3622499E+04  0.7818609E-02  0.8085357E-01
        2   -1    0    0  501    0  0.00000000000E+00  0.00000000000E+00  0.11567531471E+04  0.11567531471E+04  0.25500000920E-02 0. -1.
       -2   -1    0    0    0  501  0.00000000000E+00  0.00000000000E+00 -0.28360629696E+04  0.28360629696E+04  0.25500000920E-02 0.  1.
    10030    2    1    2    0    0  0.00000000000E+00  0.00000000000E+00 -0.16793098225E+04  0.39928161167E+04  0.36224990078E+04 0.  0.
        3    1    3    3  502    0  0.66039700889E+03 -0.50952759874E+01  0.10193137287E+04  0.12145578039E+04  0.10100000352E+00 0. -1.
       -3    1    3    3    0  502 -0.66039700889E+03  0.50952759874E+01 -0.26986235512E+04  0.27782583128E+04  0.10100000352E+00 0.  1.
</event>
<event>
 5   0  0.1187925E-07  0.3980860E+04  0.7818609E-02  0.8008419E-01
       -1   -1    0    0    0  501  0.00000000000E+00  0.00000000000E+00  0.12858899590E+04  0.12858899590E+04  0.50400001928E-02 0.  1.
        1   -1    0    0  501    0  0.00000000000E+00  0.00000000000E+00 -0.30809878537E+04  0.30809878538E+04  0.50400001928E-02 0. -1.
    10030    2    1    2    0    0  0.00000000000E+00  0.00000000000E+00 -0.17950978947E+04  0.43668778128E+04  0.39808598795E+04 0.  0.
        1    1    3    3  502    0  0.26773463051E+02  0.19033153323E+04 -0.25933831142E+03  0.19210888663E+04  0.50400001928E-02 0.  1.
       -1    1    3    3    0  502 -0.26773463051E+02 -0.19033153323E+04 -0.15357595833E+04  0.24457889464E+04  0.50400001928E-02 0. -1.
</event>
<event>
 5   0  0.3832389E-07  0.3552798E+04  0.7818609E-02  0.8101390E-01
        2   -1    0    0  501    0  0.00000000000E+00  0.00000000000E+00  0.20942054118E+04  0.20942054118E+04  0.25500000920E-02 0.  1.
       -2   -1    0    0    0  501  0.00000000000E+00  0.00000000000E+00 -0.15068209579E+04  0.15068209579E+04  0.25500000920E-02 0. -1.
    10030    2    1    2    0    0  0.00000000000E+00  0.00000000000E+00  0.58738445391E+03  0.36010263698E+04  0.35527975483E+04 0.  0.
        5    1    3    3  502    0 -0.14954790032E+04 -0.84232825235E+03 -0.17033933812E+03  0.17248222847E+04  0.46999998093E+01 0. -1.
       -5    1    3    3    0  502  0.14954790032E+04  0.84232825235E+03  0.75772379204E+03  0.18762040851E+04  0.46999998093E+01 0.  1.
</event>
<event>
 5   0  0.1187925E-07  0.3877998E+04  0.7818609E-02  0.8029621E-01
        1   -1    0    0  501    0  0.00000000000E+00  0.00000000000E+00  0.20428326801E+04  0.20428326801E+04  0.50400001928E-02 0. -1.
       -1   -1    0    0    0  501  0.00000000000E+00  0.00000000000E+00 -0.18404433251E+04  0.18404433251E+04  0.50400001928E-02 0.  1.
    10030    2    1    2    0    0  0.00000000000E+00  0.00000000000E+00  0.20238935503E+03  0.38832760053E+04  0.38779983345E+04 0.  0.
        2    1    3    3  502    0  0.15832797752E+04 -0.10390637666E+03 -0.10148383101E+04  0.18834723723E+04  0.25500000920E-02 0. -1.
       -2    1    3    3    0  502 -0.15832797752E+04  0.10390637666E+03  0.12172276651E+04  0.19998036330E+04  0.25500000920E-02 0.  1.
</event>
<event>
 5   0  0.1187925E-07  0.3413314E+04  0.7818609E-02  0.8134646E-01
        1   -1    0    0  501    0  0.00000000000E+00  0.00000000000E+00  0.15671679074E+04  0.15671679075E+04  0.50400001928E-02 0.  1.
       -1   -1    0    0    0  501  0.00000000000E+00  0.00000000000E+00 -0.18585614604E+04  0.18585614605E+04  0.50400001928E-02 0. -1.
    10030    2    1    2    0    0  0.00000000000E+00  0.00000000000E+00 -0.29139355300E+03  0.34257293679E+04  0.34133138589E+04 0.  0.
        3    1    3    3  502    0 -0.90806925840E+03  0.14450048062E+04 -0.13865722429E+03  0.17122658976E+04  0.10100000352E+00 0. -1.
       -3    1    3    3    0  502  0.90806925840E+03 -0.14450048062E+04 -0.15273632871E+03  0.17134634703E+04  0.10100000352E+00 0.  1.
</event>
<event>
 5   0  0.1187925E-07  0.3910650E+04  0.7818609E-02  0.8022818E-01
       -1   -1    0    0    0  501  0.00000000000E+00  0.00000000000E+00  0.18654431318E+04  0.18654431318E+04  0.50400001928E-02 0.  1.
        1   -1    0    0  501    0  0.00000000000E+00  0.00000000000E+00 -0.20495379287E+04  0.20495379287E+04  0.50400001928E-02 0. -1.
    10030    2    1    2    0    0  0.00000000000E+00  0.00000000000E+00 -0.18409479683E+03  0.39149810605E+04  0.39106503052E+04 0.  0.
        5    1    3    3  502    0  0.15057701962E+04 -0.27658717866E+03  0.11256178034E+04  0.19002320596E+04  0.46999998093E+01 0.  1.
       -5    1    3    3    0  502 -0.15057701962E+04  0.27658717866E+03 -0.13097126003E+04  0.20147490008E+04  0.46999998093E+01 0. -1.
</event>
<event>
 5   0  0.3665303E-07  0.3898904E+04  0.7818609E-02  0.8025257E-01
        2   -1    0    0  501    0  0.00000000000E+00  0.00000000000E+00  0.20556603107E+04  0.20556603107E+04  0.25500000920E-02 0.  1.
       -2   -1    0    0    0  501  0.00000000000E+00  0.00000000000E+00 -0.18487307962E+04  0.18487307962E+04  0.25500000920E-02 0. -1.
    10030    2    1    2    0    0  0.00000000000E+00  0.00000000000E+00  0.20692951457E+03  0.39043911069E+04  0.38989037038E+04 0.  0.
        2    1    3    3  502    0 -0.79079049029E+03 -0.78939861488E+03 -0.14962386217E+04  0.18674125912E+04  0.25500000920E-02 0. -1.
       -2    1    3    3    0  502  0.79079049029E+03  0.78939861488E+03  0.17031681363E+04  0.20369785157E+04  0.25500000920E-02 0.  1.
</event>
<event>
 5   0  0.3680814E-07  0.3816895E+04  0.7818609E-02  0.8042539E-01
       -2   -1    0    0    0  501  0.00000000000E+00  0.00000000000E+00  0.29178140422E+04  0.29178140422E+04  0.25500000920E-02 0.  1.
        2   -1    0    0  501    0  0.00000000000E+00  0.00000000000E+00 -0.12482538084E+04  0.12482538084E+04  0.25500000920E-02 0. -1.
    10030    2    1    2    0    0  0.00000000000E+00  0.00000000000E+00  0.16695602338E+04  0.41660678506E+04  0.38168953302E+04 0.  0.
        1    1    3    3  502    0  0.63785464753E+03  0.86052942309E+03  0.25587680492E+04  0.27739256243E+04  0.50400001928E-02 0.  1.
       -1    1    3    3    0  502 -0.63785464753E+03 -0.86052942309E+03 -0.88920781538E+03  0.13921422263E+04  0.50400001928E-02 0. -1.
</event>
<event>
 5   0  0.1187925E-07  0.3932031E+04  0.7818609E-02  0.8018400E-01
        1   -1    0    0  501    0  0.00000000000E+00  0.00000000000E+00  0.24106564798E+04  0.24106564798E+04  0.50400001928E-02 0. -1.
       -1   -1    0    0    0  501  0.00000000000E+00  0.00000000000E+00 -0.16033874071E+04  0.16033874071E+04  0.50400001928E-02 0.  1.
    10030    2    1    2    0    0  0.00000000000E+00  0.00000000000E+00  0.80726907272E+03  0.40140438870E+04  0.39320306421E+04 0.  0.
        1    1    3    3  502    0  0.14710009972E+04  0.12643079021E+04  0.76166928768E+02  0.19411645490E+04  0.50400001928E-02 0. -1.
       -1    1    3    3    0  502 -0.14710009972E+04 -0.12643079021E+04  0.73110214395E+03  0.20728793380E+04  0.50400001928E-02 0.  1.
</event>
<event>
 5   0  0.1187925E-07  0.3768076E+04  0.7818609E-02  0.8053041E-01
        1   -1    0    0  501    0  0.00000000000E+00  0.00000000000E+00  0.24462683730E+04  0.24462683730E+04  0.50400001928E-02 0.  1.
       -1   -1    0    0    0  501  0.00000000000E+00  0.00000000000E+00 -0.14510261250E+04  0.14510261250E+04  0.50400001928E-02 0. -1.
    10030    2    1    2    0    0  0.00000000000E+00  0.00000000000E+00  0.99524224802E+03  0.38972944980E+04  0.37680760703E+04 0.  0.
        3    1    3    3  502    0 -0.10610214403E+04  0.14685829477E+03 -0.11054546845E+04  0.15392738305E+04  0.10100000352E+00 0. -1.
       -3    1    3    3    0  502  0.10610214403E+04 -0.14685829477E+03  0.21006969325E+04  0.23580206675E+04  0.10100000352E+00 0.  1.
</event>
<event>
 5   0  0.1187925E-07  0.3855637E+04  0.7818609E-02  0.8034320E-01
       -1   -1    0    0    0  501  0.00000000000E+00  0.00000000000E+00  0.16092817348E+04  0.16092817348E+04  0.50400001928E-02 0.  1.
        1   -1    0    0  501    0  0.00000000000E+00  0.00000000000E+00 -0.23094053180E+04  0.23094053180E+04  0.50400001928E-02 0. -1.
    10030    2    1    2    0    0  0.00000000000E+00  0.00000000000E+00 -0.70012358325E+03  0.39186870528E+04  0.38556368068E+04 0.  0.
        3    1    3    3  502    0  0.66277644903E+03  0.41764239798E+03 -0.21403393825E+04  0.22791995254E+04  0.10100000352E+00 0. -1.
       -3    1    3    3    0  502 -0.66277644903E+03 -0.41764239798E+03  0.14402157992E+04  0.16394875274E+04  0.10100000352E+00 0.  1.
</event>
<event>
 5   0  0.1187925E-07  0.3973773E+04  0.7818609E-02  0.8009858E-01
       -1   -1    0    0    0  501  0.00000000000E+00  0.00000000000E+00  0.26215443355E+04  0.26215443355E+04  0.50400001928E-02 0.  1.
        1   -1    0    0  501    0  0.00000000000E+00  0.00000000000E+00 -0.15058750543E+04  0.15058750544E+04  0.50400001928E-02 0. -1.
    10030    2    1    2    0    0  0.00000000000E+00  0.00000000000E+00  0.11156692812E+04  0.41274193899E+04  0.39737731283E+04 0.  0.
        2    1    3    3  502    0 -0.15185625218E+04 -0.12044046252E+04  0.10378759069E+03  0.19409777169E+04  0.25500000920E-02 0. -1.
       -2    1    3    3    0  502  0.15185625218E+04  0.12044046252E+04  0.10118816905E+04  0.21864416730E+04  0.25500000920E-02 0.  1.
</event>
<event>
 5   0  0.3680814E-07  0.3921839E+04  0.7818609E-02  0.8020502E-01
       -2   -1    0    0    0  501  0.00000000000E+00  0.00000000000E+00  0.20461118637E+04  0.20461118637E+04  0.25500000920E-02 0.  1.
        2   -1    0    0  501    0  0.00000000000E+00  0.00000000000E+00 -0.18792738770E+04  0.18792738770E+04  0.25500000920E-02 0. -1.
    10030    2    1    2    0    0  0.00000000000E+00  0.00000000000E+00  0.16683798666E+03  0.39253857407E+04  0.39218386376E+04 0.  0.
        1    1    3    3  502    0  0.82600756590E+03 -0.25054259989E+03 -0.16788962063E+04  0.18877903922E+04  0.50400001928E-02 0. -1.
       -1    1    3    3    0  502 -0.82600756590E+03  0.25054259989E+03  0.18457341929E+04  0.20375953485E+04  0.50400001928E-02 0.  1.
</event>
<event>
 5   0  0.3810833E-07  0.3065850E+04  0.7818609E-02  0.8225173E-01
        2   -1    0    0  501    0  0.00000000000E+00  0.00000000000E+00  0.17667466355E+04  0.17667466355E+04  0.25500000920E-02 0. -1.
       -2   -1    0    0    0  501  0.00000000000E+00  0.00000000000E+00 -0.13300488513E+04  0.13300488513E+04  0.25500000920E-02 0.  1.
    10030    2    1    2    0    0  0.00000000000E+00  0.00000000000E+00  0.43669778420E+03  0.30967954867E+04  0.30658501809E+04 0.  0.
        3    1    3    3  502    0 -0.78550030458E+03 -0.34754902549E+03 -0.10641351351E+04  0.13675469460E+04  0.10100000352E+00 0.  1.
       -3    1    3    3    0  502  0.78550030458E+03  0.34754902549E+03  0.15008329193E+04  0.17292485407E+04  0.10100000352E+00 0. -1.
</event>
<event>
 5   0  0.1187925E-07  0.2938321E+04  0.7818609E-02  0.8261566E-01
       -1   -1    0    0    0  501  0.00000000000E+00  0.00000000000E+00  0.15774276856E+04  0.15774276856E+04  0.50400001928E-02 0. -1.
        1   -1    0    0  501    0  0.00000000000E+00  0.00000000000E+00 -0.13683242916E+04  0.13683242916E+04  0.50400001928E-02 0.  1.
    10030    2    1    2    0    0  0.00000000000E+00  0.00000000000E+00  0.20910339399E+03  0.29457519772E+04  0.29383210311E+04 0.  0.
        3    1    3    3  502    0  0.11972146432E+04 -0.84775591771E+03  0.18487680858E+03  0.14785778445E+04  0.10100000352E+00 0. -1.
       -3    1    3    3    0  502 -0.11972146432E+04  0.84775591771E+03  0.24226585409E+02  0.14671741326E+04  0.10100000352E+00 0.  1.
</event>
<event>
 5   0  0.3610483E-07  0.3754754E+04  0.7818609E-02  0.8055935E-01
        2   -1    0    0  501    0  0.00000000000E+00  0.00000000000E+00  0.27390675709E+04  0.27390675709E+04  0.25500000920E-02 0.  1.
       -2   -1    0    0    0  501  0.00000000000E+00  0.00000000000E+00 -0.12867678017E+04  0.12867678017E+04  0.25500000920E-02 0. -1.
    10030    2    1    2    0    0  0.00000000000E+00  0.00000000000E+00  0.14522997692E+04  0.40258353726E+04  0.37547537639E+04 0.  0.
        4    1    3    3  502    0  0.23958639585E+03 -0.14420341763E+04 -0.53689540393E+03  0.15572804803E+04  0.12699999809E+01 0. -1.
       -4    1    3    3    0  502 -0.23958639585E+03  0.14420341763E+04  0.19891951731E+04  0.24685548923E+04  0.12699999809E+01 0.  1.
</event>
<event>
 5   0  0.1187925E-07  0.3237700E+04  0.7818609E-02  0.8178931E-01
        1   -1    0    0  501    0  0.00000000000E+00  0.00000000000E+00  0.22953136638E+04  0.22953136638E+04  0.50400001928E-02 0.  1.
       -1   -1    0    0    0  501  0.00000000000E+00  0.00000000000E+00 -0.11417502164E+04  0.11417502164E+04  0.50400001928E-02 0. -1.
    10030    2    1    2    0    0  0.00000000000E+00  0.00000000000E+00  0.11535634474E+04  0.34370638803E+04  0.32376997220E+04 0.  0.
        3    1    3    3  502    0  0.14141200049E+04 -0.67782385911E+03  0.10033903390E+04  0.18617123179E+04  0.10100000352E+00 0.  1.
       -3    1    3    3    0  502 -0.14141200049E+04  0.67782385911E+03  0.15017310838E+03  0.15753515623E+04  0.10100000352E+00 0. -1.
</event>
<event>
 5   0  0.1187925E-07  0.3152966E+04  0.7818609E-02  0.8201350E-01
        1   -1    0    0  501    0  0.00000000000E+00  0.00000000000E+00  0.15156601849E+04  0.15156601849E+04  0.50400001928E-02 0.  1.
       -1   -1    0    0    0  501  0.00000000000E+00  0.00000000000E+00 -0.16397463951E+04  0.16397463951E+04  0.50400001928E-02 0. -1.
    10030    2    1    2    0    0  0.00000000000E+00  0.00000000000E+00 -0.12408621023E+03  0.31554065800E+04  0.31529657939E+04 0.  0.
        3    1    3    3  502    0  0.83974476558E+03  0.17177105510E+03 -0.13861779898E+04  0.16297748299E+04  0.10100000352E+00 0. -1.
       -3    1    3    3    0  502 -0.83974476558E+03 -0.17177105510E+03  0.12620917795E+04  0.15256317501E+04  0.10100000352E+00 0.  1.
</event>
<event>
 5   0  0.3810833E-07  0.3897475E+04  0.7818609E-02  0.8025555E-01
        2   -1    0    0  501    0  0.00000000000E+00  0.00000000000E+00  0.21192056598E+04  0.21192056599E+04  0.25500000920E-02 0.  1.
       -2   -1    0    0    0  501  0.00000000000E+00  0.00000000000E+00 -0.17919817311E+04  0.17919817311E+04  0.25500000920E-02 0. -1.
    10030    2    1    2    0    0  0.00000000000E+00  0.00000000000E+00  0.32722392879E+03  0.39111873909E+04  0.38974749912E+04 0.  0.
        3    1    3    3  502    0 -0.18194891311E+04 -0.21249289362E+03 -0.50347026370E+03  0.18997832099E+04  0.10100000352E+00 0. -1.
       -3    1    3    3    0  502  0.18194891311E+04  0.21249289362E+03  0.83069419250E+03  0.20114041810E+04  0.10100000352E+00 0.  1.
</event>
<event>
 5   0  0.1187925E-07  0.3891908E+04  0.7818609E-02  0.8026714E-01
       -1   -1    0    0    0  501  0.00000000000E+00  0.00000000000E+00  0.19584040782E+04  0.19584040782E+04  0.50400001928E-02 0.  1.
        1   -1    0    0  501    0  0.00000000000E+00  0.00000000000E+00 -0.19335830800E+04  0.19335830800E+04  0.50400001928E-02 0. -1.
    10030    2    1    2    0    0  0.00000000000E+00  0.00000000000E+00  0.24820998152E+02  0.38919871582E+04  0.38919080099E+04 0.  0.
        4    1    3    3  502    0  0.75675602438E+03  0.14597511228E+04  0.10531921345E+04  0.19526311239E+04  0.12699999809E+01 0.  1.
       -4    1    3    3    0  502 -0.75675602438E+03 -0.14597511228E+04 -0.10283711363E+04  0.19393560343E+04  0.12699999809E+01 0. -1.
</event>
<event>
 5   0  0.1187925E-07  0.4128224E+04  0.7818609E-02  0.7979168E-01
        1   -1    0    0  501    0  0.00000000000E+00  0.00000000000E+00  0.13094537544E+04  0.13094537544E+04  0.50400001928E-02 0. -1.
       -1   -1    0    0    0  501  0.00000000000E+00  0.00000000000E+00 -0.32536915485E+04  0.32536915485E+04  0.50400001928E-02 0.  1.
    10030    2    1    2    0    0  0.00000000000E+00  0.00000000000E+00 -0.19442377941E+04  0.45631453029E+04  0.41282241286E+04 0.  0.
        3    1    3    3  502    0  0.35219136267E+03  0.10104873707E+04 -0.29231328980E+04  0.31128490860E+04  0.10100000352E+00 0.  1.
       -3    1    3    3    0  502 -0.35219136267E+03 -0.10104873707E+04  0.97889510394E+03  0.14502962170E+04  0.10100000352E+00 0. -1.
</event>
<event>
 5   0  0.3665303E-07  0.3900731E+04  0.7818609E-02  0.8024877E-01
        2   -1    0    0  501    0  0.00000000000E+00  0.00000000000E+00  0.25186501519E+04  0.25186501519E+04  0.25500000920E-02 0.  1.
       -2   -1    0    0    0  501  0.00000000000E+00  0.00000000000E+00 -0.15103028944E+04  0.15103028944E+04  0.25500000920E-02 0. -1.
    10030    2    1    2    0    0  0.00000000000E+00  0.00000000000E+00  0.10083472575E+04  0.40289530463E+04  0.39007305031E+04 0.  0.
        2    1    3    3  502    0 -0.10254599942E+03 -0.40512079607E+03  0.24718644545E+04  0.25069408495E+04  0.25500000920E-02 0.  1.
       -2    1    3    3    0  502  0.10254599942E+03  0.40512079607E+03 -0.14635171970E+04  0.15220121968E+04  0.25500000920E-02 0. -1.
</event>
<event>
 5   0  0.1187925E-07  0.3904948E+04  0.7818609E-02  0.8024001E-01
       -1   -1    0    0    0  501  0.00000000000E+00  0.00000000000E+00  0.21659729416E+04  0.21659729416E+04  0.50400001928E-02 0. -1.
        1   -1    0    0  501    0  0.00000000000E+00  0.00000000000E+00 -0.17600192717E+04  0.17600192717E+04  0.50400001928E-02 0.  1.
    10030    2    1    2    0    0  0.00000000000E+00  0.00000000000E+00  0.40595366988E+03  0.39259922132E+04  0.39049476919E+04 0.  0.
        4    1    3    3  502    0 -0.16561915272E+04  0.10097187000E+04  0.42700109737E+03  0.19861605620E+04  0.12699999809E+01 0.  1.
       -4    1    3    3    0  502  0.16561915272E+04 -0.10097187000E+04 -0.21047427489E+02  0.19398316512E+04  0.12699999809E+01 0. -1.
</event>
<event>
 5   0  0.3680814E-07  0.3914563E+04  0.7818609E-02  0.8022007E-01
        2   -1    0    0  501    0  0.00000000000E+00  0.00000000000E+00  0.26153600653E+04  0.26153600653E+04  0.25500000920E-02 0.  1.
       -2   -1    0    0    0  501  0.00000000000E+00  0.00000000000E+00 -0.14647889024E+04  0.14647889024E+04  0.25500000920E-02 0. -1.
    10030    2    1    2    0    0  0.00000000000E+00  0.00000000000E+00  0.11505711629E+04  0.40801489677E+04  0.39145627595E+04 0.  0.
        1    1    3    3  502    0 -0.74610488789E+03 -0.83598873247E+03 -0.10974032883E+04  0.15683888681E+04  0.50400001928E-02 0. -1.
       -1    1    3    3    0  502  0.74610488789E+03  0.83598873247E+03  0.22479744512E+04  0.25117600996E+04  0.50400001928E-02 0.  1.
</event>
<event>
 5   0  0.1187925E-07  0.3896785E+04  0.7818609E-02  0.8025698E-01
        1   -1    0    0  501    0  0.00000000000E+00  0.00000000000E+00  0.26854508265E+04  0.26854508265E+04  0.50400001928E-02 0. -1.
       -1   -1    0    0    0  501  0.00000000000E+00  0.00000000000E+00 -0.14136294632E+04  0.14136294633E+04  0.50400001928E-02 0.  1.
    10030    2    1    2    0    0  0.00000000000E+00  0.00000000000E+00  0.12718213633E+04  0.40990802898E+04  0.38967845260E+04 0.  0.
        2    1    3    3  502    0 -0.15055633633E+04  0.34627555023E+03 -0.61299226192E+03  0.16620431134E+04  0.25500000920E-02 0.  1.
       -2    1    3    3    0  502  0.15055633633E+04 -0.34627555023E+03  0.18848136252E+04  0.24370371764E+04  0.25500000920E-02 0. -1.
</event>
<event>
 5   0  0.1187925E-07  0.3887359E+04  0.7818609E-02  0.8027663E-01
        1   -1    0    0  501    0  0.00000000000E+00  0.00000000000E+00  0.26746200887E+04  0.26746200887E+04  0.50400001928E-02 0. -1.
       -1   -1    0    0    0  501  0.00000000000E+00  0.00000000000E+00 -0.14124958654E+04  0.14124958654E+04  0.50400001928E-02 0.  1.
    10030    2    1    2    0    0  0.00000000000E+00  0.00000000000E+00  0.12621242233E+04  0.40871159541E+04  0.38873589065E+04 0.  0.
        4    1    3    3  502    0 -0.10029638081E+04  0.97926634559E+03  0.20467252751E+04  0.24807226650E+04  0.12699999809E+01 0. -1.
       -4    1    3    3    0  502  0.10029638081E+04 -0.97926634559E+03 -0.78460105182E+03  0.16063932892E+04  0.12699999809E+01 0.  1.
</event>
<event>
 5   0  0.3810833E-07  0.3841371E+04  0.7818609E-02  0.8037335E-01
        2   -1    0    0  501    0  0.00000000000E+00  0.00000000000E+00  0.21695081718E+04  0.21695081718E+04  0.25500000920E-02 0.  1.
       -2   -1    0    0    0  501  0.00000000000E+00  0.00000000000E+00 -0.17004004859E+04  0.17004004859E+04  0.25500000920E-02 0. -1.
    10030    2    1    2    0    0  0.00000000000E+00  0.00000000000E+00  0.46910768590E+03  0.38699086577E+04  0.38413709789E+04 0.  0.
        3    1    3    3  502    0 -0.20220434190E+02 -0.14752782895E+04 -0.10042880935E+04  0.17847827549E+04  0.10100000352E+00 0. -1.
       -3    1    3    3    0  502  0.20220434190E+02  0.14752782895E+04  0.14733957794E+04  0.20851259028E+04  0.10100000352E+00 0.  1.
</event>
<event>
 5   0  0.1187925E-07  0.3879451E+04  0.7818609E-02  0.8029317E-01
       -1   -1    0    0    0  501  0.00000000000E+00  0.00000000000E+00  0.14790549085E+04  0.14790549085E+04  0.50400001928E-02 0. -1.
        1   -1    0    0  501    0  0.00000000000E+00  0.00000000000E+00 -0.25438784773E+04  0.25438784773E+04  0.50400001928E-02 0.  1.
    10030    2    1    2    0    0  0.00000000000E+00  0.00000000000E+00 -0.10648235689E+04  0.40229333858E+04  0.38794514810E+04 0.  0.
        3    1    3    3  502    0 -0.10000953608E+04 -0.23392909545E+03  0.11739321173E+04  0.15598173542E+04  0.10100000352E+00 0. -1.
       -3    1    3    3    0  502  0.10000953608E+04  0.23392909545E+03 -0.22387556862E+04  0.24631160316E+04  0.10100000352E+00 0.  1.
</event>
<event>
 5   0  0.3665303E-07  0.3097655E+04  0.7818609E-02  0.8216382E-01
        2   -1    0    0  501    0  0.00000000000E+00  0.00000000000E+00  0.21473701109E+04  0.21473701109E+04  0.25500000920E-02 0.  1.
       -2   -1    0    0    0  501  0.00000000000E+00  0.00000000000E+00 -0.11171181502E+04  0.11171181502E+04  0.25500000920E-02 0. -1.
    10030    2    1    2    0    0  0.00000000000E+00  0.00000000000E+00  0.10302519607E+04  0.32644882611E+04  0.30976546780E+04 0.  0.
        2    1    3    3  502    0  0.10666376069E+04 -0.11193539840E+04  0.61053942556E+03  0.16623560137E+04  0.25500000920E-02 0.  1.
       -2    1    3    3    0  502 -0.10666376069E+04  0.11193539840E+04  0.41971253510E+03  0.16021322474E+04  0.25500000920E-02 0. -1.
</event>
<event>
 5   0  0.3810833E-07  0.4072384E+04  0.7818609E-02  0.7990102E-01
        2   -1    0    0  501    0  0.00000000000E+00  0.00000000000E+00  0.29162749053E+04  0.29162749053E+04  0.25500000920E-02 0. -1.
       -2   -1    0    0    0  501  0.00000000000E+00  0.00000000000E+00 -0.14217031217E+04  0.14217031217E+04  0.25500000920E-02 0.  1.
    10030    2    1    2    0    0  0.00000000000E+00  0.00000000000E+00  0.14945717837E+04  0.43379780270E+04  0.40723836443E+04 0.  0.
        3    1    3    3  502    0 -0.73065560735E+03  0.12444004860E+04  0.22775294898E+04  0.26962067378E+04  0.10100000352E+00 0. -1.
       -3    1    3    3    0  502  0.73065560735E+03 -0.12444004860E+04 -0.78295770613E+03  0.16417712892E+04  0.10100000352E+00 0.  1.
</event>
<event>
 5   0  0.3665303E-07  0.3817040E+04  0.7818609E-02  0.8042508E-01
        2   -1    0    0  501    0  0.00000000000E+00  0.00000000000E+00  0.14133065716E+04  0.14133065716E+04  0.25500000920E-02 0.  1.
       -2   -1    0    0    0  501  0.00000000000E+00  0.00000000000E+00 -0.25772524501E+04  0.25772524501E+04  0.25500000920E-02 0. -1.
    10030    2    1    2    0    0  0.00000000000E+00  0.00000000000E+00 -0.11639458786E+04  0.39905590217E+04  0.38170395986E+04 0.  0.
        2    1    3    3  502    0 -0.35256189101E+03 -0.18622037908E+04 -0.34739608705E+03  0.19268593324E+04  0.25500000920E-02 0.  1.
       -2    1    3    3    0  502  0.35256189101E+03  0.18622037908E+04 -0.81654979152E+03  0.20636996893E+04  0.25500000920E-02 0. -1.
</event>
<event>
 5   0  0.3665303E-07  0.3896383E+04  0.7818609E-02  0.8025782E-01
       -2   -1    0    0    0  501  0.00000000000E+00  0.00000000000E+00  0.14917043475E+04  0.14917043475E+04  0.25500000920E-02 0.  1.
        2   -1    0    0  501    0  0.00000000000E+00  0.00000000000E+00 -0.25443720785E+04  0.25443720785E+04  0.25500000920E-02 0. -1.
    10030    2    1    2    0    0  0.00000000000E+00  0.00000000000E+00 -0.10526677310E+04  0.40360764259E+04  0.38963833954E+04 0.  0.
        2    1    3    3  502    0 -0.16491447801E+04 -0.57968627335E+03 -0.14172485889E+04  0.22504017962E+04  0.25500000920E-02 0. -1.
       -2    1    3    3    0  502  0.16491447801E+04  0.57968627335E+03  0.36458085793E+03  0.17856746298E+04  0.25500000920E-02 0.  1.
</event>
<event>
 5   0  0.1187925E-07  0.3894586E+04  0.7818609E-02  0.8026156E-01
        1   -1    0    0  501    0  0.00000000000E+00  0.00000000000E+00  0.20465379370E+04  0.20465379370E+04  0.50400001928E-02 0. -1.
       -1   -1    0    0    0  501  0.00000000000E+00  0.00000000000E+00 -0.18528605111E+04  0.18528605111E+04  0.50400001928E-02 0.  1.
    10030    2    1    2    0    0  0.00000000000E+00  0.00000000000E+00  0.19367742595E+03  0.38993984481E+04  0.38945856406E+04 0.  0.
        5    1    3    3  502    0 -0.57891309260E+03 -0.18564464674E+04 -0.52352125528E+01  0.19446293613E+04  0.46999998093E+01 0.  1.
       -5    1    3    3    0  502  0.57891309260E+03  0.18564464674E+04  0.19891263850E+03  0.19547690869E+04  0.46999998093E+01 0. -1.
</event>
<event>
 5   0  0.1187925E-07  0.3449532E+04  0.7818609E-02  0.8125856E-01
        1   -1    0    0  501    0  0.00000000000E+00  0.00000000000E+00  0.27785184565E+04  0.27785184565E+04  0.50400001928E-02 0. -1.
       -1   -1    0    0    0  501  0.00000000000E+00  0.00000000000E+00 -0.10706486654E+04  0.10706486654E+04  0.50400001928E-02 0.  1.
    10030    2    1    2    0    0  0.00000000000E+00  0.00000000000E+00  0.17078697911E+04  0.38491671218E+04  0.34495316071E+04 0.  0.
        4    1    3    3  502    0  0.42803788002E+03 -0.11665291303E+03 -0.10058900422E+04  0.10993819712E+04  0.12699999809E+01 0.  1.
       -4    1    3    3    0  502 -0.42803788002E+03  0.11665291303E+03  0.27137598333E+04  0.27497851506E+04  0.12699999809E+01 0. -1.
</event>
<event>
 5   0  0.3665303E-07  0.3747122E+04  0.7818609E-02  0.8057599E-01
       -2   -1    0    0    0  501  0.00000000000E+00  0.00000000000E+00  0.10908173700E+04  0.10908173700E+04  0.25500000920E-02 0.  1.
        2   -1    0    0  501    0  0.00000000000E+00  0.00000000000E+00 -0.32179821634E+04  0.32179821634E+04  0.25500000920E-02 0. -1.
    10030    2    1    2    0    0  0.00000000000E+00  0.00000000000E+00 -0.21271647934E+04  0.43087995334E+04  0.37471220105E+04 0.  0.
        2    1    3    3  502    0  0.57719595358E+03  0.10356615123E+03  0.98256961584E+03  0.11442570369E+04  0.25500000920E-02 0.  1.
       -2    1    3    3    0  502 -0.57719595358E+03 -0.10356615123E+03 -0.31097344092E+04  0.31645424965E+04  0.25500000920E-02 0. -1.
</event>
<event>
 5   0  0.3665303E-07  0.3971570E+04  0.7818609E-02  0.8010306E-01
       -2   -1    0    0    0  501  0.00000000000E+00  0.00000000000E+00  0.20139364441E+04  0.20139364441E+04  0.25500000920E-02 0. -1.
        2   -1    0    0  501    0  0.00000000000E+00  0.00000000000E+00 -0.19580275000E+04  0.19580275000E+04  0.25500000920E-02 0.  1.
    10030    2    1    2    0    0  0.00000000000E+00  0.00000000000E+00  0.55908944080E+02  0.39719639441E+04  0.39715704404E+04 0.  0.
        2    1    3    3  502    0 -0.11576996701E+04 -0.63641722731E+03 -0.14547737952E+04  0.19651112459E+04  0.25500000920E-02 0.  1.
       -2    1    3    3    0  502  0.11576996701E+04  0.63641722731E+03  0.15106827393E+04  0.20068526982E+04  0.25500000920E-02 0. -1.
</event>
<event>
 5   0  0.3810833E-07  0.3879915E+04  0.7818609E-02  0.8029220E-01
       -2   -1    0    0    0  501  0.00000000000E+00  0.00000000000E+00  0.22165256166E+04  0.22165256166E+04  0.25500000920E-02 0. -1.
        2   -1    0    0  501    0  0.00000000000E+00  0.00000000000E+00 -0.16978981922E+04  0.16978981922E+04  0.25500000920E-02 0.  1.
    10030    2    1    2    0    0  0.00000000000E+00  0.00000000000E+00  0.51862742440E+03  0.39144238088E+04  0.38799148637E+04 0.  0.
        3    1    3    3  502    0  0.85055042233E+03 -0.13976722486E+04 -0.79231571519E+03  0.18178800671E+04  0.10100000352E+00 0.  1.
       -3    1    3    3    0  502 -0.85055042233E+03  0.13976722486E+04  0.13109431396E+04  0.20965437417E+04  0.10100000352E+00 0. -1.
</event>
<event>
 5   0  0.1187925E-07  0.3872824E+04  0.7818609E-02  0.8030705E-01
       -1   -1    0    0    0  501  0.00000000000E+00  0.00000000000E+00  0.24043674110E+04  0.24043674110E+04  0.50400001928E-02 0. -1.
        1   -1    0    0  501    0  0.00000000000E+00  0.00000000000E+00 -0.15595331087E+04  0.15595331087E+04  0.50400001928E-02 0.  1.
    10030    2    1    2    0    0  0.00000000000E+00  0.00000000000E+00  0.84483430234E+03  0.39639005197E+04  0.38728235606E+04 0.  0.
        2    1    3    3  502    0  0.12221617662E+04  0.31793897447E+03 -0.10800715556E+04  0.16617217395E+04  0.25500000920E-02 0.  1.
       -2    1    3    3    0  502 -0.12221617662E+04 -0.31793897447E+03  0.19249058579E+04  0.23021787802E+04  0.25500000920E-02 0. -1.
</event>
<event>
 5   0  0.1187925E-07  0.3830401E+04  0.7818609E-02  0.8039662E-01
        1   -1    0    0  501    0  0.00000000000E+00  0.00000000000E+00  0.26688017620E+04  0.26688017620E+04  0.50400001928E-02 0.  1.
       -1   -1    0    0    0  501  0.00000000000E+00  0.00000000000E+00 -0.13743968908E+04  0.13743968909E+04  0.50400001928E-02 0. -1.
    10030    2    1    2    0    0  0.00000000000E+00  0.00000000000E+00  0.12944048712E+04  0.40431986529E+04  0.38304009419E+04 0.  0.
        1    1    3    3  502    0  0.57920879497E+03  0.15536316817E+04 -0.36455598871E+03  0.16976911672E+04  0.50400001928E-02 0. -1.
       -1    1    3    3    0  502 -0.57920879497E+03 -0.15536316817E+04  0.16589608599E+04  0.23455074856E+04  0.50400001928E-02 0.  1.
</event>
<event>
 5   0  0.3665303E-07  0.3234063E+04  0.7818609E-02  0.8179879E-01
        2   -1    0    0  501    0  0.00000000000E+00  0.00000000000E+00  0.20016908742E+04  0.20016908742E+04  0.25500000920E-02 0.  1.
       -2   -1    0    0    0  501  0.00000000000E+00  0.00000000000E+00 -0.13062912966E+04  0.13062912966E+04  0.25500000920E-02 0. -1.
    10030    2    1    2    0    0  0.00000000000E+00  0.00000000000E+00  0.69539957762E+03  0.33079821708E+04  0.32340633064E+04 0.  0.
        2    1    3    3  502    0  0.58070696382E+03  0.13800710791E+03  0.18848881154E+04  0.19771367548E+04  0.25500000920E-02 0.  1.
       -2    1    3    3    0  502 -0.58070696382E+03 -0.13800710791E+03 -0.11894885378E+04  0.13308454160E+04  0.25500000920E-02 0. -1.
</event>
<event>
 5   0  0.3810833E-07  0.3954957E+04  0.7818609E-02  0.8013695E-01
       -2   -1    0    0    0  501  0.00000000000E+00  0.00000000000E+00  0.14718312017E+04  0.14718312017E+04  0.25500000920E-02 0. -1.
        2   -1    0    0  501    0  0.00000000000E+00  0.00000000000E+00 -0.26568405603E+04  0.26568405603E+04  0.25500000920E-02 0.  1.
    10030    2    1    2    0    0  0.00000000000E+00  0.00000000000E+00 -0.11850093587E+04  0.41286717620E+04  0.39549568061E+04 0.  0.
        3    1    3    3  502    0 -0.12470015124E+04 -0.14363256560E+04 -0.28035850677E+02  0.19023223127E+04  0.10100000352E+00 0.  1.
       -3    1    3    3    0  502  0.12470015124E+04  0.14363256560E+04 -0.11569735080E+04  0.22263494493E+04  0.10100000352E+00 0. -1.
</event>
<event>
 5   0  0.1187925E-07  0.2984754E+04  0.7818609E-02  0.8248098E-01
        4   -1    0    0  501    0  0.00000000000E+00  0.00000000000E+00  0.16182374789E+04  0.16182379773E+04  0.12699999809E+01 0. -1.
       -4   -1    0    0    0  501  0.00000000000E+00  0.00000000000E+00 -0.13763040900E+04  0.13763046759E+04  0.12699999809E+01 0.  1.
    10030    2    1    2    0    0  0.00000000000E+00  0.00000000000E+00  0.24193338892E+03  0.29945426532E+04  0.29847535807E+04 0.  0.
        3    1    3    3  502    0 -0.64910436820E+03 -0.54550974320E+03  0.13531114369E+04  0.15968180647E+04  0.10100000352E+00 0. -1.
       -3    1    3    3    0  502  0.64910436820E+03  0.54550974320E+03 -0.11111780480E+04  0.13977245885E+04  0.10100000352E+00 0.  1.
</event>
<event>
 5   0  0.1187925E-07  0.3911456E+04  0.7818609E-02  0.8022651E-01
        1   -1    0    0  501    0  0.00000000000E+00  0.00000000000E+00  0.15043261815E+04  0.15043261815E+04  0.50400001928E-02 0.  1.
       -1   -1    0    0    0  501  0.00000000000E+00  0.00000000000E+00 -0.25425811807E+04  0.25425811807E+04  0.50400001928E-02 0. -1.
    10030    2    1    2    0    0  0.00000000000E+00  0.00000000000E+00 -0.10382549992E+04  0.40469073622E+04  0.39114557079E+04 0.  0.
        5    1    3    3  502    0 -0.48507509570E+03 -0.12974935899E+04 -0.19475390216E+04  0.23899200395E+04  0.46999998093E+01 0. -1.
       -5    1    3    3    0  502  0.48507509570E+03  0.12974935899E+04  0.90928402243E+03  0.16569873228E+04  0.46999998093E+01 0.  1.
</event>
<event>
 5   0  0.3610483E-07  0.3930870E+04  0.7818609E-02  0.8018639E-01
        2   -1    0    0  501    0  0.00000000000E+00  0.00000000000E+00  0.14928080143E+04  0.14928080143E+04  0.25500000920E-02 0. -1.
       -2   -1    0    0    0  501  0.00000000000E+00  0.00000000000E+00 -0.25876966680E+04  0.25876966680E+04  0.25500000920E-02 0.  1.
    10030    2    1    2    0    0  0.00000000000E+00  0.00000000000E+00 -0.10948886537E+04  0.40805046823E+04  0.39308697891E+04 0.  0.
        4    1    3    3  502    0  0.10054322247E+04 -0.10519587252E+04 -0.19188798514E+04  0.24082384880E+04  0.12699999809E+01 0.  1.
       -4    1    3    3    0  502 -0.10054322247E+04  0.10519587252E+04  0.82399119772E+03  0.16722661943E+04  0.12699999809E+01 0. -1.
</event>
<event>
 5   0  0.1187925E-07  0.3039577E+04  0.7818609E-02  0.8232519E-01
        1   -1    0    0  501    0  0.00000000000E+00  0.00000000000E+00  0.94676786581E+03  0.94676786582E+03  0.50400001928E-02 0.  1.
       -1   -1    0    0    0  501  0.00000000000E+00  0.00000000000E+00 -0.24396235477E+04  0.24396235477E+04  0.50400001928E-02 0. -1.
    10030    2    1    2    0    0  0.00000000000E+00  0.00000000000E+00 -0.14928556819E+04  0.33863914136E+04  0.30395770625E+04 0.  0.
        3    1    3    3  502    0 -0.10139958133E+04  0.86785586450E+03  0.63420502617E+02  0.13361824282E+04  0.10100000352E+00 0.  1.
       -3    1    3    3    0  502  0.10139958133E+04 -0.86785586450E+03 -0.15562761845E+04  0.20502089854E+04  0.10100000352E+00 0. -1.
</event>
<event>
 5   0  0.1187925E-07  0.3874292E+04  0.7818609E-02  0.8030397E-01
        1   -1    0    0  501    0  0.00000000000E+00  0.00000000000E+00  0.24530784142E+04  0.24530784142E+04  0.50400001928E-02 0. -1.
       -1   -1    0    0    0  501  0.00000000000E+00  0.00000000000E+00 -0.15297244358E+04  0.15297244358E+04  0.50400001928E-02 0.  1.
    10030    2    1    2    0    0  0.00000000000E+00  0.00000000000E+00  0.92335397840E+03  0.39828028501E+04  0.38742916737E+04 0.  0.
        2    1    3    3  502    0 -0.14286573987E+04  0.36406707779E+03 -0.83007026858E+03  0.16919289142E+04  0.25500000920E-02 0.  1.
       -2    1    3    3    0  502  0.14286573987E+04 -0.36406707779E+03  0.17534242470E+04  0.22908739358E+04  0.25500000920E-02 0. -1.
</event>
<event>
 5   0  0.3665303E-07  0.3788739E+04  0.7818609E-02  0.8048576E-01
        2   -1    0    0  501    0  0.00000000000E+00  0.00000000000E+00  0.30737496017E+04  0.30737496017E+04  0.25500000920E-02 0.  1.
       -2   -1    0    0    0  501  0.00000000000E+00  0.00000000000E+00 -0.11675107626E+04  0.11675107626E+04  0.25500000920E-02 0. -1.
    10030    2    1    2    0    0  0.00000000000E+00  0.00000000000E+00  0.19062388391E+04  0.42412603642E+04  0.37887389677E+04 0.  0.
        2    1    3    3  502    0 -0.10219174859E+04 -0.15813929763E+04  0.11866415076E+04  0.22255869251E+04  0.25500000920E-02 0.  1.
       -2    1    3    3    0  502  0.10219174859E+04  0.15813929763E+04  0.71959733147E+03  0.20156734391E+04  0.25500000920E-02 0. -1.
</event>
<event>
 5   0  0.3810833E-07  0.3964593E+04  0.7818609E-02  0.8011728E-01
        2   -1    0    0  501    0  0.00000000000E+00  0.00000000000E+00  0.21966920964E+04  0.21966920964E+04  0.25500000920E-02 0. -1.
       -2   -1    0    0    0  501  0.00000000000E+00  0.00000000000E+00 -0.17888258005E+04  0.17888258005E+04  0.25500000920E-02 0.  1.
    10030    2    1    2    0    0  0.00000000000E+00  0.00000000000E+00  0.40786629591E+03  0.39855178969E+04  0.39645930424E+04 0.  0.
        3    1    3    3  502    0 -0.10647381167E+04  0.12909678602E+04 -0.86432979489E+03  0.18834360296E+04  0.10100000352E+00 0.  1.
       -3    1    3    3    0  502  0.10647381167E+04 -0.12909678602E+04  0.12721960908E+04  0.21020818673E+04  0.10100000352E+00 0. -1.
</event>
<event>
 5   0  0.1187925E-07  0.3880286E+04  0.7818609E-02  0.8029142E-01
        1   -1    0    0  501    0  0.00000000000E+00  0.00000000000E+00  0.20388562822E+04  0.20388562822E+04  0.50400001928E-02 0. -1.
       -1   -1    0    0    0  501  0.00000000000E+00  0.00000000000E+00 -0.18462087363E+04  0.18462087364E+04  0.50400001928E-02 0.  1.
    10030    2    1    2    0    0  0.00000000000E+00  0.00000000000E+00  0.19264754587E+03  0.38850650186E+04  0.38802857010E+04 0.  0.
        4    1    3    3  502    0 -0.14073423675E+04  0.93395707986E+03 -0.85945364771E+03  0.18951386630E+04  0.12699999809E+01 0.  1.
       -4    1    3    3    0  502  0.14073423675E+04 -0.93395707986E+03  0.10521011936E+04  0.19899263556E+04  0.12699999809E+01 0. -1.
</event>
<event>
 5   0  0.3810833E-07  0.3872761E+04  0.7818609E-02  0.8030718E-01
        2   -1    0    0  501    0  0.00000000000E+00  0.00000000000E+00  0.23233058408E+04  0.23233058408E+04  0.25500000920E-02 0. -1.
       -2   -1    0    0    0  501  0.00000000000E+00  0.00000000000E+00 -0.16138942753E+04  0.16138942753E+04  0.25500000920E-02 0.  1.
    10030    2    1    2    0    0  0.00000000000E+00  0.00000000000E+00  0.70941156550E+03  0.39372001160E+04  0.38727612868E+04 0.  0.
        3    1    3    3  502    0 -0.84118684584E+03  0.17192408005E+04  0.56246916956E+02  0.19148232204E+04  0.10100000352E+00 0. -1.
       -3    1    3    3    0  502  0.84118684584E+03 -0.17192408005E+04  0.65316464855E+03  0.20223768956E+04  0.10100000352E+00 0.  1.
</event>
<event>
 5   0  0.1187925E-07  0.3784731E+04  0.7818609E-02  0.8049440E-01
        1   -1    0    0  501    0  0.00000000000E+00  0.00000000000E+00  0.18385417632E+04  0.18385417632E+04  0.50400001928E-02 0. -1.
       -1   -1    0    0    0  501  0.00000000000E+00  0.00000000000E+00 -0.19477644751E+04  0.19477644751E+04  0.50400001928E-02 0.  1.
    10030    2    1    2    0    0  0.00000000000E+00  0.00000000000E+00 -0.10922271192E+03  0.37863062384E+04  0.37847305492E+04 0.  0.
        3    1    3    3  502    0 -0.69308634520E+03 -0.10513416888E+04 -0.14677709671E+04  0.19339182120E+04  0.10100000352E+00 0.  1.
       -3    1    3    3    0  502  0.69308634520E+03  0.10513416888E+04  0.13585482552E+04  0.18523880264E+04  0.10100000352E+00 0. -1.
</event>
<event>
 5   0  0.3665303E-07  0.3875760E+04  0.7818609E-02  0.8030090E-01
       -2   -1    0    0    0  501  0.00000000000E+00  0.00000000000E+00  0.25384615799E+04  0.25384615799E+04  0.25500000920E-02 0. -1.
        2   -1    0    0  501    0  0.00000000000E+00  0.00000000000E+00 -0.14793915197E+04  0.14793915197E+04  0.25500000920E-02 0.  1.
    10030    2    1    2    0    0  0.00000000000E+00  0.00000000000E+00  0.10590700603E+04  0.40178530996E+04  0.38757598142E+04 0.  0.
        2    1    3    3  502    0  0.47820512496E+03 -0.18441063816E+04  0.16160024984E+03  0.19119422400E+04  0.25500000920E-02 0. -1.
       -2    1    3    3    0  502 -0.47820512496E+03  0.18441063816E+04  0.89746981042E+03  0.21059108597E+04  0.25500000920E-02 0.  1.
</event>
<event>
 5   0  0.3810833E-07  0.3921286E+04  0.7818609E-02  0.8020617E-01
       -2   -1    0    0    0  501  0.00000000000E+00  0.00000000000E+00  0.23344970564E+04  0.23344970564E+04  0.25500000920E-02 0. -1.
        2   -1    0    0  501    0  0.00000000000E+00  0.00000000000E+00 -0.16466594108E+04  0.16466594108E+04  0.25500000920E-02 0.  1.
    10030    2    1    2    0    0  0.00000000000E+00  0.00000000000E+00  0.68783764560E+03  0.39811564671E+04  0.39212862927E+04 0.  0.
        3    1    3    3  502    0 -0.16358558401E+04 -0.37102444074E+03  0.13745223950E+04  0.21686390409E+04  0.10100000352E+00 0.  1.
       -3    1    3    3    0  502  0.16358558401E+04  0.37102444074E+03 -0.68668474939E+03  0.18125174262E+04  0.10100000352E+00 0. -1.
</event>
<event>
 5   0  0.3680814E-07  0.3928998E+04  0.7818609E-02  0.8019025E-01
       -2   -1    0    0    0  501  0.00000000000E+00  0.00000000000E+00  0.26691397015E+04  0.26691397015E+04  0.25500000920E-02 0.  1.
        2   -1    0    0  501    0  0.00000000000E+00  0.00000000000E+00 -0.14458801221E+04  0.14458801221E+04  0.25500000920E-02 0. -1.
    10030    2    1    2    0    0  0.00000000000E+00  0.00000000000E+00  0.12232595794E+04  0.41150198236E+04  0.39289978557E+04 0.  0.
        1    1    3    3  502    0 -0.13239504783E+04 -0.14469100958E+04  0.73041166665E+03  0.20928198435E+04  0.50400001928E-02 0. -1.
       -1    1    3    3    0  502  0.13239504783E+04  0.14469100958E+04  0.49284791275E+03  0.20221999801E+04  0.50400001928E-02 0.  1.
</event>
<event>
 5   0  0.1187925E-07  0.3691098E+04  0.7818609E-02  0.8069937E-01
       -1   -1    0    0    0  501  0.00000000000E+00  0.00000000000E+00  0.21891905666E+04  0.21891905666E+04  0.50400001928E-02 0.  1.
        1   -1    0    0  501    0  0.00000000000E+00  0.00000000000E+00 -0.15558499216E+04  0.15558499216E+04  0.50400001928E-02 0. -1.
    10030    2    1    2    0    0  0.00000000000E+00  0.00000000000E+00  0.63334064499E+03  0.37450404881E+04  0.36910984659E+04 0.  0.
        1    1    3    3  502    0 -0.18130427915E+03 -0.17010352464E+04 -0.38602579926E+03  0.17536841417E+04  0.50400001928E-02 0. -1.
       -1    1    3    3    0  502  0.18130427915E+03  0.17010352464E+04  0.10193664443E+04  0.19913563465E+04  0.50400001928E-02 0.  1.
</event>
<event>
 5   0  0.3680814E-07  0.3950956E+04  0.7818609E-02  0.8014514E-01
       -2   -1    0    0    0  501  0.00000000000E+00  0.00000000000E+00  0.17720203153E+04  0.17720203153E+04  0.25500000920E-02 0. -1.
        2   -1    0    0  501    0  0.00000000000E+00  0.00000000000E+00 -0.22022956247E+04  0.22022956247E+04  0.25500000920E-02 0.  1.
    10030    2    1    2    0    0  0.00000000000E+00  0.00000000000E+00 -0.43027530933E+03  0.39743159400E+04  0.39509556248E+04 0.  0.
        1    1    3    3  502    0  0.10507445612E+04  0.11737819606E+04  0.98383433404E+03  0.18573524761E+04  0.50400001928E-02 0. -1.
       -1    1    3    3    0  502 -0.10507445612E+04 -0.11737819606E+04 -0.14141096434E+04  0.21169634638E+04  0.50400001928E-02 0.  1.
</event>
<event>
 5   0  0.1187925E-07  0.3914103E+04  0.7818609E-02  0.8022102E-01
        1   -1    0    0  501    0  0.00000000000E+00  0.00000000000E+00  0.26087383535E+04  0.26087383535E+04  0.50400001928E-02 0.  1.
       -1   -1    0    0    0  501  0.00000000000E+00  0.00000000000E+00 -0.14681620045E+04  0.14681620045E+04  0.50400001928E-02 0. -1.
    10030    2    1    2    0    0  0.00000000000E+00  0.00000000000E+00  0.11405763490E+04  0.40769003580E+04  0.39141029778E+04 0.  0.
        4    1    3    3  502    0 -0.36089294515E+03 -0.35668324002E+03  0.25390309102E+04  0.25892366109E+04  0.12699999809E+01 0.  1.
       -4    1    3    3    0  502  0.36089294515E+03  0.35668324002E+03 -0.13984545612E+04  0.14876637470E+04  0.12699999809E+01 0. -1.
</event>
<event>
 5   0  0.3832389E-07  0.3338200E+04  0.7818609E-02  0.8153243E-01
        2   -1    0    0  501    0  0.00000000000E+00  0.00000000000E+00  0.23435955219E+04  0.23435955219E+04  0.25500000920E-02 0.  1.
       -2   -1    0    0    0  501  0.00000000000E+00  0.00000000000E+00 -0.11887271581E+04  0.11887271581E+04  0.25500000920E-02 0. -1.
    10030    2    1    2    0    0  0.00000000000E+00  0.00000000000E+00  0.11548683639E+04  0.35323226800E+04  0.33382004999E+04 0.  0.
        5    1    3    3  502    0 -0.16040784918E+04  0.21898263365E+03  0.14780326449E+03  0.16256964959E+04  0.46999998093E+01 0. -1.
       -5    1    3    3    0  502  0.16040784918E+04 -0.21898263365E+03  0.10070650994E+04  0.19066261841E+04  0.46999998093E+01 0.  1.
</event>
<event>
 5   0  0.1187925E-07  0.3944876E+04  0.7818609E-02  0.8015760E-01
        1   -1    0    0  501    0  0.00000000000E+00  0.00000000000E+00  0.13070691580E+04  0.13070691580E+04  0.50400001928E-02 0.  1.
       -1   -1    0    0    0  501  0.00000000000E+00  0.00000000000E+00 -0.29765152747E+04  0.29765152747E+04  0.50400001928E-02 0. -1.
    10030    2    1    2    0    0  0.00000000000E+00  0.00000000000E+00 -0.16694461167E+04  0.42835844327E+04  0.39448758226E+04 0.  0.
        4    1    3    3  502    0 -0.81769009013E+03  0.12059297124E+03  0.11099525579E+04  0.13838916294E+04  0.12699999809E+01 0.  1.
       -4    1    3    3    0  502  0.81769009013E+03 -0.12059297124E+03 -0.27793986746E+04  0.28996928033E+04  0.12699999809E+01 0. -1.
</event>
<event>
 5   0  0.1187925E-07  0.4192325E+04  0.7818609E-02  0.7966834E-01
       -1   -1    0    0    0  501  0.00000000000E+00  0.00000000000E+00  0.36464127547E+04  0.36464127547E+04  0.50400001928E-02 0.  1.
        1   -1    0    0  501    0  0.00000000000E+00  0.00000000000E+00 -0.12049916996E+04  0.12049916996E+04  0.50400001928E-02 0. -1.
    10030    2    1    2    0    0  0.00000000000E+00  0.00000000000E+00  0.24414210552E+04  0.48514044543E+04  0.41923249409E+04 0.  0.
        5    1    3    3  502    0 -0.14472915959E+04 -0.12578518649E+04  0.22006097922E+04  0.29188267892E+04  0.46999998093E+01 0.  1.
       -5    1    3    3    0  502  0.14472915959E+04  0.12578518649E+04  0.24081126292E+03  0.19325776651E+04  0.46999998093E+01 0. -1.
</event>
<event>
 5   0  0.3680814E-07  0.3803817E+04  0.7818609E-02  0.8045336E-01
        2   -1    0    0  501    0  0.00000000000E+00  0.00000000000E+00  0.15300939249E+04  0.15300939249E+04  0.25500000920E-02 0. -1.
       -2   -1    0    0    0  501  0.00000000000E+00  0.00000000000E+00 -0.23640738746E+04  0.23640738746E+04  0.25500000920E-02 0.  1.
    10030    2    1    2    0    0  0.00000000000E+00  0.00000000000E+00 -0.83397994966E+03  0.38941677995E+04  0.38038165432E+04 0.  0.
        1    1    3    3  502    0 -0.32915249942E+02 -0.18577953327E+04 -0.83254806962E+03  0.20360803521E+04  0.50400001928E-02 0. -1.
       -1    1    3    3    0  502  0.32915249942E+02  0.18577953327E+04 -0.14318800361E+01  0.18580874474E+04  0.50400001928E-02 0.  1.
</event>
<event>
 5   0  0.3610483E-07  0.3867626E+04  0.7818609E-02  0.8031796E-01
        2   -1    0    0  501    0  0.00000000000E+00  0.00000000000E+00  0.16255776988E+04  0.16255776988E+04  0.25500000920E-02 0. -1.
       -2   -1    0    0    0  501  0.00000000000E+00  0.00000000000E+00 -0.23004949976E+04  0.23004949976E+04  0.25500000920E-02 0.  1.
    10030    2    1    2    0    0  0.00000000000E+00  0.00000000000E+00 -0.67491729879E+03  0.39260726963E+04  0.38676263336E+04 0.  0.
        4    1    3    3  502    0  0.49279395392E+03 -0.17679011991E+04  0.28110282131E+03  0.18567016292E+04  0.12699999809E+01 0.  1.
       -4    1    3    3    0  502 -0.49279395392E+03  0.17679011991E+04 -0.95602012010E+03  0.20693710672E+04  0.12699999809E+01 0. -1.
</event>
<event>
 5   0  0.3810833E-07  0.3830409E+04  0.7818609E-02  0.8039660E-01
        2   -1    0    0  501    0  0.00000000000E+00  0.00000000000E+00  0.26088467580E+04  0.26088467580E+04  0.25500000920E-02 0.  1.
       -2   -1    0    0    0  501  0.00000000000E+00  0.00000000000E+00 -0.14059885651E+04  0.14059885651E+04  0.25500000920E-02 0. -1.
    10030    2    1    2    0    0  0.00000000000E+00  0.00000000000E+00  0.12028581929E+04  0.40148353231E+04  0.38304092261E+04 0.  0.
        3    1    3    3  502    0  0.17685672343E+04 -0.54411679584E+03  0.11192985370E+04  0.21625730912E+04  0.10100000352E+00 0.  1.
       -3    1    3    3    0  502 -0.17685672343E+04  0.54411679584E+03  0.83559655977E+02  0.18522622320E+04  0.10100000352E+00 0. -1.
</event>
<event>
 5   0  0.1187925E-07  0.3892744E+04  0.7818609E-02  0.8026540E-01
       -1   -1    0    0    0  501  0.00000000000E+00  0.00000000000E+00  0.18799487324E+04  0.18799487324E+04  0.50400001928E-02 0. -1.
        1   -1    0    0  501    0  0.00000000000E+00  0.00000000000E+00 -0.20151418793E+04  0.20151418793E+04  0.50400001928E-02 0.  1.
    10030    2    1    2    0    0  0.00000000000E+00  0.00000000000E+00 -0.13519314692E+03  0.38950906117E+04  0.38927437222E+04 0.  0.
        4    1    3    3  502    0 -0.15073256466E+03  0.67547925339E+03  0.17526673754E+04  0.18843664903E+04  0.12699999809E+01 0. -1.
       -4    1    3    3    0  502  0.15073256466E+03 -0.67547925339E+03 -0.18878605223E+04  0.20107241214E+04  0.12699999809E+01 0.  1.
</event>
<event>
 5   0  0.1187925E-07  0.3905142E+04  0.7818609E-02  0.8023961E-01
        1   -1    0    0  501    0  0.00000000000E+00  0.00000000000E+00  0.13029761241E+04  0.13029761241E+04  0.50400001928E-02 0. -1.
       -1   -1    0    0    0  501  0.00000000000E+00  0.00000000000E+00 -0.29260191523E+04  0.29260191523E+04  0.50400001928E-02 0.  1.
    10030    2    1    2    0    0  0.00000000000E+00  0.00000000000E+00 -0.16230430282E+04  0.42289952764E+04  0.39051417870E+04 0.  0.
        2    1    3    3  502    0 -0.65258885295E+02  0.35240480819E+03  0.12670512260E+04  0.13167637147E+04  0.25500000920E-02 0. -1.
       -2    1    3    3    0  502  0.65258885295E+02 -0.35240480819E+03 -0.28900942542E+04  0.29122315617E+04  0.25500000920E-02 0.  1.
</event>
<event>
 5   0  0.3832389E-07  0.3870224E+04  0.7818609E-02  0.8031251E-01
       -2   -1    0    0    0  501  0.00000000000E+00  0.00000000000E+00  0.19541572708E+04  0.19541572708E+04  0.25500000920E-02 0.  1.
        2   -1    0    0  501    0  0.00000000000E+00  0.00000000000E+00 -0.19162523328E+04  0.19162523328E+04  0.25500000920E-02 0. -1.
    10030    2    1    2    0    0  0.00000000000E+00  0.00000000000E+00  0.37904938057E+02  0.38704096036E+04  0.38702239878E+04 0.  0.
        5    1    3    3  502    0 -0.16875151588E+04 -0.85535780419E+03  0.42553310018E+03  0.19391866578E+04  0.46999998093E+01 0. -1.
       -5    1    3    3    0  502  0.16875151588E+04  0.85535780419E+03 -0.38762816212E+03  0.19312229458E+04  0.46999998093E+01 0.  1.
</event>
<event>
 5   0  0.1187925E-07  0.3801113E+04  0.7818609E-02  0.8045916E-01
       -1   -1    0    0    0  501  0.00000000000E+00  0.00000000000E+00  0.11673657807E+04  0.11673657807E+04  0.50400001928E-02 0. -1.
        1   -1    0    0  501    0  0.00000000000E+00  0.00000000000E+00 -0.30942438411E+04  0.30942438411E+04  0.50400001928E-02 0.  1.
    10030    2    1    2    0    0  0.00000000000E+00  0.00000000000E+00 -0.19268780604E+04  0.42616096218E+04  0.38011126672E+04 0.  0.
        1    1    3    3  502    0 -0.90035541501E+03  0.15405537456E+04 -0.22982038587E+03  0.17991006437E+04  0.50400001928E-02 0. -1.
       -1    1    3    3    0  502  0.90035541501E+03 -0.15405537456E+04 -0.16970576745E+04  0.24625089781E+04  0.50400001928E-02 0.  1.
</event>
<event>
 5   0  0.3680814E-07  0.3916795E+04  0.7818609E-02  0.8021545E-01
        2   -1    0    0  501    0  0.00000000000E+00  0.00000000000E+00  0.17902445530E+04  0.17902445530E+04  0.25500000920E-02 0.  1.
       -2   -1    0    0    0  501  0.00000000000E+00  0.00000000000E+00 -0.21423449808E+04  0.21423449808E+04  0.25500000920E-02 0. -1.
    10030    2    1    2    0    0  0.00000000000E+00  0.00000000000E+00 -0.35210042783E+03  0.39325895338E+04  0.39167953394E+04 0.  0.
        1    1    3    3  502    0 -0.19464201463E+03 -0.28316011261E+03  0.17597431245E+04  0.17929754676E+04  0.50400001928E-02 0.  1.
       -1    1    3    3    0  502  0.19464201463E+03  0.28316011261E+03 -0.21118435523E+04  0.21396140663E+04  0.50400001928E-02 0. -1.
</event>
<event>
 5   0  0.1187925E-07  0.3954730E+04  0.7818609E-02  0.8013742E-01
        1   -1    0    0  501    0  0.00000000000E+00  0.00000000000E+00  0.22339431691E+04  0.22339431691E+04  0.50400001928E-02 0. -1.
       -1   -1    0    0    0  501  0.00000000000E+00  0.00000000000E+00 -0.17502562800E+04  0.17502562800E+04  0.50400001928E-02 0.  1.
    10030    2    1    2    0    0  0.00000000000E+00  0.00000000000E+00  0.48368688904E+03  0.39841994491E+04  0.39547303630E+04 0.  0.
        2    1    3    3  502    0 -0.11553678544E+04  0.14681016607E+04  0.89457233875E+03  0.20713418439E+04  0.25500000920E-02 0. -1.
       -2    1    3    3    0  502  0.11553678544E+04 -0.14681016607E+04 -0.41088544970E+03  0.19128576052E+04  0.25500000920E-02 0.  1.
</event>
<event>
 5   0  0.1187925E-07  0.3428159E+04  0.7818609E-02  0.8131030E-01
       -1   -1    0    0    0  501  0.00000000000E+00  0.00000000000E+00  0.11789657911E+04  0.11789657911E+04  0.50400001928E-02 0.  1.
        1   -1    0    0  501    0  0.00000000000E+00  0.00000000000E+00 -0.24920721761E+04  0.24920721761E+04  0.50400001928E-02 0. -1.
    10030    2    1    2    0    0  0.00000000000E+00  0.00000000000E+00 -0.13131063850E+04  0.36710379672E+04  0.34281585987E+04 0.  0.
        4    1    3    3  502    0 -0.13201979404E+04 -0.81595813381E+03 -0.14356687409E+04  0.21142035437E+04  0.12699999809E+01 0. -1.
       -4    1    3    3    0  502  0.13201979404E+04  0.81595813381E+03  0.12256235584E+03  0.15568344234E+04  0.12699999809E+01 0.  1.
</event>
<event>
 5   0  0.1187925E-07  0.3871507E+04  0.7818609E-02  0.8030981E-01
        3   -1    0    0  501    0  0.00000000000E+00  0.00000000000E+00  0.15382171788E+04  0.15382171821E+04  0.10100000352E+00 0.  1.
       -3   -1    0    0    0  501  0.00000000000E+00  0.00000000000E+00 -0.24360292306E+04  0.24360292327E+04  0.10100000352E+00 0. -1.
    10030    2    1    2    0    0  0.00000000000E+00  0.00000000000E+00 -0.89781205183E+03  0.39742464148E+04  0.38715072110E+04 0.  0.
        5    1    3    3  502    0  0.88331706160E+03  0.45731071598E+03 -0.21536187600E+04  0.23722305907E+04  0.46999998093E+01 0. -1.
       -5    1    3    3    0  502 -0.88331706160E+03 -0.45731071598E+03  0.12558067082E+04  0.16020158241E+04  0.46999998093E+01 0.  1.
</event>
<event>
 5   0  0.3610483E-07  0.3910973E+04  0.7818609E-02  0.8022751E-01
       -2   -1    0    0    0  501  0.00000000000E+00  0.00000000000E+00  0.27082025255E+04  0.27082025255E+04  0.25500000920E-02 0. -1.
        2   -1    0    0  501    0  0.00000000000E+00  0.00000000000E+00 -0.14119797852E+04  0.14119797852E+04  0.25500000920E-02 0.  1.
    10030    2    1    2    0    0  0.00000000000E+00  0.00000000000E+00  0.12962227403E+04  0.41201823107E+04  0.39109728817E+04 0.  0.
        4    1    3    3  502    0  0.88566713879E+03 -0.17166768355E+04  0.32763478544E+03  0.19592681807E+04  0.12699999809E+01 0. -1.
       -4    1    3    3    0  502 -0.88566713879E+03  0.17166768355E+04  0.96858795487E+03  0.21609141301E+04  0.12699999809E+01 0.  1.
</event>
<event>
 5   0  0.1187925E-07  0.3754295E+04  0.7818609E-02  0.8056035E-01
       -1   -1    0    0    0  501  0.00000000000E+00  0.00000000000E+00  0.24171857969E+04  0.24171857969E+04  0.50400001928E-02 0.  1.
        1   -1    0    0  501    0  0.00000000000E+00  0.00000000000E+00 -0.14577624850E+04  0.14577624850E+04  0.50400001928E-02 0. -1.
    10030    2    1    2    0    0  0.00000000000E+00  0.00000000000E+00  0.95942331190E+03  0.38749482819E+04  0.37542950199E+04 0.  0.
        5    1    3    3  502    0  0.22187245202E+02 -0.20146555654E+03 -0.14464293024E+04  0.14605685404E+04  0.46999998093E+01 0. -1.
       -5    1    3    3    0  502 -0.22187245202E+02  0.20146555654E+03  0.24058526143E+04  0.24143797415E+04  0.46999998093E+01 0.  1.
</event>
<event>
 5   0  0.3665303E-07  0.3925686E+04  0.7818609E-02  0.8019708E-01
       -2   -1    0    0    0  501  0.00000000000E+00  0.00000000000E+00  0.17306467920E+04  0.17306467920E+04  0.25500000920E-02 0. -1.
        2   -1    0    0  501    0  0.00000000000E+00  0.00000000000E+00 -0.22261925298E+04  0.22261925298E+04  0.25500000920E-02 0.  1.
    10030    2    1    2    0    0  0.00000000000E+00  0.00000000000E+00 -0.49554573774E+03  0.39568393218E+04  0.39256861617E+04 0.  0.
        2    1    3    3  502    0  0.78412228704E+03 -0.27373645188E+03  0.15448156818E+04  0.17539198661E+04  0.25500000920E-02 0. -1.
       -2    1    3    3    0  502 -0.78412228704E+03  0.27373645188E+03 -0.20403614195E+04  0.22029194557E+04  0.25500000920E-02 0.  1.
</event>
<event>
 5   0  0.1187925E-07  0.3573014E+04  0.7818609E-02  0.8096701E-01
        1   -1    0    0  501    0  0.00000000000E+00  0.00000000000E+00  0.30819447333E+04  0.30819447333E+04  0.50400001928E-02 0. -1.
       -1   -1    0    0    0  501  0.00000000000E+00  0.00000000000E+00 -0.10355825002E+04  0.10355825002E+04  0.50400001928E-02 0.  1.
    10030    2    1    2    0    0  0.00000000000E+00  0.00000000000E+00  0.20463622332E+04  0.41175272335E+04  0.35730144317E+04 0.  0.
        4    1    3    3  502    0 -0.11848300590E+03 -0.10755538241E+03  0.30736688129E+04  0.30778316989E+04  0.12699999809E+01 0. -1.
       -4    1    3    3    0  502  0.11848300590E+03  0.10755538241E+03 -0.10273065797E+04  0.10396955346E+04  0.12699999809E+01 0.  1.
</event>
<event>
 5   0  0.1187925E-07  0.3938787E+04  0.7818609E-02  0.8017010E-01
       -1   -1    0    0    0  501  0.00000000000E+00  0.00000000000E+00  0.18209657830E+04  0.18209657830E+04  0.50400001928E-02 0. -1.
        1   -1    0    0  501    0  0.00000000000E+00  0.00000000000E+00 -0.21299198121E+04  0.21299198121E+04  0.50400001928E-02 0.  1.
    10030    2    1    2    0    0  0.00000000000E+00  0.00000000000E+00 -0.30895402909E+03  0.39508855951E+04  0.39387871729E+04 0.  0.
        1    1    3    3  502    0 -0.45629993158E+03  0.18466436251E+04  0.35719648309E+03  0.19354306067E+04  0.50400001928E-02 0. -1.
       -1    1    3    3    0  502  0.45629993158E+03 -0.18466436251E+04 -0.66615051218E+03  0.20154549885E+04  0.50400001928E-02 0.  1.
</event>
<event>
 5   0  0.3665303E-07  0.4009511E+04  0.7818609E-02  0.8002631E-01
       -2   -1    0    0    0  501  0.00000000000E+00  0.00000000000E+00  0.18902715963E+04  0.18902715963E+04  0.25500000920E-02 0.  1.
        2   -1    0    0  501    0  0.00000000000E+00  0.00000000000E+00 -0.21261728645E+04  0.21261728645E+04  0.25500000920E-02 0. -1.
    10030    2    1    2    0    0  0.00000000000E+00  0.00000000000E+00 -0.23590126826E+03  0.40164444608E+04  0.40095107804E+04 0.  0.
        2    1    3    3  502    0  0.13195293113E+03  0.24930882090E+03  0.18702934743E+04  0.18914449884E+04  0.25500000920E-02 0.  1.
       -2    1    3    3    0  502 -0.13195293113E+03 -0.24930882090E+03 -0.21061947425E+04  0.21249994724E+04  0.25500000920E-02 0. -1.
</event>
<event>
 5   0  0.3610483E-07  0.3938905E+04  0.7818609E-02  0.8016986E-01
        2   -1    0    0  501    0  0.00000000000E+00  0.00000000000E+00  0.29866366297E+04  0.29866366297E+04  0.25500000920E-02 0.  1.
       -2   -1    0    0    0  501  0.00000000000E+00  0.00000000000E+00 -0.12986994607E+04  0.12986994607E+04  0.25500000920E-02 0. -1.
    10030    2    1    2    0    0  0.00000000000E+00  0.00000000000E+00  0.16879371690E+04  0.42853360903E+04  0.39389051170E+04 0.  0.
        4    1    3    3  502    0 -0.11084942534E+04  0.61036138070E+03 -0.79787945837E+03  0.14959658312E+04  0.12699999809E+01 0. -1.
       -4    1    3    3    0  502  0.11084942534E+04 -0.61036138070E+03  0.24858166274E+04  0.27893702592E+04  0.12699999809E+01 0.  1.
</event>
<event>
 5   0  0.1187925E-07  0.3301468E+04  0.7818609E-02  0.8162522E-01
       -1   -1    0    0    0  501  0.00000000000E+00  0.00000000000E+00  0.16005706928E+04  0.16005706928E+04  0.50400001928E-02 0.  1.
        1   -1    0    0  501    0  0.00000000000E+00  0.00000000000E+00 -0.17024693883E+04  0.17024693883E+04  0.50400001928E-02 0. -1.
    10030    2    1    2    0    0  0.00000000000E+00  0.00000000000E+00 -0.10189869550E+03  0.33030400811E+04  0.33014679210E+04 0.  0.
        2    1    3    3  502    0  0.71424607458E+03  0.76828015156E+03  0.12242244934E+04  0.16121809627E+04  0.25500000920E-02 0.  1.
       -2    1    3    3    0  502 -0.71424607458E+03 -0.76828015156E+03 -0.13261231889E+04  0.16908591184E+04  0.25500000920E-02 0. -1.
</event>
<event>
 5   0  0.1187925E-07  0.3668924E+04  0.7818609E-02  0.8074884E-01
       -1   -1    0    0    0  501  0.00000000000E+00  0.00000000000E+00  0.27835171269E+04  0.27835171269E+04  0.50400001928E-02 0.  1.
        1   -1    0    0  501    0  0.00000000000E+00  0.00000000000E+00 -0.12089921426E+04  0.12089921426E+04  0.50400001928E-02 0. -1.
    10030    2    1    2    0    0  0.00000000000E+00  0.00000000000E+00  0.15745249843E+04  0.39925092695E+04  0.36689237306E+04 0.  0.
        1    1    3    3  502    0  0.75451740446E+03 -0.16721102798E+04  0.78615607142E+03  0.19958182958E+04  0.50400001928E-02 0.  1.
       -1    1    3    3    0  502 -0.75451740446E+03  0.16721102798E+04  0.78836891293E+03  0.19966909737E+04  0.50400001928E-02 0. -1.
</event>
<event>
 5   0  0.1187925E-07  0.3862578E+04  0.7818609E-02  0.8032858E-01
       -1   -1    0    0    0  501  0.00000000000E+00  0.00000000000E+00  0.13736001611E+04  0.13736001611E+04  0.50400001928E-02 0.  1.
        1   -1    0    0  501    0  0.00000000000E+00  0.00000000000E+00 -0.27154019675E+04  0.27154019675E+04  0.50400001928E-02 0. -1.
    10030    2    1    2    0    0  0.00000000000E+00  0.00000000000E+00 -0.13418018064E+04  0.40890021285E+04  0.38625776781E+04 0.  0.
        4    1    3    3  502    0  0.68225676199E+02  0.11782537509E+04  0.94741661541E+03  0.15134518494E+04  0.12699999809E+01 0.  1.
       -4    1    3    3    0  502 -0.68225676199E+02 -0.11782537509E+04 -0.22892184218E+04  0.25755502791E+04  0.12699999809E+01 0. -1.
</event>
<event>
 5   0  0.3610483E-07  0.3769298E+04  0.7818609E-02  0.8052776E-01
        2   -1    0    0  501    0  0.00000000000E+00  0.00000000000E+00  0.28420261134E+04  0.28420261134E+04  0.25500000920E-02 0. -1.
       -2   -1    0    0    0  501  0.00000000000E+00  0.00000000000E+00 -0.12497780203E+04  0.12497780203E+04  0.25500000920E-02 0.  1.
    10030    2    1    2    0    0  0.00000000000E+00  0.00000000000E+00  0.15922480931E+04  0.40918041337E+04  0.37692979557E+04 0.  0.
        4    1    3    3  502    0 -0.54783207084E+03 -0.89761233560E+03  0.24939337458E+04  0.27065725603E+04  0.12699999809E+01 0. -1.
       -4    1    3    3    0  502  0.54783207084E+03  0.89761233560E+03 -0.90168565267E+03  0.13852315734E+04  0.12699999809E+01 0.  1.
</event>
<event>
 5   0  0.1187925E-07  0.2836772E+04  0.7818609E-02  0.8291942E-01
       -1   -1    0    0    0  501  0.00000000000E+00  0.00000000000E+00  0.12193317105E+04  0.12193317105E+04  0.50400001928E-02 0.  1.
        1   -1    0    0  501    0  0.00000000000E+00  0.00000000000E+00 -0.16499358549E+04  0.16499358549E+04  0.50400001928E-02 0. -1.
    10030    2    1    2    0    0  0.00000000000E+00  0.00000000000E+00 -0.43060414444E+03  0.28692675654E+04  0.28367721855E+04 0.  0.
        3    1    3    3  502    0  0.12512658276E+03 -0.10213277791E+04  0.77212467797E+03  0.12864461211E+04  0.10100000352E+00 0.  1.
       -3    1    3    3    0  502 -0.12512658276E+03  0.10213277791E+04 -0.12027288224E+04  0.15828214443E+04  0.10100000352E+00 0. -1.
</event>
<event>
 5   0  0.1187925E-07  0.3890608E+04  0.7818609E-02  0.8026985E-01
       -1   -1    0    0    0  501  0.00000000000E+00  0.00000000000E+00  0.15121293755E+04  0.15121293755E+04  0.50400001928E-02 0.  1.
        1   -1    0    0  501    0  0.00000000000E+00  0.00000000000E+00 -0.25025690516E+04  0.25025690516E+04  0.50400001928E-02 0. -1.
    10030    2    1    2    0    0  0.00000000000E+00  0.00000000000E+00 -0.99043967610E+03  0.40146984271E+04  0.38906082697E+04 0.  0.
        1    1    3    3  502    0 -0.79122374857E+03 -0.48691718335E+03  0.12684102755E+04  0.15722557015E+04  0.50400001928E-02 0.  1.
       -1    1    3    3    0  502  0.79122374857E+03  0.48691718335E+03 -0.22588499516E+04  0.24424427256E+04  0.50400001928E-02 0. -1.
</event>
<event>
 5   0  0.1187925E-07  0.3589569E+04  0.7818609E-02  0.8092885E-01
        1   -1    0    0  501    0  0.00000000000E+00  0.00000000000E+00  0.19627753959E+04  0.19627753959E+04  0.50400001928E-02 0. -1.
       -1   -1    0    0    0  501  0.00000000000E+00  0.00000000000E+00 -0.16411720273E+04  0.16411720273E+04  0.50400001928E-02 0.  1.
    10030    2    1    2    0    0  0.00000000000E+00  0.00000000000E+00  0.32160336860E+03  0.36039474232E+04  0.35895693756E+04 0.  0.
        1    1    3    3  502    0  0.56109399188E+03 -0.13011768873E+04 -0.94513866819E+03  0.17032835530E+04  0.50400001928E-02 0.  1.
       -1    1    3    3    0  502 -0.56109399188E+03  0.13011768873E+04  0.12667420368E+04  0.19006638702E+04  0.50400001928E-02 0. -1.
</event>
<event>
 5   0  0.3610483E-07  0.3620001E+04  0.7818609E-02  0.8085926E-01
        2   -1    0    0  501    0  0.00000000000E+00  0.00000000000E+00  0.25614740788E+04  0.25614740788E+04  0.25500000920E-02 0. -1.
       -2   -1    0    0    0  501  0.00000000000E+00  0.00000000000E+00 -0.12789908107E+04  0.12789908107E+04  0.25500000920E-02 0.  1.
    10030    2    1    2    0    0  0.00000000000E+00  0.00000000000E+00  0.12824832681E+04  0.38404648894E+04  0.36200009992E+04 0.  0.
        4    1    3    3  502    0  0.71819891956E+02 -0.15559967510E+04 -0.33675557175E+03  0.15936404594E+04  0.12699999809E+01 0.  1.
       -4    1    3    3    0  502 -0.71819891956E+02  0.15559967510E+04  0.16192388398E+04  0.22468244300E+04  0.12699999809E+01 0. -1.
</event>
<event>
 5   0  0.3810833E-07  0.3854428E+04  0.7818609E-02  0.8034575E-01
       -2   -1    0    0    0  501  0.00000000000E+00  0.00000000000E+00  0.17548129223E+04  0.17548129223E+04  0.25500000920E-02 0. -1.
        2   -1    0    0  501    0  0.00000000000E+00  0.00000000000E+00 -0.21165528517E+04  0.21165528517E+04  0.25500000920E-02 0.  1.
    10030    2    1    2    0    0  0.00000000000E+00  0.00000000000E+00 -0.36173992946E+03  0.38713657740E+04  0.38544282558E+04 0.  0.
        3    1    3    3  502    0 -0.16407436718E+04  0.13437157396E+03 -0.11873005035E+04  0.20297236296E+04  0.10100000352E+00 0.  1.
       -3    1    3    3    0  502  0.16407436718E+04 -0.13437157396E+03  0.82556057405E+03  0.18416421444E+04  0.10100000352E+00 0. -1.
</event>
<event>
 5   0  0.3832389E-07  0.3855241E+04  0.7818609E-02  0.8034403E-01
       -2   -1    0    0    0  501  0.00000000000E+00  0.00000000000E+00  0.28323708174E+04  0.28323708174E+04  0.25500000920E-02 0. -1.
        2   -1    0    0  501    0  0.00000000000E+00  0.00000000000E+00 -0.13118766350E+04  0.13118766350E+04  0.25500000920E-02 0.  1.
    10030    2    1    2    0    0  0.00000000000E+00  0.00000000000E+00  0.15204941824E+04  0.41442474524E+04  0.38552411582E+04 0.  0.
        5    1    3    3  502    0 -0.13928965975E+04  0.12370394474E+04  0.12926220952E+04  0.22674482346E+04  0.46999998093E+01 0. -1.
       -5    1    3    3    0  502  0.13928965975E+04 -0.12370394474E+04  0.22787208719E+03  0.18767992178E+04  0.46999998093E+01 0.  1.
</event>
<event>
 5   0  0.3810833E-07  0.3825589E+04  0.7818609E-02  0.8040686E-01
       -2   -1    0    0    0  501  0.00000000000E+00  0.00000000000E+00  0.30942342237E+04  0.30942342237E+04  0.25500000920E-02 0. -1.
        2   -1    0    0  501    0  0.00000000000E+00  0.00000000000E+00 -0.11824517283E+04  0.11824517283E+04  0.25500000920E-02 0.  1.
    10030    2    1    2    0    0  0.00000000000E+00  0.00000000000E+00  0.19117824955E+04  0.42766859520E+04  0.38255888987E+04 0.  0.
        3    1    3    3  502    0 -0.12069112629E+03  0.19063420591E+04  0.10681079428E+04  0.21885065643E+04  0.10100000352E+00 0.  1.
       -3    1    3    3    0  502  0.12069112629E+03 -0.19063420591E+04  0.84367455268E+03  0.20881793877E+04  0.10100000352E+00 0. -1.
</event>
<event>
 5   0  0.1187925E-07  0.3840741E+04  0.7818609E-02  0.8037468E-01
        1   -1    0    0  501    0  0.00000000000E+00  0.00000000000E+00  0.21789814183E+04  0.21789814183E+04  0.50400001928E-02 0. -1.
       -1   -1    0    0    0  501  0.00000000000E+00  0.00000000000E+00 -0.16924522511E+04  0.16924522511E+04  0.50400001928E-02 0.  1.
    10030    2    1    2    0    0  0.00000000000E+00  0.00000000000E+00  0.48652916719E+03  0.38714336695E+04  0.38407405570E+04 0.  0.
        5    1    3    3  502    0 -0.15294180480E+04 -0.88847714358E+03  0.99709712311E+03  0.20304521573E+04  0.46999998093E+01 0. -1.
       -5    1    3    3    0  502  0.15294180480E+04  0.88847714358E+03 -0.51056795592E+03  0.18409815121E+04  0.46999998093E+01 0.  1.
</event>
<event>
 5   0  0.3832389E-07  0.3830833E+04  0.7818609E-02  0.8039570E-01
        2   -1    0    0  501    0  0.00000000000E+00  0.00000000000E+00  0.25976321936E+04  0.25976321936E+04  0.25500000920E-02 0.  1.
       -2   -1    0    0    0  501  0.00000000000E+00  0.00000000000E+00 -0.14123710690E+04  0.14123710690E+04  0.25500000920E-02 0. -1.
    10030    2    1    2    0    0  0.00000000000E+00  0.00000000000E+00  0.11852611246E+04  0.40100032625E+04  0.38308330990E+04 0.  0.
        5    1    3    3  502    0 -0.65743696040E+03 -0.11115579191E+04  0.20733629293E+04  0.24426707292E+04  0.46999998093E+01 0.  1.
       -5    1    3    3    0  502  0.65743696040E+03  0.11115579191E+04 -0.88810180474E+03  0.15673325333E+04  0.46999998093E+01 0. -1.
</event>
<event>
 5   0  0.3665303E-07  0.3946918E+04  0.7818609E-02  0.8015341E-01
       -2   -1    0    0    0  501  0.00000000000E+00  0.00000000000E+00  0.17256596024E+04  0.17256596024E+04  0.25500000920E-02 0.  1.
        2   -1    0    0  501    0  0.00000000000E+00  0.00000000000E+00 -0.22568414441E+04  0.22568414441E+04  0.25500000920E-02 0. -1.
    10030    2    1    2    0    0  0.00000000000E+00  0.00000000000E+00 -0.53118184173E+03  0.39825010465E+04  0.39469178401E+04 0.  0.
        2    1    3    3  502    0  0.33632747421E+03  0.68197592772E+03 -0.21030888736E+04  0.22363340864E+04  0.25500000920E-02 0. -1.
       -2    1    3    3    0  502 -0.33632747421E+03 -0.68197592772E+03  0.15719070318E+04  0.17461669601E+04  0.25500000920E-02 0.  1.
</event>
<event>
 5   0  0.3832389E-07  0.3827422E+04  0.7818609E-02  0.8040296E-01
        2   -1    0    0  501    0  0.00000000000E+00  0.00000000000E+00  0.23499758662E+04  0.23499758662E+04  0.25500000920E-02 0.  1.
       -2   -1    0    0    0  501  0.00000000000E+00  0.00000000000E+00 -0.15584375787E+04  0.15584375787E+04  0.25500000920E-02 0. -1.
    10030    2    1    2    0    0  0.00000000000E+00  0.00000000000E+00  0.79153828751E+03  0.39084134450E+04  0.38274224742E+04 0.  0.
        5    1    3    3  502    0  0.76324846431E+03  0.16005463038E+04 -0.33916293524E+03  0.18053670750E+04  0.46999998093E+01 0.  1.
       -5    1    3    3    0  502 -0.76324846431E+03 -0.16005463038E+04  0.11307012228E+04  0.21030463699E+04  0.46999998093E+01 0. -1.
</event>
<event>
 5   0  0.1187925E-07  0.3935270E+04  0.7818609E-02  0.8017734E-01
       -1   -1    0    0    0  501  0.00000000000E+00  0.00000000000E+00  0.20491604959E+04  0.20491604959E+04  0.50400001928E-02 0.  1.
        1   -1    0    0  501    0  0.00000000000E+00  0.00000000000E+00 -0.18893526139E+04  0.18893526139E+04  0.50400001928E-02 0. -1.
    10030    2    1    2    0    0  0.00000000000E+00  0.00000000000E+00  0.15980788200E+03  0.39385131098E+04  0.39352696168E+04 0.  0.
        1    1    3    3  502    0 -0.17896891760E+04  0.50636108599E+03  0.72245946324E+03  0.19953286878E+04  0.50400001928E-02 0.  1.
       -1    1    3    3    0  502  0.17896891760E+04 -0.50636108599E+03 -0.56265158125E+03  0.19431844220E+04  0.50400001928E-02 0. -1.
</event>
<event>
 5   0  0.3665303E-07  0.3960611E+04  0.7818609E-02  0.8012540E-01
        2   -1    0    0  501    0  0.00000000000E+00  0.00000000000E+00  0.16279539606E+04  0.16279539606E+04  0.25500000920E-02 0.  1.
       -2   -1    0    0    0  501  0.00000000000E+00  0.00000000000E+00 -0.24089195798E+04  0.24089195798E+04  0.25500000920E-02 0. -1.
    10030    2    1    2    0    0  0.00000000000E+00  0.00000000000E+00 -0.78096561921E+03  0.40368735405E+04  0.39606111502E+04 0.  0.
        2    1    3    3  502    0 -0.84420603044E+03  0.55610281185E+03 -0.21261149227E+04  0.23542087468E+04  0.25500000920E-02 0. -1.
       -2    1    3    3    0  502  0.84420603044E+03 -0.55610281185E+03  0.13451493035E+04  0.16826647936E+04  0.25500000920E-02 0.  1.
</event>
<event>
 5   0  0.1187925E-07  0.3890791E+04  0.7818609E-02  0.8026947E-01
       -1   -1    0    0    0  501  0.00000000000E+00  0.00000000000E+00  0.22801993148E+04  0.22801993148E+04  0.50400001928E-02 0. -1.
        1   -1    0    0  501    0  0.00000000000E+00  0.00000000000E+00 -0.16597513498E+04  0.16597513498E+04  0.50400001928E-02 0.  1.
    10030    2    1    2    0    0  0.00000000000E+00  0.00000000000E+00  0.62044796502E+03  0.39399506645E+04  0.38907911229E+04 0.  0.
        5    1    3    3  502    0 -0.60993858079E+03 -0.17069740648E+03  0.21728608724E+04  0.22632960782E+04  0.46999998093E+01 0. -1.
       -5    1    3    3    0  502  0.60993858079E+03  0.17069740648E+03 -0.15524129074E+04  0.16766545863E+04  0.46999998093E+01 0.  1.
</event>
<event>
 5   0  0.1187925E-07  0.4067972E+04  0.7818609E-02  0.7990973E-01
       -1   -1    0    0    0  501  0.00000000000E+00  0.00000000000E+00  0.15225291934E+04  0.15225291934E+04  0.50400001928E-02 0. -1.
        1   -1    0    0  501    0  0.00000000000E+00  0.00000000000E+00 -0.27172547369E+04  0.27172547369E+04  0.50400001928E-02 0.  1.
    10030    2    1    2    0    0  0.00000000000E+00  0.00000000000E+00 -0.11947255434E+04  0.42397839303E+04  0.40679723022E+04 0.  0.
        3    1    3    3  502    0 -0.23638105558E+03  0.58317911125E+03 -0.26132530559E+04  0.26879481809E+04  0.10100000352E+00 0.  1.
       -3    1    3    3    0  502  0.23638105558E+03 -0.58317911125E+03  0.14185275124E+04  0.15518357494E+04  0.10100000352E+00 0. -1.
</event>
<event>
 5   0  0.3610483E-07  0.3870816E+04  0.7818609E-02  0.8031126E-01
        2   -1    0    0  501    0  0.00000000000E+00  0.00000000000E+00  0.31490069576E+04  0.31490069576E+04  0.25500000920E-02 0. -1.
       -2   -1    0    0    0  501  0.00000000000E+00  0.00000000000E+00 -0.11895190792E+04  0.11895190792E+04  0.25500000920E-02 0.  1.
    10030    2    1    2    0    0  0.00000000000E+00  0.00000000000E+00  0.19594878783E+04  0.43385260368E+04  0.38708158606E+04 0.  0.
        4    1    3    3  502    0  0.13144737760E+04  0.11241949786E+03 -0.60745674218E+03  0.14524065402E+04  0.12699999809E+01 0.  1.
       -4    1    3    3    0  502 -0.13144737760E+04 -0.11241949786E+03  0.25669446205E+04  0.28861194967E+04  0.12699999809E+01 0. -1.
</event>
<event>
 5   0  0.1187925E-07  0.3903970E+04  0.7818609E-02  0.8024204E-01
        1   -1    0    0  501    0  0.00000000000E+00  0.00000000000E+00  0.14160653318E+04  0.14160653318E+04  0.50400001928E-02 0. -1.
       -1   -1    0    0    0  501  0.00000000000E+00  0.00000000000E+00 -0.26907267669E+04  0.26907267669E+04  0.50400001928E-02 0.  1.
    10030    2    1    2    0    0  0.00000000000E+00  0.00000000000E+00 -0.12746614351E+04  0.41067920987E+04  0.39039697192E+04 0.  0.
        5    1    3    3  502    0  0.25887919137E+03 -0.19337786593E+04 -0.70135709326E+03  0.20732684826E+04  0.46999998093E+01 0. -1.
       -5    1    3    3    0  502 -0.25887919137E+03  0.19337786593E+04 -0.57330434183E+03  0.20335236161E+04  0.46999998093E+01 0.  1.
</event>
<event>
 5   0  0.1187925E-07  0.3900170E+04  0.7818609E-02  0.8024994E-01
        1   -1    0    0  501    0  0.00000000000E+00  0.00000000000E+00  0.17844736085E+04  0.17844736085E+04  0.50400001928E-02 0. -1.
       -1   -1    0    0    0  501  0.00000000000E+00  0.00000000000E+00 -0.21310661042E+04  0.21310661042E+04  0.50400001928E-02 0.  1.
    10030    2    1    2    0    0  0.00000000000E+00  0.00000000000E+00 -0.34659249569E+03  0.39155397127E+04  0.39001698532E+04 0.  0.
        1    1    3    3  502    0  0.49232631531E+03  0.70326122757E+03  0.15845664737E+04  0.18021688224E+04  0.50400001928E-02 0. -1.
       -1    1    3    3    0  502 -0.49232631531E+03 -0.70326122757E+03 -0.19311589694E+04  0.21133708903E+04  0.50400001928E-02 0.  1.
</event>
<event>
 5   0  0.1187925E-07  0.3913799E+04  0.7818609E-02  0.8022165E-01
        1   -1    0    0  501    0  0.00000000000E+00  0.00000000000E+00  0.27836532825E+04  0.27836532825E+04  0.50400001928E-02 0. -1.
       -1   -1    0    0    0  501  0.00000000000E+00  0.00000000000E+00 -0.13756938740E+04  0.13756938741E+04  0.50400001928E-02 0.  1.
    10030    2    1    2    0    0  0.00000000000E+00  0.00000000000E+00  0.14079594085E+04  0.41593471566E+04  0.39137985478E+04 0.  0.
        5    1    3    3  502    0  0.15098878551E+04  0.78724379894E+03  0.17288033950E+04  0.24265814230E+04  0.46999998093E+01 0. -1.
       -5    1    3    3    0  502 -0.15098878551E+04 -0.78724379894E+03 -0.32084398648E+03  0.17327657336E+04  0.46999998093E+01 0.  1.
</event>
<event>
 5   0  0.3810833E-07  0.3643920E+04  0.7818609E-02  0.8080505E-01
       -2   -1    0    0    0  501  0.00000000000E+00  0.00000000000E+00  0.19730294669E+04  0.19730294669E+04  0.25500000920E-02 0. -1.
        2   -1    0    0  501    0  0.00000000000E+00  0.00000000000E+00 -0.16824572290E+04  0.16824572290E+04  0.25500000920E-02 0.  1.
    10030    2    1    2    0    0  0.00000000000E+00  0.00000000000E+00  0.29057223790E+03  0.36554866960E+04  0.36439196971E+04 0.  0.
        3    1    3    3  502    0 -0.50702182915E+03  0.13587326904E+04  0.12516523443E+04  0.19156876730E+04  0.10100000352E+00 0. -1.
       -3    1    3    3    0  502  0.50702182915E+03 -0.13587326904E+04 -0.96108010639E+03  0.17397990230E+04  0.10100000352E+00 0.  1.
</event>
<event>
 5   0  0.1187925E-07  0.3951335E+04  0.7818609E-02  0.8014436E-01
        1   -1    0    0  501    0  0.00000000000E+00  0.00000000000E+00  0.18055379703E+04  0.18055379703E+04  0.50400001928E-02 0. -1.
       -1   -1    0    0    0  501  0.00000000000E+00  0.00000000000E+00 -0.21618273472E+04  0.21618273472E+04  0.50400001928E-02 0.  1.
    10030    2    1    2    0    0  0.00000000000E+00  0.00000000000E+00 -0.35628937691E+03  0.39673653175E+04  0.39513346406E+04 0.  0.
        4    1    3    3  502    0  0.13756555299E+04  0.13604569917E+04  0.22346354433E+03  0.19476162178E+04  0.12699999809E+01 0. -1.
       -4    1    3    3    0  502 -0.13756555299E+04 -0.13604569917E+04 -0.57975292124E+03  0.20197490997E+04  0.12699999809E+01 0.  1.
</event>
<event>
 5   0  0.1187925E-07  0.3701217E+04  0.7818609E-02  0.8067692E-01
       -3   -1    0    0    0  501  0.00000000000E+00  0.00000000000E+00  0.11306338846E+04  0.11306338891E+04  0.10100000352E+00 0.  1.
        3   -1    0    0  501    0  0.00000000000E+00  0.00000000000E+00 -0.30290547074E+04  0.30290547091E+04  0.10100000352E+00 0. -1.
    10030    2    1    2    0    0  0.00000000000E+00  0.00000000000E+00 -0.18984208228E+04  0.41596885982E+04  0.37012170449E+04 0.  0.
        3    1    3    3  502    0  0.89556824422E+03  0.12576770477E+04 -0.20958655984E+04  0.26031608965E+04  0.10100000352E+00 0. -1.
       -3    1    3    3    0  502 -0.89556824422E+03 -0.12576770477E+04  0.19744477564E+03  0.15565277017E+04  0.10100000352E+00 0.  1.
</event>
<event>
 5   0  0.3832389E-07  0.3852865E+04  0.7818609E-02  0.8034905E-01
       -2   -1    0    0    0  501  0.00000000000E+00  0.00000000000E+00  0.13529519828E+04  0.13529519828E+04  0.25500000920E-02 0.  1.
        2   -1    0    0  501    0  0.00000000000E+00  0.00000000000E+00 -0.27429955862E+04  0.27429955863E+04  0.25500000920E-02 0. -1.
    10030    2    1    2    0    0  0.00000000000E+00  0.00000000000E+00 -0.13900436035E+04  0.40959475690E+04  0.38528645536E+04 0.  0.
        5    1    3    3  502    0  0.10354517824E+04 -0.15798409571E+04 -0.29292385302E+03  0.19115136194E+04  0.46999998093E+01 0. -1.
       -5    1    3    3    0  502 -0.10354517824E+04  0.15798409571E+04 -0.10971197505E+04  0.21844339496E+04  0.46999998093E+01 0.  1.
</event>
<event>
 5   0  0.1187925E-07  0.3941748E+04  0.7818609E-02  0.8016402E-01
       -1   -1    0    0    0  501  0.00000000000E+00  0.00000000000E+00  0.24138171049E+04  0.24138171049E+04  0.50400001928E-02 0.  1.
        1   -1    0    0  501    0  0.00000000000E+00  0.00000000000E+00 -0.16092124177E+04  0.16092124177E+04  0.50400001928E-02 0. -1.
    10030    2    1    2    0    0  0.00000000000E+00  0.00000000000E+00  0.80460468723E+03  0.40230295226E+04  0.39417480687E+04 0.  0.
        5    1    3    3  502    0  0.11398536041E+04  0.16856998277E+03  0.20342234920E+04  0.23378984972E+04  0.46999998093E+01 0.  1.
       -5    1    3    3    0  502 -0.11398536041E+04 -0.16856998277E+03 -0.12296188048E+04  0.16851310254E+04  0.46999998093E+01 0. -1.
</event>
<event>
 5   0  0.3610483E-07  0.4039775E+04  0.7818609E-02  0.7996570E-01
       -2   -1    0    0    0  501  0.00000000000E+00  0.00000000000E+00  0.31814469748E+04  0.31814469748E+04  0.25500000920E-02 0.  1.
        2   -1    0    0  501    0  0.00000000000E+00  0.00000000000E+00 -0.12824184271E+04  0.12824184271E+04  0.25500000920E-02 0. -1.
    10030    2    1    2    0    0  0.00000000000E+00  0.00000000000E+00  0.18990285476E+04  0.44638654019E+04  0.40397753528E+04 0.  0.
        4    1    3    3  502    0 -0.10117134407E+04  0.53131974573E+03  0.27899190640E+04  0.30148822124E+04  0.12699999809E+01 0.  1.
       -4    1    3    3    0  502  0.10117134407E+04 -0.53131974573E+03 -0.89089051631E+03  0.14489831894E+04  0.12699999809E+01 0. -1.
</event>
<event>
 5   0  0.1187925E-07  0.3853173E+04  0.7818609E-02  0.8034839E-01
        1   -1    0    0  501    0  0.00000000000E+00  0.00000000000E+00  0.19406125196E+04  0.19406125196E+04  0.50400001928E-02 0.  1.
       -1   -1    0    0    0  501  0.00000000000E+00  0.00000000000E+00 -0.19126615601E+04  0.19126615601E+04  0.50400001928E-02 0. -1.
    10030    2    1    2    0    0  0.00000000000E+00  0.00000000000E+00  0.27950959500E+02  0.38532740797E+04  0.38531727027E+04 0.  0.
        4    1    3    3  502    0 -0.27634060431E+02 -0.12561614988E+04  0.14745028658E+04  0.19372314437E+04  0.12699999809E+01 0.  1.
       -4    1    3    3    0  502  0.27634060431E+02  0.12561614988E+04 -0.14465519063E+04  0.19160426360E+04  0.12699999809E+01 0. -1.
</event>
<event>
 5   0  0.1187925E-07  0.3752798E+04  0.7818609E-02  0.8056361E-01
       -1   -1    0    0    0  501  0.00000000000E+00  0.00000000000E+00  0.17460125356E+04  0.17460125356E+04  0.50400001928E-02 0. -1.
        1   -1    0    0  501    0  0.00000000000E+00  0.00000000000E+00 -0.20165221061E+04  0.20165221061E+04  0.50400001928E-02 0.  1.
    10030    2    1    2    0    0  0.00000000000E+00  0.00000000000E+00 -0.27050957050E+03  0.37625346417E+04  0.37527978233E+04 0.  0.
        2    1    3    3  502    0 -0.89324776669E+03  0.19082906050E+03 -0.17785820535E+04  0.19994152705E+04  0.25500000920E-02 0.  1.
       -2    1    3    3    0  502  0.89324776669E+03 -0.19082906050E+03  0.15080724830E+04  0.17631193712E+04  0.25500000920E-02 0. -1.
</event>
<event>
 5   0  0.1187925E-07  0.3529945E+04  0.7818609E-02  0.8106730E-01
        1   -1    0    0  501    0  0.00000000000E+00  0.00000000000E+00  0.18162256363E+04  0.18162256363E+04  0.50400001928E-02 0. -1.
       -1   -1    0    0    0  501  0.00000000000E+00  0.00000000000E+00 -0.17151653916E+04  0.17151653916E+04  0.50400001928E-02 0.  1.
    10030    2    1    2    0    0  0.00000000000E+00  0.00000000000E+00  0.10106024469E+03  0.35313910280E+04  0.35299446765E+04 0.  0.
        3    1    3    3  502    0  0.13867779858E+04  0.94623149160E+03  0.59538170731E+03  0.17812879063E+04  0.10100000352E+00 0. -1.
       -3    1    3    3    0  502 -0.13867779858E+04 -0.94623149160E+03 -0.49432146262E+03  0.17501031216E+04  0.10100000352E+00 0.  1.
</event>
<event>
 5   0  0.3680814E-07  0.3811196E+04  0.7818609E-02  0.8043756E-01
        2   -1    0    0  501    0  0.00000000000E+00  0.00000000000E+00  0.22508726567E+04  0.22508726567E+04  0.25500000920E-02 0. -1.
       -2   -1    0    0    0  501  0.00000000000E+00  0.00000000000E+00 -0.16132871429E+04  0.16132871429E+04  0.25500000920E-02 0.  1.
    10030    2    1    2    0    0  0.00000000000E+00  0.00000000000E+00  0.63758551386E+03  0.38641597996E+04  0.38111960943E+04 0.  0.
        1    1    3    3  502    0 -0.44436402743E+03  0.18530635156E+04  0.31841942305E+03  0.19320182998E+04  0.50400001928E-02 0.  1.
       -1    1    3    3    0  502  0.44436402743E+03 -0.18530635156E+04  0.31916609081E+03  0.19321414998E+04  0.50400001928E-02 0. -1.
</event>
<event>
 5   0  0.1187925E-07  0.3903694E+04  0.7818609E-02  0.8024261E-01
       -1   -1    0    0    0  501  0.00000000000E+00  0.00000000000E+00  0.24957105142E+04  0.24957105142E+04  0.50400001928E-02 0.  1.
        1   -1    0    0  501    0  0.00000000000E+00  0.00000000000E+00 -0.15265015252E+04  0.15265015252E+04  0.50400001928E-02 0. -1.
    10030    2    1    2    0    0  0.00000000000E+00  0.00000000000E+00  0.96920898895E+03  0.40222120394E+04  0.39036935876E+04 0.  0.
        2    1    3    3  502    0  0.57273565623E+03 -0.14084740340E+04  0.17456415500E+04  0.23149707682E+04  0.25500000920E-02 0. -1.
       -2    1    3    3    0  502 -0.57273565623E+03  0.14084740340E+04 -0.77643256107E+03  0.17072412713E+04  0.25500000920E-02 0.  1.
</event>
<event>
 5   0  0.1187925E-07  0.3903485E+04  0.7818609E-02  0.8024305E-01
       -1   -1    0    0    0  501  0.00000000000E+00  0.00000000000E+00  0.15103176810E+04  0.15103176810E+04  0.50400001928E-02 0. -1.
        1   -1    0    0  501    0  0.00000000000E+00  0.00000000000E+00 -0.25221841176E+04  0.25221841176E+04  0.50400001928E-02 0.  1.
    10030    2    1    2    0    0  0.00000000000E+00  0.00000000000E+00 -0.10118664366E+04  0.40325017985E+04  0.39034852465E+04 0.  0.
        2    1    3    3  502    0 -0.12841252263E+04  0.12590192069E+04  0.27754794955E+03  0.18196537650E+04  0.25500000920E-02 0. -1.
       -2    1    3    3    0  502  0.12841252263E+04 -0.12590192069E+04 -0.12894143862E+04  0.22128480335E+04  0.25500000920E-02 0.  1.
</event>
<event>
 5   0  0.3832389E-07  0.3788221E+04  0.7818609E-02  0.8048687E-01
        2   -1    0    0  501    0  0.00000000000E+00  0.00000000000E+00  0.30970753721E+04  0.30970753721E+04  0.25500000920E-02 0.  1.
       -2   -1    0    0    0  501  0.00000000000E+00  0.00000000000E+00 -0.11584008927E+04  0.11584008927E+04  0.25500000920E-02 0. -1.
    10030    2    1    2    0    0  0.00000000000E+00  0.00000000000E+00  0.19386744793E+04  0.42554762648E+04  0.37882211529E+04 0.  0.
        5    1    3    3  502    0  0.61526413372E+03 -0.13121173629E+04 -0.40069643256E+03  0.15035895880E+04  0.46999998093E+01 0. -1.
       -5    1    3    3    0  502 -0.61526413372E+03  0.13121173629E+04  0.23393709119E+04  0.27518866768E+04  0.46999998093E+01 0.  1.
</event>
<event>
 5   0  0.3610483E-07  0.3825504E+04  0.7818609E-02  0.8040704E-01
       -2   -1    0    0    0  501  0.00000000000E+00  0.00000000000E+00  0.16267282542E+04  0.16267282542E+04  0.25500000920E-02 0.  1.
        2   -1    0    0  501    0  0.00000000000E+00  0.00000000000E+00 -0.22490669414E+04  0.22490669414E+04  0.25500000920E-02 0. -1.
    10030    2    1    2    0    0  0.00000000000E+00  0.00000000000E+00 -0.62233868717E+03  0.38757951956E+04  0.38255042748E+04 0.  0.
        4    1    3    3  502    0 -0.16720231159E+04 -0.82098559164E+03 -0.75155649613E+03  0.20086108188E+04  0.12699999809E+01 0. -1.
       -4    1    3    3    0  502  0.16720231159E+04  0.82098559164E+03  0.12921780897E+03  0.18671843767E+04  0.12699999809E+01 0.  1.
</event>
<event>
 5   0  0.1187925E-07  0.3901093E+04  0.7818609E-02  0.8024802E-01
        1   -1    0    0  501    0  0.00000000000E+00  0.00000000000E+00  0.21978278073E+04  0.21978278073E+04  0.50400001928E-02 0.  1.
       -1   -1    0    0    0  501  0.00000000000E+00  0.00000000000E+00 -0.17310870913E+04  0.17310870913E+04  0.50400001928E-02 0. -1.
    10030    2    1    2    0    0  0.00000000000E+00  0.00000000000E+00  0.46674071600E+03  0.39289148986E+04  0.39010928449E+04 0.  0.
        2    1    3    3  502    0 -0.10118046117E+04 -0.44539400471E+03 -0.13851087037E+04  0.17721880580E+04  0.25500000920E-02 0. -1.
       -2    1    3    3    0  502  0.10118046117E+04  0.44539400471E+03  0.18518494197E+04  0.21567268406E+04  0.25500000920E-02 0.  1.
</event>
<event>
 5   0  0.1187925E-07  0.4110973E+04  0.7818609E-02  0.7982526E-01
       -1   -1    0    0    0  501  0.00000000000E+00  0.00000000000E+00  0.25697970214E+04  0.25697970214E+04  0.50400001928E-02 0. -1.
        1   -1    0    0  501    0  0.00000000000E+00  0.00000000000E+00 -0.16441083182E+04  0.16441083182E+04  0.50400001928E-02 0.  1.
    10030    2    1    2    0    0  0.00000000000E+00  0.00000000000E+00  0.92568870316E+03  0.42139053396E+04  0.41109729549E+04 0.  0.
        3    1    3    3  502    0 -0.65890739004E+02  0.11469301288E+04  0.22099965546E+04  0.24907579352E+04  0.10100000352E+00 0. -1.
       -3    1    3    3    0  502  0.65890739004E+02 -0.11469301288E+04 -0.12843078515E+04  0.17231474044E+04  0.10100000352E+00 0.  1.
</event>
<event>
 5   0  0.1187925E-07  0.3856655E+04  0.7818609E-02  0.8034105E-01
        1   -1    0    0  501    0  0.00000000000E+00  0.00000000000E+00  0.27311746676E+04  0.27311746676E+04  0.50400001928E-02 0.  1.
       -1   -1    0    0    0  501  0.00000000000E+00  0.00000000000E+00 -0.13614830063E+04  0.13614830063E+04  0.50400001928E-02 0. -1.
    10030    2    1    2    0    0  0.00000000000E+00  0.00000000000E+00  0.13696916612E+04  0.40926576739E+04  0.38566554927E+04 0.  0.
        3    1    3    3  502    0 -0.10081090587E+04 -0.12544299954E+04  0.18121956753E+04  0.24236195377E+04  0.10100000352E+00 0.  1.
       -3    1    3    3    0  502  0.10081090587E+04  0.12544299954E+04 -0.44250401404E+03  0.16690381363E+04  0.10100000352E+00 0. -1.
</event>
<event>
 5   0  0.3665303E-07  0.4023414E+04  0.7818609E-02  0.7999840E-01
       -2   -1    0    0    0  501  0.00000000000E+00  0.00000000000E+00  0.24996020748E+04  0.24996020748E+04  0.25500000920E-02 0.  1.
        2   -1    0    0  501    0  0.00000000000E+00  0.00000000000E+00 -0.16190435732E+04  0.16190435732E+04  0.25500000920E-02 0. -1.
    10030    2    1    2    0    0  0.00000000000E+00  0.00000000000E+00  0.88055850159E+03  0.41186456481E+04  0.40234138116E+04 0.  0.
        2    1    3    3  502    0  0.28576513566E+03 -0.83678298200E+03 -0.14094483784E+04  0.16638546220E+04  0.25500000920E-02 0. -1.
       -2    1    3    3    0  502 -0.28576513566E+03  0.83678298200E+03  0.22900068800E+04  0.24547910261E+04  0.25500000920E-02 0.  1.
</event>
<event>
 5   0  0.1187925E-07  0.3591649E+04  0.7818609E-02  0.8092407E-01
        1   -1    0    0  501    0  0.00000000000E+00  0.00000000000E+00  0.18099988353E+04  0.18099988353E+04  0.50400001928E-02 0. -1.
       -1   -1    0    0    0  501  0.00000000000E+00  0.00000000000E+00 -0.17817608904E+04  0.17817608904E+04  0.50400001928E-02 0.  1.
    10030    2    1    2    0    0  0.00000000000E+00  0.00000000000E+00  0.28237944888E+02  0.35917597257E+04  0.35916487225E+04 0.  0.
        1    1    3    3  502    0  0.13725613870E+03 -0.12463946409E+04 -0.12714736701E+04  0.17857727018E+04  0.50400001928E-02 0.  1.
       -1    1    3    3    0  502 -0.13725613870E+03  0.12463946409E+04  0.12997116150E+04  0.18059870240E+04  0.50400001928E-02 0. -1.
</event>
<event>
 5   0  0.3832389E-07  0.3904669E+04  0.7818609E-02  0.8024059E-01
       -2   -1    0    0    0  501  0.00000000000E+00  0.00000000000E+00  0.17405193043E+04  0.17405193043E+04  0.25500000920E-02 0.  1.
        2   -1    0    0  501    0  0.00000000000E+00  0.00000000000E+00 -0.21899268554E+04  0.21899268554E+04  0.25500000920E-02 0. -1.
    10030    2    1    2    0    0  0.00000000000E+00  0.00000000000E+00 -0.44940755110E+03  0.39304461597E+04  0.39046689830E+04 0.  0.
        5    1    3    3  502    0 -0.13550357102E+04  0.12438416555E+04  0.43408145263E+03  0.18898975203E+04  0.46999998093E+01 0.  1.
       -5    1    3    3    0  502  0.13550357102E+04 -0.12438416555E+04 -0.88348900373E+03  0.20405486394E+04  0.46999998093E+01 0. -1.
</event>
<event>
 5   0  0.1187925E-07  0.4005569E+04  0.7818609E-02  0.8003424E-01
        1   -1    0    0  501    0  0.00000000000E+00  0.00000000000E+00  0.21118992959E+04  0.21118992959E+04  0.50400001928E-02 0. -1.
       -1   -1    0    0    0  501  0.00000000000E+00  0.00000000000E+00 -0.18993071569E+04  0.18993071569E+04  0.50400001928E-02 0.  1.
    10030    2    1    2    0    0  0.00000000000E+00  0.00000000000E+00  0.21259213900E+03  0.40112064527E+04  0.40055688471E+04 0.  0.
        3    1    3    3  502    0 -0.17709324517E+03  0.10549613933E+04  0.18018536116E+04  0.20954670140E+04  0.10100000352E+00 0. -1.
       -3    1    3    3    0  502  0.17709324517E+03 -0.10549613933E+04 -0.15892614726E+04  0.19157394388E+04  0.10100000352E+00 0.  1.
</event>
<event>
 5   0  0.3665303E-07  0.3894008E+04  0.7818609E-02  0.8026277E-01
       -2   -1    0    0    0  501  0.00000000000E+00  0.00000000000E+00  0.19920931529E+04  0.19920931529E+04  0.25500000920E-02 0.  1.
        2   -1    0    0  501    0  0.00000000000E+00  0.00000000000E+00 -0.19029351208E+04  0.19029351208E+04  0.25500000920E-02 0. -1.
    10030    2    1    2    0    0  0.00000000000E+00  0.00000000000E+00  0.89158032052E+02  0.38950282737E+04  0.38940077167E+04 0.  0.
        2    1    3    3  502    0  0.48830151134E+03  0.36890536106E+03  0.18933855066E+04  0.19898337137E+04  0.25500000920E-02 0.  1.
       -2    1    3    3    0  502 -0.48830151134E+03 -0.36890536106E+03 -0.18042274746E+04  0.19051945600E+04  0.25500000920E-02 0. -1.
</event>
<event>
 5   0  0.3810833E-07  0.3889935E+04  0.7818609E-02  0.8027126E-01
        2   -1    0    0  501    0  0.00000000000E+00  0.00000000000E+00  0.14891545435E+04  0.14891545435E+04  0.25500000920E-02 0.  1.
       -2   -1    0    0    0  501  0.00000000000E+00  0.00000000000E+00 -0.25402989612E+04  0.25402989612E+04  0.25500000920E-02 0. -1.
    10030    2    1    2    0    0  0.00000000000E+00  0.00000000000E+00 -0.10511444177E+04  0.40294535047E+04  0.38899345701E+04 0.  0.
        3    1    3    3  502    0 -0.58770142628E+02  0.17707971499E+03  0.14798631104E+04  0.14915783556E+04  0.10100000352E+00 0.  1.
       -3    1    3    3    0  502  0.58770142628E+02 -0.17707971499E+03 -0.25310075281E+04  0.25378751491E+04  0.10100000352E+00 0. -1.
</event>
<event>
 5   0  0.1187925E-07  0.3947046E+04  0.7818609E-02  0.8015315E-01
        1   -1    0    0  501    0  0.00000000000E+00  0.00000000000E+00  0.17852482212E+04  0.17852482212E+04  0.50400001928E-02 0.  1.
       -1   -1    0    0    0  501  0.00000000000E+00  0.00000000000E+00 -0.21816534076E+04  0.21816534076E+04  0.50400001928E-02 0. -1.
    10030    2    1    2    0    0  0.00000000000E+00  0.00000000000E+00 -0.39640518643E+03  0.39669016289E+04  0.39470459158E+04 0.  0.
        1    1    3    3  502    0 -0.61718610496E+03  0.16741988999E+04  0.64920695129E+03  0.18987707367E+04  0.50400001928E-02 0.  1.
       -1    1    3    3    0  502  0.61718610496E+03 -0.16741988999E+04 -0.10456121377E+04  0.20681308922E+04  0.50400001928E-02 0. -1.
</event>
<event>
 5   0  0.1187925E-07  0.3706804E+04  0.7818609E-02  0.8066456E-01
       -1   -1    0    0    0  501  0.00000000000E+00  0.00000000000E+00  0.15082410637E+04  0.15082410637E+04  0.50400001928E-02 0. -1.
        1   -1    0    0  501    0  0.00000000000E+00  0.00000000000E+00 -0.22775533116E+04  0.22775533116E+04  0.50400001928E-02 0.  1.
    10030    2    1    2    0    0  0.00000000000E+00  0.00000000000E+00 -0.76931224784E+03  0.37857943753E+04  0.37068042459E+04 0.  0.
        4    1    3    3  502    0 -0.15609743256E+04  0.97965468547E+03 -0.58565872907E+03  0.19337429787E+04  0.12699999809E+01 0. -1.
       -4    1    3    3    0  502  0.15609743256E+04 -0.97965468547E+03 -0.18365351877E+03  0.18520513966E+04  0.12699999809E+01 0.  1.
</event>
<event>
 5   0  0.3810833E-07  0.2819736E+04  0.7818609E-02  0.8297167E-01
       -2   -1    0    0    0  501  0.00000000000E+00  0.00000000000E+00  0.16231936010E+04  0.16231936010E+04  0.25500000920E-02 0. -1.
        2   -1    0    0  501    0  0.00000000000E+00  0.00000000000E+00 -0.12245785023E+04  0.12245785023E+04  0.25500000920E-02 0.  1.
    10030    2    1    2    0    0  0.00000000000E+00  0.00000000000E+00  0.39861509873E+03  0.28477721034E+04  0.28197361500E+04 0.  0.
        3    1    3    3  502    0 -0.17112928171E+03  0.11449875137E+04  0.10119483992E+04  0.15376349406E+04  0.10100000352E+00 0. -1.
       -3    1    3    3    0  502  0.17112928171E+03 -0.11449875137E+04 -0.61333330050E+03  0.13101371628E+04  0.10100000352E+00 0.  1.
</event>
<event>
 5   0  0.1187925E-07  0.3172647E+04  0.7818609E-02  0.8196078E-01
        1   -1    0    0  501    0  0.00000000000E+00  0.00000000000E+00  0.19108449862E+04  0.19108449862E+04  0.50400001928E-02 0. -1.
       -1   -1    0    0    0  501  0.00000000000E+00  0.00000000000E+00 -0.13169162865E+04  0.13169162866E+04  0.50400001928E-02 0.  1.
    10030    2    1    2    0    0  0.00000000000E+00  0.00000000000E+00  0.59392869968E+03  0.32277612728E+04  0.31726474014E+04 0.  0.
        5    1    3    3  502    0  0.14951969093E+04 -0.35077424107E+03 -0.10710565369E+03  0.15395291737E+04  0.46999998093E+01 0.  1.
       -5    1    3    3    0  502 -0.14951969093E+04  0.35077424107E+03  0.70103435338E+03  0.16882320991E+04  0.46999998093E+01 0. -1.
</event>
<event>
 5   0  0.3680814E-07  0.3945222E+04  0.7818609E-02  0.8015689E-01
       -2   -1    0    0    0  501  0.00000000000E+00  0.00000000000E+00  0.21043843122E+04  0.21043843122E+04  0.25500000920E-02 0.  1.
        2   -1    0    0  501    0  0.00000000000E+00  0.00000000000E+00 -0.18490886619E+04  0.18490886619E+04  0.25500000920E-02 0. -1.
    10030    2    1    2    0    0  0.00000000000E+00  0.00000000000E+00  0.25529565023E+03  0.39534729741E+04  0.39452215005E+04 0.  0.
        1    1    3    3  502    0  0.52035474388E+03  0.13764368008E+04  0.14441099955E+04  0.20617470760E+04  0.50400001928E-02 0.  1.
       -1    1    3    3    0  502 -0.52035474388E+03 -0.13764368008E+04 -0.11888143453E+04  0.18917258981E+04  0.50400001928E-02 0. -1.
</event>
<event>
 5   0  0.1187925E-07  0.3919032E+04  0.7818609E-02  0.8021083E-01
        1   -1    0    0  501    0  0.00000000000E+00  0.00000000000E+00  0.27260594959E+04  0.27260594959E+04  0.50400001928E-02 0.  1.
       -1   -1    0    0    0  501  0.00000000000E+00  0.00000000000E+00 -0.14085174842E+04  0.14085174842E+04  0.50400001928E-02 0. -1.
    10030    2    1    2    0    0  0.00000000000E+00  0.00000000000E+00  0.13175420117E+04  0.41345769801E+04  0.39190317492E+04 0.  0.
        1    1    3    3  502    0 -0.59472835266E+03  0.60337282341E+03 -0.12053096844E+04  0.14732725521E+04  0.50400001928E-02 0. -1.
       -1    1    3    3    0  502  0.59472835266E+03 -0.60337282341E+03  0.25228516961E+04  0.26613044279E+04  0.50400001928E-02 0.  1.
</event>
<event>
 5   0  0.3665303E-07  0.3899734E+04  0.7818609E-02  0.8025084E-01
       -2   -1    0    0    0  501  0.00000000000E+00  0.00000000000E+00  0.14970591333E+04  0.14970591333E+04  0.25500000920E-02 0. -1.
        2   -1    0    0  501    0  0.00000000000E+00  0.00000000000E+00 -0.25396339830E+04  0.25396339830E+04  0.25500000920E-02 0.  1.
    10030    2    1    2    0    0  0.00000000000E+00  0.00000000000E+00 -0.10425748497E+04  0.40366931163E+04  0.38997344778E+04 0.  0.
        2    1    3    3  502    0 -0.18647594335E+04 -0.11046417950E+03 -0.10998928059E+04  0.21677855669E+04  0.25500000920E-02 0.  1.
       -2    1    3    3    0  502  0.18647594335E+04  0.11046417950E+03  0.57317956201E+02  0.18689075493E+04  0.25500000920E-02 0. -1.
</event>
<event>
 5   0  0.1187925E-07  0.3781962E+04  0.7818609E-02  0.8050037E-01
        1   -1    0    0  501    0  0.00000000000E+00  0.00000000000E+00  0.25249283650E+04  0.25249283650E+04  0.50400001928E-02 0.  1.
       -1   -1    0    0    0  501  0.00000000000E+00  0.00000000000E+00 -0.14162019556E+04  0.14162019556E+04  0.50400001928E-02 0. -1.
    10030    2    1    2    0    0  0.00000000000E+00  0.00000000000E+00  0.11087264094E+04  0.39411303206E+04  0.37819616541E+04 0.  0.
        3    1    3    3  502    0  0.13686292473E+04 -0.42141319396E+03  0.18412757815E+04  0.23326018971E+04  0.10100000352E+00 0.  1.
       -3    1    3    3    0  502 -0.13686292473E+04  0.42141319396E+03 -0.73254937213E+03  0.16085284235E+04  0.10100000352E+00 0. -1.
</event>
<event>
 5   0  0.3610483E-07  0.3859808E+04  0.7818609E-02  0.8033441E-01
       -2   -1    0    0    0  501  0.00000000000E+00  0.00000000000E+00  0.14117778458E+04  0.14117778458E+04  0.25500000920E-02 0.  1.
        2   -1    0    0  501    0  0.00000000000E+00  0.00000000000E+00 -0.26381843192E+04  0.26381843192E+04  0.25500000920E-02 0. -1.
    10030    2    1    2    0    0  0.00000000000E+00  0.00000000000E+00 -0.12264064734E+04  0.40499621650E+04  0.38598083760E+04 0.  0.
        4    1    3    3  502    0 -0.16313521824E+04 -0.88084331329E+03 -0.11756461986E+04  0.21952996339E+04  0.12699999809E+01 0. -1.
       -4    1    3    3    0  502  0.16313521824E+04  0.88084331329E+03 -0.50760274857E+02  0.18546625310E+04  0.12699999809E+01 0.  1.
</event>
<event>
 5   0  0.3680814E-07  0.3894771E+04  0.7818609E-02  0.8026118E-01
        2   -1    0    0  501    0  0.00000000000E+00  0.00000000000E+00  0.16861031316E+04  0.16861031316E+04  0.25500000920E-02 0.  1.
       -2   -1    0    0    0  501  0.00000000000E+00  0.00000000000E+00 -0.22491565875E+04  0.22491565875E+04  0.25500000920E-02 0. -1.
    10030    2    1    2    0    0  0.00000000000E+00  0.00000000000E+00 -0.56305345588E+03  0.39352597191E+04  0.38947708357E+04 0.  0.
        1    1    3    3  502    0  0.10073031009E+03 -0.56426167895E+03  0.15989421384E+04  0.16985740489E+04  0.50400001928E-02 0.  1.
       -1    1    3    3    0  502 -0.10073031009E+03  0.56426167895E+03 -0.21619955942E+04  0.22366856702E+04  0.50400001928E-02 0. -1.
</event>
<event>
 5   0  0.1187925E-07  0.3928680E+04  0.7818609E-02  0.8019091E-01
       -1   -1    0    0    0  501  0.00000000000E+00  0.00000000000E+00  0.18520056918E+04  0.18520056918E+04  0.50400001928E-02 0. -1.
        1   -1    0    0  501    0  0.00000000000E+00  0.00000000000E+00 -0.20834881053E+04  0.20834881053E+04  0.50400001928E-02 0.  1.
    10030    2    1    2    0    0  0.00000000000E+00  0.00000000000E+00 -0.23148241348E+03  0.39354937971E+04  0.39286800988E+04 0.  0.
        3    1    3    3  502    0 -0.18696656396E+04 -0.59366544901E+03 -0.21860108404E+03  0.19737970294E+04  0.10100000352E+00 0. -1.
       -3    1    3    3    0  502  0.18696656396E+04  0.59366544901E+03 -0.12881329443E+02  0.19616967676E+04  0.10100000352E+00 0.  1.
</event>
<event>
 5   0  0.1187925E-07  0.3929347E+04  0.7818609E-02  0.8018953E-01
       -1   -1    0    0    0  501  0.00000000000E+00  0.00000000000E+00  0.14433594415E+04  0.14433594415E+04  0.50400001928E-02 0. -1.
        1   -1    0    0  501    0  0.00000000000E+00  0.00000000000E+00 -0.26742768345E+04  0.26742768345E+04  0.50400001928E-02 0.  1.
    10030    2    1    2    0    0  0.00000000000E+00  0.00000000000E+00 -0.12309173930E+04  0.41176362761E+04  0.39293473852E+04 0.  0.
        5    1    3    3  502    0  0.10742395285E+04  0.15224005988E+04  0.37476580029E+02  0.18636310612E+04  0.46999998093E+01 0. -1.
       -5    1    3    3    0  502 -0.10742395285E+04 -0.15224005988E+04 -0.12683939730E+04  0.22540052149E+04  0.46999998093E+01 0.  1.
</event>
<event>
 5   0  0.1187925E-07  0.3204031E+04  0.7818609E-02  0.8187753E-01
        1   -1    0    0  501    0  0.00000000000E+00  0.00000000000E+00  0.18208401170E+04  0.18208401171E+04  0.50400001928E-02 0. -1.
       -1   -1    0    0    0  501  0.00000000000E+00  0.00000000000E+00 -0.14094885185E+04  0.14094885185E+04  0.50400001928E-02 0.  1.
    10030    2    1    2    0    0  0.00000000000E+00  0.00000000000E+00  0.41135159853E+03  0.32303286356E+04  0.32040307359E+04 0.  0.
        3    1    3    3  502    0  0.53155891309E+03  0.14937920376E+04  0.43664935097E+03  0.16445766007E+04  0.10100000352E+00 0.  1.
       -3    1    3    3    0  502 -0.53155891309E+03 -0.14937920376E+04 -0.25297752440E+02  0.15857520349E+04  0.10100000352E+00 0. -1.
</event>
<event>
 5   0  0.1187925E-07  0.3905450E+04  0.7818609E-02  0.8023897E-01
       -3   -1    0    0    0  501  0.00000000000E+00  0.00000000000E+00  0.22370451046E+04  0.22370451069E+04  0.10100000352E+00 0. -1.
        3   -1    0    0  501    0  0.00000000000E+00  0.00000000000E+00 -0.17045408849E+04  0.17045408879E+04  0.10100000352E+00 0.  1.
    10030    2    1    2    0    0  0.00000000000E+00  0.00000000000E+00  0.53250421970E+03  0.39415859947E+04  0.39054499625E+04 0.  0.
        4    1    3    3  502    0  0.12372929131E+03 -0.39608461088E+03  0.21920325256E+04  0.22309639537E+04  0.12699999809E+01 0. -1.
       -4    1    3    3    0  502 -0.12372929131E+03  0.39608461088E+03 -0.16595283059E+04  0.17106220411E+04  0.12699999809E+01 0.  1.
</event>
<event>
 5   0  0.3665303E-07  0.3802944E+04  0.7818609E-02  0.8045523E-01
       -2   -1    0    0    0  501  0.00000000000E+00  0.00000000000E+00  0.19833705981E+04  0.19833705981E+04  0.25500000920E-02 0.  1.
        2   -1    0    0  501    0  0.00000000000E+00  0.00000000000E+00 -0.18229549099E+04  0.18229549099E+04  0.25500000920E-02 0. -1.
    10030    2    1    2    0    0  0.00000000000E+00  0.00000000000E+00  0.16041568822E+03  0.38063255080E+04  0.38029436862E+04 0.  0.
        2    1    3    3  502    0  0.11869375611E+04 -0.13660165470E+04 -0.50406908840E+03  0.18785386944E+04  0.25500000920E-02 0. -1.
       -2    1    3    3    0  502 -0.11869375611E+04  0.13660165470E+04  0.66448477662E+03  0.19277868136E+04  0.25500000920E-02 0.  1.
</event>
<event>
 5   0  0.1187925E-07  0.3957452E+04  0.7818609E-02  0.8013185E-01
        1   -1    0    0  501    0  0.00000000000E+00  0.00000000000E+00  0.14632439672E+04  0.14632439672E+04  0.50400001928E-02 0. -1.
       -1   -1    0    0    0  501  0.00000000000E+00  0.00000000000E+00 -0.26758055451E+04  0.26758055451E+04  0.50400001928E-02 0.  1.
    10030    2    1    2    0    0  0.00000000000E+00  0.00000000000E+00 -0.12125615779E+04  0.41390495124E+04  0.39574518677E+04 0.  0.
        3    1    3    3  502    0  0.14321297007E+04 -0.12421604652E+04 -0.13346307400E+02  0.18958207286E+04  0.10100000352E+00 0. -1.
       -3    1    3    3    0  502 -0.14321297007E+04  0.12421604652E+04 -0.11992152705E+04  0.22432287837E+04  0.10100000352E+00 0.  1.
</event>
<event>
 5   0  0.3680814E-07  0.3934307E+04  0.7818609E-02  0.8017932E-01
       -2   -1    0    0    0  501  0.00000000000E+00  0.00000000000E+00  0.18765176944E+04  0.18765176944E+04  0.25500000920E-02 0.  1.
        2   -1    0    0  501    0  0.00000000000E+00  0.00000000000E+00 -0.20621672216E+04  0.20621672216E+04  0.25500000920E-02 0. -1.
    10030    2    1    2    0    0  0.00000000000E+00  0.00000000000E+00 -0.18564952718E+03  0.39386849161E+04  0.39343071971E+04 0.  0.
        1    1    3    3  502    0 -0.75555040712E+02  0.67612312428E+03  0.17549923454E+04  0.18822457799E+04  0.50400001928E-02 0.  1.
       -1    1    3    3    0  502  0.75555040712E+02 -0.67612312428E+03 -0.19406418726E+04  0.20564391362E+04  0.50400001928E-02 0. -1.
</event>
<event>
 5   0  0.3610483E-07  0.3820841E+04  0.7818609E-02  0.8041697E-01
        2   -1    0    0  501    0  0.00000000000E+00  0.00000000000E+00  0.19275947526E+04  0.19275947526E+04  0.25500000920E-02 0. -1.
       -2   -1    0    0    0  501  0.00000000000E+00  0.00000000000E+00 -0.18933989378E+04  0.18933989378E+04  0.25500000920E-02 0.  1.
    10030    2    1    2    0    0  0.00000000000E+00  0.00000000000E+00  0.34195814863E+02  0.38209936904E+04  0.38208406704E+04 0.  0.
        4    1    3    3  502    0 -0.83252133873E+03 -0.24514938688E+03  0.17190809424E+04  0.19257286675E+04  0.12699999809E+01 0. -1.
       -4    1    3    3    0  502  0.83252133873E+03  0.24514938688E+03 -0.16848851275E+04  0.18952650229E+04  0.12699999809E+01 0.  1.
</event>
<event>
 5   0  0.1187925E-07  0.3070169E+04  0.7818609E-02  0.8223973E-01
       -1   -1    0    0    0  501  0.00000000000E+00  0.00000000000E+00  0.10191719181E+04  0.10191719181E+04  0.50400001928E-02 0. -1.
        1   -1    0    0  501    0  0.00000000000E+00  0.00000000000E+00 -0.23121552827E+04  0.23121552827E+04  0.50400001928E-02 0.  1.
    10030    2    1    2    0    0  0.00000000000E+00  0.00000000000E+00 -0.12929833646E+04  0.33313272008E+04  0.30701685520E+04 0.  0.
        5    1    3    3  502    0 -0.99526513658E+03 -0.92257221670E+03 -0.14249967745E+04  0.19678236924E+04  0.46999998093E+01 0. -1.
       -5    1    3    3    0  502  0.99526513658E+03  0.92257221670E+03  0.13201340986E+03  0.13635035084E+04  0.46999998093E+01 0.  1.
</event>
<event>
 5   0  0.3810833E-07  0.3838414E+04  0.7818609E-02  0.8037961E-01
        2   -1    0    0  501    0  0.00000000000E+00  0.00000000000E+00  0.24583433683E+04  0.24583433683E+04  0.25500000920E-02 0. -1.
       -2   -1    0    0    0  501  0.00000000000E+00  0.00000000000E+00 -0.14983082702E+04  0.14983082702E+04  0.25500000920E-02 0.  1.
    10030    2    1    2    0    0  0.00000000000E+00  0.00000000000E+00  0.96003509809E+03  0.39566516386E+04  0.38384143600E+04 0.  0.
        3    1    3    3  502    0 -0.58974385966E+03 -0.11940568534E+04  0.19045369890E+04  0.23239687480E+04  0.10100000352E+00 0. -1.
       -3    1    3    3    0  502  0.58974385966E+03  0.11940568534E+04 -0.94450189088E+03  0.16326828906E+04  0.10100000352E+00 0.  1.
</event>
<event>
 5   0  0.3680814E-07  0.3867016E+04  0.7818609E-02  0.8031924E-01
        2   -1    0    0  501    0  0.00000000000E+00  0.00000000000E+00  0.15604400544E+04  0.15604400545E+04  0.25500000920E-02 0.  1.
       -2   -1    0    0    0  501  0.00000000000E+00  0.00000000000E+00 -0.23957682696E+04  0.23957682696E+04  0.25500000920E-02 0. -1.
    10030    2    1    2    0    0  0.00000000000E+00  0.00000000000E+00 -0.83532821517E+03  0.39562083241E+04  0.38670157843E+04 0.  0.
        1    1    3    3  502    0  0.28082288020E+03  0.74973265276E+03 -0.22182271026E+04  0.23582815819E+04  0.50400001928E-02 0. -1.
       -1    1    3    3    0  502 -0.28082288020E+03 -0.74973265276E+03  0.13828988874E+04  0.15979267422E+04  0.50400001928E-02 0.  1.
</event>
<event>
 5   0  0.1187925E-07  0.3708597E+04  0.7818609E-02  0.8066059E-01
       -1   -1    0    0    0  501  0.00000000000E+00  0.00000000000E+00  0.13875957935E+04  0.13875957935E+04  0.50400001928E-02 0.  1.
        1   -1    0    0  501    0  0.00000000000E+00  0.00000000000E+00 -0.24779722156E+04  0.24779722156E+04  0.50400001928E-02 0. -1.
    10030    2    1    2    0    0  0.00000000000E+00  0.00000000000E+00 -0.10903764221E+04  0.38655680092E+04  0.37085974831E+04 0.  0.
        2    1    3    3  502    0 -0.75884673223E+03 -0.74015906336E+03  0.10406348514E+04  0.14854644715E+04  0.25500000920E-02 0.  1.
       -2    1    3    3    0  502  0.75884673223E+03  0.74015906336E+03 -0.21310112735E+04  0.23801035377E+04  0.25500000920E-02 0. -1.
</event>
<event>
 5   0  0.1187925E-07  0.3848067E+04  0.7818609E-02  0.8035918E-01
        1   -1    0    0  501    0  0.00000000000E+00  0.00000000000E+00  0.14558486312E+04  0.14558486312E+04  0.50400001928E-02 0.  1.
       -1   -1    0    0    0  501  0.00000000000E+00  0.00000000000E+00 -0.25427810514E+04  0.25427810514E+04  0.50400001928E-02 0. -1.
    10030    2    1    2    0    0  0.00000000000E+00  0.00000000000E+00 -0.10869324202E+04  0.39986296825E+04  0.38480666902E+04 0.  0.
        5    1    3    3  502    0  0.17617279711E+04  0.66339825424E+03 -0.13029134708E+03  0.18870030771E+04  0.46999998093E+01 0.  1.
       -5    1    3    3    0  502 -0.17617279711E+04 -0.66339825424E+03 -0.95664107312E+03  0.21116266054E+04  0.46999998093E+01 0. -1.
</event>
<event>
 5   0  0.1187925E-07  0.3895008E+04  0.7818609E-02  0.8026068E-01
       -1   -1    0    0    0  501  0.00000000000E+00  0.00000000000E+00  0.13832418904E+04  0.13832418904E+04  0.50400001928E-02 0. -1.
        1   -1    0    0  501    0  0.00000000000E+00  0.00000000000E+00 -0.27419439063E+04  0.27419439063E+04  0.50400001928E-02 0.  1.
    10030    2    1    2    0    0  0.00000000000E+00  0.00000000000E+00 -0.13587020158E+04  0.41251857967E+04  0.38950079191E+04 0.  0.
        1    1    3    3  502    0  0.10112998093E+04 -0.25126513003E+03 -0.24218482254E+04  0.26365148012E+04  0.50400001928E-02 0.  1.
       -1    1    3    3    0  502 -0.10112998093E+04  0.25126513003E+03  0.10631462096E+04  0.14886709955E+04  0.50400001928E-02 0. -1.
</event>
<event>
 5   0  0.3832389E-07  0.3546729E+04  0.7818609E-02  0.8102804E-01
        2   -1    0    0  501    0  0.00000000000E+00  0.00000000000E+00  0.24554832334E+04  0.24554832334E+04  0.25500000920E-02 0.  1.
       -2   -1    0    0    0  501  0.00000000000E+00  0.00000000000E+00 -0.12807341863E+04  0.12807341863E+04  0.25500000920E-02 0. -1.
    10030    2    1    2    0    0  0.00000000000E+00  0.00000000000E+00  0.11747490472E+04  0.37362174197E+04  0.35467288145E+04 0.  0.
        5    1    3    3  502    0  0.16192493328E+04  0.70145625454E+03  0.40252911618E+03  0.18099892425E+04  0.46999998093E+01 0. -1.
       -5    1    3    3    0  502 -0.16192493328E+04 -0.70145625454E+03  0.77221993099E+03  0.19262281772E+04  0.46999998093E+01 0.  1.
</event>
<event>
 5   0  0.3810833E-07  0.3890309E+04  0.7818609E-02  0.8027048E-01
        2   -1    0    0  501    0  0.00000000000E+00  0.00000000000E+00  0.25816764129E+04  0.25816764129E+04  0.25500000920E-02 0. -1.
       -2   -1    0    0    0  501  0.00000000000E+00  0.00000000000E+00 -0.14655693959E+04  0.14655693959E+04  0.25500000920E-02 0.  1.
    10030    2    1    2    0    0  0.00000000000E+00  0.00000000000E+00  0.11161070170E+04  0.40472458088E+04  0.38903089547E+04 0.  0.
        3    1    3    3  502    0  0.12418638776E+04 -0.12467524216E+04  0.14203498136E+04  0.22614179389E+04  0.10100000352E+00 0. -1.
       -3    1    3    3    0  502 -0.12418638776E+04  0.12467524216E+04 -0.30424279663E+03  0.17858278699E+04  0.10100000352E+00 0.  1.
</event>
<event>
 5   0  0.3610483E-07  0.3897953E+04  0.7818609E-02  0.8025455E-01
       -2   -1    0    0    0  501  0.00000000000E+00  0.00000000000E+00  0.16690744598E+04  0.16690744598E+04  0.25500000920E-02 0.  1.
        2   -1    0    0  501    0  0.00000000000E+00  0.00000000000E+00 -0.22758180538E+04  0.22758180538E+04  0.25500000920E-02 0. -1.
    10030    2    1    2    0    0  0.00000000000E+00  0.00000000000E+00 -0.60674359400E+03  0.39448925135E+04  0.38979532006E+04 0.  0.
        4    1    3    3  502    0  0.54802825784E+03 -0.15587994572E+04 -0.13494128189E+04  0.21333324373E+04  0.12699999809E+01 0. -1.
       -4    1    3    3    0  502 -0.54802825784E+03  0.15587994572E+04  0.74266922494E+03  0.18115600762E+04  0.12699999809E+01 0.  1.
</event>
<event>
 5   0  0.3810833E-07  0.3786409E+04  0.7818609E-02  0.8049078E-01
       -2   -1    0    0    0  501  0.00000000000E+00  0.00000000000E+00  0.16392081812E+04  0.16392081812E+04  0.25500000920E-02 0.  1.
        2   -1    0    0  501    0  0.00000000000E+00  0.00000000000E+00 -0.21865578226E+04  0.21865578226E+04  0.25500000920E-02 0. -1.
    10030    2    1    2    0    0  0.00000000000E+00  0.00000000000E+00 -0.54734964142E+03  0.38257660038E+04  0.37864091017E+04 0.  0.
        3    1    3    3  502    0  0.16298501988E+04  0.46384510062E+03  0.57929155547E+03  0.17908497046E+04  0.10100000352E+00 0.  1.
       -3    1    3    3    0  502 -0.16298501988E+04 -0.46384510062E+03 -0.11266411969E+04  0.20349162992E+04  0.10100000352E+00 0. -1.
</event>
<event>
 5   0  0.1187925E-07  0.3813505E+04  0.7818609E-02  0.8043263E-01
        1   -1    0    0  501    0  0.00000000000E+00  0.00000000000E+00  0.27349175331E+04  0.27349175331E+04  0.50400001928E-02 0.  1.
       -1   -1    0    0    0  501  0.00000000000E+00  0.00000000000E+00 -0.13293653819E+04  0.13293653819E+04  0.50400001928E-02 0. -1.
    10030    2    1    2    0    0  0.00000000000E+00  0.00000000000E+00  0.14055521512E+04  0.40642829150E+04  0.38135047874E+04 0.  0.
        5    1    3    3  502    0 -0.77909269462E+03 -0.14564903594E+04 -0.31240377832E+03  0.16810615112E+04  0.46999998093E+01 0. -1.
       -5    1    3    3    0  502  0.77909269462E+03  0.14564903594E+04  0.17179559295E+04  0.23832214038E+04  0.46999998093E+01 0.  1.
</event>
<event>
 5   0  0.1187925E-07  0.3897836E+04  0.7818609E-02  0.8025479E-01
       -1   -1    0    0    0  501  0.00000000000E+00  0.00000000000E+00  0.17554288702E+04  0.17554288702E+04  0.50400001928E-02 0. -1.
        1   -1    0    0  501    0  0.00000000000E+00  0.00000000000E+00 -0.21637341073E+04  0.21637341073E+04  0.50400001928E-02 0.  1.
    10030    2    1    2    0    0  0.00000000000E+00  0.00000000000E+00 -0.40830523708E+03  0.39191629775E+04  0.38978359737E+04 0.  0.
        4    1    3    3  502    0 -0.16950226243E+04 -0.15002390225E+03 -0.11594409447E+04  0.20591050933E+04  0.12699999809E+01 0. -1.
       -4    1    3    3    0  502  0.16950226243E+04  0.15002390225E+03  0.75113570765E+03  0.18600578842E+04  0.12699999809E+01 0.  1.
</event>
<event>
 5   0  0.1187925E-07  0.3249560E+04  0.7818609E-02  0.8175850E-01
       -1   -1    0    0    0  501  0.00000000000E+00  0.00000000000E+00  0.13631731997E+04  0.13631731998E+04  0.50400001928E-02 0.  1.
        1   -1    0    0  501    0  0.00000000000E+00  0.00000000000E+00 -0.19365922371E+04  0.19365922371E+04  0.50400001928E-02 0. -1.
    10030    2    1    2    0    0  0.00000000000E+00  0.00000000000E+00 -0.57341903735E+03  0.32997654369E+04  0.32495603619E+04 0.  0.
        5    1    3    3  502    0 -0.29054082088E+03 -0.13559873656E+04 -0.11464140814E+04  0.17992784777E+04  0.46999998093E+01 0. -1.
       -5    1    3    3    0  502  0.29054082088E+03  0.13559873656E+04  0.57299504406E+03  0.15004869592E+04  0.46999998093E+01 0.  1.
</event>
<event>
 5   0  0.1187925E-07  0.3800037E+04  0.7818609E-02  0.8046147E-01
        1   -1    0    0  501    0  0.00000000000E+00  0.00000000000E+00  0.23206784622E+04  0.23206784622E+04  0.50400001928E-02 0. -1.
       -1   -1    0    0    0  501  0.00000000000E+00  0.00000000000E+00 -0.15556097242E+04  0.15556097242E+04  0.50400001928E-02 0.  1.
    10030    2    1    2    0    0  0.00000000000E+00  0.00000000000E+00  0.76506873801E+03  0.38762881865E+04  0.38000368328E+04 0.  0.
        4    1    3    3  502    0  0.13806543603E+04 -0.67007634222E+03  0.15252175121E+04  0.21636771569E+04  0.12699999809E+01 0. -1.
       -4    1    3    3    0  502 -0.13806543603E+04  0.67007634222E+03 -0.76014877408E+03  0.17126110296E+04  0.12699999809E+01 0.  1.
</event>
<event>
 5   0  0.3810833E-07  0.3826011E+04  0.7818609E-02  0.8040596E-01
        2   -1    0    0  501    0  0.00000000000E+00  0.00000000000E+00  0.22081187798E+04  0.22081187798E+04  0.25500000920E-02 0.  1.
       -2   -1    0    0    0  501  0.00000000000E+00  0.00000000000E+00 -0.16573343013E+04  0.16573343013E+04  0.25500000920E-02 0. -1.
    10030    2    1    2    0    0  0.00000000000E+00  0.00000000000E+00  0.55078447851E+03  0.38654530812E+04  0.38260114977E+04 0.  0.
        3    1    3    3  502    0  0.10812459154E+04  0.23705931671E+03  0.18517009889E+04  0.21573331713E+04  0.10100000352E+00 0.  1.
       -3    1    3    3    0  502 -0.10812459154E+04 -0.23705931671E+03 -0.13009165104E+04  0.17081199099E+04  0.10100000352E+00 0. -1.
</event>
<event>
 5   0  0.1187925E-07  0.4072179E+04  0.7818609E-02  0.7990142E-01
       -1   -1    0    0    0  501  0.00000000000E+00  0.00000000000E+00  0.18837027347E+04  0.18837027347E+04  0.50400001928E-02 0. -1.
        1   -1    0    0  501    0  0.00000000000E+00  0.00000000000E+00 -0.22008043197E+04  0.22008043197E+04  0.50400001928E-02 0.  1.
    10030    2    1    2    0    0  0.00000000000E+00  0.00000000000E+00 -0.31710158501E+03  0.40845070544E+04  0.40721793259E+04 0.  0.
        3    1    3    3  502    0 -0.79009742302E+03 -0.51361983230E+03 -0.19688974991E+04  0.21828001837E+04  0.10100000352E+00 0.  1.
       -3    1    3    3    0  502  0.79009742302E+03  0.51361983230E+03  0.16517959141E+04  0.19017068707E+04  0.10100000352E+00 0. -1.
</event>
<event>
 5   0  0.3832389E-07  0.2856528E+04  0.7818609E-02  0.8285930E-01
        2   -1    0    0  501    0  0.00000000000E+00  0.00000000000E+00  0.11017735327E+04  0.11017735327E+04  0.25500000920E-02 0.  1.
       -2   -1    0    0    0  501  0.00000000000E+00  0.00000000000E+00 -0.18515043383E+04  0.18515043383E+04  0.25500000920E-02 0. -1.
    10030    2    1    2    0    0  0.00000000000E+00  0.00000000000E+00 -0.74973080561E+03  0.29532778711E+04  0.28565282955E+04 0.  0.
        5    1    3    3  502    0  0.93286378341E+03 -0.16949079832E+03  0.72946728630E+03  0.11962886695E+04  0.46999998093E+01 0.  1.
       -5    1    3    3    0  502 -0.93286378341E+03  0.16949079832E+03 -0.14791980919E+04  0.17569892015E+04  0.46999998093E+01 0. -1.
</event>
<event>
 5   0  0.3810833E-07  0.3853241E+04  0.7818609E-02  0.8034825E-01
       -2   -1    0    0    0  501  0.00000000000E+00  0.00000000000E+00  0.26187787025E+04  0.26187787025E+04  0.25500000920E-02 0.  1.
        2   -1    0    0  501    0  0.00000000000E+00  0.00000000000E+00 -0.14174033378E+04  0.14174033378E+04  0.25500000920E-02 0. -1.
    10030    2    1    2    0    0  0.00000000000E+00  0.00000000000E+00  0.12013753647E+04  0.40361820403E+04  0.38532405447E+04 0.  0.
        3    1    3    3  502    0 -0.90976515372E+03 -0.10816208485E+04 -0.77078351136E+03  0.16098706552E+04  0.10100000352E+00 0. -1.
       -3    1    3    3    0  502  0.90976515372E+03  0.10816208485E+04  0.19721588761E+04  0.24263113851E+04  0.10100000352E+00 0.  1.
</event>
<event>
 5   0  0.1187925E-07  0.3846504E+04  0.7818609E-02  0.8036248E-01
       -1   -1    0    0    0  501  0.00000000000E+00  0.00000000000E+00  0.13534979314E+04  0.13534979314E+04  0.50400001928E-02 0. -1.
        1   -1    0    0  501    0  0.00000000000E+00  0.00000000000E+00 -0.27328433083E+04  0.27328433083E+04  0.50400001928E-02 0.  1.
    10030    2    1    2    0    0  0.00000000000E+00  0.00000000000E+00 -0.13793453770E+04  0.40863412397E+04  0.38465037448E+04 0.  0.
        3    1    3    3  502    0  0.14936131858E+04  0.31589638129E+02 -0.19763996894E+04  0.24775055997E+04  0.10100000352E+00 0.  1.
       -3    1    3    3    0  502 -0.14936131858E+04 -0.31589638129E+02  0.59705431247E+03  0.16088356400E+04  0.10100000352E+00 0. -1.
</event>
<event>
 5   0  0.3610483E-07  0.3528688E+04  0.7818609E-02  0.8107025E-01
        2   -1    0    0  501    0  0.00000000000E+00  0.00000000000E+00  0.23598939283E+04  0.23598939283E+04  0.25500000920E-02 0.  1.
       -2   -1    0    0    0  501  0.00000000000E+00  0.00000000000E+00 -0.13190887793E+04  0.13190887793E+04  0.25500000920E-02 0. -1.
    10030    2    1    2    0    0  0.00000000000E+00  0.00000000000E+00  0.10408051490E+04  0.36789827076E+04  0.35286879155E+04 0.  0.
        4    1    3    3  502    0  0.15745428840E+04 -0.71715111161E+03  0.88068869709E+03  0.19414183487E+04  0.12699999809E+01 0.  1.
       -4    1    3    3    0  502 -0.15745428840E+04  0.71715111161E+03  0.16011645195E+03  0.17375643590E+04  0.12699999809E+01 0. -1.
</event>
<event>
 5   0  0.3832389E-07  0.3278825E+04  0.7818609E-02  0.8168304E-01
       -2   -1    0    0    0  501  0.00000000000E+00  0.00000000000E+00  0.14191542552E+04  0.14191542552E+04  0.25500000920E-02 0.  1.
        2   -1    0    0  501    0  0.00000000000E+00  0.00000000000E+00 -0.18938554779E+04  0.18938554779E+04  0.25500000920E-02 0. -1.
    10030    2    1    2    0    0  0.00000000000E+00  0.00000000000E+00 -0.47470122271E+03  0.33130097331E+04  0.32788248262E+04 0.  0.
        5    1    3    3  502    0  0.67873886703E+03  0.10263229841E+04  0.85728429695E+03  0.14996612195E+04  0.46999998093E+01 0.  1.
       -5    1    3    3    0  502 -0.67873886703E+03 -0.10263229841E+04 -0.13319855197E+04  0.18133485136E+04  0.46999998093E+01 0. -1.
</event>
<event>
 5   0  0.1187925E-07  0.3881567E+04  0.7818609E-02  0.8028874E-01
        1   -1    0    0  501    0  0.00000000000E+00  0.00000000000E+00  0.24117399644E+04  0.24117399644E+04  0.50400001928E-02 0.  1.
       -1   -1    0    0    0  501  0.00000000000E+00  0.00000000000E+00 -0.15617940369E+04  0.15617940369E+04  0.50400001928E-02 0. -1.
    10030    2    1    2    0    0  0.00000000000E+00  0.00000000000E+00  0.84994592748E+03  0.39735340013E+04  0.38815672582E+04 0.  0.
        2    1    3    3  502    0  0.74175752530E+03 -0.16704013331E+04  0.10932778437E+04  0.21297185926E+04  0.25500000920E-02 0.  1.
       -2    1    3    3    0  502 -0.74175752530E+03  0.16704013331E+04 -0.24333191624E+03  0.18438154088E+04  0.25500000920E-02 0. -1.
</event>
<event>
 5   0  0.1187925E-07  0.3758776E+04  0.7818609E-02  0.8055060E-01
       -1   -1    0    0    0  501  0.00000000000E+00  0.00000000000E+00  0.16362130997E+04  0.16362130997E+04  0.50400001928E-02 0.  1.
        1   -1    0    0  501    0  0.00000000000E+00  0.00000000000E+00 -0.21587041805E+04  0.21587041805E+04  0.50400001928E-02 0. -1.
    10030    2    1    2    0    0  0.00000000000E+00  0.00000000000E+00 -0.52249108086E+03  0.37949172802E+04  0.37587764278E+04 0.  0.
        4    1    3    3  502    0 -0.17460628074E+04  0.48043804994E+03 -0.76861342009E+03  0.19673139682E+04  0.12699999809E+01 0. -1.
       -4    1    3    3    0  502  0.17460628074E+04 -0.48043804994E+03  0.24612233923E+03  0.18276033120E+04  0.12699999809E+01 0.  1.
</event>
<event>
 5   0  0.1187925E-07  0.4003050E+04  0.7818609E-02  0.8003931E-01
        1   -1    0    0  501    0  0.00000000000E+00  0.00000000000E+00  0.18982685884E+04  0.18982685884E+04  0.50400001928E-02 0. -1.
       -1   -1    0    0    0  501  0.00000000000E+00  0.00000000000E+00 -0.21103984752E+04  0.21103984752E+04  0.50400001928E-02 0.  1.
    10030    2    1    2    0    0  0.00000000000E+00  0.00000000000E+00 -0.21212988681E+03  0.40086670636E+04  0.40030504042E+04 0.  0.
        3    1    3    3  502    0 -0.54557641017E+02 -0.12948779559E+04  0.14213350097E+04  0.19235068695E+04  0.10100000352E+00 0. -1.
       -3    1    3    3    0  502  0.54557641017E+02  0.12948779559E+04 -0.16334648965E+04  0.20851601942E+04  0.10100000352E+00 0.  1.
</event>
<event>
 5   0  0.1187925E-07  0.3781114E+04  0.7818609E-02  0.8050220E-01
        1   -1    0    0  501    0  0.00000000000E+00  0.00000000000E+00  0.23143706822E+04  0.23143706822E+04  0.50400001928E-02 0.  1.
       -1   -1    0    0    0  501  0.00000000000E+00  0.00000000000E+00 -0.15443533815E+04  0.15443533815E+04  0.50400001928E-02 0. -1.
    10030    2    1    2    0    0  0.00000000000E+00  0.00000000000E+00  0.77001730062E+03  0.38587240637E+04  0.37811142216E+04 0.  0.
        5    1    3    3  502    0  0.82517256385E+02 -0.93782442447E+02  0.23101485026E+04  0.23135281365E+04  0.46999998093E+01 0.  1.
       -5    1    3    3    0  502 -0.82517256385E+02  0.93782442447E+02 -0.15401312020E+04  0.15451959272E+04  0.46999998093E+01 0. -1.
</event>
<event>
 5   0  0.3680814E-07  0.3904316E+04  0.7818609E-02  0.8024132E-01
       -2   -1    0    0    0  501  0.00000000000E+00  0.00000000000E+00  0.18331103315E+04  0.18331103315E+04  0.25500000920E-02 0.  1.
        2   -1    0    0  501    0  0.00000000000E+00  0.00000000000E+00 -0.20789364897E+04  0.20789364897E+04  0.25500000920E-02 0. -1.
    10030    2    1    2    0    0  0.00000000000E+00  0.00000000000E+00 -0.24582615821E+03  0.39120468212E+04  0.39043155394E+04 0.  0.
        1    1    3    3  502    0  0.51133698674E+02 -0.19272385014E+04 -0.43020761485E+03  0.19753332600E+04  0.50400001928E-02 0.  1.
       -1    1    3    3    0  502 -0.51133698674E+02  0.19272385014E+04  0.18438145664E+03  0.19367135611E+04  0.50400001928E-02 0. -1.
</event>
<event>
 5   0  0.1187925E-07  0.3940693E+04  0.7818609E-02  0.8016619E-01
       -1   -1    0    0    0  501  0.00000000000E+00  0.00000000000E+00  0.15082893952E+04  0.15082893952E+04  0.50400001928E-02 0.  1.
        1   -1    0    0  501    0  0.00000000000E+00  0.00000000000E+00 -0.25739519361E+04  0.25739519361E+04  0.50400001928E-02 0. -1.
    10030    2    1    2    0    0  0.00000000000E+00  0.00000000000E+00 -0.10656625409E+04  0.40822413313E+04  0.39406925325E+04 0.  0.
        1    1    3    3  502    0 -0.11488400743E+04 -0.43220218601E+03 -0.21295033198E+04  0.24579293389E+04  0.50400001928E-02 0. -1.
       -1    1    3    3    0  502  0.11488400743E+04  0.43220218601E+03  0.10638407788E+04  0.16243119924E+04  0.50400001928E-02 0.  1.
</event>
<event>
 5   0  0.3680814E-07  0.3899366E+04  0.7818609E-02  0.8025161E-01
       -2   -1    0    0    0  501  0.00000000000E+00  0.00000000000E+00  0.13338276916E+04  0.13338276916E+04  0.25500000920E-02 0. -1.
        2   -1    0    0  501    0  0.00000000000E+00  0.00000000000E+00 -0.28498905110E+04  0.28498905110E+04  0.25500000920E-02 0.  1.
    10030    2    1    2    0    0  0.00000000000E+00  0.00000000000E+00 -0.15160628194E+04  0.41837182026E+04  0.38993655287E+04 0.  0.
        1    1    3    3  502    0 -0.13868459634E+04  0.87596618253E+03  0.37267062032E+03  0.16821242137E+04  0.50400001928E-02 0. -1.
       -1    1    3    3    0  502  0.13868459634E+04 -0.87596618253E+03 -0.18887334397E+04  0.25015939889E+04  0.50400001928E-02 0.  1.
</event>
<event>
 5   0  0.1187925E-07  0.3695301E+04  0.7818609E-02  0.8069004E-01
       -1   -1    0    0    0  501  0.00000000000E+00  0.00000000000E+00  0.11719264296E+04  0.11719264296E+04  0.50400001928E-02 0.  1.
        1   -1    0    0  501    0  0.00000000000E+00  0.00000000000E+00 -0.29129925082E+04  0.29129925082E+04  0.50400001928E-02 0. -1.
    10030    2    1    2    0    0  0.00000000000E+00  0.00000000000E+00 -0.17410660786E+04  0.40849189377E+04  0.36953012919E+04 0.  0.
        3    1    3    3  502    0  0.11429209874E+03  0.37767018145E+03 -0.28658726471E+04  0.28929091741E+04  0.10100000352E+00 0. -1.
       -3    1    3    3    0  502 -0.11429209874E+03 -0.37767018145E+03  0.11248065685E+04  0.11920097636E+04  0.10100000352E+00 0.  1.
</event>
<event>
 5   0  0.1187925E-07  0.2812371E+04  0.7818609E-02  0.8299438E-01
       -1   -1    0    0    0  501  0.00000000000E+00  0.00000000000E+00  0.20733384283E+04  0.20733384283E+04  0.50400001928E-02 0.  1.
        1   -1    0    0  501    0  0.00000000000E+00  0.00000000000E+00 -0.95370702556E+03  0.95370702558E+03  0.50400001928E-02 0. -1.
    10030    2    1    2    0    0  0.00000000000E+00  0.00000000000E+00  0.11196314027E+04  0.30270454538E+04  0.28123708329E+04 0.  0.
        2    1    3    3  502    0  0.12755472347E+03 -0.12636882699E+04  0.12093527246E+04  0.17537708697E+04  0.25500000920E-02 0.  1.
       -2    1    3    3    0  502 -0.12755472347E+03  0.12636882699E+04 -0.89721321938E+02  0.12732745841E+04  0.25500000920E-02 0. -1.
</event>
<event>
 5   0  0.1187925E-07  0.3850514E+04  0.7818609E-02  0.8035401E-01
       -1   -1    0    0    0  501  0.00000000000E+00  0.00000000000E+00  0.32679617189E+04  0.32679617189E+04  0.50400001928E-02 0. -1.
        1   -1    0    0  501    0  0.00000000000E+00  0.00000000000E+00 -0.11342283954E+04  0.11342283954E+04  0.50400001928E-02 0.  1.
    10030    2    1    2    0    0  0.00000000000E+00  0.00000000000E+00  0.21337333235E+04  0.44021901143E+04  0.38505142392E+04 0.  0.
        5    1    3    3  502    0 -0.88352938053E+02  0.12757215731E+03  0.32607935217E+04  0.32644873071E+04  0.46999998093E+01 0. -1.
       -5    1    3    3    0  502  0.88352938053E+02 -0.12757215731E+03 -0.11270601982E+04  0.11377028072E+04  0.46999998093E+01 0.  1.
</event>
<event>
 5   0  0.3832389E-07  0.3913770E+04  0.7818609E-02  0.8022171E-01
       -2   -1    0    0    0  501  0.00000000000E+00  0.00000000000E+00  0.30912257263E+04  0.30912257263E+04  0.25500000920E-02 0.  1.
        2   -1    0    0  501    0  0.00000000000E+00  0.00000000000E+00 -0.12387965717E+04  0.12387965717E+04  0.25500000920E-02 0. -1.
    10030    2    1    2    0    0  0.00000000000E+00  0.00000000000E+00  0.18524291547E+04  0.43300222980E+04  0.39137704746E+04 0.  0.
        5    1    3    3  502    0 -0.68167775779E+03 -0.70294667118E+03 -0.94825342213E+03  0.13630939918E+04  0.46999998093E+01 0. -1.
       -5    1    3    3    0  502  0.68167775779E+03  0.70294667118E+03  0.28006825768E+04  0.29669283062E+04  0.46999998093E+01 0.  1.
</event>
<event>
 5   0  0.3832389E-07  0.3887475E+04  0.7818609E-02  0.8027639E-01
       -2   -1    0    0    0  501  0.00000000000E+00  0.00000000000E+00  0.14073394620E+04  0.14073394620E+04  0.25500000920E-02 0. -1.
        2   -1    0    0  501    0  0.00000000000E+00  0.00000000000E+00 -0.26845807228E+04  0.26845807228E+04  0.25500000920E-02 0.  1.
    10030    2    1    2    0    0  0.00000000000E+00  0.00000000000E+00 -0.12772412608E+04  0.40919201848E+04  0.38874754740E+04 0.  0.
        5    1    3    3  502    0  0.40725978110E+03  0.18997583997E+04 -0.69771394949E+03  0.20644053264E+04  0.46999998093E+01 0. -1.
       -5    1    3    3    0  502 -0.40725978110E+03 -0.18997583997E+04 -0.57952731132E+03  0.20275148584E+04  0.46999998093E+01 0.  1.
</event>
<event>
 5   0  0.3832389E-07  0.4027943E+04  0.7818609E-02  0.7998933E-01
        2   -1    0    0  501    0  0.00000000000E+00  0.00000000000E+00  0.28780280216E+04  0.28780280216E+04  0.25500000920E-02 0. -1.
       -2   -1    0    0    0  501  0.00000000000E+00  0.00000000000E+00 -0.14093267155E+04  0.14093267155E+04  0.25500000920E-02 0.  1.
    10030    2    1    2    0    0  0.00000000000E+00  0.00000000000E+00  0.14687013061E+04  0.42873547372E+04  0.40279432861E+04 0.  0.
        5    1    3    3  502    0 -0.10501870955E+04 -0.99904716549E+02 -0.10917087926E+04  0.15181317683E+04  0.46999998093E+01 0.  1.
       -5    1    3    3    0  502  0.10501870955E+04  0.99904716549E+02  0.25604100987E+04  0.27692229689E+04  0.46999998093E+01 0. -1.
</event>
<event>
 5   0  0.1187925E-07  0.3927503E+04  0.7818609E-02  0.8019333E-01
       -1   -1    0    0    0  501  0.00000000000E+00  0.00000000000E+00  0.15908300564E+04  0.15908300564E+04  0.50400001928E-02 0.  1.
        1   -1    0    0  501    0  0.00000000000E+00  0.00000000000E+00 -0.24240924209E+04  0.24240924209E+04  0.50400001928E-02 0. -1.
    10030    2    1    2    0    0  0.00000000000E+00  0.00000000000E+00 -0.83326236448E+03  0.40149224773E+04  0.39275025564E+04 0.  0.
        4    1    3    3  502    0  0.14891957817E+03  0.17789737028E+04  0.41974425301E+03  0.18338787656E+04  0.12699999809E+01 0.  1.
       -4    1    3    3    0  502 -0.14891957817E+03 -0.17789737028E+04 -0.12530066175E+04  0.21810437117E+04  0.12699999809E+01 0. -1.
</event>
<event>
 5   0  0.3665303E-07  0.3909327E+04  0.7818609E-02  0.8023092E-01
       -2   -1    0    0    0  501  0.00000000000E+00  0.00000000000E+00  0.15386995136E+04  0.15386995136E+04  0.25500000920E-02 0. -1.
        2   -1    0    0  501    0  0.00000000000E+00  0.00000000000E+00 -0.24830774398E+04  0.24830774398E+04  0.25500000920E-02 0.  1.
    10030    2    1    2    0    0  0.00000000000E+00  0.00000000000E+00 -0.94437792616E+03  0.40217769534E+04  0.39093273329E+04 0.  0.
        2    1    3    3  502    0 -0.14624464968E+03 -0.12238037709E+04  0.10885612601E+04  0.16443992168E+04  0.25500000920E-02 0. -1.
       -2    1    3    3    0  502  0.14624464968E+03  0.12238037709E+04 -0.20329391863E+04  0.23773777366E+04  0.25500000920E-02 0.  1.
</event>
<event>
 5   0  0.3810833E-07  0.3902678E+04  0.7818609E-02  0.8024472E-01
       -2   -1    0    0    0  501  0.00000000000E+00  0.00000000000E+00  0.22834351684E+04  0.22834351684E+04  0.25500000920E-02 0. -1.
        2   -1    0    0  501    0  0.00000000000E+00  0.00000000000E+00 -0.16675419006E+04  0.16675419006E+04  0.25500000920E-02 0.  1.
    10030    2    1    2    0    0  0.00000000000E+00  0.00000000000E+00  0.61589326783E+03  0.39509770691E+04  0.39026779630E+04 0.  0.
        3    1    3    3  502    0 -0.15192214728E+04 -0.26962724065E+03  0.15172977838E+04  0.21640067716E+04  0.10100000352E+00 0. -1.
       -3    1    3    3    0  502  0.15192214728E+04  0.26962724065E+03 -0.90140451600E+03  0.17869702975E+04  0.10100000352E+00 0.  1.
</event>
<event>
 5   0  0.1187925E-07  0.3834644E+04  0.7818609E-02  0.8038761E-01
        1   -1    0    0  501    0  0.00000000000E+00  0.00000000000E+00  0.30556420440E+04  0.30556420440E+04  0.50400001928E-02 0. -1.
       -1   -1    0    0    0  501  0.00000000000E+00  0.00000000000E+00 -0.12030609636E+04  0.12030609636E+04  0.50400001928E-02 0.  1.
    10030    2    1    2    0    0  0.00000000000E+00  0.00000000000E+00  0.18525810805E+04  0.42587030076E+04  0.38346440053E+04 0.  0.
        3    1    3    3  502    0 -0.13283540619E+04  0.10878702611E+02 -0.60916509162E+03  0.14614119813E+04  0.10100000352E+00 0.  1.
       -3    1    3    3    0  502  0.13283540619E+04 -0.10878702611E+02  0.24617461721E+04  0.27972910263E+04  0.10100000352E+00 0. -1.
</event>
<event>
 5   0  0.3810833E-07  0.3897368E+04  0.7818609E-02  0.8025577E-01
        2   -1    0    0  501    0  0.00000000000E+00  0.00000000000E+00  0.16018080318E+04  0.16018080318E+04  0.25500000920E-02 0. -1.
       -2   -1    0    0    0  501  0.00000000000E+00  0.00000000000E+00 -0.23706766179E+04  0.23706766179E+04  0.25500000920E-02 0.  1.
    10030    2    1    2    0    0  0.00000000000E+00  0.00000000000E+00 -0.76886858606E+03  0.39724846497E+04  0.38973677514E+04 0.  0.
        3    1    3    3  502    0  0.12009393798E+04  0.44167563601E+03  0.11135985766E+04  0.16963002569E+04  0.10100000352E+00 0. -1.
       -3    1    3    3    0  502 -0.12009393798E+04 -0.44167563601E+03 -0.18824671627E+04  0.22761843928E+04  0.10100000352E+00 0.  1.
</event>
<event>
 5   0  0.1187925E-07  0.3932392E+04  0.7818609E-02  0.8018326E-01
        1   -1    0    0  501    0  0.00000000000E+00  0.00000000000E+00  0.29869133242E+04  0.29869133242E+04  0.50400001928E-02 0. -1.
       -1   -1    0    0    0  501  0.00000000000E+00  0.00000000000E+00 -0.12942879734E+04  0.12942879734E+04  0.50400001928E-02 0.  1.
    10030    2    1    2    0    0  0.00000000000E+00  0.00000000000E+00  0.16926253508E+04  0.42812012976E+04  0.39323916352E+04 0.  0.
        4    1    3    3  502    0  0.11321644113E+04  0.13958617539E+04  0.17143418818E+04  0.24837866235E+04  0.12699999809E+01 0. -1.
       -4    1    3    3    0  502 -0.11321644113E+04 -0.13958617539E+04 -0.21716530945E+02  0.17974146742E+04  0.12699999809E+01 0.  1.
</event>
<event>
 5   0  0.3832389E-07  0.3803859E+04  0.7818609E-02  0.8045327E-01
        2   -1    0    0  501    0  0.00000000000E+00  0.00000000000E+00  0.23723774838E+04  0.23723774838E+04  0.25500000920E-02 0. -1.
       -2   -1    0    0    0  501  0.00000000000E+00  0.00000000000E+00 -0.15247725189E+04  0.15247725189E+04  0.25500000920E-02 0.  1.
    10030    2    1    2    0    0  0.00000000000E+00  0.00000000000E+00  0.84760496491E+03  0.38971500027E+04  0.38038590887E+04 0.  0.
        5    1    3    3  502    0 -0.84138632783E+03 -0.17015860662E+04  0.30263180424E+03  0.19222211611E+04  0.46999998093E+01 0.  1.
       -5    1    3    3    0  502  0.84138632783E+03  0.17015860662E+04  0.54497316067E+03  0.19749288415E+04  0.46999998093E+01 0. -1.
</event>
<event>
 5   0  0.1187925E-07  0.2799897E+04  0.7818609E-02  0.8303300E-01
        1   -1    0    0  501    0  0.00000000000E+00  0.00000000000E+00  0.11225188046E+04  0.11225188046E+04  0.50400001928E-02 0.  1.
       -1   -1    0    0    0  501  0.00000000000E+00  0.00000000000E+00 -0.17459450103E+04  0.17459450103E+04  0.50400001928E-02 0. -1.
    10030    2    1    2    0    0  0.00000000000E+00  0.00000000000E+00 -0.62342620570E+03  0.28684638149E+04  0.27998972165E+04 0.  0.
        3    1    3    3  502    0 -0.14761379532E+03 -0.65418845170E+03 -0.15706694666E+04  0.17078509731E+04  0.10100000352E+00 0. -1.
       -3    1    3    3    0  502  0.14761379532E+03  0.65418845170E+03  0.94724326089E+03  0.11606128417E+04  0.10100000352E+00 0.  1.
</event>
<event>
 5   0  0.3665303E-07  0.3878456E+04  0.7818609E-02  0.8029525E-01
        2   -1    0    0  501    0  0.00000000000E+00  0.00000000000E+00  0.22813267002E+04  0.22813267002E+04  0.25500000920E-02 0.  1.
       -2   -1    0    0    0  501  0.00000000000E+00  0.00000000000E+00 -0.16484294483E+04  0.16484294483E+04  0.25500000920E-02 0. -1.
    10030    2    1    2    0    0  0.00000000000E+00  0.00000000000E+00  0.63289725196E+03  0.39297561485E+04  0.38784564527E+04 0.  0.
        2    1    3    3  502    0  0.66109176265E+02  0.13053706347E+03  0.22757253728E+04  0.22804245922E+04  0.25500000920E-02 0.  1.
       -2    1    3    3    0  502 -0.66109176265E+02 -0.13053706347E+03 -0.16428281208E+04  0.16493315563E+04  0.25500000920E-02 0. -1.
</event>
<event>
 5   0  0.1187925E-07  0.3596117E+04  0.7818609E-02  0.8091382E-01
       -1   -1    0    0    0  501  0.00000000000E+00  0.00000000000E+00  0.16687527342E+04  0.16687527342E+04  0.50400001928E-02 0. -1.
        1   -1    0    0  501    0  0.00000000000E+00  0.00000000000E+00 -0.19373833838E+04  0.19373833838E+04  0.50400001928E-02 0.  1.
    10030    2    1    2    0    0  0.00000000000E+00  0.00000000000E+00 -0.26863064960E+03  0.36061361179E+04  0.35961166938E+04 0.  0.
        5    1    3    3  502    0 -0.27106543860E+03 -0.13481630024E+04 -0.12959779866E+04  0.18896033935E+04  0.46999998093E+01 0.  1.
       -5    1    3    3    0  502  0.27106543860E+03  0.13481630024E+04  0.10273473370E+04  0.17165327244E+04  0.46999998093E+01 0. -1.
</event>
<event>
 5   0  0.1187925E-07  0.3812726E+04  0.7818609E-02  0.8043429E-01
       -1   -1    0    0    0  501  0.00000000000E+00  0.00000000000E+00  0.30183357554E+04  0.30183357554E+04  0.50400001928E-02 0. -1.
        1   -1    0    0  501    0  0.00000000000E+00  0.00000000000E+00 -0.12040476006E+04  0.12040476006E+04  0.50400001928E-02 0.  1.
    10030    2    1    2    0    0  0.00000000000E+00  0.00000000000E+00  0.18142881548E+04  0.42223833560E+04  0.38127260190E+04 0.  0.
        2    1    3    3  502    0  0.74060119844E+03 -0.73440467080E+03 -0.86004750111E+03  0.13518587426E+04  0.25500000920E-02 0.  1.
       -2    1    3    3    0  502 -0.74060119844E+03  0.73440467080E+03  0.26743356559E+04  0.28705246134E+04  0.25500000920E-02 0. -1.
</event>
<event>
 5   0  0.1187925E-07  0.3871647E+04  0.7818609E-02  0.8030952E-01
        3   -1    0    0  501    0  0.00000000000E+00  0.00000000000E+00  0.23565082119E+04  0.23565082141E+04  0.10100000352E+00 0. -1.
       -3   -1    0    0    0  501  0.00000000000E+00  0.00000000000E+00 -0.15902398173E+04  0.15902398205E+04  0.10100000352E+00 0.  1.
    10030    2    1    2    0    0  0.00000000000E+00  0.00000000000E+00  0.76626839466E+03  0.39467480346E+04  0.38716472974E+04 0.  0.
        2    1    3    3  502    0 -0.15099260063E+04 -0.58846958642E+03  0.14625603716E+04  0.21829465956E+04  0.25500000920E-02 0. -1.
       -2    1    3    3    0  502  0.15099260063E+04  0.58846958642E+03 -0.69629197697E+03  0.17638014389E+04  0.25500000920E-02 0.  1.
</event>
<event>
 5   0  0.3810833E-07  0.3877262E+04  0.7818609E-02  0.8029775E-01
       -2   -1    0    0    0  501  0.00000000000E+00  0.00000000000E+00  0.14395450936E+04  0.14395450936E+04  0.25500000920E-02 0. -1.
        2   -1    0    0  501    0  0.00000000000E+00  0.00000000000E+00 -0.26107488290E+04  0.26107488290E+04  0.25500000920E-02 0.  1.
    10030    2    1    2    0    0  0.00000000000E+00  0.00000000000E+00 -0.11712037354E+04  0.40502939226E+04  0.38772622647E+04 0.  0.
        3    1    3    3  502    0 -0.10906385876E+04 -0.12675661190E+04  0.43902481215E+03  0.17288606626E+04  0.10100000352E+00 0. -1.
       -3    1    3    3    0  502  0.10906385876E+04  0.12675661190E+04 -0.16102285476E+04  0.23214332600E+04  0.10100000352E+00 0.  1.
</event>
<event>
 5   0  0.1187925E-07  0.3277577E+04  0.7818609E-02  0.8168625E-01
        1   -1    0    0  501    0  0.00000000000E+00  0.00000000000E+00  0.16847236438E+04  0.16847236438E+04  0.50400001928E-02 0. -1.
       -1   -1    0    0    0  501  0.00000000000E+00  0.00000000000E+00 -0.15941055188E+04  0.15941055188E+04  0.50400001928E-02 0.  1.
    10030    2    1    2    0    0  0.00000000000E+00  0.00000000000E+00  0.90618124996E+02  0.32788291626E+04  0.32775767013E+04 0.  0.
        5    1    3    3  502    0  0.15176573716E+04 -0.47322542078E+03 -0.35281156965E+03  0.16284115850E+04  0.46999998093E+01 0.  1.
       -5    1    3    3    0  502 -0.15176573716E+04  0.47322542078E+03  0.44342969465E+03  0.16504175776E+04  0.46999998093E+01 0. -1.
</event>
<event>
 5   0  0.3680814E-07  0.3949473E+04  0.7818609E-02  0.8014818E-01
       -2   -1    0    0    0  501  0.00000000000E+00  0.00000000000E+00  0.11668013514E+04  0.11668013514E+04  0.25500000920E-02 0.  1.
        2   -1    0    0  501    0  0.00000000000E+00  0.00000000000E+00 -0.33421156562E+04  0.33421156562E+04  0.25500000920E-02 0. -1.
    10030    2    1    2    0    0  0.00000000000E+00  0.00000000000E+00 -0.21753143048E+04  0.45089170076E+04  0.39494734151E+04 0.  0.
        1    1    3    3  502    0 -0.12136104165E+04 -0.12810675593E+04 -0.75765563751E+02  0.17662742582E+04  0.50400001928E-02 0.  1.
       -1    1    3    3    0  502  0.12136104165E+04  0.12810675593E+04 -0.20995487410E+04  0.27426427494E+04  0.50400001928E-02 0. -1.
</event>
<event>
 5   0  0.3832389E-07  0.3862837E+04  0.7818609E-02  0.8032803E-01
        2   -1    0    0  501    0  0.00000000000E+00  0.00000000000E+00  0.27338723958E+04  0.27338723958E+04  0.25500000920E-02 0.  1.
       -2   -1    0    0    0  501  0.00000000000E+00  0.00000000000E+00 -0.13645033116E+04  0.13645033116E+04  0.25500000920E-02 0. -1.
    10030    2    1    2    0    0  0.00000000000E+00  0.00000000000E+00  0.13693690842E+04  0.40983757075E+04  0.38628372669E+04 0.  0.
        5    1    3    3  502    0 -0.10325054975E+04  0.71840567284E+03  0.22397219670E+04  0.25687644681E+04  0.46999998093E+01 0.  1.
       -5    1    3    3    0  502  0.10325054975E+04 -0.71840567284E+03 -0.87035288276E+03  0.15296112394E+04  0.46999998093E+01 0. -1.
</event>
<event>
 5   0  0.3832389E-07  0.3935727E+04  0.7818609E-02  0.8017640E-01
        2   -1    0    0  501    0  0.00000000000E+00  0.00000000000E+00  0.25722440291E+04  0.25722440291E+04  0.25500000920E-02 0.  1.
       -2   -1    0    0    0  501  0.00000000000E+00  0.00000000000E+00 -0.15054892698E+04  0.15054892698E+04  0.25500000920E-02 0. -1.
    10030    2    1    2    0    0  0.00000000000E+00  0.00000000000E+00  0.10667547593E+04  0.40777332989E+04  0.39357265073E+04 0.  0.
        5    1    3    3  502    0 -0.93109351655E+03 -0.29663296040E+03 -0.12363327031E+04  0.15759019298E+04  0.46999998093E+01 0. -1.
       -5    1    3    3    0  502  0.93109351655E+03  0.29663296040E+03  0.23030874624E+04  0.25018313691E+04  0.46999998093E+01 0.  1.
</event>
<event>
 5   0  0.1187925E-07  0.3905459E+04  0.7818609E-02  0.8023895E-01
       -1   -1    0    0    0  501  0.00000000000E+00  0.00000000000E+00  0.16571463567E+04  0.16571463567E+04  0.50400001928E-02 0.  1.
        1   -1    0    0  501    0  0.00000000000E+00  0.00000000000E+00 -0.23010349190E+04  0.23010349190E+04  0.50400001928E-02 0. -1.
    10030    2    1    2    0    0  0.00000000000E+00  0.00000000000E+00 -0.64388856229E+03  0.39581812757E+04  0.39054585557E+04 0.  0.
        5    1    3    3  502    0  0.15266754662E+04 -0.60901103784E+03  0.74656381517E+03  0.18052733985E+04  0.46999998093E+01 0.  1.
       -5    1    3    3    0  502 -0.15266754662E+04  0.60901103784E+03 -0.13904523775E+04  0.21529078771E+04  0.46999998093E+01 0. -1.
</event>
<event>
 5   0  0.1187925E-07  0.3314511E+04  0.7818609E-02  0.8159213E-01
        1   -1    0    0  501    0  0.00000000000E+00  0.00000000000E+00  0.20580037142E+04  0.20580037143E+04  0.50400001928E-02 0.  1.
       -1   -1    0    0    0  501  0.00000000000E+00  0.00000000000E+00 -0.13345432940E+04  0.13345432940E+04  0.50400001928E-02 0. -1.
    10030    2    1    2    0    0  0.00000000000E+00  0.00000000000E+00  0.72346042027E+03  0.33925470082E+04  0.33145105556E+04 0.  0.
        5    1    3    3  502    0 -0.79096644140E+03  0.13742595828E+04 -0.13154536862E+03  0.15910825203E+04  0.46999998093E+01 0. -1.
       -5    1    3    3    0  502  0.79096644140E+03 -0.13742595828E+04  0.85500578889E+03  0.18014644880E+04  0.46999998093E+01 0.  1.
</event>
<event>
 5   0  0.3832389E-07  0.3852577E+04  0.7818609E-02  0.8034965E-01
       -2   -1    0    0    0  501  0.00000000000E+00  0.00000000000E+00  0.14669448683E+04  0.14669448683E+04  0.25500000920E-02 0. -1.
        2   -1    0    0  501    0  0.00000000000E+00  0.00000000000E+00 -0.25294660021E+04  0.25294660021E+04  0.25500000920E-02 0.  1.
    10030    2    1    2    0    0  0.00000000000E+00  0.00000000000E+00 -0.10625211338E+04  0.39964108705E+04  0.38525768890E+04 0.  0.
        5    1    3    3  502    0  0.18748734004E+04 -0.39941057567E+03 -0.72776908429E+03  0.20504509274E+04  0.46999998093E+01 0.  1.
       -5    1    3    3    0  502 -0.18748734004E+04  0.39941057567E+03 -0.33475204955E+03  0.19459599431E+04  0.46999998093E+01 0. -1.
</event>
<event>
 5   0  0.1187925E-07  0.3567563E+04  0.7818609E-02  0.8097962E-01
       -1   -1    0    0    0  501  0.00000000000E+00  0.00000000000E+00  0.13532814246E+04  0.13532814246E+04  0.50400001928E-02 0.  1.
        1   -1    0    0  501    0  0.00000000000E+00  0.00000000000E+00 -0.23512306840E+04  0.23512306840E+04  0.50400001928E-02 0. -1.
    10030    2    1    2    0    0  0.00000000000E+00  0.00000000000E+00 -0.99794925942E+03  0.37045121087E+04  0.35675632074E+04 0.  0.
        4    1    3    3  502    0 -0.13492861705E+04  0.71105453403E+03  0.46157761341E+03  0.15934952860E+04  0.12699999809E+01 0.  1.
       -4    1    3    3    0  502  0.13492861705E+04 -0.71105453403E+03 -0.14595268728E+04  0.21110168227E+04  0.12699999809E+01 0. -1.
</event>
<event>
 5   0  0.3680814E-07  0.3918923E+04  0.7818609E-02  0.8021105E-01
       -2   -1    0    0    0  501  0.00000000000E+00  0.00000000000E+00  0.14759930191E+04  0.14759930191E+04  0.25500000920E-02 0.  1.
        2   -1    0    0  501    0  0.00000000000E+00  0.00000000000E+00 -0.26012918991E+04  0.26012918991E+04  0.25500000920E-02 0. -1.
    10030    2    1    2    0    0  0.00000000000E+00  0.00000000000E+00 -0.11252988800E+04  0.40772849183E+04  0.39189226498E+04 0.  0.
        1    1    3    3  502    0 -0.10098266889E+04  0.16518335755E+04 -0.87681970080E+03  0.21253510041E+04  0.50400001928E-02 0. -1.
       -1    1    3    3    0  502  0.10098266889E+04 -0.16518335755E+04 -0.24847917920E+03  0.19519339142E+04  0.50400001928E-02 0.  1.
</event>
<event>
 5   0  0.1187925E-07  0.3920376E+04  0.7818609E-02  0.8020805E-01
       -1   -1    0    0    0  501  0.00000000000E+00  0.00000000000E+00  0.14507319356E+04  0.14507319356E+04  0.50400001928E-02 0.  1.
        1   -1    0    0  501    0  0.00000000000E+00  0.00000000000E+00 -0.26485506834E+04  0.26485506834E+04  0.50400001928E-02 0. -1.
    10030    2    1    2    0    0  0.00000000000E+00  0.00000000000E+00 -0.11978187478E+04  0.40992826190E+04  0.39203760327E+04 0.  0.
        5    1    3    3  502    0 -0.18661363950E+04  0.59467348324E+03 -0.68133150603E+03  0.20737252247E+04  0.46999998093E+01 0. -1.
       -5    1    3    3    0  502  0.18661363950E+04 -0.59467348324E+03 -0.51648724178E+03  0.20255573943E+04  0.46999998093E+01 0.  1.
</event>
<event>
 5   0  0.1187925E-07  0.3867653E+04  0.7818609E-02  0.8031791E-01
        1   -1    0    0  501    0  0.00000000000E+00  0.00000000000E+00  0.11863178292E+04  0.11863178292E+04  0.50400001928E-02 0.  1.
       -1   -1    0    0    0  501  0.00000000000E+00  0.00000000000E+00 -0.31523459522E+04  0.31523459522E+04  0.50400001928E-02 0. -1.
    10030    2    1    2    0    0  0.00000000000E+00  0.00000000000E+00 -0.19660281230E+04  0.43386637814E+04  0.38676526250E+04 0.  0.
        1    1    3    3  502    0 -0.82672899129E+02 -0.13335787527E+04  0.58524268129E+03  0.14586898553E+04  0.50400001928E-02 0.  1.
       -1    1    3    3    0  502  0.82672899129E+02  0.13335787527E+04 -0.25512708043E+04  0.28799739261E+04  0.50400001928E-02 0. -1.
</event>
<event>
 5   0  0.1187925E-07  0.3928334E+04  0.7818609E-02  0.8019162E-01
       -1   -1    0    0    0  501  0.00000000000E+00  0.00000000000E+00  0.13917171846E+04  0.13917171846E+04  0.50400001928E-02 0. -1.
        1   -1    0    0  501    0  0.00000000000E+00  0.00000000000E+00 -0.27720810144E+04  0.27720810144E+04  0.50400001928E-02 0.  1.
    10030    2    1    2    0    0  0.00000000000E+00  0.00000000000E+00 -0.13803638298E+04  0.41637981990E+04  0.39283343976E+04 0.  0.
        1    1    3    3  502    0 -0.16395119973E+04 -0.32927171700E+03 -0.17822457896E+04  0.24439352502E+04  0.50400001928E-02 0.  1.
       -1    1    3    3    0  502  0.16395119973E+04  0.32927171700E+03  0.40188195986E+03  0.17198629487E+04  0.50400001928E-02 0. -1.
</event>
<event>
 5   0  0.1187925E-07  0.3953880E+04  0.7818609E-02  0.8013916E-01
       -1   -1    0    0    0  501  0.00000000000E+00  0.00000000000E+00  0.22177439263E+04  0.22177439263E+04  0.50400001928E-02 0. -1.
        1   -1    0    0  501    0  0.00000000000E+00  0.00000000000E+00 -0.17622825983E+04  0.17622825983E+04  0.50400001928E-02 0.  1.
    10030    2    1    2    0    0  0.00000000000E+00  0.00000000000E+00  0.45546132801E+03  0.39800265247E+04  0.39538798813E+04 0.  0.
        4    1    3    3  502    0  0.11580502070E+04 -0.91533387977E+03 -0.10960221546E+04  0.18385272828E+04  0.12699999809E+01 0.  1.
       -4    1    3    3    0  502 -0.11580502070E+04  0.91533387977E+03  0.15514834826E+04  0.21414992419E+04  0.12699999809E+01 0. -1.
</event>
<event>
 5   0  0.3610483E-07  0.3941919E+04  0.7818609E-02  0.8016367E-01
       -2   -1    0    0    0  501  0.00000000000E+00  0.00000000000E+00  0.27887359426E+04  0.27887359426E+04  0.25500000920E-02 0. -1.
        2   -1    0    0  501    0  0.00000000000E+00  0.00000000000E+00 -0.13929903102E+04  0.13929903102E+04  0.25500000920E-02 0.  1.
    10030    2    1    2    0    0  0.00000000000E+00  0.00000000000E+00  0.13957456324E+04  0.41817262529E+04  0.39419194035E+04 0.  0.
        4    1    3    3  502    0  0.15737842164E+03  0.84159901606E+03 -0.11854077941E+04  0.14622756658E+04  0.12699999809E+01 0.  1.
       -4    1    3    3    0  502 -0.15737842164E+03 -0.84159901606E+03  0.25811534265E+04  0.27194505871E+04  0.12699999809E+01 0. -1.
</event>
<event>
 5   0  0.3680814E-07  0.3907374E+04  0.7818609E-02  0.8023497E-01
        2   -1    0    0  501    0  0.00000000000E+00  0.00000000000E+00  0.21050423529E+04  0.21050423529E+04  0.25500000920E-02 0. -1.
       -2   -1    0    0    0  501  0.00000000000E+00  0.00000000000E+00 -0.18132142153E+04  0.18132142153E+04  0.25500000920E-02 0.  1.
    10030    2    1    2    0    0  0.00000000000E+00  0.00000000000E+00  0.29182813755E+03  0.39182565682E+04  0.39073739100E+04 0.  0.
        1    1    3    3  502    0  0.17995049813E+04  0.49225711707E+03  0.72749269498E+03  0.20024437241E+04  0.50400001928E-02 0. -1.
       -1    1    3    3    0  502 -0.17995049813E+04 -0.49225711707E+03 -0.43566455743E+03  0.19158128441E+04  0.50400001928E-02 0.  1.
</event>
<event>
 5   0  0.1187925E-07  0.3847185E+04  0.7818609E-02  0.8036104E-01
        1   -1    0    0  501    0  0.00000000000E+00  0.00000000000E+00  0.16249607600E+04  0.16249607600E+04  0.50400001928E-02 0.  1.
       -1   -1    0    0    0  501  0.00000000000E+00  0.00000000000E+00 -0.22771065733E+04  0.22771065733E+04  0.50400001928E-02 0. -1.
    10030    2    1    2    0    0  0.00000000000E+00  0.00000000000E+00 -0.65214581333E+03  0.39020673333E+04  0.38471853752E+04 0.  0.
        4    1    3    3  502    0 -0.61981538021E+03  0.88157797045E+03  0.12900363362E+04  0.16809361038E+04  0.12699999809E+01 0.  1.
       -4    1    3    3    0  502  0.61981538021E+03 -0.88157797045E+03 -0.19421821495E+04  0.22211312294E+04  0.12699999809E+01 0. -1.
</event>
<event>
 5   0  0.3832389E-07  0.3868052E+04  0.7818609E-02  0.8031707E-01
       -2   -1    0    0    0  501  0.00000000000E+00  0.00000000000E+00  0.16111856080E+04  0.16111856080E+04  0.25500000920E-02 0. -1.
        2   -1    0    0  501    0  0.00000000000E+00  0.00000000000E+00 -0.23215554224E+04  0.23215554224E+04  0.25500000920E-02 0.  1.
    10030    2    1    2    0    0  0.00000000000E+00  0.00000000000E+00 -0.71036981445E+03  0.39327410304E+04  0.38680520600E+04 0.  0.
        5    1    3    3  502    0 -0.14356654660E+04 -0.12903179630E+04 -0.23326780194E+03  0.19443486656E+04  0.46999998093E+01 0.  1.
       -5    1    3    3    0  502  0.14356654660E+04  0.12903179630E+04 -0.47710201251E+03  0.19883923648E+04  0.46999998093E+01 0. -1.
</event>
<event>
 5   0  0.3810833E-07  0.3915944E+04  0.7818609E-02  0.8021721E-01
       -2   -1    0    0    0  501  0.00000000000E+00  0.00000000000E+00  0.19940603719E+04  0.19940603719E+04  0.25500000920E-02 0.  1.
        2   -1    0    0  501    0  0.00000000000E+00  0.00000000000E+00 -0.19225363335E+04  0.19225363335E+04  0.25500000920E-02 0. -1.
    10030    2    1    2    0    0  0.00000000000E+00  0.00000000000E+00  0.71524038429E+02  0.39165967054E+04  0.39159435727E+04 0.  0.
        3    1    3    3  502    0  0.17673738424E+04 -0.84250365415E+03  0.50956649104E+02  0.19585758337E+04  0.10100000352E+00 0.  1.
       -3    1    3    3    0  502 -0.17673738424E+04  0.84250365415E+03  0.20567389325E+02  0.19580208717E+04  0.10100000352E+00 0. -1.
</event>
<event>
 5   0  0.3610483E-07  0.3907106E+04  0.7818609E-02  0.8023553E-01
       -2   -1    0    0    0  501  0.00000000000E+00  0.00000000000E+00  0.17390480255E+04  0.17390480255E+04  0.25500000920E-02 0. -1.
        2   -1    0    0  501    0  0.00000000000E+00  0.00000000000E+00 -0.21945163480E+04  0.21945163480E+04  0.25500000920E-02 0.  1.
    10030    2    1    2    0    0  0.00000000000E+00  0.00000000000E+00 -0.45546832247E+03  0.39335643735E+04  0.39071059990E+04 0.  0.
        4    1    3    3  502    0 -0.18127595506E+03  0.19357313956E+04 -0.41994771674E+03  0.19890386385E+04  0.12699999809E+01 0.  1.
       -4    1    3    3    0  502  0.18127595506E+03 -0.19357313956E+04 -0.35520605725E+02  0.19445257350E+04  0.12699999809E+01 0. -1.
</event>
<event>
 5   0  0.3665303E-07  0.3991222E+04  0.7818609E-02  0.8006320E-01
       -2   -1    0    0    0  501  0.00000000000E+00  0.00000000000E+00  0.13388887093E+04  0.13388887094E+04  0.25500000920E-02 0. -1.
        2   -1    0    0  501    0  0.00000000000E+00  0.00000000000E+00 -0.29744545540E+04  0.29744545540E+04  0.25500000920E-02 0.  1.
    10030    2    1    2    0    0  0.00000000000E+00  0.00000000000E+00 -0.16355658447E+04  0.43133432634E+04  0.39912221782E+04 0.  0.
        2    1    3    3  502    0 -0.10865302531E+04  0.71428031975E+03  0.81823788886E+03  0.15363129919E+04  0.25500000920E-02 0. -1.
       -2    1    3    3    0  502  0.10865302531E+04 -0.71428031975E+03 -0.24538037335E+04  0.27770302715E+04  0.25500000920E-02 0.  1.
</event>
<event>
 5   0  0.3665303E-07  0.3842259E+04  0.7818609E-02  0.8037147E-01
        2   -1    0    0  501    0  0.00000000000E+00  0.00000000000E+00  0.29171594367E+04  0.29171594367E+04  0.25500000920E-02 0.  1.
       -2   -1    0    0    0  501  0.00000000000E+00  0.00000000000E+00 -0.12651823012E+04  0.12651823012E+04  0.25500000920E-02 0. -1.
    10030    2    1    2    0    0  0.00000000000E+00  0.00000000000E+00  0.16519771355E+04  0.41823417378E+04  0.38422589652E+04 0.  0.
        2    1    3    3  502    0 -0.82504525849E+03  0.62765911339E+03 -0.93460305098E+03  0.13957573228E+04  0.25500000920E-02 0. -1.
       -2    1    3    3    0  502  0.82504525849E+03 -0.62765911339E+03  0.25865801865E+04  0.27865844151E+04  0.25500000920E-02 0.  1.
</event>
<event>
 5   0  0.3665303E-07  0.3904188E+04  0.7818609E-02  0.8024159E-01
        2   -1    0    0  501    0  0.00000000000E+00  0.00000000000E+00  0.27472347285E+04  0.27472347285E+04  0.25500000920E-02 0.  1.
       -2   -1    0    0    0  501  0.00000000000E+00  0.00000000000E+00 -0.13870934523E+04  0.13870934523E+04  0.25500000920E-02 0. -1.
    10030    2    1    2    0    0  0.00000000000E+00  0.00000000000E+00  0.13601412763E+04  0.41343281808E+04  0.39041881634E+04 0.  0.
        2    1    3    3  502    0  0.14389473617E+04 -0.76739402692E+03  0.18162611148E+04  0.24409562756E+04  0.25500000920E-02 0.  1.
       -2    1    3    3    0  502 -0.14389473617E+04  0.76739402692E+03 -0.45611983850E+03  0.16933719052E+04  0.25500000920E-02 0. -1.
</event>
<event>
 5   0  0.3810833E-07  0.3899793E+04  0.7818609E-02  0.8025072E-01
        2   -1    0    0  501    0  0.00000000000E+00  0.00000000000E+00  0.21657727627E+04  0.21657727627E+04  0.25500000920E-02 0.  1.
       -2   -1    0    0    0  501  0.00000000000E+00  0.00000000000E+00 -0.17555375469E+04  0.17555375469E+04  0.25500000920E-02 0. -1.
    10030    2    1    2    0    0  0.00000000000E+00  0.00000000000E+00  0.41023521583E+03  0.39213103096E+04  0.38997925088E+04 0.  0.
        3    1    3    3  502    0  0.44530291023E+03 -0.17965333402E+04  0.82190961725E+03  0.20251820050E+04  0.10100000352E+00 0.  1.
       -3    1    3    3    0  502 -0.44530291023E+03  0.17965333402E+04 -0.41167440142E+03  0.18961283046E+04  0.10100000352E+00 0. -1.
</event>
<event>
 5   0  0.3610483E-07  0.3907986E+04  0.7818609E-02  0.8023370E-01
       -2   -1    0    0    0  501  0.00000000000E+00  0.00000000000E+00  0.15932223548E+04  0.15932223548E+04  0.25500000920E-02 0.  1.
        2   -1    0    0  501    0  0.00000000000E+00  0.00000000000E+00 -0.23964568977E+04  0.23964568977E+04  0.25500000920E-02 0. -1.
    10030    2    1    2    0    0  0.00000000000E+00  0.00000000000E+00 -0.80323454292E+03  0.39896792525E+04  0.39079860295E+04 0.  0.
        4    1    3    3  502    0  0.12424026744E+04 -0.14983061506E+04 -0.22597023369E+03  0.19594769419E+04  0.12699999809E+01 0.  1.
       -4    1    3    3    0  502 -0.12424026744E+04  0.14983061506E+04 -0.57726430923E+03  0.20302023106E+04  0.12699999809E+01 0. -1.
</event>
<event>
 5   0  0.3680814E-07  0.3408480E+04  0.7818609E-02  0.8135828E-01
        2   -1    0    0  501    0  0.00000000000E+00  0.00000000000E+00  0.14469810615E+04  0.14469810615E+04  0.25500000920E-02 0.  1.
       -2   -1    0    0    0  501  0.00000000000E+00  0.00000000000E+00 -0.20072374866E+04  0.20072374866E+04  0.25500000920E-02 0. -1.
    10030    2    1    2    0    0  0.00000000000E+00  0.00000000000E+00 -0.56025642505E+03  0.34542185481E+04  0.34084803822E+04 0.  0.
        1    1    3    3  502    0 -0.26222485009E+02 -0.26244651773E+03  0.14261722086E+04  0.14503561501E+04  0.50400001928E-02 0.  1.
       -1    1    3    3    0  502  0.26222485009E+02  0.26244651773E+03 -0.19864286337E+04  0.20038623980E+04  0.50400001928E-02 0. -1.
</event>
<event>
 5   0  0.1187925E-07  0.3951764E+04  0.7818609E-02  0.8014348E-01
       -1   -1    0    0    0  501  0.00000000000E+00  0.00000000000E+00  0.16585954315E+04  0.16585954315E+04  0.50400001928E-02 0. -1.
        1   -1    0    0  501    0  0.00000000000E+00  0.00000000000E+00 -0.23538654873E+04  0.23538654873E+04  0.50400001928E-02 0.  1.
    10030    2    1    2    0    0  0.00000000000E+00  0.00000000000E+00 -0.69527005584E+03  0.40124609188E+04  0.39517644381E+04 0.  0.
        1    1    3    3  502    0  0.17115147086E+04 -0.49935375056E+03  0.51719473311E+03  0.18563747354E+04  0.50400001928E-02 0.  1.
       -1    1    3    3    0  502 -0.17115147086E+04  0.49935375056E+03 -0.12124647889E+04  0.21560861835E+04  0.50400001928E-02 0. -1.
</event>
<event>
 5   0  0.1187925E-07  0.4020856E+04  0.7818609E-02  0.8000353E-01
        1   -1    0    0  501    0  0.00000000000E+00  0.00000000000E+00  0.14116075216E+04  0.14116075217E+04  0.50400001928E-02 0.  1.
       -1   -1    0    0    0  501  0.00000000000E+00  0.00000000000E+00 -0.28632744468E+04  0.28632744468E+04  0.50400001928E-02 0. -1.
    10030    2    1    2    0    0  0.00000000000E+00  0.00000000000E+00 -0.14516669252E+04  0.42748819685E+04  0.40208555038E+04 0.  0.
        3    1    3    3  502    0 -0.48719205112E+03  0.19101048253E+04 -0.11457052815E+04  0.22800213027E+04  0.10100000352E+00 0. -1.
       -3    1    3    3    0  502  0.48719205112E+03 -0.19101048253E+04 -0.30596164369E+03  0.19948606658E+04  0.10100000352E+00 0.  1.
</event>
<event>
 5   0  0.1187925E-07  0.3908888E+04  0.7818609E-02  0.8023183E-01
        1   -1    0    0  501    0  0.00000000000E+00  0.00000000000E+00  0.18354588993E+04  0.18354588993E+04  0.50400001928E-02 0.  1.
       -1   -1    0    0    0  501  0.00000000000E+00  0.00000000000E+00 -0.20811423478E+04  0.20811423478E+04  0.50400001928E-02 0. -1.
    10030    2    1    2    0    0  0.00000000000E+00  0.00000000000E+00 -0.24568344851E+03  0.39166012472E+04  0.39088879458E+04 0.  0.
        1    1    3    3  502    0  0.12993099851E+04  0.14195120133E+04  0.21934417733E+03  0.19368357343E+04  0.50400001928E-02 0.  1.
       -1    1    3    3    0  502 -0.12993099851E+04 -0.14195120133E+04 -0.46502762584E+03  0.19797655129E+04  0.50400001928E-02 0. -1.
</event>
<event>
 5   0  0.3610483E-07  0.3923087E+04  0.7818609E-02  0.8020245E-01
        2   -1    0    0  501    0  0.00000000000E+00  0.00000000000E+00  0.14140184088E+04  0.14140184088E+04  0.25500000920E-02 0.  1.
       -2   -1    0    0    0  501  0.00000000000E+00  0.00000000000E+00 -0.27210775330E+04  0.27210775330E+04  0.25500000920E-02 0. -1.
    10030    2    1    2    0    0  0.00000000000E+00  0.00000000000E+00 -0.13070591242E+04  0.41350959417E+04  0.39230874185E+04 0.  0.
        4    1    3    3  502    0  0.62331503117E+03 -0.16556904683E+04  0.23949879086E+03  0.17852713627E+04  0.12699999809E+01 0.  1.
       -4    1    3    3    0  502 -0.62331503117E+03  0.16556904683E+04 -0.15465579150E+04  0.23498245790E+04  0.12699999809E+01 0. -1.
</event>
<event>
 5   0  0.3665303E-07  0.3892920E+04  0.7818609E-02  0.8026503E-01
        2   -1    0    0  501    0  0.00000000000E+00  0.00000000000E+00  0.22931516681E+04  0.22931516681E+04  0.25500000920E-02 0. -1.
       -2   -1    0    0    0  501  0.00000000000E+00  0.00000000000E+00 -0.16521829998E+04  0.16521829998E+04  0.25500000920E-02 0.  1.
    10030    2    1    2    0    0  0.00000000000E+00  0.00000000000E+00  0.64096866836E+03  0.39453346679E+04  0.38929198307E+04 0.  0.
        2    1    3    3  502    0 -0.19295749869E+04  0.17218623295E+03  0.12873200853E+03  0.19415147846E+04  0.25500000920E-02 0.  1.
       -2    1    3    3    0  502  0.19295749869E+04 -0.17218623295E+03  0.51223665983E+03  0.20038198833E+04  0.25500000920E-02 0. -1.
</event>
<event>
 5   0  0.3665303E-07  0.3892597E+04  0.7818609E-02  0.8026571E-01
        2   -1    0    0  501    0  0.00000000000E+00  0.00000000000E+00  0.24065270182E+04  0.24065270182E+04  0.25500000920E-02 0.  1.
       -2   -1    0    0    0  501  0.00000000000E+00  0.00000000000E+00 -0.15740849593E+04  0.15740849593E+04  0.25500000920E-02 0. -1.
    10030    2    1    2    0    0  0.00000000000E+00  0.00000000000E+00  0.83244205891E+03  0.39806119776E+04  0.38925970681E+04 0.  0.
        2    1    3    3  502    0 -0.15339873208E+04 -0.11805916200E+04  0.62369843797E+03  0.20336945235E+04  0.25500000920E-02 0. -1.
       -2    1    3    3    0  502  0.15339873208E+04  0.11805916200E+04  0.20874362094E+03  0.19469174540E+04  0.25500000920E-02 0.  1.
</event>
<event>
 5   0  0.3680814E-07  0.3051641E+04  0.7818609E-02  0.8229136E-01
       -2   -1    0    0    0  501  0.00000000000E+00  0.00000000000E+00  0.10287489860E+04  0.10287489860E+04  0.25500000920E-02 0.  1.
        2   -1    0    0  501    0  0.00000000000E+00  0.00000000000E+00 -0.22630670438E+04  0.22630670438E+04  0.25500000920E-02 0. -1.
    10030    2    1    2    0    0  0.00000000000E+00  0.00000000000E+00 -0.12343180578E+04  0.32918160298E+04  0.30516408219E+04 0.  0.
        1    1    3    3  502    0 -0.10751652982E+04 -0.41943812041E+03 -0.16938215302E+04  0.20496195089E+04  0.50400001928E-02 0. -1.
       -1    1    3    3    0  502  0.10751652982E+04  0.41943812041E+03  0.45950347238E+03  0.12421965209E+04  0.50400001928E-02 0.  1.
</event>
<event>
 5   0  0.3832389E-07  0.3962548E+04  0.7818609E-02  0.8012145E-01
       -2   -1    0    0    0  501  0.00000000000E+00  0.00000000000E+00  0.13752826826E+04  0.13752826826E+04  0.25500000920E-02 0. -1.
        2   -1    0    0  501    0  0.00000000000E+00  0.00000000000E+00 -0.28542830834E+04  0.28542830834E+04  0.25500000920E-02 0.  1.
    10030    2    1    2    0    0  0.00000000000E+00  0.00000000000E+00 -0.14790004008E+04  0.42295657660E+04  0.39625477137E+04 0.  0.
        5    1    3    3  502    0  0.52149736811E+03  0.45916281282E+03 -0.27199630729E+04  0.28073138766E+04  0.46999998093E+01 0.  1.
       -5    1    3    3    0  502 -0.52149736811E+03 -0.45916281282E+03  0.12409626721E+04  0.14222518895E+04  0.46999998093E+01 0. -1.
</event>
<event>
 5   0  0.1187925E-07  0.4090653E+04  0.7818609E-02  0.7986505E-01
       -1   -1    0    0    0  501  0.00000000000E+00  0.00000000000E+00  0.25024053239E+04  0.25024053239E+04  0.50400001928E-02 0. -1.
        1   -1    0    0  501    0  0.00000000000E+00  0.00000000000E+00 -0.16717358938E+04  0.16717358939E+04  0.50400001928E-02 0.  1.
    10030    2    1    2    0    0  0.00000000000E+00  0.00000000000E+00  0.83066943004E+03  0.41741412177E+04  0.40906531512E+04 0.  0.
        2    1    3    3  502    0 -0.13960196865E+04 -0.33528096935E+03  0.19018007821E+04  0.23828828146E+04  0.25500000920E-02 0. -1.
       -2    1    3    3    0  502  0.13960196865E+04  0.33528096935E+03 -0.10711313520E+04  0.17912584031E+04  0.25500000920E-02 0.  1.
</event>
<event>
 5   0  0.1187925E-07  0.3324322E+04  0.7818609E-02  0.8156734E-01
       -1   -1    0    0    0  501  0.00000000000E+00  0.00000000000E+00  0.13864980888E+04  0.13864980888E+04  0.50400001928E-02 0.  1.
        1   -1    0    0  501    0  0.00000000000E+00  0.00000000000E+00 -0.19926305713E+04  0.19926305713E+04  0.50400001928E-02 0. -1.
    10030    2    1    2    0    0  0.00000000000E+00  0.00000000000E+00 -0.60613248250E+03  0.33791286600E+04  0.33243215721E+04 0.  0.
        3    1    3    3  502    0 -0.82586897962E+03 -0.38074677515E+03  0.11111845246E+04  0.14358825635E+04  0.10100000352E+00 0.  1.
       -3    1    3    3    0  502  0.82586897962E+03  0.38074677515E+03 -0.17173170071E+04  0.19432460965E+04  0.10100000352E+00 0. -1.
</event>
<event>
 5   0  0.1187925E-07  0.3126219E+04  0.7818609E-02  0.8208579E-01
       -1   -1    0    0    0  501  0.00000000000E+00  0.00000000000E+00  0.28781752567E+04  0.28781752567E+04  0.50400001928E-02 0.  1.
        1   -1    0    0  501    0  0.00000000000E+00  0.00000000000E+00 -0.84891009774E+03  0.84891009776E+03  0.50400001928E-02 0. -1.
    10030    2    1    2    0    0  0.00000000000E+00  0.00000000000E+00  0.20292651590E+04  0.37270853545E+04  0.31262194667E+04 0.  0.
        1    1    3    3  502    0 -0.66010068755E+03 -0.28003817776E+03  0.26705312043E+04  0.27651204697E+04  0.50400001928E-02 0.  1.
       -1    1    3    3    0  502  0.66010068755E+03  0.28003817776E+03 -0.64126604531E+03  0.96196488481E+03  0.50400001928E-02 0. -1.
</event>
<event>
 5   0  0.1187925E-07  0.3967221E+04  0.7818609E-02  0.8011192E-01
        1   -1    0    0  501    0  0.00000000000E+00  0.00000000000E+00  0.22962767183E+04  0.22962767183E+04  0.50400001928E-02 0.  1.
       -1   -1    0    0    0  501  0.00000000000E+00  0.00000000000E+00 -0.17135173626E+04  0.17135173626E+04  0.50400001928E-02 0. -1.
    10030    2    1    2    0    0  0.00000000000E+00  0.00000000000E+00  0.58275935571E+03  0.40097940810E+04  0.39672207029E+04 0.  0.
        2    1    3    3  502    0  0.17534864384E+04 -0.60054941344E+03 -0.42284036605E+03  0.19010965948E+04  0.25500000920E-02 0. -1.
       -2    1    3    3    0  502 -0.17534864384E+04  0.60054941344E+03  0.10055997218E+04  0.21086974862E+04  0.25500000920E-02 0.  1.
</event>
<event>
 5   0  0.3810833E-07  0.3906234E+04  0.7818609E-02  0.8023734E-01
       -2   -1    0    0    0  501  0.00000000000E+00  0.00000000000E+00  0.16753640962E+04  0.16753640962E+04  0.25500000920E-02 0.  1.
        2   -1    0    0  501    0  0.00000000000E+00  0.00000000000E+00 -0.22769181723E+04  0.22769181723E+04  0.25500000920E-02 0. -1.
    10030    2    1    2    0    0  0.00000000000E+00  0.00000000000E+00 -0.60155407612E+03  0.39522822684E+04  0.39062344813E+04 0.  0.
        3    1    3    3  502    0  0.19427438686E+03  0.35373982775E+03  0.16327163591E+04  0.16818552621E+04  0.10100000352E+00 0.  1.
       -3    1    3    3    0  502 -0.19427438686E+03 -0.35373982775E+03 -0.22342704352E+04  0.22704270063E+04  0.10100000352E+00 0. -1.
</event>
<event>
 5   0  0.1187925E-07  0.4020096E+04  0.7818609E-02  0.8000505E-01
       -1   -1    0    0    0  501  0.00000000000E+00  0.00000000000E+00  0.26957957009E+04  0.26957957009E+04  0.50400001928E-02 0. -1.
        1   -1    0    0  501    0  0.00000000000E+00  0.00000000000E+00 -0.14987386182E+04  0.14987386182E+04  0.50400001928E-02 0.  1.
    10030    2    1    2    0    0  0.00000000000E+00  0.00000000000E+00  0.11970570827E+04  0.41945343190E+04  0.40200960802E+04 0.  0.
        2    1    3    3  502    0  0.15202565523E+04  0.22808111286E+03 -0.75269057756E+03  0.17116495215E+04  0.25500000920E-02 0.  1.
       -2    1    3    3    0  502 -0.15202565523E+04 -0.22808111286E+03  0.19497476603E+04  0.24828847975E+04  0.25500000920E-02 0. -1.
</event>
<event>
 5   0  0.3832389E-07  0.3913449E+04  0.7818609E-02  0.8022238E-01
        2   -1    0    0  501    0  0.00000000000E+00  0.00000000000E+00  0.14980713225E+04  0.14980713225E+04  0.25500000920E-02 0. -1.
       -2   -1    0    0    0  501  0.00000000000E+00  0.00000000000E+00 -0.25557997124E+04  0.25557997124E+04  0.25500000920E-02 0.  1.
    10030    2    1    2    0    0  0.00000000000E+00  0.00000000000E+00 -0.10577283899E+04  0.40538710348E+04  0.39134487374E+04 0.  0.
        5    1    3    3  502    0 -0.11803299169E+04 -0.13910808366E+04 -0.12616828371E+04  0.22181411764E+04  0.46999998093E+01 0. -1.
       -5    1    3    3    0  502  0.11803299169E+04  0.13910808366E+04  0.20395444722E+03  0.18357298585E+04  0.46999998093E+01 0.  1.
</event>
<event>
 5   0  0.3610483E-07  0.3852158E+04  0.7818609E-02  0.8035054E-01
       -2   -1    0    0    0  501  0.00000000000E+00  0.00000000000E+00  0.27808651649E+04  0.27808651649E+04  0.25500000920E-02 0.  1.
        2   -1    0    0  501    0  0.00000000000E+00  0.00000000000E+00 -0.13340380799E+04  0.13340380799E+04  0.25500000920E-02 0. -1.
    10030    2    1    2    0    0  0.00000000000E+00  0.00000000000E+00  0.14468270850E+04  0.41149032449E+04  0.38521578499E+04 0.  0.
        4    1    3    3  502    0 -0.16142029984E+04 -0.95693095237E+03  0.25974481040E+03  0.18944226421E+04  0.12699999809E+01 0.  1.
       -4    1    3    3    0  502  0.16142029984E+04  0.95693095237E+03  0.11870822746E+04  0.22204806027E+04  0.12699999809E+01 0. -1.
</event>
<event>
 5   0  0.1187925E-07  0.3856218E+04  0.7818609E-02  0.8034197E-01
       -1   -1    0    0    0  501  0.00000000000E+00  0.00000000000E+00  0.20385305795E+04  0.20385305795E+04  0.50400001928E-02 0. -1.
        1   -1    0    0  501    0  0.00000000000E+00  0.00000000000E+00 -0.18236689830E+04  0.18236689831E+04  0.50400001928E-02 0.  1.
    10030    2    1    2    0    0  0.00000000000E+00  0.00000000000E+00  0.21486159644E+03  0.38621995625E+04  0.38562183490E+04 0.  0.
        5    1    3    3  502    0  0.14057973103E+04 -0.62013882417E+03  0.12740312867E+04  0.19960000122E+04  0.46999998093E+01 0. -1.
       -5    1    3    3    0  502 -0.14057973103E+04  0.62013882417E+03 -0.10591696903E+04  0.18661995504E+04  0.46999998093E+01 0.  1.
</event>
<event>
 5   0  0.1187925E-07  0.3821854E+04  0.7818609E-02  0.8041481E-01
        1   -1    0    0  501    0  0.00000000000E+00  0.00000000000E+00  0.22793577201E+04  0.22793577201E+04  0.50400001928E-02 0.  1.
       -1   -1    0    0    0  501  0.00000000000E+00  0.00000000000E+00 -0.16020490198E+04  0.16020490198E+04  0.50400001928E-02 0. -1.
    10030    2    1    2    0    0  0.00000000000E+00  0.00000000000E+00  0.67730870026E+03  0.38814067399E+04  0.38218544197E+04 0.  0.
        3    1    3    3  502    0 -0.30821380352E+02  0.50049745170E+03  0.22113488560E+04  0.22674901168E+04  0.10100000352E+00 0.  1.
       -3    1    3    3    0  502  0.30821380352E+02 -0.50049745170E+03 -0.15340401558E+04  0.16139166231E+04  0.10100000352E+00 0. -1.
</event>
<event>
 5   0  0.1187925E-07  0.3944465E+04  0.7818609E-02  0.8015844E-01
        1   -1    0    0  501    0  0.00000000000E+00  0.00000000000E+00  0.23641678188E+04  0.23641678188E+04  0.50400001928E-02 0. -1.
       -1   -1    0    0    0  501  0.00000000000E+00  0.00000000000E+00 -0.16452728481E+04  0.16452728481E+04  0.50400001928E-02 0.  1.
    10030    2    1    2    0    0  0.00000000000E+00  0.00000000000E+00  0.71889497062E+03  0.40094406669E+04  0.39444650439E+04 0.  0.
        1    1    3    3  502    0 -0.63959360765E+03  0.16861784741E+04  0.11709869488E+04  0.21502298165E+04  0.50400001928E-02 0. -1.
       -1    1    3    3    0  502  0.63959360765E+03 -0.16861784741E+04 -0.45209197822E+03  0.18592108504E+04  0.50400001928E-02 0.  1.
</event>
<event>
 5   0  0.1187925E-07  0.4117667E+04  0.7818609E-02  0.7981221E-01
        1   -1    0    0  501    0  0.00000000000E+00  0.00000000000E+00  0.25464393593E+04  0.25464393593E+04  0.50400001928E-02 0. -1.
       -1   -1    0    0    0  501  0.00000000000E+00  0.00000000000E+00 -0.16645967216E+04  0.16645967216E+04  0.50400001928E-02 0.  1.
    10030    2    1    2    0    0  0.00000000000E+00  0.00000000000E+00  0.88184263771E+03  0.42110360809E+04  0.41176666252E+04 0.  0.
        5    1    3    3  502    0  0.20209042049E+04 -0.27349465306E+03  0.73003181292E+03  0.21660613262E+04  0.46999998093E+01 0. -1.
       -5    1    3    3    0  502 -0.20209042049E+04  0.27349465306E+03  0.15181082478E+03  0.20449747547E+04  0.46999998093E+01 0.  1.
</event>
<event>
 5   0  0.3665303E-07  0.3871073E+04  0.7818609E-02  0.8031073E-01
       -2   -1    0    0    0  501  0.00000000000E+00  0.00000000000E+00  0.15454632584E+04  0.15454632584E+04  0.25500000920E-02 0.  1.
        2   -1    0    0  501    0  0.00000000000E+00  0.00000000000E+00 -0.24240635990E+04  0.24240635990E+04  0.25500000920E-02 0. -1.
    10030    2    1    2    0    0  0.00000000000E+00  0.00000000000E+00 -0.87860034060E+03  0.39695268574E+04  0.38710728375E+04 0.  0.
        2    1    3    3  502    0  0.15878961003E+04  0.82438819920E+01 -0.15741630787E+04  0.22359497725E+04  0.25500000920E-02 0. -1.
       -2    1    3    3    0  502 -0.15878961003E+04 -0.82438819920E+01  0.69556273806E+03  0.17335770850E+04  0.25500000920E-02 0.  1.
</event>
<event>
 5   0  0.1187925E-07  0.3894004E+04  0.7818609E-02  0.8026277E-01
        1   -1    0    0  501    0  0.00000000000E+00  0.00000000000E+00  0.20948777827E+04  0.20948777827E+04  0.50400001928E-02 0.  1.
       -1   -1    0    0    0  501  0.00000000000E+00  0.00000000000E+00 -0.18095645636E+04  0.18095645636E+04  0.50400001928E-02 0. -1.
    10030    2    1    2    0    0  0.00000000000E+00  0.00000000000E+00  0.28531321911E+03  0.39044423462E+04  0.38940039037E+04 0.  0.
        2    1    3    3  502    0  0.49168042947E+03 -0.14994008738E+04  0.12862682712E+04  0.20357894514E+04  0.25500000920E-02 0.  1.
       -2    1    3    3    0  502 -0.49168042947E+03  0.14994008738E+04 -0.10009550521E+04  0.18686528948E+04  0.25500000920E-02 0. -1.
</event>
<event>
 5   0  0.3810833E-07  0.3880237E+04  0.7818609E-02  0.8029152E-01
        2   -1    0    0  501    0  0.00000000000E+00  0.00000000000E+00  0.18282257089E+04  0.18282257089E+04  0.25500000920E-02 0.  1.
       -2   -1    0    0    0  501  0.00000000000E+00  0.00000000000E+00 -0.20588594400E+04  0.20588594400E+04  0.25500000920E-02 0. -1.
    10030    2    1    2    0    0  0.00000000000E+00  0.00000000000E+00 -0.23063373110E+03  0.38870851489E+04  0.38802369821E+04 0.  0.
        3    1    3    3  502    0  0.65613421806E+03  0.65473746621E+03 -0.18226917623E+04  0.20448468237E+04  0.10100000352E+00 0. -1.
       -3    1    3    3    0  502 -0.65613421806E+03 -0.65473746621E+03  0.15920580312E+04  0.18422383252E+04  0.10100000352E+00 0.  1.
</event>
<event>
 5   0  0.1187925E-07  0.3681910E+04  0.7818609E-02  0.8071983E-01
       -1   -1    0    0    0  501  0.00000000000E+00  0.00000000000E+00  0.24265480455E+04  0.24265480455E+04  0.50400001928E-02 0.  1.
        1   -1    0    0  501    0  0.00000000000E+00  0.00000000000E+00 -0.13966813619E+04  0.13966813620E+04  0.50400001928E-02 0. -1.
    10030    2    1    2    0    0  0.00000000000E+00  0.00000000000E+00  0.10298666836E+04  0.38232294075E+04  0.36819095204E+04 0.  0.
        1    1    3    3  502    0 -0.38955697898E+03 -0.16865013796E+04 -0.13608584725E+03  0.17362490896E+04  0.50400001928E-02 0. -1.
       -1    1    3    3    0  502  0.38955697898E+03  0.16865013796E+04  0.11659525308E+04  0.20869803179E+04  0.50400001928E-02 0.  1.
</event>
<event>
 5   0  0.3810833E-07  0.3267876E+04  0.7818609E-02  0.8171118E-01
       -2   -1    0    0    0  501  0.00000000000E+00  0.00000000000E+00  0.20341362532E+04  0.20341362532E+04  0.25500000920E-02 0.  1.
        2   -1    0    0  501    0  0.00000000000E+00  0.00000000000E+00 -0.13124751055E+04  0.13124751055E+04  0.25500000920E-02 0. -1.
    10030    2    1    2    0    0  0.00000000000E+00  0.00000000000E+00  0.72166114770E+03  0.33466113588E+04  0.32678758811E+04 0.  0.
        3    1    3    3  502    0 -0.11459341726E+04  0.85367422800E+03  0.11722776417E+04  0.18482856097E+04  0.10100000352E+00 0.  1.
       -3    1    3    3    0  502  0.11459341726E+04 -0.85367422800E+03 -0.45061649403E+03  0.14983257491E+04  0.10100000352E+00 0. -1.
</event>
<event>
 5   0  0.3832389E-07  0.3950889E+04  0.7818609E-02  0.8014528E-01
       -2   -1    0    0    0  501  0.00000000000E+00  0.00000000000E+00  0.16019505343E+04  0.16019505343E+04  0.25500000920E-02 0. -1.
        2   -1    0    0  501    0  0.00000000000E+00  0.00000000000E+00 -0.24360189835E+04  0.24360189835E+04  0.25500000920E-02 0.  1.
    10030    2    1    2    0    0  0.00000000000E+00  0.00000000000E+00 -0.83406844923E+03  0.40379695179E+04  0.39508894757E+04 0.  0.
        5    1    3    3  502    0 -0.90406587510E+03 -0.25614603661E+03 -0.21929791037E+04  0.23858175408E+04  0.46999998093E+01 0.  1.
       -5    1    3    3    0  502  0.90406587510E+03  0.25614603661E+03  0.13589106545E+04  0.16521519771E+04  0.46999998093E+01 0. -1.
</event>
<event>
 5   0  0.3832389E-07  0.3748752E+04  0.7818609E-02  0.8057243E-01
        2   -1    0    0  501    0  0.00000000000E+00  0.00000000000E+00  0.17276656501E+04  0.17276656501E+04  0.25500000920E-02 0. -1.
       -2   -1    0    0    0  501  0.00000000000E+00  0.00000000000E+00 -0.20335452563E+04  0.20335452563E+04  0.25500000920E-02 0.  1.
    10030    2    1    2    0    0  0.00000000000E+00  0.00000000000E+00 -0.30587960611E+03  0.37612109064E+04  0.37487524790E+04 0.  0.
        5    1    3    3  502    0 -0.11712739098E+04  0.63404160048E+03 -0.14761756796E+04  0.19882173045E+04  0.46999998093E+01 0.  1.
       -5    1    3    3    0  502  0.11712739098E+04 -0.63404160048E+03  0.11702960735E+04  0.17729936019E+04  0.46999998093E+01 0. -1.
</event>
<event>
 5   0  0.3810833E-07  0.3792436E+04  0.7818609E-02  0.8047780E-01
       -2   -1    0    0    0  501  0.00000000000E+00  0.00000000000E+00  0.19151874432E+04  0.19151874432E+04  0.25500000920E-02 0. -1.
        2   -1    0    0  501    0  0.00000000000E+00  0.00000000000E+00 -0.18774363008E+04  0.18774363008E+04  0.25500000920E-02 0.  1.
    10030    2    1    2    0    0  0.00000000000E+00  0.00000000000E+00  0.37751142368E+02  0.37926237440E+04  0.37924358550E+04 0.  0.
        3    1    3    3  502    0  0.53744018802E+02 -0.18934355334E+04  0.10637778926E+03  0.18971828544E+04  0.10100000352E+00 0. -1.
       -3    1    3    3    0  502 -0.53744018802E+02  0.18934355334E+04 -0.68626646890E+02  0.18954408895E+04  0.10100000352E+00 0.  1.
</event>
<event>
 5   0  0.1187925E-07  0.3921024E+04  0.7818609E-02  0.8020671E-01
        1   -1    0    0  501    0  0.00000000000E+00  0.00000000000E+00  0.26167922031E+04  0.26167922031E+04  0.50400001928E-02 0. -1.
       -1   -1    0    0    0  501  0.00000000000E+00  0.00000000000E+00 -0.14688238550E+04  0.14688238550E+04  0.50400001928E-02 0.  1.
    10030    2    1    2    0    0  0.00000000000E+00  0.00000000000E+00  0.11479683481E+04  0.40856160581E+04  0.39210237497E+04 0.  0.
        1    1    3    3  502    0  0.16469716758E+04  0.59067319003E+03  0.14955279191E+04  0.23017415743E+04  0.50400001928E-02 0. -1.
       -1    1    3    3    0  502 -0.16469716758E+04 -0.59067319003E+03 -0.34755957103E+03  0.17838744837E+04  0.50400001928E-02 0.  1.
</event>
<event>
 5   0  0.1187925E-07  0.3938415E+04  0.7818609E-02  0.8017087E-01
        1   -1    0    0  501    0  0.00000000000E+00  0.00000000000E+00  0.15461206297E+04  0.15461206297E+04  0.50400001928E-02 0. -1.
       -1   -1    0    0    0  501  0.00000000000E+00  0.00000000000E+00 -0.25080695450E+04  0.25080695450E+04  0.50400001928E-02 0.  1.
    10030    2    1    2    0    0  0.00000000000E+00  0.00000000000E+00 -0.96194891528E+03  0.40541901747E+04  0.39384149422E+04 0.  0.
        4    1    3    3  502    0  0.96747848732E+03  0.21703946185E+03 -0.22323573521E+04  0.24426505504E+04  0.12699999809E+01 0.  1.
       -4    1    3    3    0  502 -0.96747848732E+03 -0.21703946185E+03  0.12704084368E+04  0.16115396243E+04  0.12699999809E+01 0. -1.
</event>
<event>
 5   0  0.1187925E-07  0.3731564E+04  0.7818609E-02  0.8061003E-01
       -1   -1    0    0    0  501  0.00000000000E+00  0.00000000000E+00  0.15977283894E+04  0.15977283894E+04  0.50400001928E-02 0. -1.
        1   -1    0    0  501    0  0.00000000000E+00  0.00000000000E+00 -0.21788069938E+04  0.21788069938E+04  0.50400001928E-02 0.  1.
    10030    2    1    2    0    0  0.00000000000E+00  0.00000000000E+00 -0.58107860446E+03  0.37765353832E+04  0.37315636342E+04 0.  0.
        5    1    3    3  502    0  0.10815509313E+04  0.13654487175E+04  0.38603606703E+03  0.17841660663E+04  0.46999998093E+01 0. -1.
       -5    1    3    3    0  502 -0.10815509313E+04 -0.13654487175E+04 -0.96711467149E+03  0.19923693169E+04  0.46999998093E+01 0.  1.
</event>
<event>
 5   0  0.3665303E-07  0.3676982E+04  0.7818609E-02  0.8073082E-01
        2   -1    0    0  501    0  0.00000000000E+00  0.00000000000E+00  0.12611645055E+04  0.12611645055E+04  0.25500000920E-02 0.  1.
       -2   -1    0    0    0  501  0.00000000000E+00  0.00000000000E+00 -0.26801014063E+04  0.26801014063E+04  0.25500000920E-02 0. -1.
    10030    2    1    2    0    0  0.00000000000E+00  0.00000000000E+00 -0.14189369008E+04  0.39412659119E+04  0.36769817867E+04 0.  0.
        2    1    3    3  502    0 -0.14913991433E+04 -0.96036110016E+03 -0.12274004503E+04  0.21570991430E+04  0.25500000920E-02 0. -1.
       -2    1    3    3    0  502  0.14913991433E+04  0.96036110016E+03 -0.19153645049E+03  0.17841667689E+04  0.25500000920E-02 0.  1.
</event>
<event>
 5   0  0.1187925E-07  0.3873291E+04  0.7818609E-02  0.8030607E-01
       -1   -1    0    0    0  501  0.00000000000E+00  0.00000000000E+00  0.19843712723E+04  0.19843712723E+04  0.50400001928E-02 0.  1.
        1   -1    0    0  501    0  0.00000000000E+00  0.00000000000E+00 -0.18900679675E+04  0.18900679675E+04  0.50400001928E-02 0. -1.
    10030    2    1    2    0    0  0.00000000000E+00  0.00000000000E+00  0.94303304818E+02  0.38744392398E+04  0.38732914052E+04 0.  0.
        3    1    3    3  502    0  0.12743423888E+04  0.13612302247E+04  0.57047044887E+03  0.19499571256E+04  0.10100000352E+00 0.  1.
       -3    1    3    3    0  502 -0.12743423888E+04 -0.13612302247E+04 -0.47616714405E+03  0.19244821142E+04  0.10100000352E+00 0. -1.
</event>
<event>
 5   0  0.1187925E-07  0.3937512E+04  0.7818609E-02  0.8017272E-01
        1   -1    0    0  501    0  0.00000000000E+00  0.00000000000E+00  0.17296376088E+04  0.17296376088E+04  0.50400001928E-02 0. -1.
       -1   -1    0    0    0  501  0.00000000000E+00  0.00000000000E+00 -0.22409320059E+04  0.22409320059E+04  0.50400001928E-02 0.  1.
    10030    2    1    2    0    0  0.00000000000E+00  0.00000000000E+00 -0.51129439710E+03  0.39705696148E+04  0.39375120451E+04 0.  0.
        4    1    3    3  502    0  0.13350807212E+04 -0.10967202522E+04 -0.12073732561E+04  0.21078395660E+04  0.12699999809E+01 0.  1.
       -4    1    3    3    0  502 -0.13350807212E+04  0.10967202522E+04  0.69607885903E+03  0.18627300488E+04  0.12699999809E+01 0. -1.
</event>
<event>
 5   0  0.3610483E-07  0.3648940E+04  0.7818609E-02  0.8079372E-01
       -2   -1    0    0    0  501  0.00000000000E+00  0.00000000000E+00  0.16614924899E+04  0.16614924899E+04  0.25500000920E-02 0.  1.
        2   -1    0    0  501    0  0.00000000000E+00  0.00000000000E+00 -0.20034343147E+04  0.20034343147E+04  0.25500000920E-02 0. -1.
    10030    2    1    2    0    0  0.00000000000E+00  0.00000000000E+00 -0.34194182484E+03  0.36649268046E+04  0.36489401572E+04 0.  0.
        4    1    3    3  502    0  0.64824510272E+03  0.13541735021E+04 -0.12121813791E+04  0.19296095190E+04  0.12699999809E+01 0. -1.
       -4    1    3    3    0  502 -0.64824510272E+03 -0.13541735021E+04  0.87023955422E+03  0.17353172856E+04  0.12699999809E+01 0.  1.
</event>
<event>
 5   0  0.1187925E-07  0.3045664E+04  0.7818609E-02  0.8230810E-01
       -1   -1    0    0    0  501  0.00000000000E+00  0.00000000000E+00  0.18280411422E+04  0.18280411422E+04  0.50400001928E-02 0. -1.
        1   -1    0    0  501    0  0.00000000000E+00  0.00000000000E+00 -0.12685802201E+04  0.12685802201E+04  0.50400001928E-02 0.  1.
    10030    2    1    2    0    0  0.00000000000E+00  0.00000000000E+00  0.55946092208E+03  0.30966213623E+04  0.30456636942E+04 0.  0.
        4    1    3    3  502    0 -0.20089353877E+03 -0.21358830054E+03 -0.12396065701E+04  0.12738148365E+04  0.12699999809E+01 0.  1.
       -4    1    3    3    0  502  0.20089353877E+03  0.21358830054E+03  0.17990674922E+04  0.18228065258E+04  0.12699999809E+01 0. -1.
</event>
<event>
 5   0  0.1187925E-07  0.3924791E+04  0.7818609E-02  0.8019893E-01
       -1   -1    0    0    0  501  0.00000000000E+00  0.00000000000E+00  0.24104002295E+04  0.24104002295E+04  0.50400001928E-02 0.  1.
        1   -1    0    0  501    0  0.00000000000E+00  0.00000000000E+00 -0.15976583216E+04  0.15976583216E+04  0.50400001928E-02 0. -1.
    10030    2    1    2    0    0  0.00000000000E+00  0.00000000000E+00  0.81274190790E+03  0.40080585511E+04  0.39247909422E+04 0.  0.
        4    1    3    3  502    0  0.67204573956E+03 -0.39592570103E+03 -0.14325525528E+04  0.16311379666E+04  0.12699999809E+01 0. -1.
       -4    1    3    3    0  502 -0.67204573956E+03  0.39592570103E+03  0.22452944607E+04  0.23769205844E+04  0.12699999809E+01 0.  1.
</event>
<event>
 5   0  0.1187925E-07  0.4069498E+04  0.7818609E-02  0.7990672E-01
        1   -1    0    0  501    0  0.00000000000E+00  0.00000000000E+00  0.13821135077E+04  0.13821135077E+04  0.50400001928E-02 0.  1.
       -1   -1    0    0    0  501  0.00000000000E+00  0.00000000000E+00 -0.29955592154E+04  0.29955592154E+04  0.50400001928E-02 0. -1.
    10030    2    1    2    0    0  0.00000000000E+00  0.00000000000E+00 -0.16134457077E+04  0.43776727231E+04  0.40694976864E+04 0.  0.
        1    1    3    3  502    0  0.93382639560E+03 -0.16402665180E+04 -0.16243447075E+04  0.24901810608E+04  0.50400001928E-02 0. -1.
       -1    1    3    3    0  502 -0.93382639560E+03  0.16402665180E+04  0.10898999811E+02  0.18874916623E+04  0.50400001928E-02 0.  1.
</event>
<event>
 5   0  0.3680814E-07  0.3674907E+04  0.7818609E-02  0.8073546E-01
       -2   -1    0    0    0  501  0.00000000000E+00  0.00000000000E+00  0.28489400192E+04  0.28489400192E+04  0.25500000920E-02 0.  1.
        2   -1    0    0  501    0  0.00000000000E+00  0.00000000000E+00 -0.11850846980E+04  0.11850846980E+04  0.25500000920E-02 0. -1.
    10030    2    1    2    0    0  0.00000000000E+00  0.00000000000E+00  0.16638553213E+04  0.40340247172E+04  0.36749069225E+04 0.  0.
        1    1    3    3  502    0 -0.31242527659E+03 -0.87614595179E+03 -0.90753473068E+03  0.12995616837E+04  0.50400001928E-02 0. -1.
       -1    1    3    3    0  502  0.31242527659E+03  0.87614595179E+03  0.25713900519E+04  0.27344630335E+04  0.50400001928E-02 0.  1.
</event>
<event>
 5   0  0.1187925E-07  0.3875210E+04  0.7818609E-02  0.8030205E-01
       -1   -1    0    0    0  501  0.00000000000E+00  0.00000000000E+00  0.17144287577E+04  0.17144287577E+04  0.50400001928E-02 0. -1.
        1   -1    0    0  501    0  0.00000000000E+00  0.00000000000E+00 -0.21898333784E+04  0.21898333784E+04  0.50400001928E-02 0.  1.
    10030    2    1    2    0    0  0.00000000000E+00  0.00000000000E+00 -0.47540462075E+03  0.39042621361E+04  0.38752100941E+04 0.  0.
        3    1    3    3  502    0  0.32482903843E+03 -0.47888966592E+03  0.16253400944E+04  0.17252766876E+04  0.10100000352E+00 0. -1.
       -3    1    3    3    0  502 -0.32482903843E+03  0.47888966592E+03 -0.21007447151E+04  0.21789854485E+04  0.10100000352E+00 0.  1.
</event>
<event>
 5   0  0.3665303E-07  0.3879011E+04  0.7818609E-02  0.8029409E-01
       -2   -1    0    0    0  501  0.00000000000E+00  0.00000000000E+00  0.21897342153E+04  0.21897342153E+04  0.25500000920E-02 0. -1.
        2   -1    0    0  501    0  0.00000000000E+00  0.00000000000E+00 -0.17178713490E+04  0.17178713490E+04  0.25500000920E-02 0.  1.
    10030    2    1    2    0    0  0.00000000000E+00  0.00000000000E+00  0.47186286630E+03  0.39076055642E+04  0.38790110442E+04 0.  0.
        2    1    3    3  502    0 -0.15050395132E+04 -0.11957368900E+04  0.49619817084E+03  0.19852312891E+04  0.25500000920E-02 0. -1.
       -2    1    3    3    0  502  0.15050395132E+04  0.11957368900E+04 -0.24335304537E+02  0.19223742751E+04  0.25500000920E-02 0.  1.
</event>
<event>
 5   0  0.3810833E-07  0.3815124E+04  0.7818609E-02  0.8042917E-01
        2   -1    0    0  501    0  0.00000000000E+00  0.00000000000E+00  0.25835322921E+04  0.25835322921E+04  0.25500000920E-02 0.  1.
       -2   -1    0    0    0  501  0.00000000000E+00  0.00000000000E+00 -0.14084568310E+04  0.14084568310E+04  0.25500000920E-02 0. -1.
    10030    2    1    2    0    0  0.00000000000E+00  0.00000000000E+00  0.11750754611E+04  0.39919891232E+04  0.38151244829E+04 0.  0.
        3    1    3    3  502    0  0.44455248173E+03 -0.67754565959E+03 -0.12193935676E+04  0.14641091874E+04  0.10100000352E+00 0. -1.
       -3    1    3    3    0  502 -0.44455248173E+03  0.67754565959E+03  0.23944690287E+04  0.25278799357E+04  0.10100000352E+00 0.  1.
</event>
<event>
 5   0  0.1187925E-07  0.3882317E+04  0.7818609E-02  0.8028717E-01
       -1   -1    0    0    0  501  0.00000000000E+00  0.00000000000E+00  0.16076647458E+04  0.16076647458E+04  0.50400001928E-02 0. -1.
        1   -1    0    0  501    0  0.00000000000E+00  0.00000000000E+00 -0.23438324278E+04  0.23438324278E+04  0.50400001928E-02 0.  1.
    10030    2    1    2    0    0  0.00000000000E+00  0.00000000000E+00 -0.73616768194E+03  0.39514971736E+04  0.38823172278E+04 0.  0.
        5    1    3    3  502    0  0.13377315260E+04 -0.13653788176E+04 -0.71217558045E+03  0.20398532052E+04  0.46999998093E+01 0.  1.
       -5    1    3    3    0  502 -0.13377315260E+04  0.13653788176E+04 -0.23992101491E+02  0.19116439685E+04  0.46999998093E+01 0. -1.
</event>
<event>
 5   0  0.3610483E-07  0.3979336E+04  0.7818609E-02  0.8008728E-01
        2   -1    0    0  501    0  0.00000000000E+00  0.00000000000E+00  0.21912533152E+04  0.21912533152E+04  0.25500000920E-02 0.  1.
       -2   -1    0    0    0  501  0.00000000000E+00  0.00000000000E+00 -0.18066273826E+04  0.18066273826E+04  0.25500000920E-02 0. -1.
    10030    2    1    2    0    0  0.00000000000E+00  0.00000000000E+00  0.38462593259E+03  0.39978806979E+04  0.39793357444E+04 0.  0.
        4    1    3    3  502    0 -0.68924272591E+03  0.17395270041E+03 -0.16746966708E+04  0.18193201008E+04  0.12699999809E+01 0. -1.
       -4    1    3    3    0  502  0.68924272591E+03 -0.17395270041E+03  0.20593226034E+04  0.21785605970E+04  0.12699999809E+01 0.  1.
</event>
<event>
 5   0  0.3610483E-07  0.2936266E+04  0.7818609E-02  0.8262168E-01
        2   -1    0    0  501    0  0.00000000000E+00  0.00000000000E+00  0.19400186189E+04  0.19400186189E+04  0.25500000920E-02 0. -1.
       -2   -1    0    0    0  501  0.00000000000E+00  0.00000000000E+00 -0.11110278900E+04  0.11110278900E+04  0.25500000920E-02 0.  1.
    10030    2    1    2    0    0  0.00000000000E+00  0.00000000000E+00  0.82899072887E+03  0.30510465089E+04  0.29362661955E+04 0.  0.
        4    1    3    3  502    0  0.84834940320E+03  0.93086646338E+03  0.11984436442E+04  0.17385274987E+04  0.12699999809E+01 0. -1.
       -4    1    3    3    0  502 -0.84834940320E+03 -0.93086646338E+03 -0.36945291534E+03  0.13125190102E+04  0.12699999809E+01 0.  1.
</event>
<event>
 5   0  0.3665303E-07  0.3157303E+04  0.7818609E-02  0.8200185E-01
       -2   -1    0    0    0  501  0.00000000000E+00  0.00000000000E+00  0.17206773707E+04  0.17206773707E+04  0.25500000920E-02 0. -1.
        2   -1    0    0  501    0  0.00000000000E+00  0.00000000000E+00 -0.14483484603E+04  0.14483484603E+04  0.25500000920E-02 0.  1.
    10030    2    1    2    0    0  0.00000000000E+00  0.00000000000E+00  0.27232891039E+03  0.31690258310E+04  0.31573029126E+04 0.  0.
        2    1    3    3  502    0 -0.34285832249E+03  0.61231446637E+03 -0.12831792094E+04  0.14625422109E+04  0.25500000920E-02 0.  1.
       -2    1    3    3    0  502  0.34285832249E+03 -0.61231446637E+03  0.15555081198E+04  0.17064836202E+04  0.25500000920E-02 0. -1.
</event>
<event>
 5   0  0.1187925E-07  0.3939103E+04  0.7818609E-02  0.8016945E-01
       -1   -1    0    0    0  501  0.00000000000E+00  0.00000000000E+00  0.18520331370E+04  0.18520331371E+04  0.50400001928E-02 0. -1.
        1   -1    0    0  501    0  0.00000000000E+00  0.00000000000E+00 -0.20945269334E+04  0.20945269334E+04  0.50400001928E-02 0.  1.
    10030    2    1    2    0    0  0.00000000000E+00  0.00000000000E+00 -0.24249379638E+03  0.39465600705E+04  0.39391030894E+04 0.  0.
        5    1    3    3  502    0 -0.11793396795E+04  0.35179866527E+03 -0.16618531503E+04  0.20679415765E+04  0.46999998093E+01 0.  1.
       -5    1    3    3    0  502  0.11793396795E+04 -0.35179866527E+03  0.14193593539E+04  0.18786184940E+04  0.46999998093E+01 0. -1.
</event>
<event>
 5   0  0.3810833E-07  0.3907892E+04  0.7818609E-02  0.8023390E-01
       -2   -1    0    0    0  501  0.00000000000E+00  0.00000000000E+00  0.17822645958E+04  0.17822645958E+04  0.25500000920E-02 0. -1.
        2   -1    0    0  501    0  0.00000000000E+00  0.00000000000E+00 -0.21421654117E+04  0.21421654117E+04  0.25500000920E-02 0.  1.
    10030    2    1    2    0    0  0.00000000000E+00  0.00000000000E+00 -0.35990081583E+03  0.39244300075E+04  0.39078923075E+04 0.  0.
        3    1    3    3  502    0 -0.10551388298E+04 -0.13706072656E+04 -0.10926548386E+04  0.20459171130E+04  0.10100000352E+00 0.  1.
       -3    1    3    3    0  502  0.10551388298E+04  0.13706072656E+04  0.73275402274E+03  0.18785128945E+04  0.10100000352E+00 0. -1.
</event>
<event>
 5   0  0.1187925E-07  0.3886975E+04  0.7818609E-02  0.8027744E-01
        1   -1    0    0  501    0  0.00000000000E+00  0.00000000000E+00  0.21028888038E+04  0.21028888038E+04  0.50400001928E-02 0. -1.
       -1   -1    0    0    0  501  0.00000000000E+00  0.00000000000E+00 -0.17961691360E+04  0.17961691360E+04  0.50400001928E-02 0.  1.
    10030    2    1    2    0    0  0.00000000000E+00  0.00000000000E+00  0.30671966787E+03  0.38990579398E+04  0.38869751560E+04 0.  0.
        3    1    3    3  502    0  0.90192769272E+03  0.25718697389E+03  0.18608630836E+04  0.20838498335E+04  0.10100000352E+00 0. -1.
       -3    1    3    3    0  502 -0.90192769272E+03 -0.25718697389E+03 -0.15541434157E+04  0.18152081063E+04  0.10100000352E+00 0.  1.
</event>
<event>
 5   0  0.3610483E-07  0.3879633E+04  0.7818609E-02  0.8029278E-01
        2   -1    0    0  501    0  0.00000000000E+00  0.00000000000E+00  0.19320213937E+04  0.19320213937E+04  0.25500000920E-02 0. -1.
       -2   -1    0    0    0  501  0.00000000000E+00  0.00000000000E+00 -0.19476432612E+04  0.19476432612E+04  0.25500000920E-02 0.  1.
    10030    2    1    2    0    0  0.00000000000E+00  0.00000000000E+00 -0.15621867475E+02  0.38796646549E+04  0.38796332032E+04 0.  0.
        4    1    3    3  502    0  0.15285528790E+04  0.66733160584E+03  0.98269265834E+03  0.19358439632E+04  0.12699999809E+01 0. -1.
       -4    1    3    3    0  502 -0.15285528790E+04 -0.66733160584E+03 -0.99831452582E+03  0.19438206917E+04  0.12699999809E+01 0.  1.
</event>
<event>
 5   0  0.1187925E-07  0.3406672E+04  0.7818609E-02  0.8136271E-01
        1   -1    0    0  501    0  0.00000000000E+00  0.00000000000E+00  0.14165970805E+04  0.14165970805E+04  0.50400001928E-02 0.  1.
       -1   -1    0    0    0  501  0.00000000000E+00  0.00000000000E+00 -0.20481146070E+04  0.20481146070E+04  0.50400001928E-02 0. -1.
    10030    2    1    2    0    0  0.00000000000E+00  0.00000000000E+00 -0.63151752652E+03  0.34647116875E+04  0.34066717909E+04 0.  0.
        4    1    3    3  502    0  0.31747098546E+03  0.12512121950E+04 -0.14460122946E+04  0.19383686318E+04  0.12699999809E+01 0. -1.
       -4    1    3    3    0  502 -0.31747098546E+03 -0.12512121950E+04  0.81449476810E+03  0.15263430557E+04  0.12699999809E+01 0.  1.
</event>
<event>
 5   0  0.1187925E-07  0.3829572E+04  0.7818609E-02  0.8039838E-01
        1   -1    0    0  501    0  0.00000000000E+00  0.00000000000E+00  0.19427790461E+04  0.19427790461E+04  0.50400001928E-02 0. -1.
       -1   -1    0    0    0  501  0.00000000000E+00  0.00000000000E+00 -0.18871963627E+04  0.18871963627E+04  0.50400001928E-02 0.  1.
    10030    2    1    2    0    0  0.00000000000E+00  0.00000000000E+00  0.55582683353E+02  0.38299754088E+04  0.38295720645E+04 0.  0.
        3    1    3    3  502    0  0.76317542145E+03 -0.14470742468E+04  0.10228559021E+04  0.19294286217E+04  0.10100000352E+00 0. -1.
       -3    1    3    3    0  502 -0.76317542145E+03  0.14470742468E+04 -0.96727321872E+03  0.19005467870E+04  0.10100000352E+00 0.  1.
</event>
<event>
 5   0  0.3665303E-07  0.3830554E+04  0.7818609E-02  0.8039630E-01
       -2   -1    0    0    0  501  0.00000000000E+00  0.00000000000E+00  0.19421598660E+04  0.19421598660E+04  0.25500000920E-02 0.  1.
        2   -1    0    0  501    0  0.00000000000E+00  0.00000000000E+00 -0.18887661141E+04  0.18887661141E+04  0.25500000920E-02 0. -1.
    10030    2    1    2    0    0  0.00000000000E+00  0.00000000000E+00  0.53393751957E+02  0.38309259801E+04  0.38305538727E+04 0.  0.
        2    1    3    3  502    0 -0.14311398143E+04 -0.71929133782E+03 -0.10235215784E+04  0.19008255097E+04  0.25500000920E-02 0. -1.
       -2    1    3    3    0  502  0.14311398143E+04  0.71929133782E+03  0.10769153304E+04  0.19301004704E+04  0.25500000920E-02 0.  1.
</event>
<event>
 5   0  0.1187925E-07  0.3961471E+04  0.7818609E-02  0.8012365E-01
        1   -1    0    0  501    0  0.00000000000E+00  0.00000000000E+00  0.28532256280E+04  0.28532256280E+04  0.50400001928E-02 0. -1.
       -1   -1    0    0    0  501  0.00000000000E+00  0.00000000000E+00 -0.13750446184E+04  0.13750446184E+04  0.50400001928E-02 0.  1.
    10030    2    1    2    0    0  0.00000000000E+00  0.00000000000E+00  0.14781810097E+04  0.42282702464E+04  0.39614707092E+04 0.  0.
        3    1    3    3  502    0  0.45072670347E+03  0.28542538242E+03 -0.12969144752E+04  0.14023585049E+04  0.10100000352E+00 0.  1.
       -3    1    3    3    0  502 -0.45072670347E+03 -0.28542538242E+03  0.27750954849E+04  0.28259117415E+04  0.10100000352E+00 0. -1.
</event>
<event>
 5   0  0.3610483E-07  0.2863837E+04  0.7818609E-02  0.8283719E-01
        2   -1    0    0  501    0  0.00000000000E+00  0.00000000000E+00  0.92812252100E+03  0.92812252100E+03  0.25500000920E-02 0. -1.
       -2   -1    0    0    0  501  0.00000000000E+00  0.00000000000E+00 -0.22091814405E+04  0.22091814405E+04  0.25500000920E-02 0.  1.
    10030    2    1    2    0    0  0.00000000000E+00  0.00000000000E+00 -0.12810589195E+04  0.31373039615E+04  0.28638373193E+04 0.  0.
        4    1    3    3  502    0  0.11192225853E+04 -0.41993854418E+03 -0.15040795594E+04  0.19212663819E+04  0.12699999809E+01 0.  1.
       -4    1    3    3    0  502 -0.11192225853E+04  0.41993854418E+03  0.22302063990E+03  0.12160375796E+04  0.12699999809E+01 0. -1.
</event>
<event>
 5   0  0.3680814E-07  0.3595345E+04  0.7818609E-02  0.8091559E-01
       -2   -1    0    0    0  501  0.00000000000E+00  0.00000000000E+00  0.15655192722E+04  0.15655192722E+04  0.25500000920E-02 0. -1.
        2   -1    0    0  501    0  0.00000000000E+00  0.00000000000E+00 -0.20642519892E+04  0.20642519892E+04  0.25500000920E-02 0.  1.
    10030    2    1    2    0    0  0.00000000000E+00  0.00000000000E+00 -0.49873271694E+03  0.36297712614E+04  0.35953449191E+04 0.  0.
        1    1    3    3  502    0  0.16530739965E+04 -0.63352458197E+03 -0.56479883365E+03  0.18582262392E+04  0.50400001928E-02 0.  1.
       -1    1    3    3    0  502 -0.16530739965E+04  0.63352458197E+03  0.66066116708E+02  0.17715450222E+04  0.50400001928E-02 0. -1.
</event>
<event>
 5   0  0.3680814E-07  0.3793259E+04  0.7818609E-02  0.8047603E-01
        2   -1    0    0  501    0  0.00000000000E+00  0.00000000000E+00  0.20509478269E+04  0.20509478269E+04  0.25500000920E-02 0. -1.
       -2   -1    0    0    0  501  0.00000000000E+00  0.00000000000E+00 -0.17539226478E+04  0.17539226478E+04  0.25500000920E-02 0.  1.
    10030    2    1    2    0    0  0.00000000000E+00  0.00000000000E+00  0.29702517902E+03  0.38048704747E+04  0.37932592018E+04 0.  0.
        1    1    3    3  502    0 -0.11475693663E+04  0.47222457676E+03 -0.12902043658E+04  0.17901225676E+04  0.50400001928E-02 0.  1.
       -1    1    3    3    0  502  0.11475693663E+04 -0.47222457676E+03  0.15872295448E+04  0.20147479071E+04  0.50400001928E-02 0. -1.
</event>
<event>
 5   0  0.3810833E-07  0.3174095E+04  0.7818609E-02  0.8195692E-01
        2   -1    0    0  501    0  0.00000000000E+00  0.00000000000E+00  0.23153500659E+04  0.23153500659E+04  0.25500000920E-02 0. -1.
       -2   -1    0    0    0  501  0.00000000000E+00  0.00000000000E+00 -0.10878355816E+04  0.10878355816E+04  0.25500000920E-02 0.  1.
    10030    2    1    2    0    0  0.00000000000E+00  0.00000000000E+00  0.12275144843E+04  0.34031856475E+04  0.31740952636E+04 0.  0.
        3    1    3    3  502    0  0.11561043434E+04  0.21214211266E+03 -0.52957484987E+03  0.12891978361E+04  0.10100000352E+00 0.  1.
       -3    1    3    3    0  502 -0.11561043434E+04 -0.21214211266E+03  0.17570893341E+04  0.21139878115E+04  0.10100000352E+00 0. -1.
</event>
<event>
 5   0  0.3832389E-07  0.3060767E+04  0.7818609E-02  0.8226588E-01
        2   -1    0    0  501    0  0.00000000000E+00  0.00000000000E+00  0.17179267670E+04  0.17179267670E+04  0.25500000920E-02 0.  1.
       -2   -1    0    0    0  501  0.00000000000E+00  0.00000000000E+00 -0.13633140434E+04  0.13633140434E+04  0.25500000920E-02 0. -1.
    10030    2    1    2    0    0  0.00000000000E+00  0.00000000000E+00  0.35461272365E+03  0.30812408104E+04  0.30607670195E+04 0.  0.
        5    1    3    3  502    0 -0.13392820082E+04 -0.44235898244E+03 -0.42054648222E+03  0.14718149342E+04  0.46999998093E+01 0. -1.
       -5    1    3    3    0  502  0.13392820082E+04  0.44235898244E+03  0.77515920587E+03  0.16094258763E+04  0.46999998093E+01 0.  1.
</event>
<event>
 5   0  0.1187925E-07  0.3678537E+04  0.7818609E-02  0.8072735E-01
        1   -1    0    0  501    0  0.00000000000E+00  0.00000000000E+00  0.15444354466E+04  0.15444354466E+04  0.50400001928E-02 0.  1.
       -1   -1    0    0    0  501  0.00000000000E+00  0.00000000000E+00 -0.21903856905E+04  0.21903856905E+04  0.50400001928E-02 0. -1.
    10030    2    1    2    0    0  0.00000000000E+00  0.00000000000E+00 -0.64595024385E+03  0.37348211371E+04  0.36785373736E+04 0.  0.
        3    1    3    3  502    0 -0.11074577778E+04 -0.11264466252E+04 -0.12794963491E+04  0.20328442258E+04  0.10100000352E+00 0. -1.
       -3    1    3    3    0  502  0.11074577778E+04  0.11264466252E+04  0.63354610522E+03  0.17019769113E+04  0.10100000352E+00 0.  1.
</event>
<event>
 5   0  0.1187925E-07  0.3895197E+04  0.7818609E-02  0.8026029E-01
       -1   -1    0    0    0  501  0.00000000000E+00  0.00000000000E+00  0.25174959504E+04  0.25174959504E+04  0.50400001928E-02 0.  1.
        1   -1    0    0  501    0  0.00000000000E+00  0.00000000000E+00 -0.15067112990E+04  0.15067112990E+04  0.50400001928E-02 0. -1.
    10030    2    1    2    0    0  0.00000000000E+00  0.00000000000E+00  0.10107846514E+04  0.40242072494E+04  0.38951968338E+04 0.  0.
        4    1    3    3  502    0  0.25750986588E+03 -0.12743962389E+04 -0.99271804050E+03  0.16358141171E+04  0.12699999809E+01 0. -1.
       -4    1    3    3    0  502 -0.25750986588E+03  0.12743962389E+04  0.20035026919E+04  0.23883931323E+04  0.12699999809E+01 0.  1.
</event>
<event>
 5   0  0.3610483E-07  0.3839914E+04  0.7818609E-02  0.8037643E-01
        2   -1    0    0  501    0  0.00000000000E+00  0.00000000000E+00  0.23981525295E+04  0.23981525295E+04  0.25500000920E-02 0.  1.
       -2   -1    0    0    0  501  0.00000000000E+00  0.00000000000E+00 -0.15371148304E+04  0.15371148304E+04  0.25500000920E-02 0. -1.
    10030    2    1    2    0    0  0.00000000000E+00  0.00000000000E+00  0.86103769914E+03  0.39352673599E+04  0.38399144879E+04 0.  0.
        4    1    3    3  502    0 -0.18803525840E+03 -0.27816358355E+03  0.23678314501E+04  0.23915182681E+04  0.12699999809E+01 0.  1.
       -4    1    3    3    0  502  0.18803525840E+03  0.27816358355E+03 -0.15067937510E+04  0.15437490918E+04  0.12699999809E+01 0. -1.
</event>
<event>
 5   0  0.1187925E-07  0.3868311E+04  0.7818609E-02  0.8031652E-01
       -1   -1    0    0    0  501  0.00000000000E+00  0.00000000000E+00  0.12532966880E+04  0.12532966880E+04  0.50400001928E-02 0.  1.
        1   -1    0    0  501    0  0.00000000000E+00  0.00000000000E+00 -0.29848939568E+04  0.29848939568E+04  0.50400001928E-02 0. -1.
    10030    2    1    2    0    0  0.00000000000E+00  0.00000000000E+00 -0.17315972687E+04  0.42381906448E+04  0.38683111096E+04 0.  0.
        3    1    3    3  502    0  0.75341209206E+02  0.95313303360E+02  0.12491118315E+04  0.12550064946E+04  0.10100000352E+00 0.  1.
       -3    1    3    3    0  502 -0.75341209206E+02 -0.95313303360E+02 -0.29807091003E+04  0.29831841502E+04  0.10100000352E+00 0. -1.
</event>
<event>
 5   0  0.1187925E-07  0.3841300E+04  0.7818609E-02  0.8037350E-01
        1   -1    0    0  501    0  0.00000000000E+00  0.00000000000E+00  0.30218704320E+04  0.30218704320E+04  0.50400001928E-02 0. -1.
       -1   -1    0    0    0  501  0.00000000000E+00  0.00000000000E+00 -0.12207328302E+04  0.12207328302E+04  0.50400001928E-02 0.  1.
    10030    2    1    2    0    0  0.00000000000E+00  0.00000000000E+00  0.18011376018E+04  0.42426032622E+04  0.38413000117E+04 0.  0.
        2    1    3    3  502    0  0.38060740818E+02  0.19066273208E+04  0.11529592863E+04  0.22284504653E+04  0.25500000920E-02 0.  1.
       -2    1    3    3    0  502 -0.38060740818E+02 -0.19066273208E+04  0.64817831549E+03  0.20141527969E+04  0.25500000920E-02 0. -1.
</event>
<event>
 5   0  0.1187925E-07  0.3411008E+04  0.7818609E-02  0.8135210E-01
       -1   -1    0    0    0  501  0.00000000000E+00  0.00000000000E+00  0.30986039731E+04  0.30986039731E+04  0.50400001928E-02 0.  1.
        1   -1    0    0  501    0  0.00000000000E+00  0.00000000000E+00 -0.93872719296E+03  0.93872719297E+03  0.50400001928E-02 0. -1.
    10030    2    1    2    0    0  0.00000000000E+00  0.00000000000E+00  0.21598767801E+04  0.40373311661E+04  0.34110079506E+04 0.  0.
        5    1    3    3  502    0  0.37921078707E+03 -0.15124672933E+04  0.26215876473E+03  0.15811728059E+04  0.46999998093E+01 0. -1.
       -5    1    3    3    0  502 -0.37921078707E+03  0.15124672933E+04  0.18977180154E+04  0.24561583602E+04  0.46999998093E+01 0.  1.
</event>
<event>
 5   0  0.1187925E-07  0.3278863E+04  0.7818609E-02  0.8168295E-01
        1   -1    0    0  501    0  0.00000000000E+00  0.00000000000E+00  0.24826853328E+04  0.24826853328E+04  0.50400001928E-02 0. -1.
       -1   -1    0    0    0  501  0.00000000000E+00  0.00000000000E+00 -0.10825918496E+04  0.10825918497E+04  0.50400001928E-02 0.  1.
    10030    2    1    2    0    0  0.00000000000E+00  0.00000000000E+00  0.14000934832E+04  0.35652771825E+04  0.32788625507E+04 0.  0.
        3    1    3    3  502    0 -0.17888184022E+03  0.74946636539E+03 -0.87343677031E+03  0.11647275851E+04  0.10100000352E+00 0.  1.
       -3    1    3    3    0  502  0.17888184022E+03 -0.74946636539E+03  0.22735302535E+04  0.24005495973E+04  0.10100000352E+00 0. -1.
</event>
<event>
 5   0  0.1187925E-07  0.3344127E+04  0.7818609E-02  0.8151757E-01
        1   -1    0    0  501    0  0.00000000000E+00  0.00000000000E+00  0.13253820099E+04  0.13253820100E+04  0.50400001928E-02 0. -1.
       -1   -1    0    0    0  501  0.00000000000E+00  0.00000000000E+00 -0.21094262012E+04  0.21094262013E+04  0.50400001928E-02 0.  1.
    10030    2    1    2    0    0  0.00000000000E+00  0.00000000000E+00 -0.78404419131E+03  0.34348082112E+04  0.33441265158E+04 0.  0.
        5    1    3    3  502    0 -0.60682368437E+02  0.60617750840E+03 -0.19913717443E+04  0.20824785799E+04  0.46999998093E+01 0.  1.
       -5    1    3    3    0  502  0.60682368437E+02 -0.60617750840E+03  0.12073275530E+04  0.13523296313E+04  0.46999998093E+01 0. -1.
</event>
<event>
 5   0  0.1187925E-07  0.3850984E+04  0.7818609E-02  0.8035301E-01
        1   -1    0    0  501    0  0.00000000000E+00  0.00000000000E+00  0.20193001646E+04  0.20193001646E+04  0.50400001928E-02 0. -1.
       -1   -1    0    0    0  501  0.00000000000E+00  0.00000000000E+00 -0.18360420847E+04  0.18360420847E+04  0.50400001928E-02 0.  1.
    10030    2    1    2    0    0  0.00000000000E+00  0.00000000000E+00  0.18325807989E+03  0.38553422492E+04  0.38509843332E+04 0.  0.
        2    1    3    3  502    0 -0.27776170291E+03 -0.18885213330E+04  0.34461184525E+03  0.19396962939E+04  0.25500000920E-02 0.  1.
       -2    1    3    3    0  502  0.27776170291E+03  0.18885213330E+04 -0.16135376537E+03  0.19156459553E+04  0.25500000920E-02 0. -1.
</event>
<event>
 5   0  0.1187925E-07  0.3896845E+04  0.7818609E-02  0.8025686E-01
       -1   -1    0    0    0  501  0.00000000000E+00  0.00000000000E+00  0.18471021528E+04  0.18471021528E+04  0.50400001928E-02 0.  1.
        1   -1    0    0  501    0  0.00000000000E+00  0.00000000000E+00 -0.20553011621E+04  0.20553011621E+04  0.50400001928E-02 0. -1.
    10030    2    1    2    0    0  0.00000000000E+00  0.00000000000E+00 -0.20819900934E+03  0.39024033149E+04  0.38968454940E+04 0.  0.
        2    1    3    3  502    0 -0.89428101218E+03 -0.13005759454E+04  0.10399460979E+04  0.18901651264E+04  0.25500000920E-02 0.  1.
       -2    1    3    3    0  502  0.89428101218E+03  0.13005759454E+04 -0.12481451072E+04  0.20122381885E+04  0.25500000920E-02 0. -1.
</event>
<event>
 5   0  0.3832389E-07  0.3939601E+04  0.7818609E-02  0.8016843E-01
        2   -1    0    0  501    0  0.00000000000E+00  0.00000000000E+00  0.25397629331E+04  0.25397629331E+04  0.25500000920E-02 0.  1.
       -2   -1    0    0    0  501  0.00000000000E+00  0.00000000000E+00 -0.15277465252E+04  0.15277465252E+04  0.25500000920E-02 0. -1.
    10030    2    1    2    0    0  0.00000000000E+00  0.00000000000E+00  0.10120164079E+04  0.40675094583E+04  0.39396009930E+04 0.  0.
        5    1    3    3  502    0  0.11142963555E+04  0.15987639332E+04  0.80236307237E+03  0.21074892816E+04  0.46999998093E+01 0.  1.
       -5    1    3    3    0  502 -0.11142963555E+04 -0.15987639332E+04  0.20965333554E+03  0.19600201767E+04  0.46999998093E+01 0. -1.
</event>
<event>
 5   0  0.1187925E-07  0.3904228E+04  0.7818609E-02  0.8024150E-01
       -1   -1    0    0    0  501  0.00000000000E+00  0.00000000000E+00  0.29456427965E+04  0.29456427965E+04  0.50400001928E-02 0.  1.
        1   -1    0    0  501    0  0.00000000000E+00  0.00000000000E+00 -0.12936901755E+04  0.12936901755E+04  0.50400001928E-02 0. -1.
    10030    2    1    2    0    0  0.00000000000E+00  0.00000000000E+00  0.16519526210E+04  0.42393329720E+04  0.39042280396E+04 0.  0.
        3    1    3    3  502    0 -0.58989479426E+03  0.84557066751E+03 -0.97394537556E+03  0.14182860173E+04  0.10100000352E+00 0. -1.
       -3    1    3    3    0  502  0.58989479426E+03 -0.84557066751E+03  0.26258979966E+04  0.28210469547E+04  0.10100000352E+00 0.  1.
</event>
<event>
 5   0  0.3832389E-07  0.3293118E+04  0.7818609E-02  0.8164649E-01
       -2   -1    0    0    0  501  0.00000000000E+00  0.00000000000E+00  0.92429895236E+03  0.92429895237E+03  0.25500000920E-02 0.  1.
        2   -1    0    0  501    0  0.00000000000E+00  0.00000000000E+00 -0.29332038909E+04  0.29332038909E+04  0.25500000920E-02 0. -1.
    10030    2    1    2    0    0  0.00000000000E+00  0.00000000000E+00 -0.20089049386E+04  0.38575028433E+04  0.32931184512E+04 0.  0.
        5    1    3    3  502    0  0.53763477061E+03  0.12076985890E+04 -0.21542877152E+04  0.25275610137E+04  0.46999998093E+01 0. -1.
       -5    1    3    3    0  502 -0.53763477061E+03 -0.12076985890E+04  0.14538277657E+03  0.13299418296E+04  0.46999998093E+01 0.  1.
</event>
<event>
 5   0  0.1187925E-07  0.3817999E+04  0.7818609E-02  0.8042303E-01
        1   -1    0    0  501    0  0.00000000000E+00  0.00000000000E+00  0.14075863294E+04  0.14075863294E+04  0.50400001928E-02 0.  1.
       -1   -1    0    0    0  501  0.00000000000E+00  0.00000000000E+00 -0.25890267186E+04  0.25890267186E+04  0.50400001928E-02 0. -1.
    10030    2    1    2    0    0  0.00000000000E+00  0.00000000000E+00 -0.11814403892E+04  0.39966130480E+04  0.38179987509E+04 0.  0.
        3    1    3    3  502    0 -0.71423782004E+03  0.17692437489E+04 -0.52518545482E+03  0.19789337732E+04  0.10100000352E+00 0. -1.
       -3    1    3    3    0  502  0.71423782004E+03 -0.17692437489E+04 -0.65625493436E+03  0.20176792747E+04  0.10100000352E+00 0.  1.
</event>
<event>
 5   0  0.3610483E-07  0.3191769E+04  0.7818609E-02  0.8190994E-01
       -2   -1    0    0    0  501  0.00000000000E+00  0.00000000000E+00  0.84626251339E+03  0.84626251339E+03  0.25500000920E-02 0.  1.
        2   -1    0    0  501    0  0.00000000000E+00  0.00000000000E+00 -0.30095231385E+04  0.30095231385E+04  0.25500000920E-02 0. -1.
    10030    2    1    2    0    0  0.00000000000E+00  0.00000000000E+00 -0.21632606251E+04  0.38557856519E+04  0.31917685476E+04 0.  0.
        4    1    3    3  502    0  0.44484861265E+03  0.70358212079E+03  0.56322535932E+03  0.10050584596E+04  0.12699999809E+01 0.  1.
       -4    1    3    3    0  502 -0.44484861265E+03 -0.70358212079E+03 -0.27264859845E+04  0.28507271924E+04  0.12699999809E+01 0. -1.
</event>
<event>
 5   0  0.1187925E-07  0.3882161E+04  0.7818609E-02  0.8028750E-01
       -1   -1    0    0    0  501  0.00000000000E+00  0.00000000000E+00  0.21282555438E+04  0.21282555438E+04  0.50400001928E-02 0.  1.
        1   -1    0    0  501    0  0.00000000000E+00  0.00000000000E+00 -0.17703671908E+04  0.17703671909E+04  0.50400001928E-02 0. -1.
    10030    2    1    2    0    0  0.00000000000E+00  0.00000000000E+00  0.35788835292E+03  0.38986227346E+04  0.38821611447E+04 0.  0.
        4    1    3    3  502    0  0.55588205373E+03 -0.18327543972E+04  0.49619295503E+03  0.19784343809E+04  0.12699999809E+01 0. -1.
       -4    1    3    3    0  502 -0.55588205373E+03  0.18327543972E+04 -0.13830460211E+03  0.19201883537E+04  0.12699999809E+01 0.  1.
</event>
<event>
 5   0  0.3610483E-07  0.3925666E+04  0.7818609E-02  0.8019712E-01
       -2   -1    0    0    0  501  0.00000000000E+00  0.00000000000E+00  0.21491677989E+04  0.21491677989E+04  0.25500000920E-02 0. -1.
        2   -1    0    0  501    0  0.00000000000E+00  0.00000000000E+00 -0.17926536515E+04  0.17926536515E+04  0.25500000920E-02 0.  1.
    10030    2    1    2    0    0  0.00000000000E+00  0.00000000000E+00  0.35651414743E+03  0.39418214504E+04  0.39256660594E+04 0.  0.
        4    1    3    3  502    0  0.10092233268E+04 -0.14088570955E+04  0.11036254006E+04  0.20546047495E+04  0.12699999809E+01 0. -1.
       -4    1    3    3    0  502 -0.10092233268E+04  0.14088570955E+04 -0.74711125318E+03  0.18872167010E+04  0.12699999809E+01 0.  1.
</event>
<event>
 5   0  0.3665303E-07  0.3913306E+04  0.7818609E-02  0.8022267E-01
       -2   -1    0    0    0  501  0.00000000000E+00  0.00000000000E+00  0.13121936017E+04  0.13121936017E+04  0.25500000920E-02 0.  1.
        2   -1    0    0  501    0  0.00000000000E+00  0.00000000000E+00 -0.29176267405E+04  0.29176267405E+04  0.25500000920E-02 0. -1.
    10030    2    1    2    0    0  0.00000000000E+00  0.00000000000E+00 -0.16054331388E+04  0.42298203421E+04  0.39133060912E+04 0.  0.
        2    1    3    3  502    0  0.85981885172E+03  0.14663212675E+04  0.24473774987E+03  0.17173476886E+04  0.25500000920E-02 0.  1.
       -2    1    3    3    0  502 -0.85981885172E+03 -0.14663212675E+04 -0.18501708887E+04  0.25124726535E+04  0.25500000920E-02 0. -1.
</event>
<event>
 5   0  0.1187925E-07  0.3851852E+04  0.7818609E-02  0.8035118E-01
        1   -1    0    0  501    0  0.00000000000E+00  0.00000000000E+00  0.14321555498E+04  0.14321555498E+04  0.50400001928E-02 0. -1.
       -1   -1    0    0    0  501  0.00000000000E+00  0.00000000000E+00 -0.25899353520E+04  0.25899353520E+04  0.50400001928E-02 0.  1.
    10030    2    1    2    0    0  0.00000000000E+00  0.00000000000E+00 -0.11577798022E+04  0.40220909018E+04  0.38518516524E+04 0.  0.
        1    1    3    3  502    0 -0.10210142395E+04  0.82141981812E+03 -0.20526468728E+04  0.24352740665E+04  0.50400001928E-02 0.  1.
       -1    1    3    3    0  502  0.10210142395E+04 -0.82141981812E+03  0.89486707054E+03  0.15868168353E+04  0.50400001928E-02 0. -1.
</event>
<event>
 5   0  0.1187925E-07  0.3543890E+04  0.7818609E-02  0.8103467E-01
       -1   -1    0    0    0  501  0.00000000000E+00  0.00000000000E+00  0.16682513252E+04  0.16682513252E+04  0.50400001928E-02 0.  1.
        1   -1    0    0  501    0  0.00000000000E+00  0.00000000000E+00 -0.18820839613E+04  0.18820839613E+04  0.50400001928E-02 0. -1.
    10030    2    1    2    0    0  0.00000000000E+00  0.00000000000E+00 -0.21383263608E+03  0.35503352864E+04  0.35438899884E+04 0.  0.
        1    1    3    3  502    0  0.12826093401E+04 -0.11849424199E+04 -0.40848505712E+03  0.17933307837E+04  0.50400001928E-02 0. -1.
       -1    1    3    3    0  502 -0.12826093401E+04  0.11849424199E+04  0.19465242104E+03  0.17570045028E+04  0.50400001928E-02 0.  1.
</event>
<event>
 5   0  0.3832389E-07  0.3913005E+04  0.7818609E-02  0.8022330E-01
       -2   -1    0    0    0  501  0.00000000000E+00  0.00000000000E+00  0.20355533314E+04  0.20355533314E+04  0.25500000920E-02 0. -1.
        2   -1    0    0  501    0  0.00000000000E+00  0.00000000000E+00 -0.18805215962E+04  0.18805215962E+04  0.25500000920E-02 0.  1.
    10030    2    1    2    0    0  0.00000000000E+00  0.00000000000E+00  0.15503173516E+03  0.39160749277E+04  0.39130049834E+04 0.  0.
        5    1    3    3  502    0 -0.13474999538E+04  0.66610189761E+03  0.13308689845E+04  0.20076558986E+04  0.46999998093E+01 0. -1.
       -5    1    3    3    0  502  0.13474999538E+04 -0.66610189761E+03 -0.11758372493E+04  0.19084190290E+04  0.46999998093E+01 0.  1.
</event>
<event>
 5   0  0.3810833E-07  0.3655135E+04  0.7818609E-02  0.8077978E-01
       -2   -1    0    0    0  501  0.00000000000E+00  0.00000000000E+00  0.16153237676E+04  0.16153237676E+04  0.25500000920E-02 0.  1.
        2   -1    0    0  501    0  0.00000000000E+00  0.00000000000E+00 -0.20676990518E+04  0.20676990518E+04  0.25500000920E-02 0. -1.
    10030    2    1    2    0    0  0.00000000000E+00  0.00000000000E+00 -0.45237528416E+03  0.36830228194E+04  0.36551352493E+04 0.  0.
        3    1    3    3  502    0 -0.12252136061E+04  0.12531144334E+04 -0.74836858104E+03  0.19056494187E+04  0.10100000352E+00 0.  1.
       -3    1    3    3    0  502  0.12252136061E+04 -0.12531144334E+04  0.29599329689E+03  0.17773734007E+04  0.10100000352E+00 0. -1.
</event>
<event>
 5   0  0.3810833E-07  0.3905929E+04  0.7818609E-02  0.8023797E-01
       -2   -1    0    0    0  501  0.00000000000E+00  0.00000000000E+00  0.16180508063E+04  0.16180508063E+04  0.25500000920E-02 0.  1.
        2   -1    0    0  501    0  0.00000000000E+00  0.00000000000E+00 -0.23572006362E+04  0.23572006362E+04  0.25500000920E-02 0. -1.
    10030    2    1    2    0    0  0.00000000000E+00  0.00000000000E+00 -0.73914982999E+03  0.39752514425E+04  0.39059290265E+04 0.  0.
        3    1    3    3  502    0  0.49693798985E+02 -0.19495133098E+04 -0.26283861695E+03  0.19677794002E+04  0.10100000352E+00 0.  1.
       -3    1    3    3    0  502 -0.49693798985E+02  0.19495133098E+04 -0.47631121304E+03  0.20074720423E+04  0.10100000352E+00 0. -1.
</event>
<event>
 5   0  0.1187925E-07  0.3879545E+04  0.7818609E-02  0.8029297E-01
       -1   -1    0    0    0  501  0.00000000000E+00  0.00000000000E+00  0.11779369999E+04  0.11779369999E+04  0.50400001928E-02 0. -1.
        1   -1    0    0  501    0  0.00000000000E+00  0.00000000000E+00 -0.31943284727E+04  0.31943284727E+04  0.50400001928E-02 0.  1.
    10030    2    1    2    0    0  0.00000000000E+00  0.00000000000E+00 -0.20163914728E+04  0.43722654726E+04  0.38795451785E+04 0.  0.
        2    1    3    3  502    0  0.11185832612E+04  0.15309689573E+04 -0.54677955384E+03  0.19733378679E+04  0.25500000920E-02 0. -1.
       -2    1    3    3    0  502 -0.11185832612E+04 -0.15309689573E+04 -0.14696119189E+04  0.23989276047E+04  0.25500000920E-02 0.  1.
</event>
<event>
 5   0  0.3610483E-07  0.3770236E+04  0.7818609E-02  0.8052572E-01
        2   -1    0    0  501    0  0.00000000000E+00  0.00000000000E+00  0.20777550184E+04  0.20777550184E+04  0.25500000920E-02 0. -1.
       -2   -1    0    0    0  501  0.00000000000E+00  0.00000000000E+00 -0.17103410558E+04  0.17103410558E+04  0.25500000920E-02 0.  1.
    10030    2    1    2    0    0  0.00000000000E+00  0.00000000000E+00  0.36741396261E+03  0.37880960741E+04  0.37702359140E+04 0.  0.
        4    1    3    3  502    0 -0.14464640653E+04 -0.11405040274E+04 -0.21901639646E+03  0.18549872030E+04  0.12699999809E+01 0. -1.
       -4    1    3    3    0  502  0.14464640653E+04  0.11405040274E+04  0.58643035907E+03  0.19331088711E+04  0.12699999809E+01 0.  1.
</event>
<event>
 5   0  0.1187925E-07  0.3920781E+04  0.7818609E-02  0.8020721E-01
       -1   -1    0    0    0  501  0.00000000000E+00  0.00000000000E+00  0.19261776476E+04  0.19261776476E+04  0.50400001928E-02 0. -1.
        1   -1    0    0  501    0  0.00000000000E+00  0.00000000000E+00 -0.19952114582E+04  0.19952114582E+04  0.50400001928E-02 0.  1.
    10030    2    1    2    0    0  0.00000000000E+00  0.00000000000E+00 -0.69033810577E+02  0.39213891059E+04  0.39207814084E+04 0.  0.
        3    1    3    3  502    0 -0.19047559626E+04  0.25966979237E+03 -0.41877435180E+03  0.19674591853E+04  0.10100000352E+00 0. -1.
       -3    1    3    3    0  502  0.19047559626E+04 -0.25966979237E+03  0.34974054123E+03  0.19539299205E+04  0.10100000352E+00 0.  1.
</event>
<event>
 5   0  0.3810833E-07  0.3731757E+04  0.7818609E-02  0.8060960E-01
       -2   -1    0    0    0  501  0.00000000000E+00  0.00000000000E+00  0.14037838984E+04  0.14037838984E+04  0.25500000920E-02 0. -1.
        2   -1    0    0  501    0  0.00000000000E+00  0.00000000000E+00 -0.24800844224E+04  0.24800844224E+04  0.25500000920E-02 0.  1.
    10030    2    1    2    0    0  0.00000000000E+00  0.00000000000E+00 -0.10763005241E+04  0.38838683208E+04  0.37317570011E+04 0.  0.
        3    1    3    3  502    0  0.37095990571E+02  0.14056068293E+03 -0.24741814833E+04  0.24784485955E+04  0.10100000352E+00 0.  1.
       -3    1    3    3    0  502 -0.37095990571E+02 -0.14056068293E+03  0.13978809592E+04  0.14054197253E+04  0.10100000352E+00 0. -1.
</event>
<event>
 5   0  0.1187925E-07  0.3929031E+04  0.7818609E-02  0.8019018E-01
       -1   -1    0    0    0  501  0.00000000000E+00  0.00000000000E+00  0.14703504337E+04  0.14703504337E+04  0.50400001928E-02 0. -1.
        1   -1    0    0  501    0  0.00000000000E+00  0.00000000000E+00 -0.26247623785E+04  0.26247623785E+04  0.50400001928E-02 0.  1.
    10030    2    1    2    0    0  0.00000000000E+00  0.00000000000E+00 -0.11544119448E+04  0.40951128122E+04  0.39290306701E+04 0.  0.
        1    1    3    3  502    0  0.10787908187E+04 -0.56498137013E+02  0.11329877535E+04  0.15654529439E+04  0.50400001928E-02 0. -1.
       -1    1    3    3    0  502 -0.10787908187E+04  0.56498137013E+02 -0.22873996982E+04  0.25296598683E+04  0.50400001928E-02 0.  1.
</event>
<event>
 5   0  0.3832389E-07  0.3826811E+04  0.7818609E-02  0.8040426E-01
       -2   -1    0    0    0  501  0.00000000000E+00  0.00000000000E+00  0.14930893918E+04  0.14930893919E+04  0.25500000920E-02 0. -1.
        2   -1    0    0  501    0  0.00000000000E+00  0.00000000000E+00 -0.24520433822E+04  0.24520433822E+04  0.25500000920E-02 0.  1.
    10030    2    1    2    0    0  0.00000000000E+00  0.00000000000E+00 -0.95895399037E+03  0.39451327741E+04  0.38268106629E+04 0.  0.
        5    1    3    3  502    0 -0.39917412535E+03  0.68615013544E+03 -0.22742703631E+04  0.24088316183E+04  0.46999998093E+01 0.  1.
       -5    1    3    3    0  502  0.39917412535E+03 -0.68615013544E+03  0.13153163728E+04  0.15363011558E+04  0.46999998093E+01 0. -1.
</event>
<event>
 5   0  0.1187925E-07  0.3757328E+04  0.7818609E-02  0.8055375E-01
       -1   -1    0    0    0  501  0.00000000000E+00  0.00000000000E+00  0.16448321974E+04  0.16448321974E+04  0.50400001928E-02 0.  1.
        1   -1    0    0  501    0  0.00000000000E+00  0.00000000000E+00 -0.21457372991E+04  0.21457372991E+04  0.50400001928E-02 0. -1.
    10030    2    1    2    0    0  0.00000000000E+00  0.00000000000E+00 -0.50090510166E+03  0.37905694965E+04  0.37573276656E+04 0.  0.
        4    1    3    3  502    0  0.99684029891E+03  0.15731422656E+04 -0.14715665943E+01  0.18623831367E+04  0.12699999809E+01 0. -1.
       -4    1    3    3    0  502 -0.99684029891E+03 -0.15731422656E+04 -0.49943353507E+03  0.19281863598E+04  0.12699999809E+01 0.  1.
</event>
<event>
 5   0  0.3665303E-07  0.3776511E+04  0.7818609E-02  0.8051214E-01
        2   -1    0    0  501    0  0.00000000000E+00  0.00000000000E+00  0.26455265368E+04  0.26455265368E+04  0.25500000920E-02 0. -1.
       -2   -1    0    0    0  501  0.00000000000E+00  0.00000000000E+00 -0.13477504138E+04  0.13477504138E+04  0.25500000920E-02 0.  1.
    10030    2    1    2    0    0  0.00000000000E+00  0.00000000000E+00  0.12977761231E+04  0.39932769506E+04  0.37765113450E+04 0.  0.
        2    1    3    3  502    0 -0.13988430703E+04 -0.54374505123E+03 -0.56278568361E+03  0.16028563072E+04  0.25500000920E-02 0.  1.
       -2    1    3    3    0  502  0.13988430703E+04  0.54374505123E+03  0.18605618067E+04  0.23904206434E+04  0.25500000920E-02 0. -1.
</event>
<event>
 5   0  0.3810833E-07  0.3857124E+04  0.7818609E-02  0.8034006E-01
       -2   -1    0    0    0  501  0.00000000000E+00  0.00000000000E+00  0.18190270443E+04  0.18190270443E+04  0.25500000920E-02 0.  1.
        2   -1    0    0  501    0  0.00000000000E+00  0.00000000000E+00 -0.20446931682E+04  0.20446931682E+04  0.25500000920E-02 0. -1.
    10030    2    1    2    0    0  0.00000000000E+00  0.00000000000E+00 -0.22566612391E+03  0.38637202125E+04  0.38571244057E+04 0.  0.
        3    1    3    3  502    0 -0.76554665618E+03  0.30480003310E+03  0.16338193443E+04  0.18298443658E+04  0.10100000352E+00 0.  1.
       -3    1    3    3    0  502  0.76554665618E+03 -0.30480003310E+03 -0.18594854683E+04  0.20338758467E+04  0.10100000352E+00 0. -1.
</event>
<event>
 5   0  0.1187925E-07  0.3257348E+04  0.7818609E-02  0.8173834E-01
        1   -1    0    0  501    0  0.00000000000E+00  0.00000000000E+00  0.21200199835E+04  0.21200199835E+04  0.50400001928E-02 0. -1.
       -1   -1    0    0    0  501  0.00000000000E+00  0.00000000000E+00 -0.12512050285E+04  0.12512050285E+04  0.50400001928E-02 0.  1.
    10030    2    1    2    0    0  0.00000000000E+00  0.00000000000E+00  0.86881495492E+03  0.33712250120E+04  0.32573484087E+04 0.  0.
        5    1    3    3  502    0  0.28148190422E+02  0.96044273515E+03  0.17954151762E+04  0.20363644844E+04  0.46999998093E+01 0. -1.
       -5    1    3    3    0  502 -0.28148190422E+02 -0.96044273515E+03 -0.92660022132E+03  0.13348605276E+04  0.46999998093E+01 0.  1.
</event>
<event>
 5   0  0.3832389E-07  0.3886278E+04  0.7818609E-02  0.8027889E-01
       -2   -1    0    0    0  501  0.00000000000E+00  0.00000000000E+00  0.29482813145E+04  0.29482813145E+04  0.25500000920E-02 0.  1.
        2   -1    0    0  501    0  0.00000000000E+00  0.00000000000E+00 -0.12806745934E+04  0.12806745934E+04  0.25500000920E-02 0. -1.
    10030    2    1    2    0    0  0.00000000000E+00  0.00000000000E+00  0.16676067211E+04  0.42289559079E+04  0.38862778972E+04 0.  0.
        5    1    3    3  502    0  0.11149958823E+04 -0.82806108555E+03  0.23126290503E+04  0.26976241757E+04  0.46999998093E+01 0.  1.
       -5    1    3    3    0  502 -0.11149958823E+04  0.82806108555E+03 -0.64502232917E+03  0.15313317322E+04  0.46999998093E+01 0. -1.
</event>
<event>
 5   0  0.3610483E-07  0.3013682E+04  0.7818609E-02  0.8239835E-01
        2   -1    0    0  501    0  0.00000000000E+00  0.00000000000E+00  0.15850335632E+04  0.15850335632E+04  0.25500000920E-02 0.  1.
       -2   -1    0    0    0  501  0.00000000000E+00  0.00000000000E+00 -0.14325060984E+04  0.14325060984E+04  0.25500000920E-02 0. -1.
    10030    2    1    2    0    0  0.00000000000E+00  0.00000000000E+00  0.15252746476E+03  0.30175396615E+04  0.30136822960E+04 0.  0.
        4    1    3    3  502    0 -0.42018308048E+03  0.39922414824E+03  0.14689555633E+04  0.15791661728E+04  0.12699999809E+01 0.  1.
       -4    1    3    3    0  502  0.42018308048E+03 -0.39922414824E+03 -0.13164280985E+04  0.14383734887E+04  0.12699999809E+01 0. -1.
</event>
<event>
 5   0  0.3665303E-07  0.3801215E+04  0.7818609E-02  0.8045894E-01
       -2   -1    0    0    0  501  0.00000000000E+00  0.00000000000E+00  0.18668034140E+04  0.18668034140E+04  0.25500000920E-02 0. -1.
        2   -1    0    0  501    0  0.00000000000E+00  0.00000000000E+00 -0.19350235734E+04  0.19350235734E+04  0.25500000920E-02 0.  1.
    10030    2    1    2    0    0  0.00000000000E+00  0.00000000000E+00 -0.68220159409E+02  0.38018269873E+04  0.38012148652E+04 0.  0.
        2    1    3    3  502    0 -0.15351306571E+04 -0.60019928287E+03 -0.98054112051E+03  0.19178962961E+04  0.25500000920E-02 0.  1.
       -2    1    3    3    0  502  0.15351306571E+04  0.60019928287E+03  0.91232096110E+03  0.18839306913E+04  0.25500000920E-02 0. -1.
</event>
<event>
 5   0  0.1187925E-07  0.3904897E+04  0.7818609E-02  0.8024011E-01
       -1   -1    0    0    0  501  0.00000000000E+00  0.00000000000E+00  0.17078417586E+04  0.17078417586E+04  0.50400001928E-02 0. -1.
        1   -1    0    0  501    0  0.00000000000E+00  0.00000000000E+00 -0.22320893823E+04  0.22320893823E+04  0.50400001928E-02 0.  1.
    10030    2    1    2    0    0  0.00000000000E+00  0.00000000000E+00 -0.52424762367E+03  0.39399311409E+04  0.39048971592E+04 0.  0.
        2    1    3    3  502    0 -0.11772820335E+04 -0.96603553837E+02 -0.18306548525E+04  0.21786744644E+04  0.25500000920E-02 0.  1.
       -2    1    3    3    0  502  0.11772820335E+04  0.96603553837E+02  0.13064072288E+04  0.17612566765E+04  0.25500000920E-02 0. -1.
</event>
<event>
 5   0  0.3665303E-07  0.4078340E+04  0.7818609E-02  0.7988927E-01
        2   -1    0    0  501    0  0.00000000000E+00  0.00000000000E+00  0.27500434398E+04  0.27500434398E+04  0.25500000920E-02 0.  1.
       -2   -1    0    0    0  501  0.00000000000E+00  0.00000000000E+00 -0.15120539245E+04  0.15120539245E+04  0.25500000920E-02 0. -1.
    10030    2    1    2    0    0  0.00000000000E+00  0.00000000000E+00  0.12379895153E+04  0.42620973643E+04  0.40783398464E+04 0.  0.
        2    1    3    3  502    0 -0.19863230531E+04 -0.15114872651E+02  0.11007492830E+04  0.22709814430E+04  0.25500000920E-02 0.  1.
       -2    1    3    3    0  502  0.19863230531E+04  0.15114872651E+02  0.13724023227E+03  0.19911159213E+04  0.25500000920E-02 0. -1.
</event>
<event>
 5   0  0.3832389E-07  0.2935351E+04  0.7818609E-02  0.8262437E-01
        2   -1    0    0  501    0  0.00000000000E+00  0.00000000000E+00  0.16203443678E+04  0.16203443678E+04  0.25500000920E-02 0.  1.
       -2   -1    0    0    0  501  0.00000000000E+00  0.00000000000E+00 -0.13293910564E+04  0.13293910564E+04  0.25500000920E-02 0. -1.
    10030    2    1    2    0    0  0.00000000000E+00  0.00000000000E+00  0.29095331138E+03  0.29497354242E+04  0.29353509574E+04 0.  0.
        5    1    3    3  502    0  0.59736863819E+03 -0.11747249087E+04 -0.50361537367E+03  0.14108431647E+04  0.46999998093E+01 0. -1.
       -5    1    3    3    0  502 -0.59736863819E+03  0.11747249087E+04  0.79456868505E+03  0.15388922594E+04  0.46999998093E+01 0.  1.
</event>
<event>
 5   0  0.3610483E-07  0.3867214E+04  0.7818609E-02  0.8031883E-01
        2   -1    0    0  501    0  0.00000000000E+00  0.00000000000E+00  0.17106807526E+04  0.17106807526E+04  0.25500000920E-02 0. -1.
       -2   -1    0    0    0  501  0.00000000000E+00  0.00000000000E+00 -0.21855840015E+04  0.21855840015E+04  0.25500000920E-02 0.  1.
    10030    2    1    2    0    0  0.00000000000E+00  0.00000000000E+00 -0.47490324895E+03  0.38962647541E+04  0.38672142349E+04 0.  0.
        4    1    3    3  502    0 -0.15315933661E+04 -0.20695903248E+03  0.93326890723E+03  0.18054369959E+04  0.12699999809E+01 0. -1.
       -4    1    3    3    0  502  0.15315933661E+04  0.20695903248E+03 -0.14081721562E+04  0.20908277582E+04  0.12699999809E+01 0.  1.
</event>
<event>
 5   0  0.3665303E-07  0.3878641E+04  0.7818609E-02  0.8029486E-01
       -2   -1    0    0    0  501  0.00000000000E+00  0.00000000000E+00  0.17386425668E+04  0.17386425668E+04  0.25500000920E-02 0.  1.
        2   -1    0    0  501    0  0.00000000000E+00  0.00000000000E+00 -0.21631611646E+04  0.21631611646E+04  0.25500000920E-02 0. -1.
    10030    2    1    2    0    0  0.00000000000E+00  0.00000000000E+00 -0.42451859779E+03  0.39018037314E+04  0.38786410402E+04 0.  0.
        2    1    3    3  502    0  0.11790149709E+04 -0.14793936518E+04  0.21723555387E+03  0.19041725668E+04  0.25500000920E-02 0.  1.
       -2    1    3    3    0  502 -0.11790149709E+04  0.14793936518E+04 -0.64175415167E+03  0.19976311646E+04  0.25500000920E-02 0. -1.
</event>
<event>
 5   0  0.3832389E-07  0.3698023E+04  0.7818609E-02  0.8068400E-01
       -2   -1    0    0    0  501  0.00000000000E+00  0.00000000000E+00  0.18402242242E+04  0.18402242242E+04  0.25500000920E-02 0. -1.
        2   -1    0    0  501    0  0.00000000000E+00  0.00000000000E+00 -0.18578403833E+04  0.18578403833E+04  0.25500000920E-02 0.  1.
    10030    2    1    2    0    0  0.00000000000E+00  0.00000000000E+00 -0.17616159051E+02  0.36980646075E+04  0.36980226490E+04 0.  0.
        5    1    3    3  502    0 -0.55522955036E+03  0.14461140577E+04 -0.10184209742E+04  0.18538417117E+04  0.46999998093E+01 0.  1.
       -5    1    3    3    0  502  0.55522955036E+03 -0.14461140577E+04  0.10008048151E+04  0.18442228958E+04  0.46999998093E+01 0. -1.
</event>
<event>
 5   0  0.1187925E-07  0.3871118E+04  0.7818609E-02  0.8031063E-01
        1   -1    0    0  501    0  0.00000000000E+00  0.00000000000E+00  0.23839660881E+04  0.23839660881E+04  0.50400001928E-02 0.  1.
       -1   -1    0    0    0  501  0.00000000000E+00  0.00000000000E+00 -0.15714936967E+04  0.15714936967E+04  0.50400001928E-02 0. -1.
    10030    2    1    2    0    0  0.00000000000E+00  0.00000000000E+00  0.81247239139E+03  0.39554597848E+04  0.38711175031E+04 0.  0.
        1    1    3    3  502    0  0.85627996955E+03  0.67502695787E+03 -0.12278289479E+04  0.16420842565E+04  0.50400001928E-02 0. -1.
       -1    1    3    3    0  502 -0.85627996955E+03 -0.67502695787E+03  0.20403013393E+04  0.23133755283E+04  0.50400001928E-02 0.  1.
</event>
<event>
 5   0  0.3810833E-07  0.3954984E+04  0.7818609E-02  0.8013690E-01
        2   -1    0    0  501    0  0.00000000000E+00  0.00000000000E+00  0.15711700704E+04  0.15711700704E+04  0.25500000920E-02 0.  1.
       -2   -1    0    0    0  501  0.00000000000E+00  0.00000000000E+00 -0.24888933152E+04  0.24888933152E+04  0.25500000920E-02 0. -1.
    10030    2    1    2    0    0  0.00000000000E+00  0.00000000000E+00 -0.91772324474E+03  0.40600633856E+04  0.39549840380E+04 0.  0.
        3    1    3    3  502    0  0.11670951298E+02  0.16742725206E+04  0.62130638263E+03  0.17858741040E+04  0.10100000352E+00 0.  1.
       -3    1    3    3    0  502 -0.11670951298E+02 -0.16742725206E+04 -0.15390296274E+04  0.22741892816E+04  0.10100000352E+00 0. -1.
</event>
<event>
 5   0  0.1187925E-07  0.3883589E+04  0.7818609E-02  0.8028451E-01
        1   -1    0    0  501    0  0.00000000000E+00  0.00000000000E+00  0.34420082704E+04  0.34420082704E+04  0.50400001928E-02 0.  1.
       -1   -1    0    0    0  501  0.00000000000E+00  0.00000000000E+00 -0.10954551853E+04  0.10954551853E+04  0.50400001928E-02 0. -1.
    10030    2    1    2    0    0  0.00000000000E+00  0.00000000000E+00  0.23465530851E+04  0.45374634557E+04  0.38835889626E+04 0.  0.
        1    1    3    3  502    0 -0.52069359024E+03 -0.15059871221E+04 -0.12326878986E+03  0.15982222065E+04  0.50400001928E-02 0. -1.
       -1    1    3    3    0  502  0.52069359024E+03  0.15059871221E+04  0.24698218750E+04  0.29392412492E+04  0.50400001928E-02 0.  1.
</event>
<event>
 5   0  0.3665303E-07  0.3861892E+04  0.7818609E-02  0.8033002E-01
       -2   -1    0    0    0  501  0.00000000000E+00  0.00000000000E+00  0.17119467224E+04  0.17119467224E+04  0.25500000920E-02 0.  1.
        2   -1    0    0  501    0  0.00000000000E+00  0.00000000000E+00 -0.21779606680E+04  0.21779606680E+04  0.25500000920E-02 0. -1.
    10030    2    1    2    0    0  0.00000000000E+00  0.00000000000E+00 -0.46601394562E+03  0.38899073904E+04  0.38618920891E+04 0.  0.
        2    1    3    3  502    0 -0.12697058693E+04  0.12562915206E+04 -0.97190283257E+03  0.20334739967E+04  0.25500000920E-02 0. -1.
       -2    1    3    3    0  502  0.12697058693E+04 -0.12562915206E+04  0.50588888695E+03  0.18564333937E+04  0.25500000920E-02 0.  1.
</event>
<event>
 5   0  0.3832389E-07  0.3854027E+04  0.7818609E-02  0.8034659E-01
       -2   -1    0    0    0  501  0.00000000000E+00  0.00000000000E+00  0.21227284283E+04  0.21227284283E+04  0.25500000920E-02 0.  1.
        2   -1    0    0  501    0  0.00000000000E+00  0.00000000000E+00 -0.17493435122E+04  0.17493435122E+04  0.25500000920E-02 0. -1.
    10030    2    1    2    0    0  0.00000000000E+00  0.00000000000E+00  0.37338491608E+03  0.38720719406E+04  0.38540270909E+04 0.  0.
        5    1    3    3  502    0 -0.16135807863E+03  0.15639481553E+04  0.13060854279E+04  0.20439793289E+04  0.46999998093E+01 0. -1.
       -5    1    3    3    0  502  0.16135807863E+03 -0.15639481553E+04 -0.93270051179E+03  0.18280926117E+04  0.46999998093E+01 0.  1.
</event>
<event>
 5   0  0.1187925E-07  0.3861767E+04  0.7818609E-02  0.8033028E-01
       -1   -1    0    0    0  501  0.00000000000E+00  0.00000000000E+00  0.16194429212E+04  0.16194429212E+04  0.50400001928E-02 0.  1.
        1   -1    0    0  501    0  0.00000000000E+00  0.00000000000E+00 -0.23022185199E+04  0.23022185199E+04  0.50400001928E-02 0. -1.
    10030    2    1    2    0    0  0.00000000000E+00  0.00000000000E+00 -0.68277559864E+03  0.39216614411E+04  0.38617672044E+04 0.  0.
        3    1    3    3  502    0  0.90896453606E+03 -0.28629587400E+03 -0.20467575018E+04  0.22577418224E+04  0.10100000352E+00 0. -1.
       -3    1    3    3    0  502 -0.90896453606E+03  0.28629587400E+03  0.13639819032E+04  0.16639196187E+04  0.10100000352E+00 0.  1.
</event>
<event>
 5   0  0.1187925E-07  0.3950242E+04  0.7818609E-02  0.8014660E-01
        1   -1    0    0  501    0  0.00000000000E+00  0.00000000000E+00  0.21055804646E+04  0.21055804646E+04  0.50400001928E-02 0. -1.
       -1   -1    0    0    0  501  0.00000000000E+00  0.00000000000E+00 -0.18527448202E+04  0.18527448202E+04  0.50400001928E-02 0.  1.
    10030    2    1    2    0    0  0.00000000000E+00  0.00000000000E+00  0.25283564437E+03  0.39583252848E+04  0.39502421695E+04 0.  0.
        1    1    3    3  502    0  0.87211229079E+03 -0.21502544178E+03  0.18890759662E+04  0.20917513701E+04  0.50400001928E-02 0. -1.
       -1    1    3    3    0  502 -0.87211229079E+03  0.21502544178E+03 -0.16362403218E+04  0.18665739147E+04  0.50400001928E-02 0.  1.
</event>
<event>
 5   0  0.1187925E-07  0.3878086E+04  0.7818609E-02  0.8029602E-01
        1   -1    0    0  501    0  0.00000000000E+00  0.00000000000E+00  0.14941698568E+04  0.14941698568E+04  0.50400001928E-02 0.  1.
       -1   -1    0    0    0  501  0.00000000000E+00  0.00000000000E+00 -0.25163724397E+04  0.25163724397E+04  0.50400001928E-02 0. -1.
    10030    2    1    2    0    0  0.00000000000E+00  0.00000000000E+00 -0.10222025829E+04  0.40105422964E+04  0.38780860474E+04 0.  0.
        5    1    3    3  502    0 -0.13709694877E+02 -0.11033279316E+04 -0.21600339736E+04  0.24255492857E+04  0.46999998093E+01 0. -1.
       -5    1    3    3    0  502  0.13709694877E+02  0.11033279316E+04  0.11378313907E+04  0.15849930107E+04  0.46999998093E+01 0.  1.
</event>
<event>
 5   0  0.1187925E-07  0.3908273E+04  0.7818609E-02  0.8023311E-01
        1   -1    0    0  501    0  0.00000000000E+00  0.00000000000E+00  0.25409799573E+04  0.25409799573E+04  0.50400001928E-02 0.  1.
       -1   -1    0    0    0  501  0.00000000000E+00  0.00000000000E+00 -0.15028251259E+04  0.15028251259E+04  0.50400001928E-02 0. -1.
    10030    2    1    2    0    0  0.00000000000E+00  0.00000000000E+00  0.10381548314E+04  0.40438050832E+04  0.39082725209E+04 0.  0.
        3    1    3    3  502    0 -0.17619158353E+04  0.34146126988E+03 -0.28084695770E+03  0.18165401822E+04  0.10100000352E+00 0. -1.
       -3    1    3    3    0  502  0.17619158353E+04 -0.34146126988E+03  0.13190017892E+04  0.22272649011E+04  0.10100000352E+00 0.  1.
</event>
<event>
 5   0  0.3832389E-07  0.3860935E+04  0.7818609E-02  0.8033203E-01
       -2   -1    0    0    0  501  0.00000000000E+00  0.00000000000E+00  0.11581041586E+04  0.11581041586E+04  0.25500000920E-02 0.  1.
        2   -1    0    0  501    0  0.00000000000E+00  0.00000000000E+00 -0.32179354038E+04  0.32179354038E+04  0.25500000920E-02 0. -1.
    10030    2    1    2    0    0  0.00000000000E+00  0.00000000000E+00 -0.20598312452E+04  0.43760395624E+04  0.38609347952E+04 0.  0.
        5    1    3    3  502    0 -0.15325586471E+04 -0.11732969717E+04 -0.98872894763E+03  0.21686329363E+04  0.46999998093E+01 0.  1.
       -5    1    3    3    0  502  0.15325586471E+04  0.11732969717E+04 -0.10711022976E+04  0.22074066260E+04  0.46999998093E+01 0. -1.
</event>
<event>
 5   0  0.3832389E-07  0.3979782E+04  0.7818609E-02  0.8008638E-01
       -2   -1    0    0    0  501  0.00000000000E+00  0.00000000000E+00  0.24912926520E+04  0.24912926520E+04  0.25500000920E-02 0. -1.
        2   -1    0    0  501    0  0.00000000000E+00  0.00000000000E+00 -0.15894021425E+04  0.15894021425E+04  0.25500000920E-02 0.  1.
    10030    2    1    2    0    0  0.00000000000E+00  0.00000000000E+00  0.90189050952E+03  0.40806947946E+04  0.39797818427E+04 0.  0.
        5    1    3    3  502    0  0.56937480072E+03 -0.11521301413E+04 -0.11068044121E+04  0.16960629772E+04  0.46999998093E+01 0.  1.
       -5    1    3    3    0  502 -0.56937480072E+03  0.11521301413E+04  0.20086949216E+04  0.23846318173E+04  0.46999998093E+01 0. -1.
</event>
<event>
 5   0  0.1187925E-07  0.3863961E+04  0.7818609E-02  0.8032567E-01
        1   -1    0    0  501    0  0.00000000000E+00  0.00000000000E+00  0.16949951630E+04  0.16949951630E+04  0.50400001928E-02 0. -1.
       -1   -1    0    0    0  501  0.00000000000E+00  0.00000000000E+00 -0.22020996402E+04  0.22020996402E+04  0.50400001928E-02 0.  1.
    10030    2    1    2    0    0  0.00000000000E+00  0.00000000000E+00 -0.50710447727E+03  0.38970948032E+04  0.38639607858E+04 0.  0.
        1    1    3    3  502    0 -0.11195530245E+03 -0.16905061771E+04 -0.11900636080E+04  0.20704097458E+04  0.50400001928E-02 0.  1.
       -1    1    3    3    0  502  0.11195530245E+03  0.16905061771E+04  0.68295913074E+03  0.18266850574E+04  0.50400001928E-02 0. -1.
</event>
<event>
 5   0  0.1187925E-07  0.3875277E+04  0.7818609E-02  0.8030191E-01
        3   -1    0    0  501    0  0.00000000000E+00  0.00000000000E+00  0.16701757943E+04  0.16701757974E+04  0.10100000352E+00 0. -1.
       -3   -1    0    0    0  501  0.00000000000E+00  0.00000000000E+00 -0.22479326199E+04  0.22479326222E+04  0.10100000352E+00 0.  1.
    10030    2    1    2    0    0  0.00000000000E+00  0.00000000000E+00 -0.57775682561E+03  0.39181084196E+04  0.38752768466E+04 0.  0.
        2    1    3    3  502    0  0.16050787640E+04  0.10223217003E+04  0.79876104672E+02  0.19046783690E+04  0.25500000920E-02 0.  1.
       -2    1    3    3    0  502 -0.16050787640E+04 -0.10223217003E+04 -0.65763293028E+03  0.20134300505E+04  0.25500000920E-02 0. -1.
</event>
<event>
 5   0  0.3810833E-07  0.3433333E+04  0.7818609E-02  0.8129774E-01
       -2   -1    0    0    0  501  0.00000000000E+00  0.00000000000E+00  0.21134260733E+04  0.21134260733E+04  0.25500000920E-02 0. -1.
        2   -1    0    0  501    0  0.00000000000E+00  0.00000000000E+00 -0.13943914341E+04  0.13943914341E+04  0.25500000920E-02 0.  1.
    10030    2    1    2    0    0  0.00000000000E+00  0.00000000000E+00  0.71903463917E+03  0.35078175074E+04  0.34333326161E+04 0.  0.
        3    1    3    3  502    0 -0.82756960289E+03 -0.11925834982E+04  0.12958135527E+04  0.19458313445E+04  0.10100000352E+00 0.  1.
       -3    1    3    3    0  502  0.82756960289E+03  0.11925834982E+04 -0.57677891355E+03  0.15619861629E+04  0.10100000352E+00 0. -1.
</event>
<event>
 5   0  0.3832389E-07  0.3883134E+04  0.7818609E-02  0.8028546E-01
        2   -1    0    0  501    0  0.00000000000E+00  0.00000000000E+00  0.20540127749E+04  0.20540127749E+04  0.25500000920E-02 0.  1.
       -2   -1    0    0    0  501  0.00000000000E+00  0.00000000000E+00 -0.18352772891E+04  0.18352772891E+04  0.25500000920E-02 0. -1.
    10030    2    1    2    0    0  0.00000000000E+00  0.00000000000E+00  0.21873548576E+03  0.38892900640E+04  0.38831342997E+04 0.  0.
        5    1    3    3  502    0  0.88333341301E+03  0.12336455945E+04  0.13226929082E+04  0.20128830048E+04  0.46999998093E+01 0.  1.
       -5    1    3    3    0  502 -0.88333341301E+03 -0.12336455945E+04 -0.11039574224E+04  0.18764070592E+04  0.46999998093E+01 0. -1.
</event>
<event>
 5   0  0.3610483E-07  0.3897521E+04  0.7818609E-02  0.8025545E-01
       -2   -1    0    0    0  501  0.00000000000E+00  0.00000000000E+00  0.23045661867E+04  0.23045661867E+04  0.25500000920E-02 0. -1.
        2   -1    0    0  501    0  0.00000000000E+00  0.00000000000E+00 -0.16478882163E+04  0.16478882163E+04  0.25500000920E-02 0.  1.
    10030    2    1    2    0    0  0.00000000000E+00  0.00000000000E+00  0.65667797043E+03  0.39524544031E+04  0.38975209879E+04 0.  0.
        4    1    3    3  502    0  0.96265572222E+03  0.15809292105E+04 -0.28986171009E+03  0.18735166484E+04  0.12699999809E+01 0.  1.
       -4    1    3    3    0  502 -0.96265572222E+03 -0.15809292105E+04  0.94653968052E+03  0.20789377546E+04  0.12699999809E+01 0. -1.
</event>
<event>
 5   0  0.1187925E-07  0.3837704E+04  0.7818609E-02  0.8038112E-01
       -1   -1    0    0    0  501  0.00000000000E+00  0.00000000000E+00  0.17196125810E+04  0.17196125810E+04  0.50400001928E-02 0. -1.
        1   -1    0    0  501    0  0.00000000000E+00  0.00000000000E+00 -0.21411756542E+04  0.21411756542E+04  0.50400001928E-02 0.  1.
    10030    2    1    2    0    0  0.00000000000E+00  0.00000000000E+00 -0.42156307323E+03  0.38607882352E+04  0.38377037891E+04 0.  0.
        3    1    3    3  502    0 -0.10154665728E+04 -0.10154568220E+03  0.14239571157E+04  0.17518954774E+04  0.10100000352E+00 0. -1.
       -3    1    3    3    0  502  0.10154665728E+04  0.10154568220E+03 -0.18455201889E+04  0.21088927578E+04  0.10100000352E+00 0.  1.
</event>
<event>
 5   0  0.1187925E-07  0.3866633E+04  0.7818609E-02  0.8032005E-01
       -1   -1    0    0    0  501  0.00000000000E+00  0.00000000000E+00  0.20182957196E+04  0.20182957196E+04  0.50400001928E-02 0.  1.
        1   -1    0    0  501    0  0.00000000000E+00  0.00000000000E+00 -0.18519154260E+04  0.18519154260E+04  0.50400001928E-02 0. -1.
    10030    2    1    2    0    0  0.00000000000E+00  0.00000000000E+00  0.16638029361E+03  0.38702111456E+04  0.38666331491E+04 0.  0.
        4    1    3    3  502    0  0.15560089401E+04 -0.62136610087E+03 -0.88230169624E+03  0.18935990993E+04  0.12699999809E+01 0. -1.
       -4    1    3    3    0  502 -0.15560089401E+04  0.62136610087E+03  0.10486819899E+04  0.19766120463E+04  0.12699999809E+01 0.  1.
</event>
<event>
 5   0  0.1187925E-07  0.3573008E+04  0.7818609E-02  0.8096703E-01
        1   -1    0    0  501    0  0.00000000000E+00  0.00000000000E+00  0.18310144194E+04  0.18310144194E+04  0.50400001928E-02 0. -1.
       -1   -1    0    0    0  501  0.00000000000E+00  0.00000000000E+00 -0.17430756601E+04  0.17430756601E+04  0.50400001928E-02 0.  1.
    10030    2    1    2    0    0  0.00000000000E+00  0.00000000000E+00  0.87938759343E+02  0.35740900795E+04  0.35730080704E+04 0.  0.
        4    1    3    3  502    0  0.12526414697E+04 -0.11383253641E+04  0.61571903352E+03  0.18011126637E+04  0.12699999809E+01 0. -1.
       -4    1    3    3    0  502 -0.12526414697E+04  0.11383253641E+04 -0.52778027418E+03  0.17729774158E+04  0.12699999809E+01 0.  1.
</event>
<event>
 5   0  0.1187925E-07  0.3836088E+04  0.7818609E-02  0.8038455E-01
       -1   -1    0    0    0  501  0.00000000000E+00  0.00000000000E+00  0.17925225277E+04  0.17925225277E+04  0.50400001928E-02 0.  1.
        1   -1    0    0  501    0  0.00000000000E+00  0.00000000000E+00 -0.20523547302E+04  0.20523547302E+04  0.50400001928E-02 0. -1.
    10030    2    1    2    0    0  0.00000000000E+00  0.00000000000E+00 -0.25983220254E+03  0.38448772579E+04  0.38360876365E+04 0.  0.
        4    1    3    3  502    0 -0.42177348110E+03 -0.27871513402E+03  0.17245436927E+04  0.17971164560E+04  0.12699999809E+01 0.  1.
       -4    1    3    3    0  502  0.42177348110E+03  0.27871513402E+03 -0.19843758953E+04  0.20477608019E+04  0.12699999809E+01 0. -1.
</event>
<event>
 5   0  0.1187925E-07  0.3889567E+04  0.7818609E-02  0.8027203E-01
       -1   -1    0    0    0  501  0.00000000000E+00  0.00000000000E+00  0.22162708023E+04  0.22162708023E+04  0.50400001928E-02 0. -1.
        1   -1    0    0  501    0  0.00000000000E+00  0.00000000000E+00 -0.17065529011E+04  0.17065529011E+04  0.50400001928E-02 0.  1.
    10030    2    1    2    0    0  0.00000000000E+00  0.00000000000E+00  0.50971790129E+03  0.39228237034E+04  0.38895672599E+04 0.  0.
        1    1    3    3  502    0  0.76072839295E+03  0.65163742734E+03  0.19360985673E+04  0.21798662085E+04  0.50400001928E-02 0. -1.
       -1    1    3    3    0  502 -0.76072839295E+03 -0.65163742734E+03 -0.14263806660E+04  0.17429574949E+04  0.50400001928E-02 0.  1.
</event>
<event>
 5   0  0.1187925E-07  0.3828407E+04  0.7818609E-02  0.8040086E-01
       -1   -1    0    0    0  501  0.00000000000E+00  0.00000000000E+00  0.18079697180E+04  0.18079697180E+04  0.50400001928E-02 0.  1.
        1   -1    0    0  501    0  0.00000000000E+00  0.00000000000E+00 -0.20266789401E+04  0.20266789401E+04  0.50400001928E-02 0. -1.
    10030    2    1    2    0    0  0.00000000000E+00  0.00000000000E+00 -0.21870922212E+03  0.38346486581E+04  0.38284065363E+04 0.  0.
        5    1    3    3  502    0 -0.17557485319E+04 -0.17605273588E+03  0.63381510056E+03  0.18749376376E+04  0.46999998093E+01 0.  1.
       -5    1    3    3    0  502  0.17557485319E+04  0.17605273588E+03 -0.85252432268E+03  0.19597110205E+04  0.46999998093E+01 0. -1.
</event>
<event>
 5   0  0.3610483E-07  0.3947476E+04  0.7818609E-02  0.8015227E-01
        2   -1    0    0  501    0  0.00000000000E+00  0.00000000000E+00  0.12605784571E+04  0.12605784571E+04  0.25500000920E-02 0.  1.
       -2   -1    0    0    0  501  0.00000000000E+00  0.00000000000E+00 -0.30903604131E+04  0.30903604131E+04  0.25500000920E-02 0. -1.
    10030    2    1    2    0    0  0.00000000000E+00  0.00000000000E+00 -0.18297819560E+04  0.43509388701E+04  0.39474760348E+04 0.  0.
        4    1    3    3  502    0 -0.13354139285E+03 -0.17736327852E+04  0.28146567176E+02  0.17788761628E+04  0.12699999809E+01 0.  1.
       -4    1    3    3    0  502  0.13354139285E+03  0.17736327852E+04 -0.18579285232E+04  0.25720627073E+04  0.12699999809E+01 0. -1.
</event>
<event>
 5   0  0.1187925E-07  0.3776788E+04  0.7818609E-02  0.8051155E-01
        1   -1    0    0  501    0  0.00000000000E+00  0.00000000000E+00  0.17622208350E+04  0.17622208350E+04  0.50400001928E-02 0.  1.
       -1   -1    0    0    0  501  0.00000000000E+00  0.00000000000E+00 -0.20236006417E+04  0.20236006417E+04  0.50400001928E-02 0. -1.
    10030    2    1    2    0    0  0.00000000000E+00  0.00000000000E+00 -0.26137980667E+03  0.37858214768E+04  0.37767876364E+04 0.  0.
        5    1    3    3  502    0 -0.61126088560E+03 -0.57392170352E+03  0.15653925430E+04  0.17758102082E+04  0.46999998093E+01 0.  1.
       -5    1    3    3    0  502  0.61126088560E+03  0.57392170352E+03 -0.18267723497E+04  0.20100112685E+04  0.46999998093E+01 0. -1.
</event>
<event>
 5   0  0.3610483E-07  0.3895185E+04  0.7818609E-02  0.8026031E-01
       -2   -1    0    0    0  501  0.00000000000E+00  0.00000000000E+00  0.18174710455E+04  0.18174710455E+04  0.25500000920E-02 0.  1.
        2   -1    0    0  501    0  0.00000000000E+00  0.00000000000E+00 -0.20870303894E+04  0.20870303894E+04  0.25500000920E-02 0. -1.
    10030    2    1    2    0    0  0.00000000000E+00  0.00000000000E+00 -0.26955934391E+03  0.39045014350E+04  0.38951853891E+04 0.  0.
        4    1    3    3  502    0  0.12507976954E+04 -0.11453571301E+04 -0.10945548476E+04  0.20185117680E+04  0.12699999809E+01 0. -1.
       -4    1    3    3    0  502 -0.12507976954E+04  0.11453571301E+04  0.82499550367E+03  0.18859896670E+04  0.12699999809E+01 0.  1.
</event>
<event>
 5   0  0.1187925E-07  0.3361291E+04  0.7818609E-02  0.8147473E-01
       -1   -1    0    0    0  501  0.00000000000E+00  0.00000000000E+00  0.12998550853E+04  0.12998550853E+04  0.50400001928E-02 0.  1.
        1   -1    0    0  501    0  0.00000000000E+00  0.00000000000E+00 -0.21729871977E+04  0.21729871977E+04  0.50400001928E-02 0. -1.
    10030    2    1    2    0    0  0.00000000000E+00  0.00000000000E+00 -0.87313211240E+03  0.34728422830E+04  0.33612905017E+04 0.  0.
        1    1    3    3  502    0  0.15647145564E+03 -0.55996843528E+03 -0.20657684286E+04  0.21460305602E+04  0.50400001928E-02 0. -1.
       -1    1    3    3    0  502 -0.15647145564E+03  0.55996843528E+03  0.11926363162E+04  0.13268117227E+04  0.50400001928E-02 0.  1.
</event>
<event>
 5   0  0.3680814E-07  0.3852812E+04  0.7818609E-02  0.8034916E-01
       -2   -1    0    0    0  501  0.00000000000E+00  0.00000000000E+00  0.23678612150E+04  0.23678612150E+04  0.25500000920E-02 0.  1.
        2   -1    0    0  501    0  0.00000000000E+00  0.00000000000E+00 -0.15672544339E+04  0.15672544339E+04  0.25500000920E-02 0. -1.
    10030    2    1    2    0    0  0.00000000000E+00  0.00000000000E+00  0.80060678110E+03  0.39351156489E+04  0.38528124731E+04 0.  0.
        1    1    3    3  502    0 -0.13831345901E+04 -0.65160291926E+03  0.15972563861E+04  0.22110801934E+04  0.50400001928E-02 0.  1.
       -1    1    3    3    0  502  0.13831345901E+04  0.65160291926E+03 -0.79664960500E+03  0.17240354555E+04  0.50400001928E-02 0. -1.
</event>
<event>
 5   0  0.1187925E-07  0.3993894E+04  0.7818609E-02  0.8005779E-01
       -1   -1    0    0    0  501  0.00000000000E+00  0.00000000000E+00  0.16600773923E+04  0.16600773923E+04  0.50400001928E-02 0. -1.
        1   -1    0    0  501    0  0.00000000000E+00  0.00000000000E+00 -0.24021760671E+04  0.24021760671E+04  0.50400001928E-02 0.  1.
    10030    2    1    2    0    0  0.00000000000E+00  0.00000000000E+00 -0.74209867480E+03  0.40622534594E+04  0.39938944309E+04 0.  0.
        3    1    3    3  502    0 -0.11556229999E+04  0.12247615849E+04 -0.14628713446E+04  0.22305824438E+04  0.10100000352E+00 0.  1.
       -3    1    3    3    0  502  0.11556229999E+04 -0.12247615849E+04  0.72077266981E+03  0.18316710156E+04  0.10100000352E+00 0. -1.
</event>
<event>
 5   0  0.3665303E-07  0.3862266E+04  0.7818609E-02  0.8032923E-01
       -2   -1    0    0    0  501  0.00000000000E+00  0.00000000000E+00  0.11514710969E+04  0.11514710969E+04  0.25500000920E-02 0.  1.
        2   -1    0    0  501    0  0.00000000000E+00  0.00000000000E+00 -0.32387051017E+04  0.32387051017E+04  0.25500000920E-02 0. -1.
    10030    2    1    2    0    0  0.00000000000E+00  0.00000000000E+00 -0.20872340047E+04  0.43901761986E+04  0.38622663378E+04 0.  0.
        2    1    3    3  502    0  0.16227841480E+04 -0.81260189163E+03 -0.17937639075E+04  0.25517325842E+04  0.25500000920E-02 0. -1.
       -2    1    3    3    0  502 -0.16227841480E+04  0.81260189163E+03 -0.29347009721E+03  0.18384436144E+04  0.25500000920E-02 0.  1.
</event>
<event>
 5   0  0.1187925E-07  0.3939571E+04  0.7818609E-02  0.8016849E-01
        1   -1    0    0  501    0  0.00000000000E+00  0.00000000000E+00  0.18327581220E+04  0.18327581220E+04  0.50400001928E-02 0.  1.
       -1   -1    0    0    0  501  0.00000000000E+00  0.00000000000E+00 -0.21170583340E+04  0.21170583340E+04  0.50400001928E-02 0. -1.
    10030    2    1    2    0    0  0.00000000000E+00  0.00000000000E+00 -0.28430021194E+03  0.39498164560E+04  0.39395714774E+04 0.  0.
        1    1    3    3  502    0  0.90162580772E+03  0.45369344596E+03 -0.18380835095E+04  0.20969782612E+04  0.50400001928E-02 0. -1.
       -1    1    3    3    0  502 -0.90162580772E+03 -0.45369344596E+03  0.15537832976E+04  0.18528381948E+04  0.50400001928E-02 0.  1.
</event>
<event>
 5   0  0.1187925E-07  0.3899289E+04  0.7818609E-02  0.8025177E-01
        1   -1    0    0  501    0  0.00000000000E+00  0.00000000000E+00  0.10772428584E+04  0.10772428584E+04  0.50400001928E-02 0.  1.
       -1   -1    0    0    0  501  0.00000000000E+00  0.00000000000E+00 -0.35285585155E+04  0.35285585155E+04  0.50400001928E-02 0. -1.
    10030    2    1    2    0    0  0.00000000000E+00  0.00000000000E+00 -0.24513156571E+04  0.46058013739E+04  0.38992894026E+04 0.  0.
        3    1    3    3  502    0  0.72767659207E+03  0.74929628957E+03  0.71888227617E+03  0.12679707762E+04  0.10100000352E+00 0.  1.
       -3    1    3    3    0  502 -0.72767659207E+03 -0.74929628957E+03 -0.31701979333E+04  0.33378305976E+04  0.10100000352E+00 0. -1.
</event>
<event>
 5   0  0.1187925E-07  0.3823065E+04  0.7818609E-02  0.8041223E-01
        1   -1    0    0  501    0  0.00000000000E+00  0.00000000000E+00  0.20291694907E+04  0.20291694907E+04  0.50400001928E-02 0.  1.
       -1   -1    0    0    0  501  0.00000000000E+00  0.00000000000E+00 -0.18007155733E+04  0.18007155734E+04  0.50400001928E-02 0. -1.
    10030    2    1    2    0    0  0.00000000000E+00  0.00000000000E+00  0.22845391733E+03  0.38298850640E+04  0.38230653161E+04 0.  0.
        1    1    3    3  502    0  0.16156669117E+04 -0.84965272948E+03 -0.45394238725E+03  0.18810510416E+04  0.50400001928E-02 0.  1.
       -1    1    3    3    0  502 -0.16156669117E+04  0.84965272948E+03  0.68239630458E+03  0.19488340224E+04  0.50400001928E-02 0. -1.
</event>
<event>
 5   0  0.3832389E-07  0.3876344E+04  0.7818609E-02  0.8029967E-01
        2   -1    0    0  501    0  0.00000000000E+00  0.00000000000E+00  0.29262759033E+04  0.29262759033E+04  0.25500000920E-02 0. -1.
       -2   -1    0    0    0  501  0.00000000000E+00  0.00000000000E+00 -0.12837170445E+04  0.12837170445E+04  0.25500000920E-02 0.  1.
    10030    2    1    2    0    0  0.00000000000E+00  0.00000000000E+00  0.16425588589E+04  0.42099929478E+04  0.38763437690E+04 0.  0.
        5    1    3    3  502    0  0.15354235096E+04 -0.95900153034E+03  0.69391302609E+02  0.18116419436E+04  0.46999998093E+01 0.  1.
       -5    1    3    3    0  502 -0.15354235096E+04  0.95900153034E+03  0.15731675562E+04  0.23983510041E+04  0.46999998093E+01 0. -1.
</event>
<event>
 5   0  0.3680814E-07  0.3900936E+04  0.7818609E-02  0.8024835E-01
        2   -1    0    0  501    0  0.00000000000E+00  0.00000000000E+00  0.21873620828E+04  0.21873620828E+04  0.25500000920E-02 0.  1.
       -2   -1    0    0    0  501  0.00000000000E+00  0.00000000000E+00 -0.17392296491E+04  0.17392296491E+04  0.25500000920E-02 0. -1.
    10030    2    1    2    0    0  0.00000000000E+00  0.00000000000E+00  0.44813243372E+03  0.39265917320E+04  0.39009357789E+04 0.  0.
        1    1    3    3  502    0 -0.12601038066E+04  0.12947549906E+04 -0.51566362561E+03  0.18788722851E+04  0.50400001928E-02 0. -1.
       -1    1    3    3    0  502  0.12601038066E+04 -0.12947549906E+04  0.96379605932E+03  0.20477194468E+04  0.50400001928E-02 0.  1.
</event>
<event>
 5   0  0.3680814E-07  0.3812099E+04  0.7818609E-02  0.8043563E-01
       -2   -1    0    0    0  501  0.00000000000E+00  0.00000000000E+00  0.19386894388E+04  0.19386894388E+04  0.25500000920E-02 0.  1.
        2   -1    0    0  501    0  0.00000000000E+00  0.00000000000E+00 -0.18739594772E+04  0.18739594772E+04  0.25500000920E-02 0. -1.
    10030    2    1    2    0    0  0.00000000000E+00  0.00000000000E+00  0.64729961639E+02  0.38126489160E+04  0.38120993938E+04 0.  0.
        1    1    3    3  502    0  0.14252358367E+04 -0.11330745014E+04  0.59624624597E+03  0.19158978579E+04  0.50400001928E-02 0.  1.
       -1    1    3    3    0  502 -0.14252358367E+04  0.11330745014E+04 -0.53151628433E+03  0.18967510581E+04  0.50400001928E-02 0. -1.
</event>
<event>
 5   0  0.1187925E-07  0.3890870E+04  0.7818609E-02  0.8026931E-01
        1   -1    0    0  501    0  0.00000000000E+00  0.00000000000E+00  0.18951032538E+04  0.18951032538E+04  0.50400001928E-02 0.  1.
       -1   -1    0    0    0  501  0.00000000000E+00  0.00000000000E+00 -0.19971034592E+04  0.19971034592E+04  0.50400001928E-02 0. -1.
    10030    2    1    2    0    0  0.00000000000E+00  0.00000000000E+00 -0.10200020541E+03  0.38922067131E+04  0.38908699613E+04 0.  0.
        2    1    3    3  502    0  0.12309269390E+04  0.58617341340E+03 -0.14392581644E+04  0.19824844169E+04  0.25500000920E-02 0. -1.
       -2    1    3    3    0  502 -0.12309269390E+04 -0.58617341340E+03  0.13372579590E+04  0.19097222962E+04  0.25500000920E-02 0.  1.
</event>
<event>
 5   0  0.1187925E-07  0.3931586E+04  0.7818609E-02  0.8018492E-01
       -1   -1    0    0    0  501  0.00000000000E+00  0.00000000000E+00  0.20262298068E+04  0.20262298068E+04  0.50400001928E-02 0. -1.
        1   -1    0    0  501    0  0.00000000000E+00  0.00000000000E+00 -0.19071590584E+04  0.19071590584E+04  0.50400001928E-02 0.  1.
    10030    2    1    2    0    0  0.00000000000E+00  0.00000000000E+00  0.11907074833E+03  0.39333888652E+04  0.39315862094E+04 0.  0.
        1    1    3    3  502    0 -0.82781159658E+03  0.14168911478E+04 -0.10233147922E+04  0.19339146124E+04  0.50400001928E-02 0.  1.
       -1    1    3    3    0  502  0.82781159658E+03 -0.14168911478E+04  0.11423855406E+04  0.19994742528E+04  0.50400001928E-02 0. -1.
</event>
<event>
 5   0  0.3832389E-07  0.3866388E+04  0.7818609E-02  0.8032056E-01
        2   -1    0    0  501    0  0.00000000000E+00  0.00000000000E+00  0.28298510401E+04  0.28298510401E+04  0.25500000920E-02 0.  1.
       -2   -1    0    0    0  501  0.00000000000E+00  0.00000000000E+00 -0.13206488601E+04  0.13206488601E+04  0.25500000920E-02 0. -1.
    10030    2    1    2    0    0  0.00000000000E+00  0.00000000000E+00  0.15092021800E+04  0.41504999002E+04  0.38663882632E+04 0.  0.
        5    1    3    3  502    0  0.19453078770E+03 -0.62974835064E+03  0.27055036214E+04  0.27846359094E+04  0.46999998093E+01 0.  1.
       -5    1    3    3    0  502 -0.19453078770E+03  0.62974835064E+03 -0.11963014414E+04  0.13658639908E+04  0.46999998093E+01 0. -1.
</event>
<event>
 5   0  0.1187925E-07  0.3922636E+04  0.7818609E-02  0.8020338E-01
        1   -1    0    0  501    0  0.00000000000E+00  0.00000000000E+00  0.22166244208E+04  0.22166244208E+04  0.50400001928E-02 0.  1.
       -1   -1    0    0    0  501  0.00000000000E+00  0.00000000000E+00 -0.17354170157E+04  0.17354170157E+04  0.50400001928E-02 0. -1.
    10030    2    1    2    0    0  0.00000000000E+00  0.00000000000E+00  0.48120740511E+03  0.39520414365E+04  0.39226357146E+04 0.  0.
        5    1    3    3  502    0 -0.72406746860E+03 -0.15578972195E+04 -0.71276062023E+03  0.18599374283E+04  0.46999998093E+01 0. -1.
       -5    1    3    3    0  502  0.72406746860E+03  0.15578972195E+04  0.11939680253E+04  0.20921040082E+04  0.46999998093E+01 0.  1.
</event>
<event>
 5   0  0.1187925E-07  0.3892395E+04  0.7818609E-02  0.8026613E-01
       -1   -1    0    0    0  501  0.00000000000E+00  0.00000000000E+00  0.17811922876E+04  0.17811922876E+04  0.50400001928E-02 0.  1.
        1   -1    0    0  501    0  0.00000000000E+00  0.00000000000E+00 -0.21264887660E+04  0.21264887660E+04  0.50400001928E-02 0. -1.
    10030    2    1    2    0    0  0.00000000000E+00  0.00000000000E+00 -0.34529647838E+03  0.39076810536E+04  0.38923953497E+04 0.  0.
        4    1    3    3  502    0 -0.69920797667E+03  0.64098622201E+03 -0.18787125319E+04  0.21045943841E+04  0.12699999809E+01 0. -1.
       -4    1    3    3    0  502  0.69920797667E+03 -0.64098622201E+03  0.15334160535E+04  0.18030866694E+04  0.12699999809E+01 0.  1.
</event>
<event>
 5   0  0.3810833E-07  0.4026195E+04  0.7818609E-02  0.7999283E-01
        2   -1    0    0  501    0  0.00000000000E+00  0.00000000000E+00  0.21351542585E+04  0.21351542585E+04  0.25500000920E-02 0. -1.
       -2   -1    0    0    0  501  0.00000000000E+00  0.00000000000E+00 -0.18980185996E+04  0.18980185996E+04  0.25500000920E-02 0.  1.
    10030    2    1    2    0    0  0.00000000000E+00  0.00000000000E+00  0.23713565889E+03  0.40331728581E+04  0.40261954725E+04 0.  0.
        3    1    3    3  502    0 -0.17608877722E+02 -0.19779380390E+04 -0.25626444445E+03  0.19945476766E+04  0.10100000352E+00 0.  1.
       -3    1    3    3    0  502  0.17608877722E+02  0.19779380390E+04  0.49340010334E+03  0.20386251815E+04  0.10100000352E+00 0. -1.
</event>
<event>
 5   0  0.1187925E-07  0.3802825E+04  0.7818609E-02  0.8045549E-01
       -3   -1    0    0    0  501  0.00000000000E+00  0.00000000000E+00  0.21659229630E+04  0.21659229653E+04  0.10100000352E+00 0.  1.
        3   -1    0    0  501    0  0.00000000000E+00  0.00000000000E+00 -0.16692053455E+04  0.16692053486E+04  0.10100000352E+00 0. -1.
    10030    2    1    2    0    0  0.00000000000E+00  0.00000000000E+00  0.49671761743E+03  0.38351283139E+04  0.38028253697E+04 0.  0.
        3    1    3    3  502    0 -0.33053025427E+03 -0.39704148954E+03 -0.15970697661E+04  0.16785481946E+04  0.10100000352E+00 0. -1.
       -3    1    3    3    0  502  0.33053025427E+03  0.39704148954E+03  0.20937873835E+04  0.21565801193E+04  0.10100000352E+00 0.  1.
</event>
<event>
 5   0  0.3832389E-07  0.3690667E+04  0.7818609E-02  0.8070033E-01
        2   -1    0    0  501    0  0.00000000000E+00  0.00000000000E+00  0.20473102982E+04  0.20473102982E+04  0.25500000920E-02 0.  1.
       -2   -1    0    0    0  501  0.00000000000E+00  0.00000000000E+00 -0.16632828720E+04  0.16632828720E+04  0.25500000920E-02 0. -1.
    10030    2    1    2    0    0  0.00000000000E+00  0.00000000000E+00  0.38402742625E+03  0.37105931702E+04  0.36906672311E+04 0.  0.
        5    1    3    3  502    0 -0.50018213237E+03 -0.10268239289E+04  0.16492127289E+04  0.20061092347E+04  0.46999998093E+01 0.  1.
       -5    1    3    3    0  502  0.50018213237E+03  0.10268239289E+04 -0.12651853026E+04  0.17044839355E+04  0.46999998093E+01 0. -1.
</event>
<event>
 5   0  0.3610483E-07  0.3861767E+04  0.7818609E-02  0.8033028E-01
       -2   -1    0    0    0  501  0.00000000000E+00  0.00000000000E+00  0.13997442375E+04  0.13997442375E+04  0.25500000920E-02 0.  1.
        2   -1    0    0  501    0  0.00000000000E+00  0.00000000000E+00 -0.26635658637E+04  0.26635658637E+04  0.25500000920E-02 0. -1.
    10030    2    1    2    0    0  0.00000000000E+00  0.00000000000E+00 -0.12638216263E+04  0.40633101012E+04  0.38617669370E+04 0.  0.
        4    1    3    3  502    0  0.19543009502E+03 -0.16607126121E+04 -0.16477777422E+04  0.23476227130E+04  0.12699999809E+01 0. -1.
       -4    1    3    3    0  502 -0.19543009502E+03  0.16607126121E+04  0.38395611594E+03  0.17156873882E+04  0.12699999809E+01 0.  1.
</event>
<event>
 5   0  0.3680814E-07  0.3884482E+04  0.7818609E-02  0.8028264E-01
       -2   -1    0    0    0  501  0.00000000000E+00  0.00000000000E+00  0.34506945926E+04  0.34506945926E+04  0.25500000920E-02 0. -1.
        2   -1    0    0  501    0  0.00000000000E+00  0.00000000000E+00 -0.10932001461E+04  0.10932001461E+04  0.25500000920E-02 0.  1.
    10030    2    1    2    0    0  0.00000000000E+00  0.00000000000E+00  0.23574944465E+04  0.45438947388E+04  0.38844818614E+04 0.  0.
        1    1    3    3  502    0 -0.49488561049E+03 -0.19417285295E-01 -0.10182109309E+04  0.11321065620E+04  0.50400001928E-02 0.  1.
       -1    1    3    3    0  502  0.49488561049E+03  0.19417285295E-01  0.33757053774E+04  0.34117881768E+04  0.50400001928E-02 0. -1.
</event>
<event>
 5   0  0.3680814E-07  0.3903147E+04  0.7818609E-02  0.8024375E-01
       -2   -1    0    0    0  501  0.00000000000E+00  0.00000000000E+00  0.26781310198E+04  0.26781310198E+04  0.25500000920E-02 0. -1.
        2   -1    0    0  501    0  0.00000000000E+00  0.00000000000E+00 -0.14221261218E+04  0.14221261218E+04  0.25500000920E-02 0.  1.
    10030    2    1    2    0    0  0.00000000000E+00  0.00000000000E+00  0.12560048980E+04  0.41002571416E+04  0.39031474893E+04 0.  0.
        1    1    3    3  502    0 -0.15985465430E+04 -0.10308079553E+04  0.16922845323E+03  0.19095953394E+04  0.50400001928E-02 0.  1.
       -1    1    3    3    0  502  0.15985465430E+04  0.10308079553E+04  0.10867764447E+04  0.21906618022E+04  0.50400001928E-02 0. -1.
</event>
<event>
 5   0  0.1187925E-07  0.2812732E+04  0.7818609E-02  0.8299327E-01
        1   -1    0    0  501    0  0.00000000000E+00  0.00000000000E+00  0.16504270781E+04  0.16504270781E+04  0.50400001928E-02 0. -1.
       -1   -1    0    0    0  501  0.00000000000E+00  0.00000000000E+00 -0.11983957294E+04  0.11983957295E+04  0.50400001928E-02 0.  1.
    10030    2    1    2    0    0  0.00000000000E+00  0.00000000000E+00  0.45203134865E+03  0.28488228076E+04  0.28127315991E+04 0.  0.
        2    1    3    3  502    0 -0.54547000631E+03 -0.10450185222E+04 -0.55080916703E+03  0.13011502519E+04  0.25500000920E-02 0.  1.
       -2    1    3    3    0  502  0.54547000631E+03  0.10450185222E+04  0.10028405157E+04  0.15476725556E+04  0.25500000920E-02 0. -1.
</event>
<event>
 5   0  0.3610483E-07  0.3002449E+04  0.7818609E-02  0.8243032E-01
        2   -1    0    0  501    0  0.00000000000E+00  0.00000000000E+00  0.20048194464E+04  0.20048194464E+04  0.25500000920E-02 0. -1.
       -2   -1    0    0    0  501  0.00000000000E+00  0.00000000000E+00 -0.11241285490E+04  0.11241285490E+04  0.25500000920E-02 0.  1.
    10030    2    1    2    0    0  0.00000000000E+00  0.00000000000E+00  0.88069089741E+03  0.31289479954E+04  0.30024488507E+04 0.  0.
        4    1    3    3  502    0  0.78978717189E+03  0.44534640144E+03 -0.80654967672E+03  0.12135160436E+04  0.12699999809E+01 0.  1.
       -4    1    3    3    0  502 -0.78978717189E+03 -0.44534640144E+03  0.16872405741E+04  0.19154319518E+04  0.12699999809E+01 0. -1.
</event>
<event>
 5   0  0.1187925E-07  0.2796121E+04  0.7818609E-02  0.8304474E-01
       -1   -1    0    0    0  501  0.00000000000E+00  0.00000000000E+00  0.29177231171E+04  0.29177231171E+04  0.50400001928E-02 0.  1.
        1   -1    0    0  501    0  0.00000000000E+00  0.00000000000E+00 -0.66989664569E+03  0.66989664570E+03  0.50400001928E-02 0. -1.
    10030    2    1    2    0    0  0.00000000000E+00  0.00000000000E+00  0.22478264714E+04  0.35876197628E+04  0.27961208337E+04 0.  0.
        5    1    3    3  502    0  0.72748546281E+02 -0.27923455399E+03  0.28790890287E+04  0.28935168934E+04  0.46999998093E+01 0.  1.
       -5    1    3    3    0  502 -0.72748546281E+02  0.27923455399E+03 -0.63126255728E+03  0.69410286943E+03  0.46999998093E+01 0. -1.
</event>
<event>
 5   0  0.1187925E-07  0.3921629E+04  0.7818609E-02  0.8020546E-01
        1   -1    0    0  501    0  0.00000000000E+00  0.00000000000E+00  0.19311354513E+04  0.19311354513E+04  0.50400001928E-02 0. -1.
       -1   -1    0    0    0  501  0.00000000000E+00  0.00000000000E+00 -0.19909493017E+04  0.19909493017E+04  0.50400001928E-02 0.  1.
    10030    2    1    2    0    0  0.00000000000E+00  0.00000000000E+00 -0.59813850402E+02  0.39220847529E+04  0.39216286301E+04 0.  0.
        3    1    3    3  502    0 -0.18060032641E+04  0.65124210125E+03 -0.42873733877E+03  0.19671247495E+04  0.10100000352E+00 0. -1.
       -3    1    3    3    0  502  0.18060032641E+04 -0.65124210125E+03  0.36892348837E+03  0.19549600034E+04  0.10100000352E+00 0.  1.
</event>
<event>
 5   0  0.3610483E-07  0.3896155E+04  0.7818609E-02  0.8025829E-01
        2   -1    0    0  501    0  0.00000000000E+00  0.00000000000E+00  0.26210213607E+04  0.26210213607E+04  0.25500000920E-02 0.  1.
       -2   -1    0    0    0  501  0.00000000000E+00  0.00000000000E+00 -0.14479114624E+04  0.14479114624E+04  0.25500000920E-02 0. -1.
    10030    2    1    2    0    0  0.00000000000E+00  0.00000000000E+00  0.11731098983E+04  0.40689328231E+04  0.38961554750E+04 0.  0.
        4    1    3    3  502    0  0.18963950433E+04 -0.38308367492E+03  0.34854953517E+03  0.19658473119E+04  0.12699999809E+01 0. -1.
       -4    1    3    3    0  502 -0.18963950433E+04  0.38308367492E+03  0.82456036309E+03  0.21030855112E+04  0.12699999809E+01 0.  1.
</event>
<event>
 5   0  0.1187925E-07  0.3796062E+04  0.7818609E-02  0.8047000E-01
       -1   -1    0    0    0  501  0.00000000000E+00  0.00000000000E+00  0.18974101870E+04  0.18974101870E+04  0.50400001928E-02 0.  1.
        1   -1    0    0  501    0  0.00000000000E+00  0.00000000000E+00 -0.18986522208E+04  0.18986522208E+04  0.50400001928E-02 0. -1.
    10030    2    1    2    0    0  0.00000000000E+00  0.00000000000E+00 -0.12420337901E+01  0.37960624077E+04  0.37960622046E+04 0.  0.
        1    1    3    3  502    0  0.10856875550E+04  0.97142767746E+03 -0.12172281942E+04  0.18984292656E+04  0.50400001928E-02 0. -1.
       -1    1    3    3    0  502 -0.10856875550E+04 -0.97142767746E+03  0.12159861604E+04  0.18976331421E+04  0.50400001928E-02 0.  1.
</event>
<event>
 5   0  0.3680814E-07  0.3331325E+04  0.7818609E-02  0.8154970E-01
        2   -1    0    0  501    0  0.00000000000E+00  0.00000000000E+00  0.20459959174E+04  0.20459959174E+04  0.25500000920E-02 0. -1.
       -2   -1    0    0    0  501  0.00000000000E+00  0.00000000000E+00 -0.13560296828E+04  0.13560296828E+04  0.25500000920E-02 0.  1.
    10030    2    1    2    0    0  0.00000000000E+00  0.00000000000E+00  0.68996623463E+03  0.34020256001E+04  0.33313247784E+04 0.  0.
        1    1    3    3  502    0 -0.27618817355E+02  0.59840730696E+03  0.19321809190E+04  0.20229130500E+04  0.50400001928E-02 0. -1.
       -1    1    3    3    0  502  0.27618817355E+02 -0.59840730696E+03 -0.12422146843E+04  0.13791125502E+04  0.50400001928E-02 0.  1.
</event>
<event>
 5   0  0.3810833E-07  0.3843998E+04  0.7818609E-02  0.8036778E-01
        2   -1    0    0  501    0  0.00000000000E+00  0.00000000000E+00  0.13496758319E+04  0.13496758319E+04  0.25500000920E-02 0.  1.
       -2   -1    0    0    0  501  0.00000000000E+00  0.00000000000E+00 -0.27370133292E+04  0.27370133292E+04  0.25500000920E-02 0. -1.
    10030    2    1    2    0    0  0.00000000000E+00  0.00000000000E+00 -0.13873374972E+04  0.40866891611E+04  0.38439983049E+04 0.  0.
        3    1    3    3  502    0  0.23531763734E+03  0.13637073446E+04 -0.21116727118E+04  0.25247244927E+04  0.10100000352E+00 0. -1.
       -3    1    3    3    0  502 -0.23531763734E+03 -0.13637073446E+04  0.72433521454E+03  0.15619646684E+04  0.10100000352E+00 0.  1.
</event>
<event>
 5   0  0.3810833E-07  0.3898710E+04  0.7818609E-02  0.8025297E-01
       -2   -1    0    0    0  501  0.00000000000E+00  0.00000000000E+00  0.21158201994E+04  0.21158201994E+04  0.25500000920E-02 0.  1.
        2   -1    0    0  501    0  0.00000000000E+00  0.00000000000E+00 -0.17959870187E+04  0.17959870187E+04  0.25500000920E-02 0. -1.
    10030    2    1    2    0    0  0.00000000000E+00  0.00000000000E+00  0.31983318075E+03  0.39118072181E+04  0.38987103570E+04 0.  0.
        3    1    3    3  502    0  0.10408108734E+04  0.11204782473E+04  0.13727894838E+04  0.20550692820E+04  0.10100000352E+00 0.  1.
       -3    1    3    3    0  502 -0.10408108734E+04 -0.11204782473E+04 -0.10529563030E+04  0.18567379361E+04  0.10100000352E+00 0. -1.
</event>
<event>
 5   0  0.1187925E-07  0.3874415E+04  0.7818609E-02  0.8030372E-01
       -1   -1    0    0    0  501  0.00000000000E+00  0.00000000000E+00  0.23148941924E+04  0.23148941924E+04  0.50400001928E-02 0.  1.
        1   -1    0    0  501    0  0.00000000000E+00  0.00000000000E+00 -0.16211423049E+04  0.16211423049E+04  0.50400001928E-02 0. -1.
    10030    2    1    2    0    0  0.00000000000E+00  0.00000000000E+00  0.69375188752E+03  0.39360364973E+04  0.38744150045E+04 0.  0.
        2    1    3    3  502    0 -0.53848811896E+03 -0.16631573336E+04  0.11948437321E+04  0.21174780553E+04  0.25500000920E-02 0.  1.
       -2    1    3    3    0  502  0.53848811896E+03  0.16631573336E+04 -0.50109184457E+03  0.18185584421E+04  0.25500000920E-02 0. -1.
</event>
<event>
 5   0  0.3832389E-07  0.3016205E+04  0.7818609E-02  0.8239118E-01
        2   -1    0    0  501    0  0.00000000000E+00  0.00000000000E+00  0.22165043379E+04  0.22165043379E+04  0.25500000920E-02 0.  1.
       -2   -1    0    0    0  501  0.00000000000E+00  0.00000000000E+00 -0.10261084824E+04  0.10261084824E+04  0.25500000920E-02 0. -1.
    10030    2    1    2    0    0  0.00000000000E+00  0.00000000000E+00  0.11903958554E+04  0.32426128203E+04  0.30162054986E+04 0.  0.
        5    1    3    3  502    0 -0.21566671529E+03  0.76374571531E+03 -0.78345629022E+03  0.11151885484E+04  0.46999998093E+01 0. -1.
       -5    1    3    3    0  502  0.21566671529E+03 -0.76374571531E+03  0.19738521457E+04  0.21274242719E+04  0.46999998093E+01 0.  1.
</event>
<event>
 5   0  0.3832389E-07  0.3863220E+04  0.7818609E-02  0.8032723E-01
        2   -1    0    0  501    0  0.00000000000E+00  0.00000000000E+00  0.23793314517E+04  0.23793314517E+04  0.25500000920E-02 0.  1.
       -2   -1    0    0    0  501  0.00000000000E+00  0.00000000000E+00 -0.15681364334E+04  0.15681364334E+04  0.25500000920E-02 0. -1.
    10030    2    1    2    0    0  0.00000000000E+00  0.00000000000E+00  0.81119501830E+03  0.39474678850E+04  0.38632195570E+04 0.  0.
        5    1    3    3  502    0  0.70349965065E+03  0.54754985661E+03 -0.13453564442E+04  0.16139171775E+04  0.46999998093E+01 0. -1.
       -5    1    3    3    0  502 -0.70349965065E+03 -0.54754985661E+03  0.21565514625E+04  0.23335507075E+04  0.46999998093E+01 0.  1.
</event>
<event>
 5   0  0.3610483E-07  0.3905182E+04  0.7818609E-02  0.8023952E-01
       -2   -1    0    0    0  501  0.00000000000E+00  0.00000000000E+00  0.23411069827E+04  0.23411069827E+04  0.25500000920E-02 0.  1.
        2   -1    0    0  501    0  0.00000000000E+00  0.00000000000E+00 -0.16285507629E+04  0.16285507629E+04  0.25500000920E-02 0. -1.
    10030    2    1    2    0    0  0.00000000000E+00  0.00000000000E+00  0.71255621983E+03  0.39696577456E+04  0.39051819741E+04 0.  0.
        4    1    3    3  502    0 -0.78808500155E+03  0.24490637561E+03 -0.14425582655E+04  0.16619365405E+04  0.12699999809E+01 0. -1.
       -4    1    3    3    0  502  0.78808500155E+03 -0.24490637561E+03  0.21551144853E+04  0.23077212050E+04  0.12699999809E+01 0.  1.
</event>
<event>
 5   0  0.3610483E-07  0.3868224E+04  0.7818609E-02  0.8031671E-01
       -2   -1    0    0    0  501  0.00000000000E+00  0.00000000000E+00  0.12519639660E+04  0.12519639660E+04  0.25500000920E-02 0.  1.
        2   -1    0    0  501    0  0.00000000000E+00  0.00000000000E+00 -0.29879370106E+04  0.29879370106E+04  0.25500000920E-02 0. -1.
    10030    2    1    2    0    0  0.00000000000E+00  0.00000000000E+00 -0.17359730447E+04  0.42399009766E+04  0.38682241248E+04 0.  0.
        4    1    3    3  502    0 -0.15048555396E+04  0.95224211971E+03 -0.16951002916E+04  0.24586016069E+04  0.12699999809E+01 0. -1.
       -4    1    3    3    0  502  0.15048555396E+04 -0.95224211971E+03 -0.40872753071E+02  0.17812993697E+04  0.12699999809E+01 0.  1.
</event>
<event>
 5   0  0.1187925E-07  0.3774108E+04  0.7818609E-02  0.8051734E-01
       -1   -1    0    0    0  501  0.00000000000E+00  0.00000000000E+00  0.15922520232E+04  0.15922520232E+04  0.50400001928E-02 0. -1.
        1   -1    0    0  501    0  0.00000000000E+00  0.00000000000E+00 -0.22364377762E+04  0.22364377762E+04  0.50400001928E-02 0.  1.
    10030    2    1    2    0    0  0.00000000000E+00  0.00000000000E+00 -0.64418575295E+03  0.38286897994E+04  0.37741078808E+04 0.  0.
        2    1    3    3  502    0 -0.14500318241E+03  0.89404901639E+03  0.13573317637E+04  0.16317778903E+04  0.25500000920E-02 0. -1.
       -2    1    3    3    0  502  0.14500318241E+03 -0.89404901639E+03 -0.20015175167E+04  0.21969119091E+04  0.25500000920E-02 0.  1.
</event>
<event>
 5   0  0.3810833E-07  0.3850013E+04  0.7818609E-02  0.8035507E-01
       -2   -1    0    0    0  501  0.00000000000E+00  0.00000000000E+00  0.20337515646E+04  0.20337515646E+04  0.25500000920E-02 0. -1.
        2   -1    0    0  501    0  0.00000000000E+00  0.00000000000E+00 -0.18220765137E+04  0.18220765138E+04  0.25500000920E-02 0.  1.
    10030    2    1    2    0    0  0.00000000000E+00  0.00000000000E+00  0.21167505084E+03  0.38558280783E+04  0.38500134860E+04 0.  0.
        3    1    3    3  502    0  0.10860628001E+03  0.19858361259E+03  0.20203784350E+04  0.20330174141E+04  0.10100000352E+00 0. -1.
       -3    1    3    3    0  502 -0.10860628001E+03 -0.19858361259E+03 -0.18087033842E+04  0.18228106642E+04  0.10100000352E+00 0.  1.
</event>
<event>
 5   0  0.1187925E-07  0.3976799E+04  0.7818609E-02  0.8009243E-01
       -1   -1    0    0    0  501  0.00000000000E+00  0.00000000000E+00  0.17903403602E+04  0.17903403602E+04  0.50400001928E-02 0. -1.
        1   -1    0    0  501    0  0.00000000000E+00  0.00000000000E+00 -0.22083690503E+04  0.22083690503E+04  0.50400001928E-02 0.  1.
    10030    2    1    2    0    0  0.00000000000E+00  0.00000000000E+00 -0.41802869006E+03  0.39987094105E+04  0.39767988338E+04 0.  0.
        4    1    3    3  502    0 -0.30045630242E+03  0.17738101655E+04 -0.10604703140E+04  0.20883666806E+04  0.12699999809E+01 0.  1.
       -4    1    3    3    0  502  0.30045630242E+03 -0.17738101655E+04  0.64244162391E+03  0.19103427300E+04  0.12699999809E+01 0. -1.
</event>
<event>
 5   0  0.3680814E-07  0.3871202E+04  0.7818609E-02  0.8031045E-01
       -2   -1    0    0    0  501  0.00000000000E+00  0.00000000000E+00  0.17959235318E+04  0.17959235318E+04  0.25500000920E-02 0. -1.
        2   -1    0    0  501    0  0.00000000000E+00  0.00000000000E+00 -0.20861415540E+04  0.20861415540E+04  0.25500000920E-02 0.  1.
    10030    2    1    2    0    0  0.00000000000E+00  0.00000000000E+00 -0.29021802217E+03  0.38820650858E+04  0.38712017294E+04 0.  0.
        1    1    3    3  502    0  0.12169892336E+04  0.11623508273E+04 -0.11040499902E+04  0.20127216950E+04  0.50400001928E-02 0.  1.
       -1    1    3    3    0  502 -0.12169892336E+04 -0.11623508273E+04  0.81383196806E+03  0.18693433908E+04  0.50400001928E-02 0. -1.
</event>
<event>
 5   0  0.3665303E-07  0.3450493E+04  0.7818609E-02  0.8125624E-01
        2   -1    0    0  501    0  0.00000000000E+00  0.00000000000E+00  0.19345976442E+04  0.19345976442E+04  0.25500000920E-02 0. -1.
       -2   -1    0    0    0  501  0.00000000000E+00  0.00000000000E+00 -0.15385502195E+04  0.15385502195E+04  0.25500000920E-02 0.  1.
    10030    2    1    2    0    0  0.00000000000E+00  0.00000000000E+00  0.39604742466E+03  0.34731478638E+04  0.34504930837E+04 0.  0.
        2    1    3    3  502    0 -0.38215772212E+03 -0.11584625997E+04  0.14260319711E+04  0.18766052601E+04  0.25500000920E-02 0. -1.
       -2    1    3    3    0  502  0.38215772212E+03  0.11584625997E+04 -0.10299845464E+04  0.15965426037E+04  0.25500000920E-02 0.  1.
</event>
<event>
 5   0  0.1187925E-07  0.3074363E+04  0.7818609E-02  0.8222809E-01
       -1   -1    0    0    0  501  0.00000000000E+00  0.00000000000E+00  0.10463902543E+04  0.10463902543E+04  0.50400001928E-02 0.  1.
        1   -1    0    0  501    0  0.00000000000E+00  0.00000000000E+00 -0.22581703482E+04  0.22581703482E+04  0.50400001928E-02 0. -1.
    10030    2    1    2    0    0  0.00000000000E+00  0.00000000000E+00 -0.12117800939E+04  0.33045606025E+04  0.30743633129E+04 0.  0.
        4    1    3    3  502    0 -0.67434834091E+02 -0.79925146220E+02  0.10425619284E+04  0.10477940987E+04  0.12699999809E+01 0.  1.
       -4    1    3    3    0  502  0.67434834091E+02  0.79925146220E+02 -0.22543420223E+04  0.22567665037E+04  0.12699999809E+01 0. -1.
</event>
<event>
 5   0  0.1187925E-07  0.3928382E+04  0.7818609E-02  0.8019152E-01
        1   -1    0    0  501    0  0.00000000000E+00  0.00000000000E+00  0.28883679536E+04  0.28883679536E+04  0.50400001928E-02 0.  1.
       -1   -1    0    0    0  501  0.00000000000E+00  0.00000000000E+00 -0.13357183537E+04  0.13357183537E+04  0.50400001928E-02 0. -1.
    10030    2    1    2    0    0  0.00000000000E+00  0.00000000000E+00  0.15526496000E+04  0.42240863073E+04  0.39283818999E+04 0.  0.
        2    1    3    3  502    0 -0.90108476355E+03 -0.43881478827E+03  0.25927210700E+04  0.27796968749E+04  0.25500000920E-02 0.  1.
       -2    1    3    3    0  502  0.90108476355E+03  0.43881478827E+03 -0.10400714701E+04  0.14443894324E+04  0.25500000920E-02 0. -1.
</event>
<event>
 5   0  0.3610483E-07  0.3897966E+04  0.7818609E-02  0.8025452E-01
       -2   -1    0    0    0  501  0.00000000000E+00  0.00000000000E+00  0.21040579968E+04  0.21040579968E+04  0.25500000920E-02 0. -1.
        2   -1    0    0  501    0  0.00000000000E+00  0.00000000000E+00 -0.18053374187E+04  0.18053374187E+04  0.25500000920E-02 0.  1.
    10030    2    1    2    0    0  0.00000000000E+00  0.00000000000E+00  0.29872057805E+03  0.39093954155E+04  0.38979659479E+04 0.  0.
        4    1    3    3  502    0  0.90732817671E+03  0.53471281861E+03  0.17940989506E+04  0.20803737347E+04  0.12699999809E+01 0. -1.
       -4    1    3    3    0  502 -0.90732817671E+03 -0.53471281861E+03 -0.14953783726E+04  0.18290216808E+04  0.12699999809E+01 0.  1.
</event>
<event>
 5   0  0.3610483E-07  0.3980496E+04  0.7818609E-02  0.8008493E-01
        2   -1    0    0  501    0  0.00000000000E+00  0.00000000000E+00  0.18222801702E+04  0.18222801702E+04  0.25500000920E-02 0.  1.
       -2   -1    0    0    0  501  0.00000000000E+00  0.00000000000E+00 -0.21736978334E+04  0.21736978334E+04  0.25500000920E-02 0. -1.
    10030    2    1    2    0    0  0.00000000000E+00  0.00000000000E+00 -0.35141766321E+03  0.39959780036E+04  0.39804956765E+04 0.  0.
        4    1    3    3  502    0  0.33903858417E+02  0.19445965353E+04 -0.59982060800E+03  0.20352865968E+04  0.12699999809E+01 0.  1.
       -4    1    3    3    0  502 -0.33903858417E+02 -0.19445965353E+04  0.24840294479E+03  0.19606914067E+04  0.12699999809E+01 0. -1.
</event>
<event>
 5   0  0.1187925E-07  0.3758036E+04  0.7818609E-02  0.8055221E-01
        1   -1    0    0  501    0  0.00000000000E+00  0.00000000000E+00  0.18872627823E+04  0.18872627823E+04  0.50400001928E-02 0. -1.
       -1   -1    0    0    0  501  0.00000000000E+00  0.00000000000E+00 -0.18708096080E+04  0.18708096080E+04  0.50400001928E-02 0.  1.
    10030    2    1    2    0    0  0.00000000000E+00  0.00000000000E+00  0.16453174293E+02  0.37580723903E+04  0.37580363734E+04 0.  0.
        4    1    3    3  502    0  0.19832889842E+03  0.14175416701E+04  0.12255915286E+04  0.18843659268E+04  0.12699999809E+01 0. -1.
       -4    1    3    3    0  502 -0.19832889842E+03 -0.14175416701E+04 -0.12091383543E+04  0.18737064634E+04  0.12699999809E+01 0.  1.
</event>
<event>
 5   0  0.1187925E-07  0.3901848E+04  0.7818609E-02  0.8024645E-01
        1   -1    0    0  501    0  0.00000000000E+00  0.00000000000E+00  0.20444217596E+04  0.20444217596E+04  0.50400001928E-02 0. -1.
       -1   -1    0    0    0  501  0.00000000000E+00  0.00000000000E+00 -0.18617018407E+04  0.18617018407E+04  0.50400001928E-02 0.  1.
    10030    2    1    2    0    0  0.00000000000E+00  0.00000000000E+00  0.18271991896E+03  0.39061236003E+04  0.39018476408E+04 0.  0.
        2    1    3    3  502    0  0.76115137785E+03 -0.55991838385E+02  0.18887710194E+04  0.20371407584E+04  0.25500000920E-02 0. -1.
       -2    1    3    3    0  502 -0.76115137785E+03  0.55991838385E+02 -0.17060511004E+04  0.18689828419E+04  0.25500000920E-02 0.  1.
</event>
<event>
 5   0  0.3832389E-07  0.3225005E+04  0.7818609E-02  0.8182245E-01
        2   -1    0    0  501    0  0.00000000000E+00  0.00000000000E+00  0.25795580507E+04  0.25795580507E+04  0.25500000920E-02 0.  1.
       -2   -1    0    0    0  501  0.00000000000E+00  0.00000000000E+00 -0.10079879964E+04  0.10079879964E+04  0.25500000920E-02 0. -1.
    10030    2    1    2    0    0  0.00000000000E+00  0.00000000000E+00  0.15715700544E+04  0.35875460471E+04  0.32250045278E+04 0.  0.
        5    1    3    3  502    0 -0.13428667301E+04  0.35357098300E+02 -0.20645014938E+03  0.13591118178E+04  0.46999998093E+01 0. -1.
       -5    1    3    3    0  502  0.13428667301E+04 -0.35357098300E+02  0.17780202038E+04  0.22284342293E+04  0.46999998093E+01 0.  1.
</event>
<event>
 5   0  0.3832389E-07  0.3891712E+04  0.7818609E-02  0.8026755E-01
        2   -1    0    0  501    0  0.00000000000E+00  0.00000000000E+00  0.25095018165E+04  0.25095018165E+04  0.25500000920E-02 0. -1.
       -2   -1    0    0    0  501  0.00000000000E+00  0.00000000000E+00 -0.15088079219E+04  0.15088079219E+04  0.25500000920E-02 0.  1.
    10030    2    1    2    0    0  0.00000000000E+00  0.00000000000E+00  0.10006938946E+04  0.40183097385E+04  0.38917123331E+04 0.  0.
        5    1    3    3  502    0 -0.19458862154E+03 -0.94801454171E+03  0.22433780345E+04  0.24432280693E+04  0.46999998093E+01 0. -1.
       -5    1    3    3    0  502  0.19458862154E+03  0.94801454171E+03 -0.12426841399E+04  0.15750816691E+04  0.46999998093E+01 0.  1.
</event>
<event>
 5   0  0.1187925E-07  0.3245710E+04  0.7818609E-02  0.8176848E-01
        1   -1    0    0  501    0  0.00000000000E+00  0.00000000000E+00  0.19818532755E+04  0.19818532755E+04  0.50400001928E-02 0. -1.
       -1   -1    0    0    0  501  0.00000000000E+00  0.00000000000E+00 -0.13288867770E+04  0.13288867770E+04  0.50400001928E-02 0.  1.
    10030    2    1    2    0    0  0.00000000000E+00  0.00000000000E+00  0.65296649856E+03  0.33107400525E+04  0.32457101607E+04 0.  0.
        5    1    3    3  502    0 -0.40118242539E+03  0.15639802458E+04  0.49301784987E+03  0.16882151042E+04  0.46999998093E+01 0.  1.
       -5    1    3    3    0  502  0.40118242539E+03 -0.15639802458E+04  0.15994864869E+03  0.16225249483E+04  0.46999998093E+01 0. -1.
</event>
<event>
 5   0  0.3665303E-07  0.3893137E+04  0.7818609E-02  0.8026458E-01
       -2   -1    0    0    0  501  0.00000000000E+00  0.00000000000E+00  0.19325819702E+04  0.19325819702E+04  0.25500000920E-02 0. -1.
        2   -1    0    0  501    0  0.00000000000E+00  0.00000000000E+00 -0.19606563495E+04  0.19606563495E+04  0.25500000920E-02 0.  1.
    10030    2    1    2    0    0  0.00000000000E+00  0.00000000000E+00 -0.28074379246E+02  0.38932383197E+04  0.38931370954E+04 0.  0.
        2    1    3    3  502    0  0.13577582676E+04 -0.91831875634E+02  0.13778281926E+04  0.19365823336E+04  0.25500000920E-02 0. -1.
       -2    1    3    3    0  502 -0.13577582676E+04  0.91831875634E+02 -0.14059025718E+04  0.19566559861E+04  0.25500000920E-02 0.  1.
</event>
<event>
 5   0  0.1187925E-07  0.3916861E+04  0.7818609E-02  0.8021532E-01
       -1   -1    0    0    0  501  0.00000000000E+00  0.00000000000E+00  0.26860238653E+04  0.26860238653E+04  0.50400001928E-02 0.  1.
        1   -1    0    0  501    0  0.00000000000E+00  0.00000000000E+00 -0.14279285797E+04  0.14279285797E+04  0.50400001928E-02 0. -1.
    10030    2    1    2    0    0  0.00000000000E+00  0.00000000000E+00  0.12580952855E+04  0.41139524450E+04  0.39168611122E+04 0.  0.
        4    1    3    3  502    0 -0.29405653653E+03 -0.52017908550E+03 -0.13298440550E+04  0.14579239868E+04  0.12699999809E+01 0. -1.
       -4    1    3    3    0  502  0.29405653653E+03  0.52017908550E+03  0.25879393405E+04  0.26560284582E+04  0.12699999809E+01 0.  1.
</event>
<event>
 5   0  0.3810833E-07  0.3781494E+04  0.7818609E-02  0.8050138E-01
       -2   -1    0    0    0  501  0.00000000000E+00  0.00000000000E+00  0.21739039402E+04  0.21739039402E+04  0.25500000920E-02 0. -1.
        2   -1    0    0  501    0  0.00000000000E+00  0.00000000000E+00 -0.16444723645E+04  0.16444723645E+04  0.25500000920E-02 0.  1.
    10030    2    1    2    0    0  0.00000000000E+00  0.00000000000E+00  0.52943157571E+03  0.38183763046E+04  0.37814943885E+04 0.  0.
        3    1    3    3  502    0  0.14882481193E+04 -0.15656269748E+03  0.14316387547E+04  0.20709862088E+04  0.10100000352E+00 0. -1.
       -3    1    3    3    0  502 -0.14882481193E+04  0.15656269748E+03 -0.90220717903E+03  0.17473900958E+04  0.10100000352E+00 0.  1.
</event>
<event>
 5   0  0.3832389E-07  0.3883244E+04  0.7818609E-02  0.8028523E-01
        2   -1    0    0  501    0  0.00000000000E+00  0.00000000000E+00  0.15336147631E+04  0.15336147631E+04  0.25500000920E-02 0.  1.
       -2   -1    0    0    0  501  0.00000000000E+00  0.00000000000E+00 -0.24581764195E+04  0.24581764195E+04  0.25500000920E-02 0. -1.
    10030    2    1    2    0    0  0.00000000000E+00  0.00000000000E+00 -0.92456165634E+03  0.39917911826E+04  0.38832438231E+04 0.  0.
        5    1    3    3  502    0  0.85746039912E+03 -0.25972473055E+03 -0.22329807800E+04  0.24060175655E+04  0.46999998093E+01 0. -1.
       -5    1    3    3    0  502 -0.85746039912E+03  0.25972473055E+03  0.13084191236E+04  0.15857736171E+04  0.46999998093E+01 0.  1.
</event>
<event>
 5   0  0.3665303E-07  0.4152860E+04  0.7818609E-02  0.7974400E-01
        2   -1    0    0  501    0  0.00000000000E+00  0.00000000000E+00  0.31816084774E+04  0.31816084774E+04  0.25500000920E-02 0. -1.
       -2   -1    0    0    0  501  0.00000000000E+00  0.00000000000E+00 -0.13551516170E+04  0.13551516170E+04  0.25500000920E-02 0.  1.
    10030    2    1    2    0    0  0.00000000000E+00  0.00000000000E+00  0.18264568604E+04  0.45367600944E+04  0.41528601579E+04 0.  0.
        2    1    3    3  502    0 -0.46968781343E+03  0.51049896192E+03  0.30512767327E+04  0.31291381452E+04  0.25500000920E-02 0. -1.
       -2    1    3    3    0  502  0.46968781343E+03 -0.51049896192E+03 -0.12248198723E+04  0.14076219492E+04  0.25500000920E-02 0.  1.
</event>
<event>
 5   0  0.1187925E-07  0.3788649E+04  0.7818609E-02  0.8048595E-01
        1   -1    0    0  501    0  0.00000000000E+00  0.00000000000E+00  0.23257171014E+04  0.23257171014E+04  0.50400001928E-02 0. -1.
       -1   -1    0    0    0  501  0.00000000000E+00  0.00000000000E+00 -0.15429502719E+04  0.15429502719E+04  0.50400001928E-02 0.  1.
    10030    2    1    2    0    0  0.00000000000E+00  0.00000000000E+00  0.78276682947E+03  0.38686673732E+04  0.37886492759E+04 0.  0.
        3    1    3    3  502    0 -0.14036045589E+04 -0.10769923803E+04  0.10827713257E+04  0.20742256625E+04  0.10100000352E+00 0.  1.
       -3    1    3    3    0  502  0.14036045589E+04  0.10769923803E+04 -0.30000449621E+03  0.17944417107E+04  0.10100000352E+00 0. -1.
</event>
<event>
 5   0  0.3665303E-07  0.3915037E+04  0.7818609E-02  0.8021909E-01
       -2   -1    0    0    0  501  0.00000000000E+00  0.00000000000E+00  0.20743045248E+04  0.20743045248E+04  0.25500000920E-02 0.  1.
        2   -1    0    0  501    0  0.00000000000E+00  0.00000000000E+00 -0.18473076393E+04  0.18473076393E+04  0.25500000920E-02 0. -1.
    10030    2    1    2    0    0  0.00000000000E+00  0.00000000000E+00  0.22699688547E+03  0.39216121641E+04  0.39150369577E+04 0.  0.
        2    1    3    3  502    0 -0.50155468912E+03  0.14129113799E+04  0.13741839609E+04  0.20337790519E+04  0.25500000920E-02 0.  1.
       -2    1    3    3    0  502  0.50155468912E+03 -0.14129113799E+04 -0.11471870755E+04  0.18878331122E+04  0.25500000920E-02 0. -1.
</event>
<event>
 5   0  0.1187925E-07  0.3849025E+04  0.7818609E-02  0.8035715E-01
        1   -1    0    0  501    0  0.00000000000E+00  0.00000000000E+00  0.25758156093E+04  0.25758156093E+04  0.50400001928E-02 0. -1.
       -1   -1    0    0    0  501  0.00000000000E+00  0.00000000000E+00 -0.14378931097E+04  0.14378931097E+04  0.50400001928E-02 0.  1.
    10030    2    1    2    0    0  0.00000000000E+00  0.00000000000E+00  0.11379224997E+04  0.40137087190E+04  0.38490245603E+04 0.  0.
        5    1    3    3  502    0 -0.12876881603E+04  0.13364384810E+04  0.37736964917E+02  0.18562474997E+04  0.46999998093E+01 0.  1.
       -5    1    3    3    0  502  0.12876881603E+04 -0.13364384810E+04  0.11001855347E+04  0.21574612193E+04  0.46999998093E+01 0. -1.
</event>
<event>
 5   0  0.1187925E-07  0.3900522E+04  0.7818609E-02  0.8024921E-01
       -1   -1    0    0    0  501  0.00000000000E+00  0.00000000000E+00  0.16317128684E+04  0.16317128684E+04  0.50400001928E-02 0. -1.
        1   -1    0    0  501    0  0.00000000000E+00  0.00000000000E+00 -0.23309971844E+04  0.23309971844E+04  0.50400001928E-02 0.  1.
    10030    2    1    2    0    0  0.00000000000E+00  0.00000000000E+00 -0.69928431593E+03  0.39627100528E+04  0.39005220686E+04 0.  0.
        4    1    3    3  502    0  0.95305500120E+03  0.13048650044E+04  0.75979883611E+03  0.17855762093E+04  0.12699999809E+01 0. -1.
       -4    1    3    3    0  502 -0.95305500120E+03 -0.13048650044E+04 -0.14590831520E+04  0.21771338435E+04  0.12699999809E+01 0.  1.
</event>
<event>
 5   0  0.3810833E-07  0.3916587E+04  0.7818609E-02  0.8021588E-01
       -2   -1    0    0    0  501  0.00000000000E+00  0.00000000000E+00  0.16417052932E+04  0.16417052932E+04  0.25500000920E-02 0. -1.
        2   -1    0    0  501    0  0.00000000000E+00  0.00000000000E+00 -0.23359332118E+04  0.23359332118E+04  0.25500000920E-02 0.  1.
    10030    2    1    2    0    0  0.00000000000E+00  0.00000000000E+00 -0.69422791866E+03  0.39776385050E+04  0.39165872483E+04 0.  0.
        3    1    3    3  502    0 -0.14573363267E+04  0.45305223097E+03  0.89913626514E+03  0.17713078576E+04  0.10100000352E+00 0. -1.
       -3    1    3    3    0  502  0.14573363267E+04 -0.45305223097E+03 -0.15933641838E+04  0.22063306473E+04  0.10100000352E+00 0.  1.
</event>
<event>
 5   0  0.1187925E-07  0.4028743E+04  0.7818609E-02  0.7998773E-01
        1   -1    0    0  501    0  0.00000000000E+00  0.00000000000E+00  0.29454201710E+04  0.29454201710E+04  0.50400001928E-02 0.  1.
       -1   -1    0    0    0  501  0.00000000000E+00  0.00000000000E+00 -0.13776277057E+04  0.13776277057E+04  0.50400001928E-02 0. -1.
    10030    2    1    2    0    0  0.00000000000E+00  0.00000000000E+00  0.15677924653E+04  0.43230478768E+04  0.40287429467E+04 0.  0.
        3    1    3    3  502    0 -0.14356843867E+03  0.19994960069E+04  0.57172426371E+03  0.20845778523E+04  0.10100000352E+00 0.  1.
       -3    1    3    3    0  502  0.14356843867E+03 -0.19994960069E+04  0.99606820160E+03  0.22384700245E+04  0.10100000352E+00 0. -1.
</event>
<event>
 5   0  0.1187925E-07  0.3634331E+04  0.7818609E-02  0.8082673E-01
       -1   -1    0    0    0  501  0.00000000000E+00  0.00000000000E+00  0.14930108800E+04  0.14930108800E+04  0.50400001928E-02 0.  1.
        1   -1    0    0  501    0  0.00000000000E+00  0.00000000000E+00 -0.22116985325E+04  0.22116985325E+04  0.50400001928E-02 0. -1.
    10030    2    1    2    0    0  0.00000000000E+00  0.00000000000E+00 -0.71868765244E+03  0.37047094125E+04  0.36343307347E+04 0.  0.
        2    1    3    3  502    0  0.14935872403E+04  0.62004387745E+03 -0.12041463243E+04  0.20162404680E+04  0.25500000920E-02 0. -1.
       -2    1    3    3    0  502 -0.14935872403E+04 -0.62004387745E+03  0.48545867185E+03  0.16884689445E+04  0.25500000920E-02 0.  1.
</event>
<event>
 5   0  0.1187925E-07  0.2930207E+04  0.7818609E-02  0.8263946E-01
       -1   -1    0    0    0  501  0.00000000000E+00  0.00000000000E+00  0.23368787345E+04  0.23368787345E+04  0.50400001928E-02 0. -1.
        1   -1    0    0  501    0  0.00000000000E+00  0.00000000000E+00 -0.91854521878E+03  0.91854521879E+03  0.50400001928E-02 0.  1.
    10030    2    1    2    0    0  0.00000000000E+00  0.00000000000E+00  0.14183335157E+04  0.32554239533E+04  0.29302073568E+04 0.  0.
        2    1    3    3  502    0 -0.78349129972E+03  0.23394478928E+03  0.20598005242E+04  0.22161604140E+04  0.25500000920E-02 0. -1.
       -2    1    3    3    0  502  0.78349129972E+03 -0.23394478928E+03 -0.64146700845E+03  0.10392635393E+04  0.25500000920E-02 0.  1.
</event>
<event>
 5   0  0.3610483E-07  0.3930047E+04  0.7818609E-02  0.8018809E-01
        2   -1    0    0  501    0  0.00000000000E+00  0.00000000000E+00  0.22398249487E+04  0.22398249487E+04  0.25500000920E-02 0. -1.
       -2   -1    0    0    0  501  0.00000000000E+00  0.00000000000E+00 -0.17239367558E+04  0.17239367558E+04  0.25500000920E-02 0.  1.
    10030    2    1    2    0    0  0.00000000000E+00  0.00000000000E+00  0.51588819288E+03  0.39637617045E+04  0.39300465929E+04 0.  0.
        4    1    3    3  502    0  0.17325746764E+04  0.15509266956E+03  0.11798128214E+04  0.21018631383E+04  0.12699999809E+01 0. -1.
       -4    1    3    3    0  502 -0.17325746764E+04 -0.15509266956E+03 -0.66392462854E+03  0.18618985662E+04  0.12699999809E+01 0.  1.
</event>
<event>
 5   0  0.1187925E-07  0.3625168E+04  0.7818609E-02  0.8084751E-01
        1   -1    0    0  501    0  0.00000000000E+00  0.00000000000E+00  0.23360319699E+04  0.23360319699E+04  0.50400001928E-02 0.  1.
       -1   -1    0    0    0  501  0.00000000000E+00  0.00000000000E+00 -0.14064281948E+04  0.14064281949E+04  0.50400001928E-02 0. -1.
    10030    2    1    2    0    0  0.00000000000E+00  0.00000000000E+00  0.92960377505E+03  0.37424601648E+04  0.36251682590E+04 0.  0.
        1    1    3    3  502    0  0.17477511570E+04  0.11531659592E+03 -0.16688699642E+02  0.17516308221E+04  0.50400001928E-02 0. -1.
       -1    1    3    3    0  502 -0.17477511570E+04 -0.11531659592E+03  0.94629247470E+03  0.19908293427E+04  0.50400001928E-02 0.  1.
</event>
<event>
 5   0  0.1187925E-07  0.3864853E+04  0.7818609E-02  0.8032379E-01
        1   -1    0    0  501    0  0.00000000000E+00  0.00000000000E+00  0.15713010467E+04  0.15713010467E+04  0.50400001928E-02 0.  1.
       -1   -1    0    0    0  501  0.00000000000E+00  0.00000000000E+00 -0.23765483088E+04  0.23765483089E+04  0.50400001928E-02 0. -1.
    10030    2    1    2    0    0  0.00000000000E+00  0.00000000000E+00 -0.80524726215E+03  0.39478493556E+04  0.38648533453E+04 0.  0.
        1    1    3    3  502    0 -0.17250231736E+04 -0.84381285761E+03 -0.62300604368E+03  0.20188763257E+04  0.50400001928E-02 0. -1.
       -1    1    3    3    0  502  0.17250231736E+04  0.84381285761E+03 -0.18224121847E+03  0.19289730298E+04  0.50400001928E-02 0.  1.
</event>
<event>
 5   0  0.3832389E-07  0.3911798E+04  0.7818609E-02  0.8022580E-01
        2   -1    0    0  501    0  0.00000000000E+00  0.00000000000E+00  0.24509961762E+04  0.24509961762E+04  0.25500000920E-02 0.  1.
       -2   -1    0    0    0  501  0.00000000000E+00  0.00000000000E+00 -0.15608104803E+04  0.15608104803E+04  0.25500000920E-02 0. -1.
    10030    2    1    2    0    0  0.00000000000E+00  0.00000000000E+00  0.89018569594E+03  0.40118066565E+04  0.39117978061E+04 0.  0.
        5    1    3    3  502    0  0.51936620644E+03  0.17854111454E+04 -0.17711744652E+03  0.18678401683E+04  0.46999998093E+01 0. -1.
       -5    1    3    3    0  502 -0.51936620644E+03 -0.17854111454E+04  0.10673031425E+04  0.21439664882E+04  0.46999998093E+01 0.  1.
</event>
<event>
 5   0  0.3680814E-07  0.3865095E+04  0.7818609E-02  0.8032328E-01
        2   -1    0    0  501    0  0.00000000000E+00  0.00000000000E+00  0.34175561422E+04  0.34175561422E+04  0.25500000920E-02 0. -1.
       -2   -1    0    0    0  501  0.00000000000E+00  0.00000000000E+00 -0.10928098814E+04  0.10928098814E+04  0.25500000920E-02 0.  1.
    10030    2    1    2    0    0  0.00000000000E+00  0.00000000000E+00  0.23247462608E+04  0.45103660236E+04  0.38650946288E+04 0.  0.
        1    1    3    3  502    0 -0.40992648465E+03 -0.13477057616E+04 -0.38152588913E+03  0.14594219906E+04  0.50400001928E-02 0.  1.
       -1    1    3    3    0  502  0.40992648465E+03  0.13477057616E+04  0.27062721499E+04  0.30509440329E+04  0.50400001928E-02 0. -1.
</event>
<event>
 5   0  0.3680814E-07  0.3905998E+04  0.7818609E-02  0.8023783E-01
        2   -1    0    0  501    0  0.00000000000E+00  0.00000000000E+00  0.19267309751E+04  0.19267309751E+04  0.25500000920E-02 0.  1.
       -2   -1    0    0    0  501  0.00000000000E+00  0.00000000000E+00 -0.19796250574E+04  0.19796250574E+04  0.25500000920E-02 0. -1.
    10030    2    1    2    0    0  0.00000000000E+00  0.00000000000E+00 -0.52894082297E+02  0.39063560325E+04  0.39059979094E+04 0.  0.
        1    1    3    3  502    0  0.18831317580E+04  0.23685204925E+03 -0.48683781847E+03  0.19594119456E+04  0.50400001928E-02 0. -1.
       -1    1    3    3    0  502 -0.18831317580E+04 -0.23685204925E+03  0.43394373617E+03  0.19469440869E+04  0.50400001928E-02 0.  1.
</event>
<event>
 5   0  0.1187925E-07  0.3961684E+04  0.7818609E-02  0.8012321E-01
       -1   -1    0    0    0  501  0.00000000000E+00  0.00000000000E+00  0.32637370390E+04  0.32637370390E+04  0.50400001928E-02 0. -1.
        1   -1    0    0  501    0  0.00000000000E+00  0.00000000000E+00 -0.12022214008E+04  0.12022214008E+04  0.50400001928E-02 0.  1.
    10030    2    1    2    0    0  0.00000000000E+00  0.00000000000E+00  0.20615156382E+04  0.44659584398E+04  0.39616837405E+04 0.  0.
        3    1    3    3  502    0  0.17685949212E+04 -0.94494431720E+02  0.20307310769E+04  0.26945734189E+04  0.10100000352E+00 0.  1.
       -3    1    3    3    0  502 -0.17685949212E+04  0.94494431720E+02  0.30784561269E+02  0.17713850209E+04  0.10100000352E+00 0. -1.
</event>
<event>
 5   0  0.3832389E-07  0.3933357E+04  0.7818609E-02  0.8018127E-01
       -2   -1    0    0    0  501  0.00000000000E+00  0.00000000000E+00  0.25813677590E+04  0.25813677590E+04  0.25500000920E-02 0.  1.
        2   -1    0    0  501    0  0.00000000000E+00  0.00000000000E+00 -0.14983621221E+04  0.14983621221E+04  0.25500000920E-02 0. -1.
    10030    2    1    2    0    0  0.00000000000E+00  0.00000000000E+00  0.10830056369E+04  0.40797298811E+04  0.39333566699E+04 0.  0.
        5    1    3    3  502    0  0.17553193424E+04  0.67947932572E+03  0.11327721167E+04  0.21968233671E+04  0.46999998093E+01 0.  1.
       -5    1    3    3    0  502 -0.17553193424E+04 -0.67947932572E+03 -0.49766479775E+02  0.18829065140E+04  0.46999998093E+01 0. -1.
</event>
<event>
 5   0  0.3665303E-07  0.3744706E+04  0.7818609E-02  0.8058126E-01
        2   -1    0    0  501    0  0.00000000000E+00  0.00000000000E+00  0.26551664502E+04  0.26551664502E+04  0.25500000920E-02 0. -1.
       -2   -1    0    0    0  501  0.00000000000E+00  0.00000000000E+00 -0.13203334216E+04  0.13203334216E+04  0.25500000920E-02 0.  1.
    10030    2    1    2    0    0  0.00000000000E+00  0.00000000000E+00  0.13348330286E+04  0.39754998718E+04  0.37447055981E+04 0.  0.
        2    1    3    3  502    0  0.16439685887E+04 -0.55540718286E+03 -0.79202400657E+02  0.17370615647E+04  0.25500000920E-02 0.  1.
       -2    1    3    3    0  502 -0.16439685887E+04  0.55540718286E+03  0.14140354292E+04  0.22384383070E+04  0.25500000920E-02 0. -1.
</event>
<event>
 5   0  0.1187925E-07  0.3903435E+04  0.7818609E-02  0.8024315E-01
        1   -1    0    0  501    0  0.00000000000E+00  0.00000000000E+00  0.27419990404E+04  0.27419990404E+04  0.50400001928E-02 0. -1.
       -1   -1    0    0    0  501  0.00000000000E+00  0.00000000000E+00 -0.13892061828E+04  0.13892061829E+04  0.50400001928E-02 0.  1.
    10030    2    1    2    0    0  0.00000000000E+00  0.00000000000E+00  0.13527928575E+04  0.41312052232E+04  0.39034354204E+04 0.  0.
        5    1    3    3  502    0 -0.16889849597E+04  0.87875553924E+03  0.11307464980E+04  0.22143828090E+04  0.46999998093E+01 0. -1.
       -5    1    3    3    0  502  0.16889849597E+04 -0.87875553924E+03  0.22204635955E+03  0.19168224143E+04  0.46999998093E+01 0.  1.
</event>
<event>
 5   0  0.3680814E-07  0.3799977E+04  0.7818609E-02  0.8046160E-01
       -2   -1    0    0    0  501  0.00000000000E+00  0.00000000000E+00  0.15803410045E+04  0.15803410045E+04  0.25500000920E-02 0.  1.
        2   -1    0    0  501    0  0.00000000000E+00  0.00000000000E+00 -0.22842896695E+04  0.22842896695E+04  0.25500000920E-02 0. -1.
    10030    2    1    2    0    0  0.00000000000E+00  0.00000000000E+00 -0.70394866500E+03  0.38646306739E+04  0.37999771740E+04 0.  0.
        1    1    3    3  502    0  0.52577096271E+03  0.48961888129E+03  0.14368708951E+04  0.16064743146E+04  0.50400001928E-02 0.  1.
       -1    1    3    3    0  502 -0.52577096271E+03 -0.48961888129E+03 -0.21408195601E+04  0.22581563593E+04  0.50400001928E-02 0. -1.
</event>
<event>
 5   0  0.3610483E-07  0.3587883E+04  0.7818609E-02  0.8093273E-01
        2   -1    0    0  501    0  0.00000000000E+00  0.00000000000E+00  0.19013178311E+04  0.19013178311E+04  0.25500000920E-02 0.  1.
       -2   -1    0    0    0  501  0.00000000000E+00  0.00000000000E+00 -0.16926289477E+04  0.16926289477E+04  0.25500000920E-02 0. -1.
    10030    2    1    2    0    0  0.00000000000E+00  0.00000000000E+00  0.20868888345E+03  0.35939467788E+04  0.35878827181E+04 0.  0.
        4    1    3    3  502    0  0.17689000783E+03  0.17851588189E+04  0.11627689728E+03  0.17976662686E+04  0.12699999809E+01 0. -1.
       -4    1    3    3    0  502 -0.17689000783E+03 -0.17851588189E+04  0.92411986163E+02  0.17962805103E+04  0.12699999809E+01 0.  1.
</event>
<event>
 5   0  0.3680814E-07  0.3878930E+04  0.7818609E-02  0.8029426E-01
        2   -1    0    0  501    0  0.00000000000E+00  0.00000000000E+00  0.29066896720E+04  0.29066896720E+04  0.25500000920E-02 0. -1.
       -2   -1    0    0    0  501  0.00000000000E+00  0.00000000000E+00 -0.12940920523E+04  0.12940920523E+04  0.25500000920E-02 0.  1.
    10030    2    1    2    0    0  0.00000000000E+00  0.00000000000E+00  0.16125976197E+04  0.42007817243E+04  0.38789297508E+04 0.  0.
        1    1    3    3  502    0 -0.70836560793E+02 -0.92370315654E+03 -0.10389824137E+04  0.13920236333E+04  0.50400001928E-02 0.  1.
       -1    1    3    3    0  502  0.70836560793E+02  0.92370315654E+03  0.26515800334E+04  0.28087580909E+04  0.50400001928E-02 0. -1.
</event>
<event>
 5   0  0.3665303E-07  0.3934431E+04  0.7818609E-02  0.8017906E-01
       -2   -1    0    0    0  501  0.00000000000E+00  0.00000000000E+00  0.15421032593E+04  0.15421032593E+04  0.25500000920E-02 0.  1.
        2   -1    0    0  501    0  0.00000000000E+00  0.00000000000E+00 -0.25095185872E+04  0.25095185872E+04  0.25500000920E-02 0. -1.
    10030    2    1    2    0    0  0.00000000000E+00  0.00000000000E+00 -0.96741532786E+03  0.40516218466E+04  0.39344309844E+04 0.  0.
        2    1    3    3  502    0  0.40742547229E+03 -0.17877225436E+04  0.25025554540E+03  0.18505607924E+04  0.25500000920E-02 0.  1.
       -2    1    3    3    0  502 -0.40742547229E+03  0.17877225436E+04 -0.12176708733E+04  0.22010610541E+04  0.25500000920E-02 0. -1.
</event>
<event>
 5   0  0.1187925E-07  0.3780002E+04  0.7818609E-02  0.8050460E-01
       -1   -1    0    0    0  501  0.00000000000E+00  0.00000000000E+00  0.19382857228E+04  0.19382857228E+04  0.50400001928E-02 0.  1.
        1   -1    0    0  501    0  0.00000000000E+00  0.00000000000E+00 -0.18429188609E+04  0.18429188609E+04  0.50400001928E-02 0. -1.
    10030    2    1    2    0    0  0.00000000000E+00  0.00000000000E+00  0.95366861942E+02  0.37812045837E+04  0.37800017547E+04 0.  0.
        2    1    3    3  502    0  0.95645057337E+03  0.90539030961E+03 -0.13083193913E+04  0.18564021498E+04  0.25500000920E-02 0. -1.
       -2    1    3    3    0  502 -0.95645057337E+03 -0.90539030961E+03  0.14036862533E+04  0.19248024339E+04  0.25500000920E-02 0.  1.
</event>
<event>
 5   0  0.1187925E-07  0.3911322E+04  0.7818609E-02  0.8022679E-01
        1   -1    0    0  501    0  0.00000000000E+00  0.00000000000E+00  0.24329284369E+04  0.24329284369E+04  0.50400001928E-02 0.  1.
       -1   -1    0    0    0  501  0.00000000000E+00  0.00000000000E+00 -0.15720192516E+04  0.15720192516E+04  0.50400001928E-02 0. -1.
    10030    2    1    2    0    0  0.00000000000E+00  0.00000000000E+00  0.86090918524E+03  0.40049476885E+04  0.39113222013E+04 0.  0.
        2    1    3    3  502    0 -0.58226588781E+03  0.13012739814E+04  0.18012546069E+04  0.22971429424E+04  0.25500000920E-02 0.  1.
       -2    1    3    3    0  502  0.58226588781E+03 -0.13012739814E+04 -0.94034542166E+03  0.17078047461E+04  0.25500000920E-02 0. -1.
</event>
<event>
 5   0  0.3680814E-07  0.4000992E+04  0.7818609E-02  0.8004346E-01
        2   -1    0    0  501    0  0.00000000000E+00  0.00000000000E+00  0.18252188087E+04  0.18252188087E+04  0.25500000920E-02 0. -1.
       -2   -1    0    0    0  501  0.00000000000E+00  0.00000000000E+00 -0.21926052199E+04  0.21926052200E+04  0.25500000920E-02 0.  1.
    10030    2    1    2    0    0  0.00000000000E+00  0.00000000000E+00 -0.36738641121E+03  0.40178240287E+04  0.40009920208E+04 0.  0.
        1    1    3    3  502    0  0.81681190108E+03 -0.33812615659E+02  0.16498191198E+04  0.18412572071E+04  0.50400001928E-02 0. -1.
       -1    1    3    3    0  502 -0.81681190108E+03  0.33812615659E+02 -0.20172055310E+04  0.21765668216E+04  0.50400001928E-02 0.  1.
</event>
<event>
 5   0  0.1187925E-07  0.3775958E+04  0.7818609E-02  0.8051334E-01
        1   -1    0    0  501    0  0.00000000000E+00  0.00000000000E+00  0.29236202031E+04  0.29236202031E+04  0.50400001928E-02 0.  1.
       -1   -1    0    0    0  501  0.00000000000E+00  0.00000000000E+00 -0.12191956791E+04  0.12191956791E+04  0.50400001928E-02 0. -1.
    10030    2    1    2    0    0  0.00000000000E+00  0.00000000000E+00  0.17044245240E+04  0.41428158822E+04  0.37759582196E+04 0.  0.
        1    1    3    3  502    0 -0.11732252100E+04 -0.14756619499E+04  0.96425944170E+03  0.21175060460E+04  0.50400001928E-02 0. -1.
       -1    1    3    3    0  502  0.11732252100E+04  0.14756619499E+04  0.74016508229E+03  0.20253098363E+04  0.50400001928E-02 0.  1.
</event>
<event>
 5   0  0.1187925E-07  0.3482810E+04  0.7818609E-02  0.8117876E-01
       -1   -1    0    0    0  501  0.00000000000E+00  0.00000000000E+00  0.18527567366E+04  0.18527567366E+04  0.50400001928E-02 0.  1.
        1   -1    0    0  501    0  0.00000000000E+00  0.00000000000E+00 -0.16367459960E+04  0.16367459960E+04  0.50400001928E-02 0. -1.
    10030    2    1    2    0    0  0.00000000000E+00  0.00000000000E+00  0.21601074055E+03  0.34895027326E+04  0.34828104572E+04 0.  0.
        5    1    3    3  502    0 -0.84470524507E+02 -0.24535207696E+03 -0.16172607637E+04  0.16379521907E+04  0.46999998093E+01 0. -1.
       -5    1    3    3    0  502  0.84470524507E+02  0.24535207696E+03  0.18332715042E+04  0.18515505419E+04  0.46999998093E+01 0.  1.
</event>
<event>
 5   0  0.3680814E-07  0.4095100E+04  0.7818609E-02  0.7985632E-01
        2   -1    0    0  501    0  0.00000000000E+00  0.00000000000E+00  0.16251063560E+04  0.16251063560E+04  0.25500000920E-02 0.  1.
       -2   -1    0    0    0  501  0.00000000000E+00  0.00000000000E+00 -0.25798069688E+04  0.25798069688E+04  0.25500000920E-02 0. -1.
    10030    2    1    2    0    0  0.00000000000E+00  0.00000000000E+00 -0.95470061283E+03  0.42049133247E+04  0.40950998533E+04 0.  0.
        1    1    3    3  502    0 -0.15451335238E+03 -0.54432266524E+03 -0.24979347423E+04  0.25612183657E+04  0.50400001928E-02 0. -1.
       -1    1    3    3    0  502  0.15451335238E+03  0.54432266524E+03  0.15432341295E+04  0.16436949590E+04  0.50400001928E-02 0.  1.
</event>
<event>
 5   0  0.1187925E-07  0.3881284E+04  0.7818609E-02  0.8028933E-01
       -1   -1    0    0    0  501  0.00000000000E+00  0.00000000000E+00  0.14593316970E+04  0.14593316970E+04  0.50400001928E-02 0. -1.
        1   -1    0    0  501    0  0.00000000000E+00  0.00000000000E+00 -0.25806958406E+04  0.25806958406E+04  0.50400001928E-02 0.  1.
    10030    2    1    2    0    0  0.00000000000E+00  0.00000000000E+00 -0.11213641436E+04  0.40400275376E+04  0.38812839322E+04 0.  0.
        4    1    3    3  502    0 -0.63369752337E+03 -0.15109838075E+04 -0.16431402639E+04  0.23204646425E+04  0.12699999809E+01 0.  1.
       -4    1    3    3    0  502  0.63369752337E+03  0.15109838075E+04  0.52177612030E+03  0.17195628951E+04  0.12699999809E+01 0. -1.
</event>
<event>
 5   0  0.3665303E-07  0.3864695E+04  0.7818609E-02  0.8032412E-01
        2   -1    0    0  501    0  0.00000000000E+00  0.00000000000E+00  0.21914287451E+04  0.21914287451E+04  0.25500000920E-02 0. -1.
       -2   -1    0    0    0  501  0.00000000000E+00  0.00000000000E+00 -0.17038958969E+04  0.17038958969E+04  0.25500000920E-02 0.  1.
    10030    2    1    2    0    0  0.00000000000E+00  0.00000000000E+00  0.48753284821E+03  0.38953246420E+04  0.38646947859E+04 0.  0.
        2    1    3    3  502    0  0.90389582814E+02  0.85780187008E+03  0.19866245136E+04  0.21657957621E+04  0.25500000920E-02 0. -1.
       -2    1    3    3    0  502 -0.90389582814E+02 -0.85780187008E+03 -0.14990916654E+04  0.17295288799E+04  0.25500000920E-02 0.  1.
</event>
<event>
 5   0  0.1187925E-07  0.3911905E+04  0.7818609E-02  0.8022558E-01
        1   -1    0    0  501    0  0.00000000000E+00  0.00000000000E+00  0.31313200803E+04  0.31313200804E+04  0.50400001928E-02 0.  1.
       -1   -1    0    0    0  501  0.00000000000E+00  0.00000000000E+00 -0.12217691294E+04  0.12217691294E+04  0.50400001928E-02 0. -1.
    10030    2    1    2    0    0  0.00000000000E+00  0.00000000000E+00  0.19095509509E+04  0.43530892098E+04  0.39119050134E+04 0.  0.
        4    1    3    3  502    0 -0.11181835319E+04 -0.15835370073E+04  0.66497218879E+03  0.20494178416E+04  0.12699999809E+01 0. -1.
       -4    1    3    3    0  502  0.11181835319E+04  0.15835370073E+04  0.12445787621E+04  0.23036713682E+04  0.12699999809E+01 0.  1.
</event>
<event>
 5   0  0.1187925E-07  0.3852737E+04  0.7818609E-02  0.8034931E-01
       -1   -1    0    0    0  501  0.00000000000E+00  0.00000000000E+00  0.33960676962E+04  0.33960676962E+04  0.50400001928E-02 0. -1.
        1   -1    0    0  501    0  0.00000000000E+00  0.00000000000E+00 -0.10927036386E+04  0.10927036386E+04  0.50400001928E-02 0.  1.
    10030    2    1    2    0    0  0.00000000000E+00  0.00000000000E+00  0.23033640576E+04  0.44887713348E+04  0.38527369641E+04 0.  0.
        1    1    3    3  502    0 -0.69984689988E+03 -0.11208669494E+04 -0.48142130080E+03  0.14063765038E+04  0.50400001928E-02 0.  1.
       -1    1    3    3    0  502  0.69984689988E+03  0.11208669494E+04  0.27847853584E+04  0.30823948310E+04  0.50400001928E-02 0. -1.
</event>
<event>
 5   0  0.3832389E-07  0.3831449E+04  0.7818609E-02  0.8039440E-01
        2   -1    0    0  501    0  0.00000000000E+00  0.00000000000E+00  0.20823375248E+04  0.20823375248E+04  0.25500000920E-02 0. -1.
       -2   -1    0    0    0  501  0.00000000000E+00  0.00000000000E+00 -0.17624424374E+04  0.17624424374E+04  0.25500000920E-02 0.  1.
    10030    2    1    2    0    0  0.00000000000E+00  0.00000000000E+00  0.31989508740E+03  0.38447799622E+04  0.38314488239E+04 0.  0.
        5    1    3    3  502    0  0.14727448117E+04  0.11393436738E+04  0.61195530723E+03  0.19599981315E+04  0.46999998093E+01 0. -1.
       -5    1    3    3    0  502 -0.14727448117E+04 -0.11393436738E+04 -0.29206021983E+03  0.18847818307E+04  0.46999998093E+01 0.  1.
</event>
<event>
 5   0  0.1187925E-07  0.3909265E+04  0.7818609E-02  0.8023105E-01
        1   -1    0    0  501    0  0.00000000000E+00  0.00000000000E+00  0.21056014527E+04  0.21056014527E+04  0.50400001928E-02 0. -1.
       -1   -1    0    0    0  501  0.00000000000E+00  0.00000000000E+00 -0.18144881186E+04  0.18144881186E+04  0.50400001928E-02 0.  1.
    10030    2    1    2    0    0  0.00000000000E+00  0.00000000000E+00  0.29111333409E+03  0.39200895713E+04  0.39092653113E+04 0.  0.
        3    1    3    3  502    0  0.19119803077E+04 -0.40073269916E+03  0.79545715093E+02  0.19551426864E+04  0.10100000352E+00 0. -1.
       -3    1    3    3    0  502 -0.19119803077E+04  0.40073269916E+03  0.21156761900E+03  0.19649468849E+04  0.10100000352E+00 0.  1.
</event>
<event>
 5   0  0.1187925E-07  0.4056338E+04  0.7818609E-02  0.7993277E-01
       -1   -1    0    0    0  501  0.00000000000E+00  0.00000000000E+00  0.14741568228E+04  0.14741568228E+04  0.50400001928E-02 0.  1.
        1   -1    0    0  501    0  0.00000000000E+00  0.00000000000E+00 -0.27903882942E+04  0.27903882942E+04  0.50400001928E-02 0. -1.
    10030    2    1    2    0    0  0.00000000000E+00  0.00000000000E+00 -0.13162314714E+04  0.42645451169E+04  0.40563382216E+04 0.  0.
        5    1    3    3  502    0  0.18785819490E+03 -0.19863495554E+04 -0.10409100084E+04  0.22504201815E+04  0.46999998093E+01 0. -1.
       -5    1    3    3    0  502 -0.18785819490E+03  0.19863495554E+04 -0.27532146297E+03  0.20141249355E+04  0.46999998093E+01 0.  1.
</event>
<event>
 5   0  0.3665303E-07  0.3857817E+04  0.7818609E-02  0.8033860E-01
       -2   -1    0    0    0  501  0.00000000000E+00  0.00000000000E+00  0.19967067806E+04  0.19967067806E+04  0.25500000920E-02 0.  1.
        2   -1    0    0  501    0  0.00000000000E+00  0.00000000000E+00 -0.18634123424E+04  0.18634123424E+04  0.25500000920E-02 0. -1.
    10030    2    1    2    0    0  0.00000000000E+00  0.00000000000E+00  0.13329443815E+03  0.38601191230E+04  0.38578170299E+04 0.  0.
        2    1    3    3  502    0  0.34717921590E+03  0.15748579102E+04 -0.99227405803E+03  0.18934937685E+04  0.25500000920E-02 0. -1.
       -2    1    3    3    0  502 -0.34717921590E+03 -0.15748579102E+04  0.11255684962E+04  0.19666253545E+04  0.25500000920E-02 0.  1.
</event>
<event>
 5   0  0.3610483E-07  0.3187305E+04  0.7818609E-02  0.8192178E-01
        2   -1    0    0  501    0  0.00000000000E+00  0.00000000000E+00  0.13026811326E+04  0.13026811326E+04  0.25500000920E-02 0.  1.
       -2   -1    0    0    0  501  0.00000000000E+00  0.00000000000E+00 -0.19496166730E+04  0.19496166730E+04  0.25500000920E-02 0. -1.
    10030    2    1    2    0    0  0.00000000000E+00  0.00000000000E+00 -0.64693554043E+03  0.32522978057E+04  0.31873053546E+04 0.  0.
        4    1    3    3  502    0  0.87305873676E+03 -0.10236990047E+04  0.54807761438E+03  0.14527841871E+04  0.12699999809E+01 0.  1.
       -4    1    3    3    0  502 -0.87305873676E+03  0.10236990047E+04 -0.11950131548E+04  0.17995136185E+04  0.12699999809E+01 0. -1.
</event>
<event>
 5   0  0.1187925E-07  0.3934053E+04  0.7818609E-02  0.8017984E-01
        1   -1    0    0  501    0  0.00000000000E+00  0.00000000000E+00  0.17971558580E+04  0.17971558580E+04  0.50400001928E-02 0.  1.
       -1   -1    0    0    0  501  0.00000000000E+00  0.00000000000E+00 -0.21529540985E+04  0.21529540985E+04  0.50400001928E-02 0. -1.
    10030    2    1    2    0    0  0.00000000000E+00  0.00000000000E+00 -0.35579824052E+03  0.39501099566E+04  0.39340534162E+04 0.  0.
        3    1    3    3  502    0 -0.18279161975E+04 -0.57227967091E+03  0.27160247928E+03  0.19345670223E+04  0.10100000352E+00 0. -1.
       -3    1    3    3    0  502  0.18279161975E+04  0.57227967091E+03 -0.62740071979E+03  0.20155429343E+04  0.10100000352E+00 0.  1.
</event>
<event>
 5   0  0.3665303E-07  0.3851709E+04  0.7818609E-02  0.8035148E-01
       -2   -1    0    0    0  501  0.00000000000E+00  0.00000000000E+00  0.19747706457E+04  0.19747706457E+04  0.25500000920E-02 0.  1.
        2   -1    0    0  501    0  0.00000000000E+00  0.00000000000E+00 -0.18781502421E+04  0.18781502422E+04  0.25500000920E-02 0. -1.
    10030    2    1    2    0    0  0.00000000000E+00  0.00000000000E+00  0.96620403531E+02  0.38529208878E+04  0.38517092135E+04 0.  0.
        2    1    3    3  502    0 -0.10046753462E+04  0.80312304541E+03  0.14821266575E+04  0.19624165221E+04  0.25500000920E-02 0.  1.
       -2    1    3    3    0  502  0.10046753462E+04 -0.80312304541E+03 -0.13855062540E+04  0.18905043658E+04  0.25500000920E-02 0. -1.
</event>
<event>
 5   0  0.3610483E-07  0.3889456E+04  0.7818609E-02  0.8027226E-01
        2   -1    0    0  501    0  0.00000000000E+00  0.00000000000E+00  0.23206495880E+04  0.23206495880E+04  0.25500000920E-02 0. -1.
       -2   -1    0    0    0  501  0.00000000000E+00  0.00000000000E+00 -0.16297015128E+04  0.16297015128E+04  0.25500000920E-02 0.  1.
    10030    2    1    2    0    0  0.00000000000E+00  0.00000000000E+00  0.69094807522E+03  0.39503511008E+04  0.38894555630E+04 0.  0.
        4    1    3    3  502    0 -0.16424925219E+04 -0.79434919034E+03 -0.33826141784E+03  0.18555847381E+04  0.12699999809E+01 0. -1.
       -4    1    3    3    0  502  0.16424925219E+04  0.79434919034E+03  0.10292094931E+04  0.20947663627E+04  0.12699999809E+01 0.  1.
</event>
<event>
 5   0  0.3810833E-07  0.3901092E+04  0.7818609E-02  0.8024802E-01
        2   -1    0    0  501    0  0.00000000000E+00  0.00000000000E+00  0.24452889196E+04  0.24452889196E+04  0.25500000920E-02 0.  1.
       -2   -1    0    0    0  501  0.00000000000E+00  0.00000000000E+00 -0.15559016977E+04  0.15559016977E+04  0.25500000920E-02 0. -1.
    10030    2    1    2    0    0  0.00000000000E+00  0.00000000000E+00  0.88938722191E+03  0.40011906174E+04  0.39010917351E+04 0.  0.
        3    1    3    3  502    0  0.15131147341E+04 -0.19872335611E+03 -0.80122777239E+03  0.17236511029E+04  0.10100000352E+00 0. -1.
       -3    1    3    3    0  502 -0.15131147341E+04  0.19872335611E+03  0.16906149943E+04  0.22775395145E+04  0.10100000352E+00 0.  1.
</event>
<event>
 5   0  0.1187925E-07  0.3387904E+04  0.7818609E-02  0.8140882E-01
       -1   -1    0    0    0  501  0.00000000000E+00  0.00000000000E+00  0.19180385622E+04  0.19180385622E+04  0.50400001928E-02 0.  1.
        1   -1    0    0  501    0  0.00000000000E+00  0.00000000000E+00 -0.14960454313E+04  0.14960454313E+04  0.50400001928E-02 0. -1.
    10030    2    1    2    0    0  0.00000000000E+00  0.00000000000E+00  0.42199313094E+03  0.34140839935E+04  0.33879036751E+04 0.  0.
        5    1    3    3  502    0  0.12184404608E+04 -0.55535664478E+03  0.12565267228E+04  0.18362733061E+04  0.46999998093E+01 0.  1.
       -5    1    3    3    0  502 -0.12184404608E+04  0.55535664478E+03 -0.83453359182E+03  0.15778106874E+04  0.46999998093E+01 0. -1.
</event>
<event>
 5   0  0.3665303E-07  0.3921071E+04  0.7818609E-02  0.8020661E-01
       -2   -1    0    0    0  501  0.00000000000E+00  0.00000000000E+00  0.13918402773E+04  0.13918402773E+04  0.25500000920E-02 0.  1.
        2   -1    0    0  501    0  0.00000000000E+00  0.00000000000E+00 -0.27615957135E+04  0.27615957135E+04  0.25500000920E-02 0. -1.
    10030    2    1    2    0    0  0.00000000000E+00  0.00000000000E+00 -0.13697554363E+04  0.41534359908E+04  0.39210713555E+04 0.  0.
        2    1    3    3  502    0 -0.13142140611E+04 -0.39259985314E+02  0.85560908605E+03  0.15686831589E+04  0.25500000920E-02 0.  1.
       -2    1    3    3    0  502  0.13142140611E+04  0.39259985314E+02 -0.22253645223E+04  0.25847528319E+04  0.25500000920E-02 0. -1.
</event>
<event>
 5   0  0.1187925E-07  0.3933825E+04  0.7818609E-02  0.8018031E-01
        3   -1    0    0  501    0  0.00000000000E+00  0.00000000000E+00  0.17530508858E+04  0.17530508887E+04  0.10100000352E+00 0. -1.
       -3   -1    0    0    0  501  0.00000000000E+00  0.00000000000E+00 -0.22068634745E+04  0.22068634768E+04  0.10100000352E+00 0.  1.
    10030    2    1    2    0    0  0.00000000000E+00  0.00000000000E+00 -0.45381258865E+03  0.39599143655E+04  0.39338245914E+04 0.  0.
        5    1    3    3  502    0 -0.50742667464E+03  0.18121882167E+04  0.34891363608E+03  0.19139672877E+04  0.46999998093E+01 0.  1.
       -5    1    3    3    0  502  0.50742667464E+03 -0.18121882167E+04 -0.80272622474E+03  0.20459470777E+04  0.46999998093E+01 0. -1.
</event>
<event>
 5   0  0.1187925E-07  0.3889728E+04  0.7818609E-02  0.8027169E-01
        1   -1    0    0  501    0  0.00000000000E+00  0.00000000000E+00  0.20912190769E+04  0.20912190769E+04  0.50400001928E-02 0. -1.
       -1   -1    0    0    0  501  0.00000000000E+00  0.00000000000E+00 -0.18087513739E+04  0.18087513739E+04  0.50400001928E-02 0.  1.
    10030    2    1    2    0    0  0.00000000000E+00  0.00000000000E+00  0.28246770302E+03  0.38999704507E+04  0.38897276914E+04 0.  0.
        4    1    3    3  502    0 -0.14737580010E+04  0.10296741727E+04 -0.60254315707E+03  0.18961148215E+04  0.12699999809E+01 0.  1.
       -4    1    3    3    0  502  0.14737580010E+04 -0.10296741727E+04  0.88501086009E+03  0.20038556292E+04  0.12699999809E+01 0. -1.
</event>
<event>
 5   0  0.3665303E-07  0.3737069E+04  0.7818609E-02  0.8059796E-01
        2   -1    0    0  501    0  0.00000000000E+00  0.00000000000E+00  0.14036765191E+04  0.14036765191E+04  0.25500000920E-02 0.  1.
       -2   -1    0    0    0  501  0.00000000000E+00  0.00000000000E+00 -0.24873407804E+04  0.24873407804E+04  0.25500000920E-02 0. -1.
    10030    2    1    2    0    0  0.00000000000E+00  0.00000000000E+00 -0.10836642613E+04  0.38910172996E+04  0.37370693590E+04 0.  0.
        2    1    3    3  502    0 -0.17165940617E+04 -0.25157757768E+03 -0.12642708482E+04  0.21467107928E+04  0.25500000920E-02 0. -1.
       -2    1    3    3    0  502  0.17165940617E+04  0.25157757768E+03  0.18060658690E+03  0.17443065068E+04  0.25500000920E-02 0.  1.
</event>
<event>
 5   0  0.1187925E-07  0.3914164E+04  0.7818609E-02  0.8022090E-01
        1   -1    0    0  501    0  0.00000000000E+00  0.00000000000E+00  0.16599281181E+04  0.16599281181E+04  0.50400001928E-02 0. -1.
       -1   -1    0    0    0  501  0.00000000000E+00  0.00000000000E+00 -0.23074306726E+04  0.23074306726E+04  0.50400001928E-02 0.  1.
    10030    2    1    2    0    0  0.00000000000E+00  0.00000000000E+00 -0.64750255446E+03  0.39673587907E+04  0.39141635398E+04 0.  0.
        5    1    3    3  502    0  0.14642151338E+04  0.35326379900E+03 -0.15903037047E+04  0.21903902011E+04  0.46999998093E+01 0.  1.
       -5    1    3    3    0  502 -0.14642151338E+04 -0.35326379900E+03  0.94280115028E+03  0.17769685897E+04  0.46999998093E+01 0. -1.
</event>
<event>
 5   0  0.1187925E-07  0.3882697E+04  0.7818609E-02  0.8028638E-01
       -1   -1    0    0    0  501  0.00000000000E+00  0.00000000000E+00  0.13784269565E+04  0.13784269565E+04  0.50400001928E-02 0.  1.
        1   -1    0    0  501    0  0.00000000000E+00  0.00000000000E+00 -0.27341556542E+04  0.27341556542E+04  0.50400001928E-02 0. -1.
    10030    2    1    2    0    0  0.00000000000E+00  0.00000000000E+00 -0.13557286977E+04  0.41125826106E+04  0.38826969271E+04 0.  0.
        5    1    3    3  502    0 -0.18038701566E+04 -0.16957048818E+03 -0.14163608699E+04  0.22997395279E+04  0.46999998093E+01 0.  1.
       -5    1    3    3    0  502  0.18038701566E+04  0.16957048818E+03  0.60632172177E+02  0.18128430827E+04  0.46999998093E+01 0. -1.
</event>
<event>
 5   0  0.1187925E-07  0.3845476E+04  0.7818609E-02  0.8036466E-01
        1   -1    0    0  501    0  0.00000000000E+00  0.00000000000E+00  0.21634843398E+04  0.21634843398E+04  0.50400001928E-02 0.  1.
       -1   -1    0    0    0  501  0.00000000000E+00  0.00000000000E+00 -0.17087810908E+04  0.17087810908E+04  0.50400001928E-02 0. -1.
    10030    2    1    2    0    0  0.00000000000E+00  0.00000000000E+00  0.45470324897E+03  0.38722654306E+04  0.38454758510E+04 0.  0.
        3    1    3    3  502    0  0.14964893825E+03  0.79754710923E+03  0.19826086296E+04  0.21422448937E+04  0.10100000352E+00 0.  1.
       -3    1    3    3    0  502 -0.14964893825E+03 -0.79754710923E+03 -0.15279053806E+04  0.17300205370E+04  0.10100000352E+00 0. -1.
</event>
<event>
 5   0  0.1187925E-07  0.3904383E+04  0.7818609E-02  0.8024118E-01
        1   -1    0    0  501    0  0.00000000000E+00  0.00000000000E+00  0.26276125055E+04  0.26276125055E+04  0.50400001928E-02 0. -1.
       -1   -1    0    0    0  501  0.00000000000E+00  0.00000000000E+00 -0.14503853901E+04  0.14503853901E+04  0.50400001928E-02 0.  1.
    10030    2    1    2    0    0  0.00000000000E+00  0.00000000000E+00  0.11772271154E+04  0.40779978957E+04  0.39043825576E+04 0.  0.
        2    1    3    3  502    0  0.65654726859E+03 -0.17778728221E+04  0.99646121182E+02  0.18978449454E+04  0.25500000920E-02 0.  1.
       -2    1    3    3    0  502 -0.65654726859E+03  0.17778728221E+04  0.10775809942E+04  0.21801529502E+04  0.25500000920E-02 0. -1.
</event>
<event>
 5   0  0.3832389E-07  0.3321663E+04  0.7818609E-02  0.8157405E-01
        2   -1    0    0  501    0  0.00000000000E+00  0.00000000000E+00  0.12886234534E+04  0.12886234534E+04  0.25500000920E-02 0. -1.
       -2   -1    0    0    0  501  0.00000000000E+00  0.00000000000E+00 -0.21405487443E+04  0.21405487443E+04  0.25500000920E-02 0.  1.
    10030    2    1    2    0    0  0.00000000000E+00  0.00000000000E+00 -0.85192529097E+03  0.34291721977E+04  0.33216630263E+04 0.  0.
        5    1    3    3  502    0 -0.40102419714E+03  0.66041739590E+03 -0.19437049806E+04  0.20916459273E+04  0.46999998093E+01 0.  1.
       -5    1    3    3    0  502  0.40102419714E+03 -0.66041739590E+03  0.10917796896E+04  0.13375262704E+04  0.46999998093E+01 0. -1.
</event>
<event>
 5   0  0.1187925E-07  0.3934227E+04  0.7818609E-02  0.8017948E-01
        1   -1    0    0  501    0  0.00000000000E+00  0.00000000000E+00  0.18900274482E+04  0.18900274482E+04  0.50400001928E-02 0. -1.
       -1   -1    0    0    0  501  0.00000000000E+00  0.00000000000E+00 -0.20473439653E+04  0.20473439653E+04  0.50400001928E-02 0.  1.
    10030    2    1    2    0    0  0.00000000000E+00  0.00000000000E+00 -0.15731651710E+03  0.39373714135E+04  0.39342273907E+04 0.  0.
        4    1    3    3  502    0 -0.19496493260E+04 -0.43214241021E+02 -0.33680762814E+03  0.19789999889E+04  0.12699999809E+01 0.  1.
       -4    1    3    3    0  502  0.19496493260E+04  0.43214241021E+02  0.17949111104E+03  0.19583714246E+04  0.12699999809E+01 0. -1.
</event>
<event>
 5   0  0.1187925E-07  0.3679326E+04  0.7818609E-02  0.8072559E-01
       -1   -1    0    0    0  501  0.00000000000E+00  0.00000000000E+00  0.19485725342E+04  0.19485725342E+04  0.50400001928E-02 0.  1.
        1   -1    0    0  501    0  0.00000000000E+00  0.00000000000E+00 -0.17368404525E+04  0.17368404525E+04  0.50400001928E-02 0. -1.
    10030    2    1    2    0    0  0.00000000000E+00  0.00000000000E+00  0.21173208172E+03  0.36854129868E+04  0.36793258090E+04 0.  0.
        5    1    3    3  502    0 -0.30896488967E+03  0.14469440276E+04 -0.98920898321E+03  0.17797929162E+04  0.46999998093E+01 0. -1.
       -5    1    3    3    0  502  0.30896488967E+03 -0.14469440276E+04  0.12009410649E+04  0.19056200706E+04  0.46999998093E+01 0.  1.
</event>
<event>
 5   0  0.3665303E-07  0.3903076E+04  0.7818609E-02  0.8024390E-01
        2   -1    0    0  501    0  0.00000000000E+00  0.00000000000E+00  0.13289944732E+04  0.13289944732E+04  0.25500000920E-02 0.  1.
       -2   -1    0    0    0  501  0.00000000000E+00  0.00000000000E+00 -0.28657003132E+04  0.28657003132E+04  0.25500000920E-02 0. -1.
    10030    2    1    2    0    0  0.00000000000E+00  0.00000000000E+00 -0.15367058400E+04  0.41946947864E+04  0.39030756478E+04 0.  0.
        2    1    3    3  502    0  0.72284853192E+03  0.66491081499E+03  0.10440272314E+04  0.14333908231E+04  0.25500000920E-02 0.  1.
       -2    1    3    3    0  502 -0.72284853192E+03 -0.66491081499E+03 -0.25807330714E+04  0.27613039633E+04  0.25500000920E-02 0. -1.
</event>
<event>
 5   0  0.1187925E-07  0.2940428E+04  0.7818609E-02  0.8260950E-01
       -1   -1    0    0    0  501  0.00000000000E+00  0.00000000000E+00  0.10064018590E+04  0.10064018590E+04  0.50400001928E-02 0.  1.
        1   -1    0    0  501    0  0.00000000000E+00  0.00000000000E+00 -0.21477797036E+04  0.21477797036E+04  0.50400001928E-02 0. -1.
    10030    2    1    2    0    0  0.00000000000E+00  0.00000000000E+00 -0.11413778447E+04  0.31541815626E+04  0.29404281909E+04 0.  0.
        2    1    3    3  502    0  0.10503269100E+04  0.47851989312E+03  0.40620648419E+03  0.12235896428E+04  0.25500000920E-02 0.  1.
       -2    1    3    3    0  502 -0.10503269100E+04 -0.47851989312E+03 -0.15475843289E+04  0.19305919199E+04  0.25500000920E-02 0. -1.
</event>
<event>
 5   0  0.3832389E-07  0.4355045E+04  0.7818609E-02  0.7936517E-01
        2   -1    0    0  501    0  0.00000000000E+00  0.00000000000E+00  0.23765441682E+04  0.23765441682E+04  0.25500000920E-02 0.  1.
       -2   -1    0    0    0  501  0.00000000000E+00  0.00000000000E+00 -0.19951676584E+04  0.19951676584E+04  0.25500000920E-02 0. -1.
    10030    2    1    2    0    0  0.00000000000E+00  0.00000000000E+00  0.38137650978E+03  0.43717118266E+04  0.43550449197E+04 0.  0.
        5    1    3    3  502    0  0.17764938754E+03 -0.16588039013E+04 -0.12140930939E+04  0.20633065255E+04  0.46999998093E+01 0. -1.
       -5    1    3    3    0  502 -0.17764938754E+03  0.16588039013E+04  0.15954696037E+04  0.23084053011E+04  0.46999998093E+01 0.  1.
</event>
<event>
 5   0  0.1187925E-07  0.3967434E+04  0.7818609E-02  0.8011149E-01
       -1   -1    0    0    0  501  0.00000000000E+00  0.00000000000E+00  0.17235085048E+04  0.17235085049E+04  0.50400001928E-02 0. -1.
        1   -1    0    0  501    0  0.00000000000E+00  0.00000000000E+00 -0.22832106150E+04  0.22832106150E+04  0.50400001928E-02 0.  1.
    10030    2    1    2    0    0  0.00000000000E+00  0.00000000000E+00 -0.55970211011E+03  0.40067191198E+04  0.39674338877E+04 0.  0.
        1    1    3    3  502    0 -0.15065853343E+04 -0.12776325237E+04 -0.96424733712E+02  0.19777365761E+04  0.50400001928E-02 0. -1.
       -1    1    3    3    0  502  0.15065853343E+04  0.12776325237E+04 -0.46327737640E+03  0.20289825437E+04  0.50400001928E-02 0.  1.
</event>
<event>
 5   0  0.3810833E-07  0.3858180E+04  0.7818609E-02  0.8033784E-01
        2   -1    0    0  501    0  0.00000000000E+00  0.00000000000E+00  0.19608925767E+04  0.19608925767E+04  0.25500000920E-02 0. -1.
       -2   -1    0    0    0  501  0.00000000000E+00  0.00000000000E+00 -0.18978036221E+04  0.18978036221E+04  0.25500000920E-02 0.  1.
    10030    2    1    2    0    0  0.00000000000E+00  0.00000000000E+00  0.63088954604E+02  0.38586961989E+04  0.38581804182E+04 0.  0.
        3    1    3    3  502    0 -0.83214250612E+03 -0.15023681367E+04 -0.84710461684E+03  0.19149823526E+04  0.10100000352E+00 0.  1.
       -3    1    3    3    0  502  0.83214250612E+03  0.15023681367E+04  0.91019357145E+03  0.19437138463E+04  0.10100000352E+00 0. -1.
</event>
<event>
 5   0  0.3832389E-07  0.3897295E+04  0.7818609E-02  0.8025592E-01
       -2   -1    0    0    0  501  0.00000000000E+00  0.00000000000E+00  0.10849378207E+04  0.10849378207E+04  0.25500000920E-02 0.  1.
        2   -1    0    0  501    0  0.00000000000E+00  0.00000000000E+00 -0.34999484943E+04  0.34999484943E+04  0.25500000920E-02 0. -1.
    10030    2    1    2    0    0  0.00000000000E+00  0.00000000000E+00 -0.24150106737E+04  0.45848863150E+04  0.38972946986E+04 0.  0.
        5    1    3    3  502    0 -0.98367102732E+03 -0.14594010757E+04 -0.22341496610E+03  0.17740903378E+04  0.46999998093E+01 0.  1.
       -5    1    3    3    0  502  0.98367102732E+03  0.14594010757E+04 -0.21915957076E+04  0.28107959771E+04  0.46999998093E+01 0. -1.
</event>
<event>
 5   0  0.1187925E-07  0.3894885E+04  0.7818609E-02  0.8026094E-01
       -1   -1    0    0    0  501  0.00000000000E+00  0.00000000000E+00  0.13028527044E+04  0.13028527044E+04  0.50400001928E-02 0. -1.
        1   -1    0    0  501    0  0.00000000000E+00  0.00000000000E+00 -0.29109448647E+04  0.29109448647E+04  0.50400001928E-02 0.  1.
    10030    2    1    2    0    0  0.00000000000E+00  0.00000000000E+00 -0.16080921603E+04  0.42137975691E+04  0.38948850506E+04 0.  0.
        1    1    3    3  502    0  0.12625649690E+04  0.49575297907E+03 -0.23158511370E+04  0.26838419860E+04  0.50400001928E-02 0.  1.
       -1    1    3    3    0  502 -0.12625649690E+04 -0.49575297907E+03  0.70775897670E+03  0.15299555831E+04  0.50400001928E-02 0. -1.
</event>
<event>
 5   0  0.3665303E-07  0.3912868E+04  0.7818609E-02  0.8022358E-01
        2   -1    0    0  501    0  0.00000000000E+00  0.00000000000E+00  0.30548112821E+04  0.30548112821E+04  0.25500000920E-02 0.  1.
       -2   -1    0    0    0  501  0.00000000000E+00  0.00000000000E+00 -0.12529851854E+04  0.12529851854E+04  0.25500000920E-02 0. -1.
    10030    2    1    2    0    0  0.00000000000E+00  0.00000000000E+00  0.18018260967E+04  0.43077964676E+04  0.39128676342E+04 0.  0.
        2    1    3    3  502    0  0.19559028822E+04 -0.10427327293E+02  0.85206760151E+03  0.21334676026E+04  0.25500000920E-02 0. -1.
       -2    1    3    3    0  502 -0.19559028822E+04  0.10427327293E+02  0.94975849520E+03  0.21743288650E+04  0.25500000920E-02 0.  1.
</event>
<event>
 5   0  0.3832389E-07  0.3920012E+04  0.7818609E-02  0.8020880E-01
       -2   -1    0    0    0  501  0.00000000000E+00  0.00000000000E+00  0.27718845728E+04  0.27718845728E+04  0.25500000920E-02 0.  1.
        2   -1    0    0  501    0  0.00000000000E+00  0.00000000000E+00 -0.13859250191E+04  0.13859250191E+04  0.25500000920E-02 0. -1.
    10030    2    1    2    0    0  0.00000000000E+00  0.00000000000E+00  0.13859595537E+04  0.41578095918E+04  0.39200123364E+04 0.  0.
        5    1    3    3  502    0  0.50671449540E+03  0.14938943408E+04 -0.54082280302E+03  0.16676304373E+04  0.46999998093E+01 0. -1.
       -5    1    3    3    0  502 -0.50671449540E+03 -0.14938943408E+04  0.19267823567E+04  0.24901791545E+04  0.46999998093E+01 0.  1.
</event>
<event>
 5   0  0.1187925E-07  0.4081954E+04  0.7818609E-02  0.7988215E-01
        1   -1    0    0  501    0  0.00000000000E+00  0.00000000000E+00  0.28373421766E+04  0.28373421766E+04  0.50400001928E-02 0.  1.
       -1   -1    0    0    0  501  0.00000000000E+00  0.00000000000E+00 -0.14681301833E+04  0.14681301833E+04  0.50400001928E-02 0. -1.
    10030    2    1    2    0    0  0.00000000000E+00  0.00000000000E+00  0.13692119934E+04  0.43054723599E+04  0.40819542819E+04 0.  0.
        2    1    3    3  502    0  0.18724422082E+04 -0.10009237318E+03  0.15346708701E+04  0.24230709824E+04  0.25500000920E-02 0. -1.
       -2    1    3    3    0  502 -0.18724422082E+04  0.10009237318E+03 -0.16545887673E+03  0.18824013775E+04  0.25500000920E-02 0.  1.
</event>
<event>
 5   0  0.3810833E-07  0.3914977E+04  0.7818609E-02  0.8021921E-01
       -2   -1    0    0    0  501  0.00000000000E+00  0.00000000000E+00  0.29798234157E+04  0.29798234157E+04  0.25500000920E-02 0. -1.
        2   -1    0    0  501    0  0.00000000000E+00  0.00000000000E+00 -0.12859023394E+04  0.12859023394E+04  0.25500000920E-02 0.  1.
    10030    2    1    2    0    0  0.00000000000E+00  0.00000000000E+00  0.16939210763E+04  0.42657257551E+04  0.39149773441E+04 0.  0.
        3    1    3    3  502    0  0.16840143191E+04 -0.30394847026E+00 -0.24037177074E+03  0.17010828662E+04  0.10100000352E+00 0.  1.
       -3    1    3    3    0  502 -0.16840143191E+04  0.30394847026E+00  0.19342928470E+04  0.25646428889E+04  0.10100000352E+00 0. -1.
</event>
<event>
 5   0  0.1187925E-07  0.3907993E+04  0.7818609E-02  0.8023369E-01
        1   -1    0    0  501    0  0.00000000000E+00  0.00000000000E+00  0.20760233000E+04  0.20760233000E+04  0.50400001928E-02 0.  1.
       -1   -1    0    0    0  501  0.00000000000E+00  0.00000000000E+00 -0.18391421743E+04  0.18391421743E+04  0.50400001928E-02 0. -1.
    10030    2    1    2    0    0  0.00000000000E+00  0.00000000000E+00  0.23688112575E+03  0.39151654743E+04  0.39079928382E+04 0.  0.
        4    1    3    3  502    0  0.84662725720E+03  0.38589894773E+03  0.18398505004E+04  0.20617340244E+04  0.12699999809E+01 0.  1.
       -4    1    3    3    0  502 -0.84662725720E+03 -0.38589894773E+03 -0.16029693747E+04  0.18534314499E+04  0.12699999809E+01 0. -1.
</event>
<event>
 5   0  0.1187925E-07  0.3886758E+04  0.7818609E-02  0.8027789E-01
        1   -1    0    0  501    0  0.00000000000E+00  0.00000000000E+00  0.31563215046E+04  0.31563215046E+04  0.50400001928E-02 0. -1.
       -1   -1    0    0    0  501  0.00000000000E+00  0.00000000000E+00 -0.11965583403E+04  0.11965583403E+04  0.50400001928E-02 0.  1.
    10030    2    1    2    0    0  0.00000000000E+00  0.00000000000E+00  0.19597631643E+04  0.43528798449E+04  0.38867584546E+04 0.  0.
        5    1    3    3  502    0  0.14903440920E+04 -0.11913837267E+04  0.13931629697E+04  0.23625083803E+04  0.46999998093E+01 0.  1.
       -5    1    3    3    0  502 -0.14903440920E+04  0.11913837267E+04  0.56660019458E+03  0.19903714646E+04  0.46999998093E+01 0. -1.
</event>
<event>
 5   0  0.1187925E-07  0.2926747E+04  0.7818609E-02  0.8264964E-01
       -1   -1    0    0    0  501  0.00000000000E+00  0.00000000000E+00  0.96999023211E+03  0.96999023212E+03  0.50400001928E-02 0.  1.
        1   -1    0    0  501    0  0.00000000000E+00  0.00000000000E+00 -0.22077151942E+04  0.22077151942E+04  0.50400001928E-02 0. -1.
    10030    2    1    2    0    0  0.00000000000E+00  0.00000000000E+00 -0.12377249621E+04  0.31777054263E+04  0.29267471183E+04 0.  0.
        5    1    3    3  502    0  0.32022639474E+03  0.10840761072E+04  0.39016592504E+03  0.11958333869E+04  0.46999998093E+01 0.  1.
       -5    1    3    3    0  502 -0.32022639474E+03 -0.10840761072E+04 -0.16278908871E+04  0.19818720394E+04  0.46999998093E+01 0. -1.
</event>
<event>
 5   0  0.3810833E-07  0.3497816E+04  0.7818609E-02  0.8114308E-01
       -2   -1    0    0    0  501  0.00000000000E+00  0.00000000000E+00  0.11481119343E+04  0.11481119343E+04  0.25500000920E-02 0. -1.
        2   -1    0    0  501    0  0.00000000000E+00  0.00000000000E+00 -0.26640951066E+04  0.26640951066E+04  0.25500000920E-02 0.  1.
    10030    2    1    2    0    0  0.00000000000E+00  0.00000000000E+00 -0.15159831723E+04  0.38122070410E+04  0.34978161107E+04 0.  0.
        3    1    3    3  502    0 -0.23000805957E+03  0.69966043953E+03  0.97085509381E+03  0.12186008623E+04  0.10100000352E+00 0. -1.
       -3    1    3    3    0  502  0.23000805957E+03 -0.69966043953E+03 -0.24868382661E+04  0.25936061787E+04  0.10100000352E+00 0.  1.
</event>
<event>
 5   0  0.1187925E-07  0.3906014E+04  0.7818609E-02  0.8023780E-01
       -1   -1    0    0    0  501  0.00000000000E+00  0.00000000000E+00  0.17585530354E+04  0.17585530354E+04  0.50400001928E-02 0. -1.
        1   -1    0    0  501    0  0.00000000000E+00  0.00000000000E+00 -0.21689631468E+04  0.21689631468E+04  0.50400001928E-02 0.  1.
    10030    2    1    2    0    0  0.00000000000E+00  0.00000000000E+00 -0.41041011138E+03  0.39275161822E+04  0.39060141964E+04 0.  0.
        5    1    3    3  502    0 -0.25786525662E+03 -0.61681957179E+03  0.16399042068E+04  0.17709513749E+04  0.46999998093E+01 0. -1.
       -5    1    3    3    0  502  0.25786525662E+03  0.61681957179E+03 -0.20503143182E+04  0.21565648073E+04  0.46999998093E+01 0.  1.
</event>
<event>
 5   0  0.1187925E-07  0.3811495E+04  0.7818609E-02  0.8043692E-01
       -1   -1    0    0    0  501  0.00000000000E+00  0.00000000000E+00  0.17211326047E+04  0.17211326047E+04  0.50400001928E-02 0. -1.
        1   -1    0    0  501    0  0.00000000000E+00  0.00000000000E+00 -0.21101653824E+04  0.21101653824E+04  0.50400001928E-02 0.  1.
    10030    2    1    2    0    0  0.00000000000E+00  0.00000000000E+00 -0.38903277766E+03  0.38312979871E+04  0.38114954761E+04 0.  0.
        5    1    3    3  502    0 -0.14220787150E+04  0.34141798914E+03  0.10337067113E+04  0.17909343288E+04  0.46999998093E+01 0. -1.
       -5    1    3    3    0  502  0.14220787150E+04 -0.34141798914E+03 -0.14227394889E+04  0.20403636584E+04  0.46999998093E+01 0.  1.
</event>
<event>
 5   0  0.3810833E-07  0.3873956E+04  0.7818609E-02  0.8030468E-01
        2   -1    0    0  501    0  0.00000000000E+00  0.00000000000E+00  0.28975692629E+04  0.28975692630E+04  0.25500000920E-02 0.  1.
       -2   -1    0    0    0  501  0.00000000000E+00  0.00000000000E+00 -0.12948385542E+04  0.12948385542E+04  0.25500000920E-02 0. -1.
    10030    2    1    2    0    0  0.00000000000E+00  0.00000000000E+00  0.16027307088E+04  0.41924078172E+04  0.38739563215E+04 0.  0.
        3    1    3    3  502    0  0.13671886099E+04 -0.75603481727E+03  0.20405191966E+04  0.25699245013E+04  0.10100000352E+00 0.  1.
       -3    1    3    3    0  502 -0.13671886099E+04  0.75603481727E+03 -0.43778848790E+03  0.16224833159E+04  0.10100000352E+00 0. -1.
</event>
<event>
 5   0  0.3680814E-07  0.3890638E+04  0.7818609E-02  0.8026979E-01
        2   -1    0    0  501    0  0.00000000000E+00  0.00000000000E+00  0.23152930657E+04  0.23152930657E+04  0.25500000920E-02 0. -1.
       -2   -1    0    0    0  501  0.00000000000E+00  0.00000000000E+00 -0.16344654106E+04  0.16344654106E+04  0.25500000920E-02 0.  1.
    10030    2    1    2    0    0  0.00000000000E+00  0.00000000000E+00  0.68082765515E+03  0.39497584763E+04  0.38906382157E+04 0.  0.
        1    1    3    3  502    0 -0.15748142694E+04 -0.11420246857E+04  0.33791357324E+03  0.19744482644E+04  0.50400001928E-02 0. -1.
       -1    1    3    3    0  502  0.15748142694E+04  0.11420246857E+04  0.34291408192E+03  0.19753102119E+04  0.50400001928E-02 0.  1.
</event>
<event>
 5   0  0.3610483E-07  0.3918792E+04  0.7818609E-02  0.8021132E-01
        2   -1    0    0  501    0  0.00000000000E+00  0.00000000000E+00  0.12950669147E+04  0.12950669147E+04  0.25500000920E-02 0. -1.
       -2   -1    0    0    0  501  0.00000000000E+00  0.00000000000E+00 -0.29645047729E+04  0.29645047729E+04  0.25500000920E-02 0.  1.
    10030    2    1    2    0    0  0.00000000000E+00  0.00000000000E+00 -0.16694378582E+04  0.42595716876E+04  0.39187916760E+04 0.  0.
        4    1    3    3  502    0  0.75583231520E+03 -0.11223462817E+03 -0.27958774010E+04  0.28984152833E+04  0.12699999809E+01 0.  1.
       -4    1    3    3    0  502 -0.75583231520E+03  0.11223462817E+03  0.11264395428E+04  0.13611564043E+04  0.12699999809E+01 0. -1.
</event>
<event>
 5   0  0.1187925E-07  0.3907259E+04  0.7818609E-02  0.8023521E-01
        1   -1    0    0  501    0  0.00000000000E+00  0.00000000000E+00  0.17878166262E+04  0.17878166262E+04  0.50400001928E-02 0. -1.
       -1   -1    0    0    0  501  0.00000000000E+00  0.00000000000E+00 -0.21348207141E+04  0.21348207141E+04  0.50400001928E-02 0.  1.
    10030    2    1    2    0    0  0.00000000000E+00  0.00000000000E+00 -0.34700408795E+03  0.39226373403E+04  0.39072588687E+04 0.  0.
        2    1    3    3  502    0  0.11824854761E+04 -0.62690650003E+03  0.12552593038E+04  0.18349276772E+04  0.25500000920E-02 0. -1.
       -2    1    3    3    0  502 -0.11824854761E+04  0.62690650003E+03 -0.16022633918E+04  0.20877096631E+04  0.25500000920E-02 0.  1.
</event>
<event>
 5   0  0.3832389E-07  0.2913739E+04  0.7818609E-02  0.8268802E-01
       -2   -1    0    0    0  501  0.00000000000E+00  0.00000000000E+00  0.11055777974E+04  0.11055777974E+04  0.25500000920E-02 0.  1.
        2   -1    0    0  501    0  0.00000000000E+00  0.00000000000E+00 -0.19197817301E+04  0.19197817301E+04  0.25500000920E-02 0. -1.
    10030    2    1    2    0    0  0.00000000000E+00  0.00000000000E+00 -0.81420393273E+03  0.30253595275E+04  0.29137385309E+04 0.  0.
        5    1    3    3  502    0  0.71873626811E+03  0.11440118677E+04  0.15884855613E+03  0.13603675718E+04  0.46999998093E+01 0.  1.
       -5    1    3    3    0  502 -0.71873626811E+03 -0.11440118677E+04 -0.97305248887E+03  0.16649919557E+04  0.46999998093E+01 0. -1.
</event>
<event>
 5   0  0.1187925E-07  0.3927798E+04  0.7818609E-02  0.8019273E-01
        1   -1    0    0  501    0  0.00000000000E+00  0.00000000000E+00  0.31236581510E+04  0.31236581510E+04  0.50400001928E-02 0. -1.
       -1   -1    0    0    0  501  0.00000000000E+00  0.00000000000E+00 -0.12347377468E+04  0.12347377468E+04  0.50400001928E-02 0.  1.
    10030    2    1    2    0    0  0.00000000000E+00  0.00000000000E+00  0.18889204042E+04  0.43583958978E+04  0.39277976665E+04 0.  0.
        4    1    3    3  502    0 -0.16164567190E+04  0.50140117491E+03  0.20499539568E+04  0.26583168172E+04  0.12699999809E+01 0. -1.
       -4    1    3    3    0  502  0.16164567190E+04 -0.50140117491E+03 -0.16103355260E+03  0.17000790807E+04  0.12699999809E+01 0.  1.
</event>
<event>
 5   0  0.3680814E-07  0.3889857E+04  0.7818609E-02  0.8027142E-01
        2   -1    0    0  501    0  0.00000000000E+00  0.00000000000E+00  0.23438708901E+04  0.23438708901E+04  0.25500000920E-02 0. -1.
       -2   -1    0    0    0  501  0.00000000000E+00  0.00000000000E+00 -0.16138887521E+04  0.16138887521E+04  0.25500000920E-02 0.  1.
    10030    2    1    2    0    0  0.00000000000E+00  0.00000000000E+00  0.72998213807E+03  0.39577596422E+04  0.38898569978E+04 0.  0.
        1    1    3    3  502    0 -0.70932430636E+03 -0.15855736237E+04  0.12552288360E+04  0.21430781877E+04  0.50400001928E-02 0. -1.
       -1    1    3    3    0  502  0.70932430636E+03  0.15855736237E+04 -0.52524669791E+03  0.18146814545E+04  0.50400001928E-02 0.  1.
</event>
<event>
 5   0  0.3832389E-07  0.3795361E+04  0.7818609E-02  0.8047151E-01
       -2   -1    0    0    0  501  0.00000000000E+00  0.00000000000E+00  0.14202900898E+04  0.14202900898E+04  0.25500000920E-02 0.  1.
        2   -1    0    0  501    0  0.00000000000E+00  0.00000000000E+00 -0.25355327602E+04  0.25355327602E+04  0.25500000920E-02 0. -1.
    10030    2    1    2    0    0  0.00000000000E+00  0.00000000000E+00 -0.11152426704E+04  0.39558228501E+04  0.37953614067E+04 0.  0.
        5    1    3    3  502    0 -0.37455008015E+03  0.75081871819E+03 -0.23316860048E+04  0.24780634021E+04  0.46999998093E+01 0. -1.
       -5    1    3    3    0  502  0.37455008015E+03 -0.75081871819E+03  0.12164433344E+04  0.14777594479E+04  0.46999998093E+01 0.  1.
</event>
<event>
 5   0  0.3665303E-07  0.3519159E+04  0.7818609E-02  0.8109264E-01
        2   -1    0    0  501    0  0.00000000000E+00  0.00000000000E+00  0.15225589357E+04  0.15225589357E+04  0.25500000920E-02 0. -1.
       -2   -1    0    0    0  501  0.00000000000E+00  0.00000000000E+00 -0.20334980245E+04  0.20334980245E+04  0.25500000920E-02 0.  1.
    10030    2    1    2    0    0  0.00000000000E+00  0.00000000000E+00 -0.51093908871E+03  0.35560569602E+04  0.35191593246E+04 0.  0.
        2    1    3    3  502    0  0.14526630941E+03 -0.34076264139E+02 -0.20270937935E+04  0.20325778559E+04  0.25500000920E-02 0.  1.
       -2    1    3    3    0  502 -0.14526630941E+03  0.34076264139E+02  0.15161547048E+04  0.15234791043E+04  0.25500000920E-02 0. -1.
</event>
<event>
 5   0  0.1187925E-07  0.3628868E+04  0.7818609E-02  0.8083911E-01
        1   -1    0    0  501    0  0.00000000000E+00  0.00000000000E+00  0.21701038589E+04  0.21701038589E+04  0.50400001928E-02 0. -1.
       -1   -1    0    0    0  501  0.00000000000E+00  0.00000000000E+00 -0.15170567216E+04  0.15170567217E+04  0.50400001928E-02 0.  1.
    10030    2    1    2    0    0  0.00000000000E+00  0.00000000000E+00  0.65304713722E+03  0.36871605805E+04  0.36288679479E+04 0.  0.
        1    1    3    3  502    0  0.42390915445E+03 -0.17633784934E+04  0.38187771775E+03  0.18533842757E+04  0.50400001928E-02 0.  1.
       -1    1    3    3    0  502 -0.42390915445E+03  0.17633784934E+04  0.27116941946E+03  0.18337763048E+04  0.50400001928E-02 0. -1.
</event>
<event>
 5   0  0.1187925E-07  0.3886986E+04  0.7818609E-02  0.8027741E-01
        1   -1    0    0  501    0  0.00000000000E+00  0.00000000000E+00  0.22990038184E+04  0.22990038184E+04  0.50400001928E-02 0.  1.
       -1   -1    0    0    0  501  0.00000000000E+00  0.00000000000E+00 -0.16429573548E+04  0.16429573548E+04  0.50400001928E-02 0. -1.
    10030    2    1    2    0    0  0.00000000000E+00  0.00000000000E+00  0.65604646359E+03  0.39419611731E+04  0.38869860983E+04 0.  0.
        4    1    3    3  502    0 -0.43646989265E+03 -0.34788043104E+03  0.22159749422E+04  0.22851856202E+04  0.12699999809E+01 0.  1.
       -4    1    3    3    0  502  0.43646989265E+03  0.34788043104E+03 -0.15599284786E+04  0.16567755529E+04  0.12699999809E+01 0. -1.
</event>
<event>
 5   0  0.3665303E-07  0.3958872E+04  0.7818609E-02  0.8012895E-01
        2   -1    0    0  501    0  0.00000000000E+00  0.00000000000E+00  0.25255965139E+04  0.25255965139E+04  0.25500000920E-02 0. -1.
       -2   -1    0    0    0  501  0.00000000000E+00  0.00000000000E+00 -0.15513828563E+04  0.15513828563E+04  0.25500000920E-02 0.  1.
    10030    2    1    2    0    0  0.00000000000E+00  0.00000000000E+00  0.97421365755E+03  0.40769793702E+04  0.39588721290E+04 0.  0.
        2    1    3    3  502    0  0.93986355215E+02 -0.19712464012E+04  0.32916472222E+03  0.20007486657E+04  0.25500000920E-02 0.  1.
       -2    1    3    3    0  502 -0.93986355215E+02  0.19712464012E+04  0.64504893534E+03  0.20762307044E+04  0.25500000920E-02 0. -1.
</event>
<event>
 5   0  0.3832389E-07  0.3947513E+04  0.7818609E-02  0.8015219E-01
        2   -1    0    0  501    0  0.00000000000E+00  0.00000000000E+00  0.14696644661E+04  0.14696644661E+04  0.25500000920E-02 0.  1.
       -2   -1    0    0    0  501  0.00000000000E+00  0.00000000000E+00 -0.26507516632E+04  0.26507516632E+04  0.25500000920E-02 0. -1.
    10030    2    1    2    0    0  0.00000000000E+00  0.00000000000E+00 -0.11810871971E+04  0.41204161293E+04  0.39475134087E+04 0.  0.
        5    1    3    3  502    0  0.18391878968E+03  0.19128616844E+04 -0.10606334509E+04  0.21949558884E+04  0.46999998093E+01 0. -1.
       -5    1    3    3    0  502 -0.18391878968E+03 -0.19128616844E+04 -0.12045374618E+03  0.19254602410E+04  0.46999998093E+01 0.  1.
</event>
<event>
 5   0  0.1187925E-07  0.3854478E+04  0.7818609E-02  0.8034564E-01
        1   -1    0    0  501    0  0.00000000000E+00  0.00000000000E+00  0.20850547646E+04  0.20850547646E+04  0.50400001928E-02 0. -1.
       -1   -1    0    0    0  501  0.00000000000E+00  0.00000000000E+00 -0.17813683831E+04  0.17813683831E+04  0.50400001928E-02 0.  1.
    10030    2    1    2    0    0  0.00000000000E+00  0.00000000000E+00  0.30368638144E+03  0.38664231477E+04  0.38544782447E+04 0.  0.
        4    1    3    3  502    0 -0.93735064581E+02 -0.14397007887E+04 -0.11298976561E+04  0.18325378439E+04  0.12699999809E+01 0.  1.
       -4    1    3    3    0  502  0.93735064581E+02  0.14397007887E+04  0.14335840376E+04  0.20338853038E+04  0.12699999809E+01 0. -1.
</event>
<event>
 5   0  0.1187925E-07  0.3875915E+04  0.7818609E-02  0.8030057E-01
        1   -1    0    0  501    0  0.00000000000E+00  0.00000000000E+00  0.24688526428E+04  0.24688526428E+04  0.50400001928E-02 0. -1.
       -1   -1    0    0    0  501  0.00000000000E+00  0.00000000000E+00 -0.15212241940E+04  0.15212241940E+04  0.50400001928E-02 0.  1.
    10030    2    1    2    0    0  0.00000000000E+00  0.00000000000E+00  0.94762844880E+03  0.39900768368E+04  0.38759145355E+04 0.  0.
        2    1    3    3  502    0 -0.98316718168E+03  0.99218629184E+03 -0.90911767807E+03  0.16665972211E+04  0.25500000920E-02 0.  1.
       -2    1    3    3    0  502  0.98316718168E+03 -0.99218629184E+03  0.18567461269E+04  0.23234796157E+04  0.25500000920E-02 0. -1.
</event>
<event>
 5   0  0.3610483E-07  0.3867292E+04  0.7818609E-02  0.8031866E-01
       -2   -1    0    0    0  501  0.00000000000E+00  0.00000000000E+00  0.15588713784E+04  0.15588713784E+04  0.25500000920E-02 0.  1.
        2   -1    0    0  501    0  0.00000000000E+00  0.00000000000E+00 -0.23985221626E+04  0.23985221626E+04  0.25500000920E-02 0. -1.
    10030    2    1    2    0    0  0.00000000000E+00  0.00000000000E+00 -0.83965078427E+03  0.39573935410E+04  0.38672923601E+04 0.  0.
        4    1    3    3  502    0 -0.18584708696E+04  0.53343706593E+03 -0.39656115360E+03  0.19737607347E+04  0.12699999809E+01 0.  1.
       -4    1    3    3    0  502  0.18584708696E+04 -0.53343706593E+03 -0.44308963068E+03  0.19836328063E+04  0.12699999809E+01 0. -1.
</event>
<event>
 5   0  0.1187925E-07  0.3895372E+04  0.7818609E-02  0.8025993E-01
       -3   -1    0    0    0  501  0.00000000000E+00  0.00000000000E+00  0.16774308562E+04  0.16774308592E+04  0.10100000352E+00 0. -1.
        3   -1    0    0  501    0  0.00000000000E+00  0.00000000000E+00 -0.22614821109E+04  0.22614821132E+04  0.10100000352E+00 0.  1.
    10030    2    1    2    0    0  0.00000000000E+00  0.00000000000E+00 -0.58405125475E+03  0.39389129724E+04  0.38953715530E+04 0.  0.
        3    1    3    3  502    0  0.72815360882E+03 -0.28260455927E+01 -0.21186683710E+04  0.22403060820E+04  0.10100000352E+00 0.  1.
       -3    1    3    3    0  502 -0.72815360882E+03  0.28260455927E+01  0.15346171162E+04  0.16986068904E+04  0.10100000352E+00 0. -1.
</event>
<event>
 5   0  0.3610483E-07  0.2971750E+04  0.7818609E-02  0.8251844E-01
       -2   -1    0    0    0  501  0.00000000000E+00  0.00000000000E+00  0.13341872034E+04  0.13341872034E+04  0.25500000920E-02 0. -1.
        2   -1    0    0  501    0  0.00000000000E+00  0.00000000000E+00 -0.16548087262E+04  0.16548087262E+04  0.25500000920E-02 0.  1.
    10030    2    1    2    0    0  0.00000000000E+00  0.00000000000E+00 -0.32062152279E+03  0.29889959296E+04  0.29717500746E+04 0.  0.
        4    1    3    3  502    0 -0.53109155709E+03  0.10840099805E+04  0.71113934555E+03  0.14010198648E+04  0.12699999809E+01 0.  1.
       -4    1    3    3    0  502  0.53109155709E+03 -0.10840099805E+04 -0.10317608683E+04  0.15879760648E+04  0.12699999809E+01 0. -1.
</event>
<event>
 5   0  0.3610483E-07  0.3748203E+04  0.7818609E-02  0.8057363E-01
       -2   -1    0    0    0  501  0.00000000000E+00  0.00000000000E+00  0.24053987142E+04  0.24053987142E+04  0.25500000920E-02 0.  1.
        2   -1    0    0  501    0  0.00000000000E+00  0.00000000000E+00 -0.14601559238E+04  0.14601559238E+04  0.25500000920E-02 0. -1.
    10030    2    1    2    0    0  0.00000000000E+00  0.00000000000E+00  0.94524279035E+03  0.38655546380E+04  0.37482033999E+04 0.  0.
        4    1    3    3  502    0 -0.16629468489E+03 -0.33936769487E+03  0.23656926602E+04  0.23956894060E+04  0.12699999809E+01 0.  1.
       -4    1    3    3    0  502  0.16629468489E+03  0.33936769487E+03 -0.14204498699E+04  0.14698652320E+04  0.12699999809E+01 0. -1.
</event>
<event>
 5   0  0.3810833E-07  0.3886432E+04  0.7818609E-02  0.8027857E-01
       -2   -1    0    0    0  501  0.00000000000E+00  0.00000000000E+00  0.14747432069E+04  0.14747432069E+04  0.25500000920E-02 0. -1.
        2   -1    0    0  501    0  0.00000000000E+00  0.00000000000E+00 -0.25605060457E+04  0.25605060457E+04  0.25500000920E-02 0.  1.
    10030    2    1    2    0    0  0.00000000000E+00  0.00000000000E+00 -0.10857628388E+04  0.40352492526E+04  0.38864322441E+04 0.  0.
        3    1    3    3  502    0  0.88841663479E+03  0.51333833766E+03  0.11705475006E+04  0.15565930191E+04  0.10100000352E+00 0. -1.
       -3    1    3    3    0  502 -0.88841663479E+03 -0.51333833766E+03 -0.22563103394E+04  0.24786562334E+04  0.10100000352E+00 0.  1.
</event>
<event>
 5   0  0.1187925E-07  0.3810098E+04  0.7818609E-02  0.8043991E-01
        1   -1    0    0  501    0  0.00000000000E+00  0.00000000000E+00  0.13654729411E+04  0.13654729411E+04  0.50400001928E-02 0. -1.
       -1   -1    0    0    0  501  0.00000000000E+00  0.00000000000E+00 -0.26578423710E+04  0.26578423710E+04  0.50400001928E-02 0.  1.
    10030    2    1    2    0    0  0.00000000000E+00  0.00000000000E+00 -0.12923694299E+04  0.40233153121E+04  0.38100980772E+04 0.  0.
        2    1    3    3  502    0 -0.48346586296E+03  0.10521987566E+04 -0.22435681466E+04  0.25247691959E+04  0.25500000920E-02 0.  1.
       -2    1    3    3    0  502  0.48346586296E+03 -0.10521987566E+04  0.95119871664E+03  0.14985461163E+04  0.25500000920E-02 0. -1.
</event>
<event>
 5   0  0.1187925E-07  0.3913252E+04  0.7818609E-02  0.8022279E-01
       -1   -1    0    0    0  501  0.00000000000E+00  0.00000000000E+00  0.15302508075E+04  0.15302508075E+04  0.50400001928E-02 0. -1.
        1   -1    0    0  501    0  0.00000000000E+00  0.00000000000E+00 -0.25018020097E+04  0.25018020097E+04  0.50400001928E-02 0.  1.
    10030    2    1    2    0    0  0.00000000000E+00  0.00000000000E+00 -0.97155120223E+03  0.40320528172E+04  0.39132516124E+04 0.  0.
        1    1    3    3  502    0  0.17581241987E+04 -0.26496571034E+03 -0.13273819035E+04  0.22188173074E+04  0.50400001928E-02 0.  1.
       -1    1    3    3    0  502 -0.17581241987E+04  0.26496571034E+03  0.35583070130E+03  0.18132355098E+04  0.50400001928E-02 0. -1.
</event>
<event>
 5   0  0.1187925E-07  0.2936298E+04  0.7818609E-02  0.8262159E-01
        3   -1    0    0  501    0  0.00000000000E+00  0.00000000000E+00  0.11535159053E+04  0.11535159098E+04  0.10100000352E+00 0.  1.
       -3   -1    0    0    0  501  0.00000000000E+00  0.00000000000E+00 -0.18686008147E+04  0.18686008174E+04  0.10100000352E+00 0. -1.
    10030    2    1    2    0    0  0.00000000000E+00  0.00000000000E+00 -0.71508490932E+03  0.30221167272E+04  0.29362975130E+04 0.  0.
        2    1    3    3  502    0 -0.11255711199E+04 -0.63148080225E+03 -0.10778413928E+04  0.16814935080E+04  0.25500000920E-02 0. -1.
       -2    1    3    3    0  502  0.11255711199E+04  0.63148080225E+03  0.36275648344E+03  0.13406232192E+04  0.25500000920E-02 0.  1.
</event>
<event>
 5   0  0.3680814E-07  0.3887801E+04  0.7818609E-02  0.8027571E-01
       -2   -1    0    0    0  501  0.00000000000E+00  0.00000000000E+00  0.21734447965E+04  0.21734447965E+04  0.25500000920E-02 0.  1.
        2   -1    0    0  501    0  0.00000000000E+00  0.00000000000E+00 -0.17385991337E+04  0.17385991337E+04  0.25500000920E-02 0. -1.
    10030    2    1    2    0    0  0.00000000000E+00  0.00000000000E+00  0.43484566276E+03  0.39120439302E+04  0.38878010445E+04 0.  0.
        1    1    3    3  502    0  0.79714927614E+03  0.11761532772E+04  0.15523322519E+04  0.21044046474E+04  0.50400001928E-02 0.  1.
       -1    1    3    3    0  502 -0.79714927614E+03 -0.11761532772E+04 -0.11174865891E+04  0.18076392828E+04  0.50400001928E-02 0. -1.
</event>
<event>
 5   0  0.3832389E-07  0.3863325E+04  0.7818609E-02  0.8032700E-01
       -2   -1    0    0    0  501  0.00000000000E+00  0.00000000000E+00  0.20824117652E+04  0.20824117652E+04  0.25500000920E-02 0.  1.
        2   -1    0    0  501    0  0.00000000000E+00  0.00000000000E+00 -0.17918259886E+04  0.17918259886E+04  0.25500000920E-02 0. -1.
    10030    2    1    2    0    0  0.00000000000E+00  0.00000000000E+00  0.29058577665E+03  0.38742377538E+04  0.38633247443E+04 0.  0.
        5    1    3    3  502    0 -0.88696283263E+03 -0.86204302913E+03 -0.13426355642E+04  0.18255173510E+04  0.46999998093E+01 0. -1.
       -5    1    3    3    0  502  0.88696283263E+03  0.86204302913E+03  0.16332213409E+04  0.20487204028E+04  0.46999998093E+01 0.  1.
</event>
<event>
 5   0  0.3610483E-07  0.3819862E+04  0.7818609E-02  0.8041906E-01
        2   -1    0    0  501    0  0.00000000000E+00  0.00000000000E+00  0.26036569268E+04  0.26036569268E+04  0.25500000920E-02 0. -1.
       -2   -1    0    0    0  501  0.00000000000E+00  0.00000000000E+00 -0.14010433629E+04  0.14010433629E+04  0.25500000920E-02 0.  1.
    10030    2    1    2    0    0  0.00000000000E+00  0.00000000000E+00  0.12026135639E+04  0.40047002897E+04  0.38198619120E+04 0.  0.
        4    1    3    3  502    0  0.14561235236E+03  0.76177809977E+03  0.24311358864E+04  0.25518487693E+04  0.12699999809E+01 0. -1.
       -4    1    3    3    0  502 -0.14561235236E+03 -0.76177809977E+03 -0.12285223225E+04  0.14528515204E+04  0.12699999809E+01 0.  1.
</event>
<event>
 5   0  0.1187925E-07  0.2879187E+04  0.7818609E-02  0.8279097E-01
        1   -1    0    0  501    0  0.00000000000E+00  0.00000000000E+00  0.23570591456E+04  0.23570591456E+04  0.50400001928E-02 0.  1.
       -1   -1    0    0    0  501  0.00000000000E+00  0.00000000000E+00 -0.87924358155E+03  0.87924358157E+03  0.50400001928E-02 0. -1.
    10030    2    1    2    0    0  0.00000000000E+00  0.00000000000E+00  0.14778155640E+04  0.32363027272E+04  0.28791867776E+04 0.  0.
        5    1    3    3  502    0  0.87705804930E+03 -0.11126715472E+04  0.45202973576E+03  0.14871522336E+04  0.46999998093E+01 0. -1.
       -5    1    3    3    0  502 -0.87705804930E+03  0.11126715472E+04  0.10257858283E+04  0.17491504936E+04  0.46999998093E+01 0.  1.
</event>
<event>
 5   0  0.1187925E-07  0.3867460E+04  0.7818609E-02  0.8031831E-01
       -1   -1    0    0    0  501  0.00000000000E+00  0.00000000000E+00  0.15803469337E+04  0.15803469338E+04  0.50400001928E-02 0. -1.
        1   -1    0    0  501    0  0.00000000000E+00  0.00000000000E+00 -0.23661332420E+04  0.23661332420E+04  0.50400001928E-02 0.  1.
    10030    2    1    2    0    0  0.00000000000E+00  0.00000000000E+00 -0.78578630829E+03  0.39464801758E+04  0.38674598454E+04 0.  0.
        3    1    3    3  502    0 -0.95500602660E+03 -0.99370252900E+03 -0.17770107229E+04  0.22488326631E+04  0.10100000352E+00 0.  1.
       -3    1    3    3    0  502  0.95500602660E+03  0.99370252900E+03  0.99122441464E+03  0.16976475127E+04  0.10100000352E+00 0. -1.
</event>
<event>
 5   0  0.1187925E-07  0.3926271E+04  0.7818609E-02  0.8019587E-01
        1   -1    0    0  501    0  0.00000000000E+00  0.00000000000E+00  0.18585905872E+04  0.18585905872E+04  0.50400001928E-02 0.  1.
       -1   -1    0    0    0  501  0.00000000000E+00  0.00000000000E+00 -0.20735607236E+04  0.20735607236E+04  0.50400001928E-02 0. -1.
    10030    2    1    2    0    0  0.00000000000E+00  0.00000000000E+00 -0.21497013639E+03  0.39321513109E+04  0.39262707207E+04 0.  0.
        2    1    3    3  502    0 -0.11107584986E+04  0.15410985896E+04  0.38836367937E+03  0.19389676770E+04  0.25500000920E-02 0.  1.
       -2    1    3    3    0  502  0.11107584986E+04 -0.15410985896E+04 -0.60333381576E+03  0.19931836339E+04  0.25500000920E-02 0. -1.
</event>
<event>
 5   0  0.1187925E-07  0.3890876E+04  0.7818609E-02  0.8026930E-01
        1   -1    0    0  501    0  0.00000000000E+00  0.00000000000E+00  0.24689600555E+04  0.24689600555E+04  0.50400001928E-02 0.  1.
       -1   -1    0    0    0  501  0.00000000000E+00  0.00000000000E+00 -0.15329241456E+04  0.15329241456E+04  0.50400001928E-02 0. -1.
    10030    2    1    2    0    0  0.00000000000E+00  0.00000000000E+00  0.93603590989E+03  0.40018842010E+04  0.38908757284E+04 0.  0.
        2    1    3    3  502    0  0.38786404376E+03  0.27789123319E+03  0.24078456060E+04  0.24546654591E+04  0.25500000920E-02 0.  1.
       -2    1    3    3    0  502 -0.38786404376E+03 -0.27789123319E+03 -0.14718096961E+04  0.15472187419E+04  0.25500000920E-02 0. -1.
</event>
<event>
 5   0  0.1187925E-07  0.3991941E+04  0.7818609E-02  0.8006174E-01
        1   -1    0    0  501    0  0.00000000000E+00  0.00000000000E+00  0.19900019562E+04  0.19900019562E+04  0.50400001928E-02 0. -1.
       -1   -1    0    0    0  501  0.00000000000E+00  0.00000000000E+00 -0.20019564935E+04  0.20019564935E+04  0.50400001928E-02 0.  1.
    10030    2    1    2    0    0  0.00000000000E+00  0.00000000000E+00 -0.11954537342E+02  0.39919584497E+04  0.39919405498E+04 0.  0.
        5    1    3    3  502    0  0.14236856393E+04 -0.11233282124E+04  0.82776994122E+03  0.19934824398E+04  0.46999998093E+01 0. -1.
       -5    1    3    3    0  502 -0.14236856393E+04  0.11233282124E+04 -0.83972447856E+03  0.19984760099E+04  0.46999998093E+01 0.  1.
</event>
<event>
 5   0  0.3680814E-07  0.3962216E+04  0.7818609E-02  0.8012213E-01
        2   -1    0    0  501    0  0.00000000000E+00  0.00000000000E+00  0.24093479097E+04  0.24093479097E+04  0.25500000920E-02 0.  1.
       -2   -1    0    0    0  501  0.00000000000E+00  0.00000000000E+00 -0.16289834852E+04  0.16289834852E+04  0.25500000920E-02 0. -1.
    10030    2    1    2    0    0  0.00000000000E+00  0.00000000000E+00  0.78036442446E+03  0.40383313950E+04  0.39622155192E+04 0.  0.
        1    1    3    3  502    0 -0.64338636465E+03  0.12087599373E+04 -0.10690129874E+04  0.17371918051E+04  0.50400001928E-02 0. -1.
       -1    1    3    3    0  502  0.64338636465E+03 -0.12087599373E+04  0.18493774119E+04  0.23011395899E+04  0.50400001928E-02 0.  1.
</event>
<event>
 5   0  0.1187925E-07  0.3973165E+04  0.7818609E-02  0.8009982E-01
       -1   -1    0    0    0  501  0.00000000000E+00  0.00000000000E+00  0.18930742470E+04  0.18930742470E+04  0.50400001928E-02 0. -1.
        1   -1    0    0  501    0  0.00000000000E+00  0.00000000000E+00 -0.20847100517E+04  0.20847100518E+04  0.50400001928E-02 0.  1.
    10030    2    1    2    0    0  0.00000000000E+00  0.00000000000E+00 -0.19163580473E+03  0.39777842988E+04  0.39731654441E+04 0.  0.
        2    1    3    3  502    0  0.35367931965E+02  0.76699617171E+03 -0.19301533367E+04  0.20772640471E+04  0.25500000920E-02 0.  1.
       -2    1    3    3    0  502 -0.35367931965E+02 -0.76699617171E+03  0.17385175320E+04  0.19005202517E+04  0.25500000920E-02 0. -1.
</event>
<event>
 5   0  0.1187925E-07  0.3864021E+04  0.7818609E-02  0.8032554E-01
        1   -1    0    0  501    0  0.00000000000E+00  0.00000000000E+00  0.18116250260E+04  0.18116250260E+04  0.50400001928E-02 0.  1.
       -1   -1    0    0    0  501  0.00000000000E+00  0.00000000000E+00 -0.20603956415E+04  0.20603956415E+04  0.50400001928E-02 0. -1.
    10030    2    1    2    0    0  0.00000000000E+00  0.00000000000E+00 -0.24877061546E+03  0.38720206675E+04  0.38640208631E+04 0.  0.
        1    1    3    3  502    0  0.80452372332E+03  0.28964706873E+03  0.16116882998E+04  0.18244706141E+04  0.50400001928E-02 0.  1.
       -1    1    3    3    0  502 -0.80452372332E+03 -0.28964706873E+03 -0.18604589153E+04  0.20475500534E+04  0.50400001928E-02 0. -1.
</event>
<event>
 5   0  0.3610483E-07  0.3406394E+04  0.7818609E-02  0.8136339E-01
        2   -1    0    0  501    0  0.00000000000E+00  0.00000000000E+00  0.24656947785E+04  0.24656947785E+04  0.25500000920E-02 0. -1.
       -2   -1    0    0    0  501  0.00000000000E+00  0.00000000000E+00 -0.11764961853E+04  0.11764961853E+04  0.25500000920E-02 0.  1.
    10030    2    1    2    0    0  0.00000000000E+00  0.00000000000E+00  0.12891985933E+04  0.36421909638E+04  0.34063942819E+04 0.  0.
        4    1    3    3  502    0  0.20567457718E+03 -0.10855874155E+04  0.20305008049E+04  0.23116524825E+04  0.12699999809E+01 0. -1.
       -4    1    3    3    0  502 -0.20567457718E+03  0.10855874155E+04 -0.74130221162E+03  0.13305384813E+04  0.12699999809E+01 0.  1.
</event>
<event>
 5   0  0.1187925E-07  0.3524309E+04  0.7818609E-02  0.8108053E-01
        1   -1    0    0  501    0  0.00000000000E+00  0.00000000000E+00  0.11640279771E+04  0.11640279771E+04  0.50400001928E-02 0. -1.
       -1   -1    0    0    0  501  0.00000000000E+00  0.00000000000E+00 -0.26676229178E+04  0.26676229178E+04  0.50400001928E-02 0.  1.
    10030    2    1    2    0    0  0.00000000000E+00  0.00000000000E+00 -0.15035949408E+04  0.38316508949E+04  0.35243085612E+04 0.  0.
        5    1    3    3  502    0  0.69503145539E+03 -0.62021356106E+03 -0.23780460647E+04  0.25539887943E+04  0.46999998093E+01 0.  1.
       -5    1    3    3    0  502 -0.69503145539E+03  0.62021356106E+03  0.87445112394E+03  0.12776621007E+04  0.46999998093E+01 0. -1.
</event>
<event>
 5   0  0.1187925E-07  0.3960393E+04  0.7818609E-02  0.8012584E-01
        3   -1    0    0  501    0  0.00000000000E+00  0.00000000000E+00  0.27263106261E+04  0.27263106280E+04  0.10100000352E+00 0.  1.
       -3   -1    0    0    0  501  0.00000000000E+00  0.00000000000E+00 -0.14382729764E+04  0.14382729799E+04  0.10100000352E+00 0. -1.
    10030    2    1    2    0    0  0.00000000000E+00  0.00000000000E+00  0.12880376497E+04  0.41645836080E+04  0.39603933694E+04 0.  0.
        2    1    3    3  502    0 -0.68505679856E+03  0.55176358185E+03 -0.12215510088E+04  0.15053015427E+04  0.25500000920E-02 0. -1.
       -2    1    3    3    0  502  0.68505679856E+03 -0.55176358185E+03  0.25095886585E+04  0.26592820652E+04  0.25500000920E-02 0.  1.
</event>
<event>
 5   0  0.1187925E-07  0.3838148E+04  0.7818609E-02  0.8038018E-01
       -1   -1    0    0    0  501  0.00000000000E+00  0.00000000000E+00  0.17388087772E+04  0.17388087772E+04  0.50400001928E-02 0. -1.
        1   -1    0    0  501    0  0.00000000000E+00  0.00000000000E+00 -0.21180271621E+04  0.21180271621E+04  0.50400001928E-02 0.  1.
    10030    2    1    2    0    0  0.00000000000E+00  0.00000000000E+00 -0.37921838490E+03  0.38568359393E+04  0.38381475843E+04 0.  0.
        2    1    3    3  502    0  0.17344527358E+04 -0.74886315982E+03  0.14925957170E+03  0.18950991385E+04  0.25500000920E-02 0. -1.
       -2    1    3    3    0  502 -0.17344527358E+04  0.74886315982E+03 -0.52847795660E+03  0.19617368008E+04  0.25500000920E-02 0.  1.
</event>
<event>
 5   0  0.3680814E-07  0.3894212E+04  0.7818609E-02  0.8026234E-01
       -2   -1    0    0    0  501  0.00000000000E+00  0.00000000000E+00  0.17666076570E+04  0.17666076570E+04  0.25500000920E-02 0.  1.
        2   -1    0    0  501    0  0.00000000000E+00  0.00000000000E+00 -0.21460466285E+04  0.21460466285E+04  0.25500000920E-02 0. -1.
    10030    2    1    2    0    0  0.00000000000E+00  0.00000000000E+00 -0.37943897146E+03  0.39126542856E+04  0.38942123241E+04 0.  0.
        1    1    3    3  502    0  0.13472015567E+04 -0.42882390895E+03  0.11554188366E+04  0.18258791491E+04  0.50400001928E-02 0.  1.
       -1    1    3    3    0  502 -0.13472015567E+04  0.42882390895E+03 -0.15348578081E+04  0.20867751364E+04  0.50400001928E-02 0. -1.
</event>
<event>
 5   0  0.1187925E-07  0.3914980E+04  0.7818609E-02  0.8021921E-01
        1   -1    0    0  501    0  0.00000000000E+00  0.00000000000E+00  0.17068056486E+04  0.17068056486E+04  0.50400001928E-02 0. -1.
       -1   -1    0    0    0  501  0.00000000000E+00  0.00000000000E+00 -0.22449927542E+04  0.22449927542E+04  0.50400001928E-02 0.  1.
    10030    2    1    2    0    0  0.00000000000E+00  0.00000000000E+00 -0.53818710562E+03  0.39517984028E+04  0.39149795984E+04 0.  0.
        4    1    3    3  502    0  0.28630450383E+03  0.12838771700E+04 -0.17323660369E+04  0.21751792007E+04  0.12699999809E+01 0.  1.
       -4    1    3    3    0  502 -0.28630450383E+03 -0.12838771700E+04  0.11941789313E+04  0.17766192021E+04  0.12699999809E+01 0. -1.
</event>
<event>
 5   0  0.3680814E-07  0.3902102E+04  0.7818609E-02  0.8024592E-01
        2   -1    0    0  501    0  0.00000000000E+00  0.00000000000E+00  0.12090998909E+04  0.12090998909E+04  0.25500000920E-02 0. -1.
       -2   -1    0    0    0  501  0.00000000000E+00  0.00000000000E+00 -0.31482927814E+04  0.31482927814E+04  0.25500000920E-02 0.  1.
    10030    2    1    2    0    0  0.00000000000E+00  0.00000000000E+00 -0.19391928905E+04  0.43573926723E+04  0.39021022326E+04 0.  0.
        1    1    3    3  502    0 -0.57116608204E+03  0.16689147154E+04 -0.19005963778E+04  0.25930240284E+04  0.50400001928E-02 0.  1.
       -1    1    3    3    0  502  0.57116608204E+03 -0.16689147154E+04 -0.38596512632E+02  0.17643686438E+04  0.50400001928E-02 0. -1.
</event>
<event>
 5   0  0.3810833E-07  0.3936746E+04  0.7818609E-02  0.8017430E-01
       -2   -1    0    0    0  501  0.00000000000E+00  0.00000000000E+00  0.20778898151E+04  0.20778898151E+04  0.25500000920E-02 0.  1.
        2   -1    0    0  501    0  0.00000000000E+00  0.00000000000E+00 -0.18646286532E+04  0.18646286532E+04  0.25500000920E-02 0. -1.
    10030    2    1    2    0    0  0.00000000000E+00  0.00000000000E+00  0.21326116197E+03  0.39425184683E+04  0.39367463151E+04 0.  0.
        3    1    3    3  502    0  0.18291818901E+04 -0.54221179193E+02  0.83270847989E+03  0.20105346916E+04  0.10100000352E+00 0. -1.
       -3    1    3    3    0  502 -0.18291818901E+04  0.54221179193E+02 -0.61944731792E+03  0.19319837767E+04  0.10100000352E+00 0.  1.
</event>
<event>
 5   0  0.3810833E-07  0.3904101E+04  0.7818609E-02  0.8024177E-01
       -2   -1    0    0    0  501  0.00000000000E+00  0.00000000000E+00  0.24596080400E+04  0.24596080400E+04  0.25500000920E-02 0.  1.
        2   -1    0    0  501    0  0.00000000000E+00  0.00000000000E+00 -0.15492312966E+04  0.15492312966E+04  0.25500000920E-02 0. -1.
    10030    2    1    2    0    0  0.00000000000E+00  0.00000000000E+00  0.91037674339E+03  0.40088393367E+04  0.39041013066E+04 0.  0.
        3    1    3    3  502    0 -0.63678065555E+03  0.10153192795E+04  0.20373492248E+04  0.23637162936E+04  0.10100000352E+00 0.  1.
       -3    1    3    3    0  502  0.63678065555E+03 -0.10153192795E+04 -0.11269724814E+04  0.16451230430E+04  0.10100000352E+00 0. -1.
</event>
<event>
 5   0  0.1187925E-07  0.3903989E+04  0.7818609E-02  0.8024200E-01
        1   -1    0    0  501    0  0.00000000000E+00  0.00000000000E+00  0.14016364525E+04  0.14016364525E+04  0.50400001928E-02 0.  1.
       -1   -1    0    0    0  501  0.00000000000E+00  0.00000000000E+00 -0.27184534698E+04  0.27184534698E+04  0.50400001928E-02 0. -1.
    10030    2    1    2    0    0  0.00000000000E+00  0.00000000000E+00 -0.13168170173E+04  0.41200899224E+04  0.39039894866E+04 0.  0.
        1    1    3    3  502    0 -0.82520044351E+03 -0.48372429044E+03 -0.24541661752E+04  0.26339849234E+04  0.50400001928E-02 0. -1.
       -1    1    3    3    0  502  0.82520044351E+03  0.48372429044E+03  0.11373491579E+04  0.14861049990E+04  0.50400001928E-02 0.  1.
</event>
<event>
 5   0  0.1187925E-07  0.4202083E+04  0.7818609E-02  0.7964976E-01
       -1   -1    0    0    0  501  0.00000000000E+00  0.00000000000E+00  0.20832499361E+04  0.20832499362E+04  0.50400001928E-02 0. -1.
        1   -1    0    0  501    0  0.00000000000E+00  0.00000000000E+00 -0.21189847988E+04  0.21189847988E+04  0.50400001928E-02 0.  1.
    10030    2    1    2    0    0  0.00000000000E+00  0.00000000000E+00 -0.35734862654E+02  0.42022347350E+04  0.42020827916E+04 0.  0.
        5    1    3    3  502    0  0.19045765892E+04  0.84428166267E+01  0.86922134527E+03  0.20935737633E+04  0.46999998093E+01 0.  1.
       -5    1    3    3    0  502 -0.19045765892E+04 -0.84428166267E+01 -0.90495620792E+03  0.21086609717E+04  0.46999998093E+01 0. -1.
</event>
<event>
 5   0  0.3680814E-07  0.3869299E+04  0.7818609E-02  0.8031445E-01
        2   -1    0    0  501    0  0.00000000000E+00  0.00000000000E+00  0.21923516024E+04  0.21923516024E+04  0.25500000920E-02 0.  1.
       -2   -1    0    0    0  501  0.00000000000E+00  0.00000000000E+00 -0.17072394476E+04  0.17072394476E+04  0.25500000920E-02 0. -1.
    10030    2    1    2    0    0  0.00000000000E+00  0.00000000000E+00  0.48511215473E+03  0.38995910500E+04  0.38692992330E+04 0.  0.
        1    1    3    3  502    0 -0.15999038979E+04 -0.95946958718E+03  0.75900786103E+03  0.20140425279E+04  0.50400001928E-02 0.  1.
       -1    1    3    3    0  502  0.15999038979E+04  0.95946958718E+03 -0.27389570630E+03  0.18855485221E+04  0.50400001928E-02 0. -1.
</event>
<event>
 5   0  0.1187925E-07  0.3871211E+04  0.7818609E-02  0.8031043E-01
        1   -1    0    0  501    0  0.00000000000E+00  0.00000000000E+00  0.11560078845E+04  0.11560078845E+04  0.50400001928E-02 0. -1.
       -1   -1    0    0    0  501  0.00000000000E+00  0.00000000000E+00 -0.32409546818E+04  0.32409546818E+04  0.50400001928E-02 0.  1.
    10030    2    1    2    0    0  0.00000000000E+00  0.00000000000E+00 -0.20849467973E+04  0.43969625663E+04  0.38712112655E+04 0.  0.
        5    1    3    3  502    0  0.15310583061E+04 -0.86919166489E+03 -0.12893045991E+03  0.17652985131E+04  0.46999998093E+01 0. -1.
       -5    1    3    3    0  502 -0.15310583061E+04  0.86919166489E+03 -0.19560163373E+04  0.26316640532E+04  0.46999998093E+01 0.  1.
</event>
<event>
 5   0  0.3665303E-07  0.3874248E+04  0.7818609E-02  0.8030407E-01
        2   -1    0    0  501    0  0.00000000000E+00  0.00000000000E+00  0.25434272460E+04  0.25434272460E+04  0.25500000920E-02 0. -1.
       -2   -1    0    0    0  501  0.00000000000E+00  0.00000000000E+00 -0.14753515092E+04  0.14753515092E+04  0.25500000920E-02 0.  1.
    10030    2    1    2    0    0  0.00000000000E+00  0.00000000000E+00  0.10680757368E+04  0.40187787552E+04  0.38742479146E+04 0.  0.
        2    1    3    3  502    0  0.81819013749E+03 -0.11334139890E+04  0.19251055136E+04  0.23790951242E+04  0.25500000920E-02 0. -1.
       -2    1    3    3    0  502 -0.81819013749E+03  0.11334139890E+04 -0.85702977675E+03  0.16396836310E+04  0.25500000920E-02 0.  1.
</event>
<event>
 5   0  0.1187925E-07  0.3930578E+04  0.7818609E-02  0.8018699E-01
       -1   -1    0    0    0  501  0.00000000000E+00  0.00000000000E+00  0.32024623499E+04  0.32024623499E+04  0.50400001928E-02 0. -1.
        1   -1    0    0  501    0  0.00000000000E+00  0.00000000000E+00 -0.12060599673E+04  0.12060599673E+04  0.50400001928E-02 0.  1.
    10030    2    1    2    0    0  0.00000000000E+00  0.00000000000E+00  0.19964023826E+04  0.44085223172E+04  0.39305783987E+04 0.  0.
        3    1    3    3  502    0  0.21203726845E+02  0.12725990278E+04  0.26777533113E+04  0.29648474986E+04  0.10100000352E+00 0. -1.
       -3    1    3    3    0  502 -0.21203726845E+02 -0.12725990278E+04 -0.68135092870E+03  0.14436748186E+04  0.10100000352E+00 0.  1.
</event>
<event>
 5   0  0.1187925E-07  0.3754832E+04  0.7818609E-02  0.8055918E-01
        1   -1    0    0  501    0  0.00000000000E+00  0.00000000000E+00  0.21176481279E+04  0.21176481279E+04  0.50400001928E-02 0.  1.
       -1   -1    0    0    0  501  0.00000000000E+00  0.00000000000E+00 -0.16644365206E+04  0.16644365206E+04  0.50400001928E-02 0. -1.
    10030    2    1    2    0    0  0.00000000000E+00  0.00000000000E+00  0.45321160736E+03  0.37820846485E+04  0.37548320239E+04 0.  0.
        1    1    3    3  502    0  0.14633520667E+04 -0.10955179562E+04 -0.20443945493E+03  0.18393896690E+04  0.50400001928E-02 0. -1.
       -1    1    3    3    0  502 -0.14633520667E+04  0.10955179562E+04  0.65765106229E+03  0.19426949795E+04  0.50400001928E-02 0.  1.
</event>
<event>
 5   0  0.1187925E-07  0.4116158E+04  0.7818609E-02  0.7981515E-01
        1   -1    0    0  501    0  0.00000000000E+00  0.00000000000E+00  0.23045379431E+04  0.23045379431E+04  0.50400001928E-02 0.  1.
       -1   -1    0    0    0  501  0.00000000000E+00  0.00000000000E+00 -0.18379773374E+04  0.18379773374E+04  0.50400001928E-02 0. -1.
    10030    2    1    2    0    0  0.00000000000E+00  0.00000000000E+00  0.46656060569E+03  0.41425152805E+04  0.41161576804E+04 0.  0.
        4    1    3    3  502    0  0.33741040944E+03 -0.72175571293E+03 -0.16764772558E+04  0.18561666670E+04  0.12699999809E+01 0. -1.
       -4    1    3    3    0  502 -0.33741040944E+03  0.72175571293E+03  0.21430378615E+04  0.22863486135E+04  0.12699999809E+01 0.  1.
</event>
<event>
 5   0  0.3610483E-07  0.3935202E+04  0.7818609E-02  0.8017747E-01
       -2   -1    0    0    0  501  0.00000000000E+00  0.00000000000E+00  0.14080752251E+04  0.14080752251E+04  0.25500000920E-02 0.  1.
        2   -1    0    0  501    0  0.00000000000E+00  0.00000000000E+00 -0.27494655889E+04  0.27494655889E+04  0.25500000920E-02 0. -1.
    10030    2    1    2    0    0  0.00000000000E+00  0.00000000000E+00 -0.13413903638E+04  0.41575408139E+04  0.39352023470E+04 0.  0.
        4    1    3    3  502    0 -0.10440083433E+04 -0.93155317084E+03  0.79083333232E+03  0.16072223566E+04  0.12699999809E+01 0.  1.
       -4    1    3    3    0  502  0.10440083433E+04  0.93155317084E+03 -0.21322236961E+04  0.25503184574E+04  0.12699999809E+01 0. -1.
</event>
<event>
 5   0  0.1187925E-07  0.3943423E+04  0.7818609E-02  0.8016058E-01
        1   -1    0    0  501    0  0.00000000000E+00  0.00000000000E+00  0.18024313579E+04  0.18024313579E+04  0.50400001928E-02 0.  1.
       -1   -1    0    0    0  501  0.00000000000E+00  0.00000000000E+00 -0.21568895126E+04  0.21568895126E+04  0.50400001928E-02 0. -1.
    10030    2    1    2    0    0  0.00000000000E+00  0.00000000000E+00 -0.35445815465E+03  0.39593208705E+04  0.39434225201E+04 0.  0.
        3    1    3    3  502    0  0.82058793175E+03 -0.61176619667E+03  0.15148018777E+04  0.18281813838E+04  0.10100000352E+00 0.  1.
       -3    1    3    3    0  502 -0.82058793175E+03  0.61176619667E+03 -0.18692600323E+04  0.21311394867E+04  0.10100000352E+00 0. -1.
</event>
<event>
 5   0  0.1187925E-07  0.3299824E+04  0.7818609E-02  0.8162940E-01
        1   -1    0    0  501    0  0.00000000000E+00  0.00000000000E+00  0.19613000420E+04  0.19613000420E+04  0.50400001928E-02 0.  1.
       -1   -1    0    0    0  501  0.00000000000E+00  0.00000000000E+00 -0.13879621331E+04  0.13879621331E+04  0.50400001928E-02 0. -1.
    10030    2    1    2    0    0  0.00000000000E+00  0.00000000000E+00  0.57333790890E+03  0.33492621751E+04  0.32998243528E+04 0.  0.
        5    1    3    3  502    0  0.90351694550E+03  0.80618795996E+03 -0.85079311696E+03  0.14799165231E+04  0.46999998093E+01 0. -1.
       -5    1    3    3    0  502 -0.90351694550E+03 -0.80618795996E+03  0.14241310259E+04  0.18693456519E+04  0.46999998093E+01 0.  1.
</event>
<event>
 5   0  0.1187925E-07  0.3890733E+04  0.7818609E-02  0.8026959E-01
        1   -1    0    0  501    0  0.00000000000E+00  0.00000000000E+00  0.24538743888E+04  0.24538743888E+04  0.50400001928E-02 0.  1.
       -1   -1    0    0    0  501  0.00000000000E+00  0.00000000000E+00 -0.15422351357E+04  0.15422351357E+04  0.50400001928E-02 0. -1.
    10030    2    1    2    0    0  0.00000000000E+00  0.00000000000E+00  0.91163925306E+03  0.39961095245E+04  0.38907332477E+04 0.  0.
        4    1    3    3  502    0  0.18080617945E+04 -0.29615831134E+03 -0.21584338003E+03  0.18448271398E+04  0.12699999809E+01 0. -1.
       -4    1    3    3    0  502 -0.18080617945E+04  0.29615831134E+03  0.11274826331E+04  0.21512823847E+04  0.12699999809E+01 0.  1.
</event>
<event>
 5   0  0.3665303E-07  0.3876666E+04  0.7818609E-02  0.8029900E-01
        2   -1    0    0  501    0  0.00000000000E+00  0.00000000000E+00  0.16672387868E+04  0.16672387868E+04  0.25500000920E-02 0. -1.
       -2   -1    0    0    0  501  0.00000000000E+00  0.00000000000E+00 -0.22535075919E+04  0.22535075919E+04  0.25500000920E-02 0.  1.
    10030    2    1    2    0    0  0.00000000000E+00  0.00000000000E+00 -0.58626880519E+03  0.39207463787E+04  0.38766662294E+04 0.  0.
        2    1    3    3  502    0  0.69914460826E+03  0.26905063564E+03  0.15149133990E+04  0.16900159864E+04  0.25500000920E-02 0. -1.
       -2    1    3    3    0  502 -0.69914460826E+03 -0.26905063564E+03 -0.21011822042E+04  0.22307303923E+04  0.25500000920E-02 0.  1.
</event>
<event>
 5   0  0.3610483E-07  0.3839808E+04  0.7818609E-02  0.8037666E-01
       -2   -1    0    0    0  501  0.00000000000E+00  0.00000000000E+00  0.19440253483E+04  0.19440253483E+04  0.25500000920E-02 0.  1.
        2   -1    0    0  501    0  0.00000000000E+00  0.00000000000E+00 -0.18960823673E+04  0.18960823673E+04  0.25500000920E-02 0. -1.
    10030    2    1    2    0    0  0.00000000000E+00  0.00000000000E+00  0.47942980982E+02  0.38401077156E+04  0.38398084246E+04 0.  0.
        4    1    3    3  502    0 -0.19141142441E+04  0.14395248274E+03  0.62379102469E+02  0.19205333692E+04  0.12699999809E+01 0.  1.
       -4    1    3    3    0  502  0.19141142441E+04 -0.14395248274E+03 -0.14436121488E+02  0.19195743464E+04  0.12699999809E+01 0. -1.
</event>
<event>
 5   0  0.3610483E-07  0.3899646E+04  0.7818609E-02  0.8025103E-01
       -2   -1    0    0    0  501  0.00000000000E+00  0.00000000000E+00  0.14835899013E+04  0.14835899013E+04  0.25500000920E-02 0.  1.
        2   -1    0    0  501    0  0.00000000000E+00  0.00000000000E+00 -0.25625743620E+04  0.25625743620E+04  0.25500000920E-02 0. -1.
    10030    2    1    2    0    0  0.00000000000E+00  0.00000000000E+00 -0.10789844607E+04  0.40461642633E+04  0.38996458531E+04 0.  0.
        4    1    3    3  502    0  0.36788234225E+03 -0.11500873177E+04 -0.21279504558E+04  0.24466738670E+04  0.12699999809E+01 0. -1.
       -4    1    3    3    0  502 -0.36788234225E+03  0.11500873177E+04  0.10489659952E+04  0.15994903963E+04  0.12699999809E+01 0.  1.
</event>
<event>
 5   0  0.1187925E-07  0.3764343E+04  0.7818609E-02  0.8053850E-01
       -1   -1    0    0    0  501  0.00000000000E+00  0.00000000000E+00  0.25201988008E+04  0.25201988008E+04  0.50400001928E-02 0.  1.
        1   -1    0    0  501    0  0.00000000000E+00  0.00000000000E+00 -0.14056708301E+04  0.14056708301E+04  0.50400001928E-02 0. -1.
    10030    2    1    2    0    0  0.00000000000E+00  0.00000000000E+00  0.11145279707E+04  0.39258696309E+04  0.37643432045E+04 0.  0.
        4    1    3    3  502    0 -0.40539989552E+03  0.13514717230E+04  0.18564059740E+04  0.23317524840E+04  0.12699999809E+01 0.  1.
       -4    1    3    3    0  502  0.40539989552E+03 -0.13514717230E+04 -0.74187800327E+03  0.15941171469E+04  0.12699999809E+01 0. -1.
</event>
<event>
 5   0  0.3665303E-07  0.3687853E+04  0.7818609E-02  0.8070659E-01
        2   -1    0    0  501    0  0.00000000000E+00  0.00000000000E+00  0.20588311902E+04  0.20588311902E+04  0.25500000920E-02 0. -1.
       -2   -1    0    0    0  501  0.00000000000E+00  0.00000000000E+00 -0.16514540090E+04  0.16514540090E+04  0.25500000920E-02 0.  1.
    10030    2    1    2    0    0  0.00000000000E+00  0.00000000000E+00  0.40737718120E+03  0.37102851993E+04  0.36878530464E+04 0.  0.
        2    1    3    3  502    0  0.92072877597E+03  0.64970089340E+03 -0.12647139602E+04  0.16939168016E+04  0.25500000920E-02 0.  1.
       -2    1    3    3    0  502 -0.92072877597E+03 -0.64970089340E+03  0.16720911414E+04  0.20163683976E+04  0.25500000920E-02 0. -1.
</event>
<event>
 5   0  0.3610483E-07  0.3940657E+04  0.7818609E-02  0.8016626E-01
       -2   -1    0    0    0  501  0.00000000000E+00  0.00000000000E+00  0.21997324101E+04  0.21997324101E+04  0.25500000920E-02 0.  1.
        2   -1    0    0  501    0  0.00000000000E+00  0.00000000000E+00 -0.17648481369E+04  0.17648481369E+04  0.25500000920E-02 0. -1.
    10030    2    1    2    0    0  0.00000000000E+00  0.00000000000E+00  0.43488427316E+03  0.39645805470E+04  0.39406566182E+04 0.  0.
        4    1    3    3  502    0 -0.11166288914E+04 -0.36362617709E+03  0.18091686231E+04  0.21568905390E+04  0.12699999809E+01 0.  1.
       -4    1    3    3    0  502  0.11166288914E+04  0.36362617709E+03 -0.13742843499E+04  0.18076900080E+04  0.12699999809E+01 0. -1.
</event>
<event>
 5   0  0.3832389E-07  0.3873243E+04  0.7818609E-02  0.8030617E-01
        2   -1    0    0  501    0  0.00000000000E+00  0.00000000000E+00  0.19924752647E+04  0.19924752647E+04  0.25500000920E-02 0. -1.
       -2   -1    0    0    0  501  0.00000000000E+00  0.00000000000E+00 -0.18823329705E+04  0.18823329705E+04  0.25500000920E-02 0.  1.
    10030    2    1    2    0    0  0.00000000000E+00  0.00000000000E+00  0.11014229422E+03  0.38748082353E+04  0.38732425092E+04 0.  0.
        5    1    3    3  502    0  0.11066546947E+04  0.15187328187E+04  0.52349734023E+03  0.19507192374E+04  0.46999998093E+01 0. -1.
       -5    1    3    3    0  502 -0.11066546947E+04 -0.15187328187E+04 -0.41335504601E+03  0.19240889979E+04  0.46999998093E+01 0.  1.
</event>
<event>
 5   0  0.3832389E-07  0.3852413E+04  0.7818609E-02  0.8035000E-01
       -2   -1    0    0    0  501  0.00000000000E+00  0.00000000000E+00  0.13908623264E+04  0.13908623264E+04  0.25500000920E-02 0. -1.
        2   -1    0    0  501    0  0.00000000000E+00  0.00000000000E+00 -0.26676050615E+04  0.26676050615E+04  0.25500000920E-02 0.  1.
    10030    2    1    2    0    0  0.00000000000E+00  0.00000000000E+00 -0.12767427351E+04  0.40584673879E+04  0.38524129487E+04 0.  0.
        5    1    3    3  502    0  0.10915862896E+04 -0.14548686185E+04 -0.13063569387E+04  0.22393735432E+04  0.46999998093E+01 0.  1.
       -5    1    3    3    0  502 -0.10915862896E+04  0.14548686185E+04  0.29614203643E+02  0.18190938447E+04  0.46999998093E+01 0. -1.
</event>
<event>
 5   0  0.3810833E-07  0.3845677E+04  0.7818609E-02  0.8036423E-01
       -2   -1    0    0    0  501  0.00000000000E+00  0.00000000000E+00  0.13662545161E+04  0.13662545161E+04  0.25500000920E-02 0. -1.
        2   -1    0    0  501    0  0.00000000000E+00  0.00000000000E+00 -0.27061632990E+04  0.27061632990E+04  0.25500000920E-02 0.  1.
    10030    2    1    2    0    0  0.00000000000E+00  0.00000000000E+00 -0.13399087829E+04  0.40724178151E+04  0.38456769644E+04 0.  0.
        3    1    3    3  502    0  0.13051435756E+04 -0.13775616199E+04 -0.34145135030E+03  0.19281246858E+04  0.10100000352E+00 0. -1.
       -3    1    3    3    0  502 -0.13051435756E+04  0.13775616199E+04 -0.99845743261E+03  0.21442931293E+04  0.10100000352E+00 0.  1.
</event>
<event>
 5   0  0.1187925E-07  0.3907702E+04  0.7818609E-02  0.8023429E-01
        3   -1    0    0  501    0  0.00000000000E+00  0.00000000000E+00  0.22448938632E+04  0.22448938654E+04  0.10100000352E+00 0.  1.
       -3   -1    0    0    0  501  0.00000000000E+00  0.00000000000E+00 -0.17005412495E+04  0.17005412525E+04  0.10100000352E+00 0. -1.
    10030    2    1    2    0    0  0.00000000000E+00  0.00000000000E+00  0.54435261367E+03  0.39454351179E+04  0.39077024582E+04 0.  0.
        4    1    3    3  502    0 -0.13415989094E+04 -0.99475209568E+03  0.12959264600E+04  0.21139646090E+04  0.12699999809E+01 0.  1.
       -4    1    3    3    0  502  0.13415989094E+04  0.99475209568E+03 -0.75157384634E+03  0.18314705089E+04  0.12699999809E+01 0. -1.
</event>
<event>
 5   0  0.1187925E-07  0.3888574E+04  0.7818609E-02  0.8027410E-01
       -1   -1    0    0    0  501  0.00000000000E+00  0.00000000000E+00  0.17786519964E+04  0.17786519964E+04  0.50400001928E-02 0.  1.
        1   -1    0    0  501    0  0.00000000000E+00  0.00000000000E+00 -0.21253465608E+04  0.21253465608E+04  0.50400001928E-02 0. -1.
    10030    2    1    2    0    0  0.00000000000E+00  0.00000000000E+00 -0.34669456443E+03  0.39039985571E+04  0.38885739820E+04 0.  0.
        2    1    3    3  502    0  0.13266077121E+04  0.77187329505E+03  0.10249429457E+04  0.18455851233E+04  0.25500000920E-02 0. -1.
       -2    1    3    3    0  502 -0.13266077121E+04 -0.77187329505E+03 -0.13716375102E+04  0.20584134338E+04  0.25500000920E-02 0.  1.
</event>
<event>
 5   0  0.3680814E-07  0.3867914E+04  0.7818609E-02  0.8031736E-01
        2   -1    0    0  501    0  0.00000000000E+00  0.00000000000E+00  0.24829023435E+04  0.24829023435E+04  0.25500000920E-02 0.  1.
       -2   -1    0    0    0  501  0.00000000000E+00  0.00000000000E+00 -0.15063779863E+04  0.15063779863E+04  0.25500000920E-02 0. -1.
    10030    2    1    2    0    0  0.00000000000E+00  0.00000000000E+00  0.97652435716E+03  0.39892803298E+04  0.38679138731E+04 0.  0.
        1    1    3    3  502    0 -0.13890893644E+04 -0.24821967813E+03 -0.87573525886E+03  0.16607511898E+04  0.50400001928E-02 0. -1.
       -1    1    3    3    0  502  0.13890893644E+04  0.24821967813E+03  0.18522596160E+04  0.23285291400E+04  0.50400001928E-02 0.  1.
</event>
<event>
 5   0  0.1187925E-07  0.3756585E+04  0.7818609E-02  0.8055536E-01
        1   -1    0    0  501    0  0.00000000000E+00  0.00000000000E+00  0.20235957436E+04  0.20235957436E+04  0.50400001928E-02 0. -1.
       -1   -1    0    0    0  501  0.00000000000E+00  0.00000000000E+00 -0.17434229968E+04  0.17434229968E+04  0.50400001928E-02 0.  1.
    10030    2    1    2    0    0  0.00000000000E+00  0.00000000000E+00  0.28017274681E+03  0.37670187404E+04  0.37565853408E+04 0.  0.
        4    1    3    3  502    0 -0.11331822280E+04  0.67457687039E+03 -0.12010982005E+04  0.17837585084E+04  0.12699999809E+01 0.  1.
       -4    1    3    3    0  502  0.11331822280E+04 -0.67457687039E+03  0.14812709473E+04  0.19832602321E+04  0.12699999809E+01 0. -1.
</event>
<event>
 5   0  0.3810833E-07  0.3836060E+04  0.7818609E-02  0.8038461E-01
       -2   -1    0    0    0  501  0.00000000000E+00  0.00000000000E+00  0.30312431155E+04  0.30312431155E+04  0.25500000920E-02 0.  1.
        2   -1    0    0  501    0  0.00000000000E+00  0.00000000000E+00 -0.12136402282E+04  0.12136402282E+04  0.25500000920E-02 0. -1.
    10030    2    1    2    0    0  0.00000000000E+00  0.00000000000E+00  0.18176028873E+04  0.42448833437E+04  0.38360597421E+04 0.  0.
        3    1    3    3  502    0  0.17354529917E+04 -0.13583078391E+03  0.17620236449E+02  0.17408496694E+04  0.10100000352E+00 0. -1.
       -3    1    3    3    0  502 -0.17354529917E+04  0.13583078391E+03  0.17999826509E+04  0.25040336743E+04  0.10100000352E+00 0.  1.
</event>
<event>
 5   0  0.1187925E-07  0.3910548E+04  0.7818609E-02  0.8022839E-01
        1   -1    0    0  501    0  0.00000000000E+00  0.00000000000E+00  0.12277967556E+04  0.12277967556E+04  0.50400001928E-02 0. -1.
       -1   -1    0    0    0  501  0.00000000000E+00  0.00000000000E+00 -0.31137862329E+04  0.31137862329E+04  0.50400001928E-02 0.  1.
    10030    2    1    2    0    0  0.00000000000E+00  0.00000000000E+00 -0.18859894773E+04  0.43415829885E+04  0.39105481122E+04 0.  0.
        5    1    3    3  502    0  0.94606544051E+03 -0.94492496579E+03 -0.25268257764E+04  0.28588098228E+04  0.46999998093E+01 0.  1.
       -5    1    3    3    0  502 -0.94606544051E+03  0.94492496579E+03  0.64083629909E+03  0.14827731657E+04  0.46999998093E+01 0. -1.
</event>
<event>
 5   0  0.1187925E-07  0.3990206E+04  0.7818609E-02  0.8006525E-01
       -1   -1    0    0    0  501  0.00000000000E+00  0.00000000000E+00  0.18660623423E+04  0.18660623423E+04  0.50400001928E-02 0. -1.
        1   -1    0    0  501    0  0.00000000000E+00  0.00000000000E+00 -0.21330668461E+04  0.21330668461E+04  0.50400001928E-02 0.  1.
    10030    2    1    2    0    0  0.00000000000E+00  0.00000000000E+00 -0.26700450381E+03  0.39991291884E+04  0.39902058669E+04 0.  0.
        3    1    3    3  502    0 -0.45319782826E+03 -0.76305769239E+03  0.16573317637E+04  0.18799983773E+04  0.10100000352E+00 0. -1.
       -3    1    3    3    0  502  0.45319782826E+03  0.76305769239E+03 -0.19243362675E+04  0.21191308110E+04  0.10100000352E+00 0.  1.
</event>
<event>
 5   0  0.3665303E-07  0.4071826E+04  0.7818609E-02  0.7990212E-01
       -2   -1    0    0    0  501  0.00000000000E+00  0.00000000000E+00  0.19994853042E+04  0.19994853042E+04  0.25500000920E-02 0. -1.
        2   -1    0    0  501    0  0.00000000000E+00  0.00000000000E+00 -0.20730042241E+04  0.20730042241E+04  0.25500000920E-02 0.  1.
    10030    2    1    2    0    0  0.00000000000E+00  0.00000000000E+00 -0.73518919845E+02  0.40724895283E+04  0.40718258714E+04 0.  0.
        2    1    3    3  502    0  0.91208511089E+03 -0.12010474511E+04  0.13311356557E+04  0.20115507359E+04  0.25500000920E-02 0. -1.
       -2    1    3    3    0  502 -0.91208511089E+03  0.12010474511E+04 -0.14046545756E+04  0.20609387924E+04  0.25500000920E-02 0.  1.
</event>
<event>
 5   0  0.3832389E-07  0.3708776E+04  0.7818609E-02  0.8066020E-01
        2   -1    0    0  501    0  0.00000000000E+00  0.00000000000E+00  0.29499746796E+04  0.29499746796E+04  0.25500000920E-02 0.  1.
       -2   -1    0    0    0  501  0.00000000000E+00  0.00000000000E+00 -0.11656899200E+04  0.11656899200E+04  0.25500000920E-02 0. -1.
    10030    2    1    2    0    0  0.00000000000E+00  0.00000000000E+00  0.17842847595E+04  0.41156645996E+04  0.37087764820E+04 0.  0.
        5    1    3    3  502    0  0.75607153303E+02 -0.12784839733E+04 -0.59606703148E+03  0.14126413939E+04  0.46999998093E+01 0. -1.
       -5    1    3    3    0  502 -0.75607153303E+02  0.12784839733E+04  0.23803517910E+04  0.27030232057E+04  0.46999998093E+01 0.  1.
</event>
<event>
 5   0  0.1187925E-07  0.3672336E+04  0.7818609E-02  0.8074120E-01
        1   -1    0    0  501    0  0.00000000000E+00  0.00000000000E+00  0.26380197943E+04  0.26380197943E+04  0.50400001928E-02 0.  1.
       -1   -1    0    0    0  501  0.00000000000E+00  0.00000000000E+00 -0.12780467123E+04  0.12780467123E+04  0.50400001928E-02 0. -1.
    10030    2    1    2    0    0  0.00000000000E+00  0.00000000000E+00  0.13599730820E+04  0.39160665066E+04  0.36723357826E+04 0.  0.
        4    1    3    3  502    0  0.77372857110E+03  0.15233597994E+04  0.13970990966E+04  0.22070723773E+04  0.12699999809E+01 0.  1.
       -4    1    3    3    0  502 -0.77372857110E+03 -0.15233597994E+04 -0.37126014623E+02  0.17089941293E+04  0.12699999809E+01 0. -1.
</event>
<event>
 5   0  0.3610483E-07  0.3941292E+04  0.7818609E-02  0.8016496E-01
       -2   -1    0    0    0  501  0.00000000000E+00  0.00000000000E+00  0.15239511825E+04  0.15239511825E+04  0.25500000920E-02 0.  1.
        2   -1    0    0  501    0  0.00000000000E+00  0.00000000000E+00 -0.25482740965E+04  0.25482740965E+04  0.25500000920E-02 0. -1.
    10030    2    1    2    0    0  0.00000000000E+00  0.00000000000E+00 -0.10243229139E+04  0.40722252790E+04  0.39412918302E+04 0.  0.
        4    1    3    3  502    0  0.76482518388E+03 -0.84156815346E+03 -0.21750531960E+04  0.24543945358E+04  0.12699999809E+01 0. -1.
       -4    1    3    3    0  502 -0.76482518388E+03  0.84156815346E+03  0.11507302821E+04  0.16178307432E+04  0.12699999809E+01 0.  1.
</event>
<event>
 5   0  0.1187925E-07  0.3832579E+04  0.7818609E-02  0.8039199E-01
        1   -1    0    0  501    0  0.00000000000E+00  0.00000000000E+00  0.21737458891E+04  0.21737458891E+04  0.50400001928E-02 0.  1.
       -1   -1    0    0    0  501  0.00000000000E+00  0.00000000000E+00 -0.16893262373E+04  0.16893262373E+04  0.50400001928E-02 0. -1.
    10030    2    1    2    0    0  0.00000000000E+00  0.00000000000E+00  0.48441965174E+03  0.38630721264E+04  0.38325792692E+04 0.  0.
        5    1    3    3  502    0  0.16754558979E+03  0.82016584146E+01  0.21663254124E+04  0.21728153797E+04  0.46999998093E+01 0.  1.
       -5    1    3    3    0  502 -0.16754558979E+03 -0.82016584146E+01 -0.16819057607E+04  0.16902567467E+04  0.46999998093E+01 0. -1.
</event>
<event>
 5   0  0.3665303E-07  0.3817818E+04  0.7818609E-02  0.8042342E-01
       -2   -1    0    0    0  501  0.00000000000E+00  0.00000000000E+00  0.29290117869E+04  0.29290117869E+04  0.25500000920E-02 0.  1.
        2   -1    0    0  501    0  0.00000000000E+00  0.00000000000E+00 -0.12440829530E+04  0.12440829530E+04  0.25500000920E-02 0. -1.
    10030    2    1    2    0    0  0.00000000000E+00  0.00000000000E+00  0.16849288340E+04  0.41730947399E+04  0.38178180329E+04 0.  0.
        2    1    3    3  502    0 -0.47392261979E+03  0.14100518164E+04 -0.46513799452E+03  0.15585897884E+04  0.25500000920E-02 0. -1.
       -2    1    3    3    0  502  0.47392261979E+03 -0.14100518164E+04  0.21500668285E+04  0.26145049515E+04  0.25500000920E-02 0.  1.
</event>
<event>
 5   0  0.3810833E-07  0.3949455E+04  0.7818609E-02  0.8014821E-01
       -2   -1    0    0    0  501  0.00000000000E+00  0.00000000000E+00  0.22847423371E+04  0.22847423371E+04  0.25500000920E-02 0.  1.
        2   -1    0    0  501    0  0.00000000000E+00  0.00000000000E+00 -0.17067785331E+04  0.17067785331E+04  0.25500000920E-02 0. -1.
    10030    2    1    2    0    0  0.00000000000E+00  0.00000000000E+00  0.57796380396E+03  0.39915208702E+04  0.39494552407E+04 0.  0.
        3    1    3    3  502    0 -0.73770870333E+02  0.14986664784E+04 -0.10084774274E+04  0.18078910605E+04  0.10100000352E+00 0. -1.
       -3    1    3    3    0  502  0.73770870333E+02 -0.14986664784E+04  0.15864412314E+04  0.21836298097E+04  0.10100000352E+00 0.  1.
</event>
<event>
 5   0  0.1187925E-07  0.3873070E+04  0.7818609E-02  0.8030654E-01
        1   -1    0    0  501    0  0.00000000000E+00  0.00000000000E+00  0.13957982168E+04  0.13957982168E+04  0.50400001928E-02 0.  1.
       -1   -1    0    0    0  501  0.00000000000E+00  0.00000000000E+00 -0.26867551995E+04  0.26867551995E+04  0.50400001928E-02 0. -1.
    10030    2    1    2    0    0  0.00000000000E+00  0.00000000000E+00 -0.12909569827E+04  0.40825534163E+04  0.38730701602E+04 0.  0.
        2    1    3    3  502    0  0.10837239270E+03  0.36990089897E+03 -0.26459117270E+04  0.26738399573E+04  0.25500000920E-02 0. -1.
       -2    1    3    3    0  502 -0.10837239270E+03 -0.36990089897E+03  0.13549547442E+04  0.14087134590E+04  0.25500000920E-02 0.  1.
</event>
<event>
 5   0  0.1187925E-07  0.3018639E+04  0.7818609E-02  0.8238428E-01
       -1   -1    0    0    0  501  0.00000000000E+00  0.00000000000E+00  0.15238506806E+04  0.15238506807E+04  0.50400001928E-02 0. -1.
        1   -1    0    0  501    0  0.00000000000E+00  0.00000000000E+00 -0.14949268128E+04  0.14949268128E+04  0.50400001928E-02 0.  1.
    10030    2    1    2    0    0  0.00000000000E+00  0.00000000000E+00  0.28923867817E+02  0.30187774935E+04  0.30186389259E+04 0.  0.
        5    1    3    3  502    0 -0.39837489131E+03 -0.13413103404E+04 -0.55143254950E+03  0.15039667316E+04  0.46999998093E+01 0.  1.
       -5    1    3    3    0  502  0.39837489131E+03  0.13413103404E+04  0.58035641732E+03  0.15148107619E+04  0.46999998093E+01 0. -1.
</event>
<event>
 5   0  0.3810833E-07  0.3940836E+04  0.7818609E-02  0.8016589E-01
       -2   -1    0    0    0  501  0.00000000000E+00  0.00000000000E+00  0.16015762713E+04  0.16015762713E+04  0.25500000920E-02 0. -1.
        2   -1    0    0  501    0  0.00000000000E+00  0.00000000000E+00 -0.24242040535E+04  0.24242040535E+04  0.25500000920E-02 0.  1.
    10030    2    1    2    0    0  0.00000000000E+00  0.00000000000E+00 -0.82262778213E+03  0.40257803248E+04  0.39408363016E+04 0.  0.
        3    1    3    3  502    0  0.42112552903E+03 -0.72028157822E+03  0.14122102291E+04  0.16402713204E+04  0.10100000352E+00 0. -1.
       -3    1    3    3    0  502 -0.42112552903E+03  0.72028157822E+03 -0.22348380113E+04  0.23855090044E+04  0.10100000352E+00 0.  1.
</event>
<event>
 5   0  0.3810833E-07  0.3695600E+04  0.7818609E-02  0.8068938E-01
        2   -1    0    0  501    0  0.00000000000E+00  0.00000000000E+00  0.12064072710E+04  0.12064072710E+04  0.25500000920E-02 0.  1.
       -2   -1    0    0    0  501  0.00000000000E+00  0.00000000000E+00 -0.28301919396E+04  0.28301919396E+04  0.25500000920E-02 0. -1.
    10030    2    1    2    0    0  0.00000000000E+00  0.00000000000E+00 -0.16237846686E+04  0.40365992106E+04  0.36955996181E+04 0.  0.
        3    1    3    3  502    0  0.78401169318E+03  0.16764640657E+03  0.10065300848E+04  0.12868109707E+04  0.10100000352E+00 0.  1.
       -3    1    3    3    0  502 -0.78401169318E+03 -0.16764640657E+03 -0.26303147533E+04  0.27497882399E+04  0.10100000352E+00 0. -1.
</event>
<event>
 5   0  0.3665303E-07  0.3145820E+04  0.7818609E-02  0.8203274E-01
        2   -1    0    0  501    0  0.00000000000E+00  0.00000000000E+00  0.23058829469E+04  0.23058829469E+04  0.25500000920E-02 0. -1.
       -2   -1    0    0    0  501  0.00000000000E+00  0.00000000000E+00 -0.10729278494E+04  0.10729278494E+04  0.25500000920E-02 0.  1.
    10030    2    1    2    0    0  0.00000000000E+00  0.00000000000E+00  0.12329550974E+04  0.33788107963E+04  0.31458201037E+04 0.  0.
        2    1    3    3  502    0  0.32331492716E+02 -0.98627694345E+03  0.19320447493E+04  0.21694663971E+04  0.25500000920E-02 0. -1.
       -2    1    3    3    0  502 -0.32331492716E+02  0.98627694345E+03 -0.69908965189E+03  0.12093443992E+04  0.25500000920E-02 0.  1.
</event>
<event>
 5   0  0.1187925E-07  0.4083208E+04  0.7818609E-02  0.7987968E-01
       -1   -1    0    0    0  501  0.00000000000E+00  0.00000000000E+00  0.21207827805E+04  0.21207827805E+04  0.50400001928E-02 0.  1.
        1   -1    0    0  501    0  0.00000000000E+00  0.00000000000E+00 -0.19653815526E+04  0.19653815526E+04  0.50400001928E-02 0. -1.
    10030    2    1    2    0    0  0.00000000000E+00  0.00000000000E+00  0.15540122787E+03  0.40861643331E+04  0.40832082259E+04 0.  0.
        1    1    3    3  502    0  0.25546665405E+03 -0.59874870746E+03 -0.18587414095E+04  0.19694371921E+04  0.50400001928E-02 0. -1.
       -1    1    3    3    0  502 -0.25546665405E+03  0.59874870746E+03  0.20141426374E+04  0.21167271411E+04  0.50400001928E-02 0.  1.
</event>
<event>
 5   0  0.3610483E-07  0.3734273E+04  0.7818609E-02  0.8060409E-01
       -2   -1    0    0    0  501  0.00000000000E+00  0.00000000000E+00  0.12562964043E+04  0.12562964043E+04  0.25500000920E-02 0.  1.
        2   -1    0    0  501    0  0.00000000000E+00  0.00000000000E+00 -0.27749805086E+04  0.27749805086E+04  0.25500000920E-02 0. -1.
    10030    2    1    2    0    0  0.00000000000E+00  0.00000000000E+00 -0.15186841043E+04  0.40312769129E+04  0.37342726386E+04 0.  0.
        4    1    3    3  502    0  0.89787497304E+03 -0.95570678603E+03 -0.21942063253E+04  0.25561881658E+04  0.12699999809E+01 0. -1.
       -4    1    3    3    0  502 -0.89787497304E+03  0.95570678603E+03  0.67552222091E+03  0.14750887471E+04  0.12699999809E+01 0.  1.
</event>
<event>
 5   0  0.3810833E-07  0.2938734E+04  0.7818609E-02  0.8261446E-01
        2   -1    0    0  501    0  0.00000000000E+00  0.00000000000E+00  0.14261567328E+04  0.14261567328E+04  0.25500000920E-02 0. -1.
       -2   -1    0    0    0  501  0.00000000000E+00  0.00000000000E+00 -0.15138859739E+04  0.15138859739E+04  0.25500000920E-02 0.  1.
    10030    2    1    2    0    0  0.00000000000E+00  0.00000000000E+00 -0.87729241080E+02  0.29400427066E+04  0.29387335192E+04 0.  0.
        3    1    3    3  502    0  0.14243664873E+03 -0.99610623463E+02 -0.15035650592E+04  0.15135780035E+04  0.10100000352E+00 0.  1.
       -3    1    3    3    0  502 -0.14243664873E+03  0.99610623463E+02  0.14158358181E+04  0.14264647031E+04  0.10100000352E+00 0. -1.
</event>
<event>
 5   0  0.1187925E-07  0.3840151E+04  0.7818609E-02  0.8037593E-01
       -1   -1    0    0    0  501  0.00000000000E+00  0.00000000000E+00  0.20812824681E+04  0.20812824681E+04  0.50400001928E-02 0.  1.
        1   -1    0    0  501    0  0.00000000000E+00  0.00000000000E+00 -0.17713549445E+04  0.17713549445E+04  0.50400001928E-02 0. -1.
    10030    2    1    2    0    0  0.00000000000E+00  0.00000000000E+00  0.30992752363E+03  0.38526374126E+04  0.38401510339E+04 0.  0.
        2    1    3    3  502    0 -0.84072505133E+03 -0.67916982821E+03 -0.14372061326E+04  0.17982357284E+04  0.25500000920E-02 0. -1.
       -2    1    3    3    0  502  0.84072505133E+03  0.67916982821E+03  0.17471336562E+04  0.20544016842E+04  0.25500000920E-02 0.  1.
</event>
<event>
 5   0  0.1187925E-07  0.3904910E+04  0.7818609E-02  0.8024009E-01
        1   -1    0    0  501    0  0.00000000000E+00  0.00000000000E+00  0.24993759203E+04  0.24993759203E+04  0.50400001928E-02 0. -1.
       -1   -1    0    0    0  501  0.00000000000E+00  0.00000000000E+00 -0.15252127582E+04  0.15252127582E+04  0.50400001928E-02 0.  1.
    10030    2    1    2    0    0  0.00000000000E+00  0.00000000000E+00  0.97416316213E+03  0.40245886786E+04  0.39049097512E+04 0.  0.
        1    1    3    3  502    0  0.10896610288E+04  0.79638977558E+03  0.19411660982E+04  0.23642596417E+04  0.50400001928E-02 0. -1.
       -1    1    3    3    0  502 -0.10896610288E+04 -0.79638977558E+03 -0.96700293608E+03  0.16603290369E+04  0.50400001928E-02 0.  1.
</event>
<event>
 5   0  0.3680814E-07  0.3715974E+04  0.7818609E-02  0.8064431E-01
        2   -1    0    0  501    0  0.00000000000E+00  0.00000000000E+00  0.16154182312E+04  0.16154182312E+04  0.25500000920E-02 0.  1.
       -2   -1    0    0    0  501  0.00000000000E+00  0.00000000000E+00 -0.21369790436E+04  0.21369790436E+04  0.25500000920E-02 0. -1.
    10030    2    1    2    0    0  0.00000000000E+00  0.00000000000E+00 -0.52156081243E+03  0.37523972748E+04  0.37159735773E+04 0.  0.
        1    1    3    3  502    0 -0.15004676056E+04 -0.10511522208E+04  0.51754317529E+02  0.18327581772E+04  0.50400001928E-02 0.  1.
       -1    1    3    3    0  502  0.15004676056E+04  0.10511522208E+04 -0.57331512996E+03  0.19196390976E+04  0.50400001928E-02 0. -1.
</event>
<event>
 5   0  0.1187925E-07  0.3928261E+04  0.7818609E-02  0.8019177E-01
       -1   -1    0    0    0  501  0.00000000000E+00  0.00000000000E+00  0.17872204469E+04  0.17872204469E+04  0.50400001928E-02 0. -1.
        1   -1    0    0  501    0  0.00000000000E+00  0.00000000000E+00 -0.21585525241E+04  0.21585525241E+04  0.50400001928E-02 0.  1.
    10030    2    1    2    0    0  0.00000000000E+00  0.00000000000E+00 -0.37133207715E+03  0.39457729710E+04  0.39282612982E+04 0.  0.
        5    1    3    3  502    0 -0.15328636228E+03  0.10959236243E+04 -0.18156266022E+04  0.21262801668E+04  0.46999998093E+01 0.  1.
       -5    1    3    3    0  502  0.15328636228E+03 -0.10959236243E+04  0.14442945251E+04  0.18194928042E+04  0.46999998093E+01 0. -1.
</event>
<event>
 5   0  0.1187925E-07  0.3342265E+04  0.7818609E-02  0.8152224E-01
       -1   -1    0    0    0  501  0.00000000000E+00  0.00000000000E+00  0.10468872931E+04  0.10468872931E+04  0.50400001928E-02 0. -1.
        1   -1    0    0  501    0  0.00000000000E+00  0.00000000000E+00 -0.26676067976E+04  0.26676067976E+04  0.50400001928E-02 0.  1.
    10030    2    1    2    0    0  0.00000000000E+00  0.00000000000E+00 -0.16207195045E+04  0.37144940907E+04  0.33422648964E+04 0.  0.
        1    1    3    3  502    0 -0.51389033237E+03  0.21069082885E+03 -0.25620323496E+04  0.26215422292E+04  0.50400001928E-02 0.  1.
       -1    1    3    3    0  502  0.51389033237E+03 -0.21069082885E+03  0.94131284513E+03  0.10929518615E+04  0.50400001928E-02 0. -1.
</event>
<event>
 5   0  0.3680814E-07  0.3557453E+04  0.7818609E-02  0.8100308E-01
       -2   -1    0    0    0  501  0.00000000000E+00  0.00000000000E+00  0.13123215686E+04  0.13123215686E+04  0.25500000920E-02 0. -1.
        2   -1    0    0  501    0  0.00000000000E+00  0.00000000000E+00 -0.24108939413E+04  0.24108939413E+04  0.25500000920E-02 0.  1.
    10030    2    1    2    0    0  0.00000000000E+00  0.00000000000E+00 -0.10985723727E+04  0.37232155098E+04  0.35574530882E+04 0.  0.
        1    1    3    3  502    0  0.16158846241E+04 -0.61593653691E+02  0.22617790740E+03  0.16327992352E+04  0.50400001928E-02 0. -1.
       -1    1    3    3    0  502 -0.16158846241E+04  0.61593653691E+02 -0.13247502801E+04  0.20904162747E+04  0.50400001928E-02 0.  1.
</event>
<event>
 5   0  0.1187925E-07  0.3717805E+04  0.7818609E-02  0.8064028E-01
       -1   -1    0    0    0  501  0.00000000000E+00  0.00000000000E+00  0.11506642740E+04  0.11506642740E+04  0.50400001928E-02 0.  1.
        1   -1    0    0  501    0  0.00000000000E+00  0.00000000000E+00 -0.30030632600E+04  0.30030632600E+04  0.50400001928E-02 0. -1.
    10030    2    1    2    0    0  0.00000000000E+00  0.00000000000E+00 -0.18523989860E+04  0.41537275340E+04  0.37178045166E+04 0.  0.
        1    1    3    3  502    0 -0.11948643089E+04 -0.28204162729E+03  0.63326668615E+03  0.13814032330E+04  0.50400001928E-02 0.  1.
       -1    1    3    3    0  502  0.11948643089E+04  0.28204162729E+03 -0.24856656722E+04  0.27723243011E+04  0.50400001928E-02 0. -1.
</event>
<event>
 5   0  0.1187925E-07  0.3907235E+04  0.7818609E-02  0.8023526E-01
       -1   -1    0    0    0  501  0.00000000000E+00  0.00000000000E+00  0.27504360333E+04  0.27504360333E+04  0.50400001928E-02 0. -1.
        1   -1    0    0  501    0  0.00000000000E+00  0.00000000000E+00 -0.13876422808E+04  0.13876422808E+04  0.50400001928E-02 0.  1.
    10030    2    1    2    0    0  0.00000000000E+00  0.00000000000E+00  0.13627937525E+04  0.41380783141E+04  0.39072349970E+04 0.  0.
        1    1    3    3  502    0  0.60211792014E+03 -0.11626888762E+04  0.22169656764E+04  0.25747481863E+04  0.50400001928E-02 0. -1.
       -1    1    3    3    0  502 -0.60211792014E+03  0.11626888762E+04 -0.85417192392E+03  0.15633301277E+04  0.50400001928E-02 0.  1.
</event>
<event>
 5   0  0.1187925E-07  0.3741942E+04  0.7818609E-02  0.8058730E-01
        1   -1    0    0  501    0  0.00000000000E+00  0.00000000000E+00  0.18249532857E+04  0.18249532857E+04  0.50400001928E-02 0.  1.
       -1   -1    0    0    0  501  0.00000000000E+00  0.00000000000E+00 -0.19181490052E+04  0.19181490052E+04  0.50400001928E-02 0. -1.
    10030    2    1    2    0    0  0.00000000000E+00  0.00000000000E+00 -0.93195719567E+02  0.37431022909E+04  0.37419419180E+04 0.  0.
        2    1    3    3  502    0 -0.79276011309E+03 -0.14991700735E+04  0.74393375240E+03  0.18518684981E+04  0.25500000920E-02 0.  1.
       -2    1    3    3    0  502  0.79276011309E+03  0.14991700735E+04 -0.83712947197E+03  0.18912337928E+04  0.25500000920E-02 0. -1.
</event>
<event>
 5   0  0.3680814E-07  0.4002391E+04  0.7818609E-02  0.8004064E-01
       -2   -1    0    0    0  501  0.00000000000E+00  0.00000000000E+00  0.20112944593E+04  0.20112944593E+04  0.25500000920E-02 0. -1.
        2   -1    0    0  501    0  0.00000000000E+00  0.00000000000E+00 -0.19911476922E+04  0.19911476922E+04  0.25500000920E-02 0.  1.
    10030    2    1    2    0    0  0.00000000000E+00  0.00000000000E+00  0.20146767088E+02  0.40024421515E+04  0.40023914456E+04 0.  0.
        1    1    3    3  502    0 -0.58314671197E+03 -0.17635096051E+04 -0.73475690744E+03  0.19974718842E+04  0.50400001928E-02 0.  1.
       -1    1    3    3    0  502  0.58314671197E+03  0.17635096051E+04  0.75490367453E+03  0.20049702673E+04  0.50400001928E-02 0. -1.
</event>
<event>
 5   0  0.3680814E-07  0.3307337E+04  0.7818609E-02  0.8161031E-01
        2   -1    0    0  501    0  0.00000000000E+00  0.00000000000E+00  0.14577539474E+04  0.14577539474E+04  0.25500000920E-02 0. -1.
       -2   -1    0    0    0  501  0.00000000000E+00  0.00000000000E+00 -0.18759125209E+04  0.18759125209E+04  0.25500000920E-02 0.  1.
    10030    2    1    2    0    0  0.00000000000E+00  0.00000000000E+00 -0.41815857352E+03  0.33336664684E+04  0.33073366218E+04 0.  0.
        1    1    3    3  502    0  0.13851996171E+04  0.79961082374E+03  0.21434046173E+03  0.16137215628E+04  0.50400001928E-02 0. -1.
       -1    1    3    3    0  502 -0.13851996171E+04 -0.79961082374E+03 -0.63249903524E+03  0.17199449056E+04  0.50400001928E-02 0.  1.
</event>
<event>
 5   0  0.3665303E-07  0.3424727E+04  0.7818609E-02  0.8131864E-01
        2   -1    0    0  501    0  0.00000000000E+00  0.00000000000E+00  0.26561084128E+04  0.26561084128E+04  0.25500000920E-02 0. -1.
       -2   -1    0    0    0  501  0.00000000000E+00  0.00000000000E+00 -0.11039415325E+04  0.11039415325E+04  0.25500000920E-02 0.  1.
    10030    2    1    2    0    0  0.00000000000E+00  0.00000000000E+00  0.15521668803E+04  0.37600499452E+04  0.34247267871E+04 0.  0.
        2    1    3    3  502    0  0.47605627315E+03 -0.14856487119E+04  0.15511868156E+04  0.21999914107E+04  0.25500000920E-02 0. -1.
       -2    1    3    3    0  502 -0.47605627315E+03  0.14856487119E+04  0.98006474516E+00  0.15600585345E+04  0.25500000920E-02 0.  1.
</event>
<event>
 5   0  0.3610483E-07  0.3997991E+04  0.7818609E-02  0.8004952E-01
        2   -1    0    0  501    0  0.00000000000E+00  0.00000000000E+00  0.21035420738E+04  0.21035420738E+04  0.25500000920E-02 0.  1.
       -2   -1    0    0    0  501  0.00000000000E+00  0.00000000000E+00 -0.18996445497E+04  0.18996445497E+04  0.25500000920E-02 0. -1.
    10030    2    1    2    0    0  0.00000000000E+00  0.00000000000E+00  0.20389752406E+03  0.40031866235E+04  0.39979906131E+04 0.  0.
        4    1    3    3  502    0 -0.55538929776E+03 -0.27559222976E+03  0.20048323563E+04  0.20985144123E+04  0.12699999809E+01 0.  1.
       -4    1    3    3    0  502  0.55538929776E+03  0.27559222976E+03 -0.18009348322E+04  0.19046722111E+04  0.12699999809E+01 0. -1.
</event>
<event>
 5   0  0.3810833E-07  0.3127319E+04  0.7818609E-02  0.8208280E-01
       -2   -1    0    0    0  501  0.00000000000E+00  0.00000000000E+00  0.26839593756E+04  0.26839593756E+04  0.25500000920E-02 0. -1.
        2   -1    0    0  501    0  0.00000000000E+00  0.00000000000E+00 -0.91097895909E+03  0.91097895910E+03  0.25500000920E-02 0.  1.
    10030    2    1    2    0    0  0.00000000000E+00  0.00000000000E+00  0.17729804165E+04  0.35949383347E+04  0.31273186715E+04 0.  0.
        3    1    3    3  502    0 -0.46975516085E+03 -0.45846204964E+03 -0.74493702660E+03  0.99286884628E+03  0.10100000352E+00 0.  1.
       -3    1    3    3    0  502  0.46975516085E+03  0.45846204964E+03  0.25179174431E+04  0.26020694885E+04  0.10100000352E+00 0. -1.
</event>
<event>
 5   0  0.1187925E-07  0.3923239E+04  0.7818609E-02  0.8020213E-01
        1   -1    0    0  501    0  0.00000000000E+00  0.00000000000E+00  0.20390729538E+04  0.20390729538E+04  0.50400001928E-02 0. -1.
       -1   -1    0    0    0  501  0.00000000000E+00  0.00000000000E+00 -0.18871085120E+04  0.18871085120E+04  0.50400001928E-02 0.  1.
    10030    2    1    2    0    0  0.00000000000E+00  0.00000000000E+00  0.15196444180E+03  0.39261814658E+04  0.39232394409E+04 0.  0.
        1    1    3    3  502    0 -0.12155844226E+04  0.12075446313E+03  0.16119702497E+04  0.20225417709E+04  0.50400001928E-02 0. -1.
       -1    1    3    3    0  502  0.12155844226E+04 -0.12075446313E+03 -0.14600058079E+04  0.19036396949E+04  0.50400001928E-02 0.  1.
</event>
<event>
 5   0  0.1187925E-07  0.3787205E+04  0.7818609E-02  0.8048906E-01
       -3   -1    0    0    0  501  0.00000000000E+00  0.00000000000E+00  0.14118819625E+04  0.14118819661E+04  0.10100000352E+00 0.  1.
        3   -1    0    0  501    0  0.00000000000E+00  0.00000000000E+00 -0.25396819815E+04  0.25396819835E+04  0.10100000352E+00 0. -1.
    10030    2    1    2    0    0  0.00000000000E+00  0.00000000000E+00 -0.11278000190E+04  0.39515639496E+04  0.37872054030E+04 0.  0.
        5    1    3    3  502    0  0.12587391182E+04  0.62733911136E+03 -0.18868907047E+04  0.23533714432E+04  0.46999998093E+01 0. -1.
       -5    1    3    3    0  502 -0.12587391182E+04 -0.62733911136E+03  0.75909068565E+03  0.15981925064E+04  0.46999998093E+01 0.  1.
</event>
<event>
 5   0  0.3610483E-07  0.3992907E+04  0.7818609E-02  0.8005979E-01
        2   -1    0    0  501    0  0.00000000000E+00  0.00000000000E+00  0.17803224945E+04  0.17803224945E+04  0.25500000920E-02 0. -1.
       -2   -1    0    0    0  501  0.00000000000E+00  0.00000000000E+00 -0.22388228064E+04  0.22388228064E+04  0.25500000920E-02 0.  1.
    10030    2    1    2    0    0  0.00000000000E+00  0.00000000000E+00 -0.45850031189E+03  0.40191453008E+04  0.39929070128E+04 0.  0.
        4    1    3    3  502    0  0.55656172864E+03  0.46329104269E+03  0.16434661912E+04  0.17959349327E+04  0.12699999809E+01 0. -1.
       -4    1    3    3    0  502 -0.55656172864E+03 -0.46329104269E+03 -0.21019665031E+04  0.22232103681E+04  0.12699999809E+01 0.  1.
</event>
<event>
 5   0  0.3665303E-07  0.3906434E+04  0.7818609E-02  0.8023692E-01
       -2   -1    0    0    0  501  0.00000000000E+00  0.00000000000E+00  0.27124618112E+04  0.27124618112E+04  0.25500000920E-02 0.  1.
        2   -1    0    0  501    0  0.00000000000E+00  0.00000000000E+00 -0.14064925679E+04  0.14064925679E+04  0.25500000920E-02 0. -1.
    10030    2    1    2    0    0  0.00000000000E+00  0.00000000000E+00  0.13059692433E+04  0.41189543790E+04  0.39064343732E+04 0.  0.
        2    1    3    3  502    0  0.49105202933E+03 -0.11490113780E+04  0.22358876932E+04  0.25613576515E+04  0.25500000920E-02 0.  1.
       -2    1    3    3    0  502 -0.49105202933E+03  0.11490113780E+04 -0.92991844992E+03  0.15575967276E+04  0.25500000920E-02 0. -1.
</event>
<event>
 5   0  0.1187925E-07  0.3917609E+04  0.7818609E-02  0.8021377E-01
       -1   -1    0    0    0  501  0.00000000000E+00  0.00000000000E+00  0.14838383341E+04  0.14838383341E+04  0.50400001928E-02 0.  1.
        1   -1    0    0  501    0  0.00000000000E+00  0.00000000000E+00 -0.25858044281E+04  0.25858044282E+04  0.50400001928E-02 0. -1.
    10030    2    1    2    0    0  0.00000000000E+00  0.00000000000E+00 -0.11019660941E+04  0.40696427622E+04  0.39176093398E+04 0.  0.
        2    1    3    3  502    0  0.10916667064E+03 -0.31788991937E+01  0.14806731412E+04  0.14846953958E+04  0.25500000920E-02 0.  1.
       -2    1    3    3    0  502 -0.10916667064E+03  0.31788991937E+01 -0.25826392353E+04  0.25849473664E+04  0.25500000920E-02 0. -1.
</event>
<event>
 5   0  0.1187925E-07  0.3220287E+04  0.7818609E-02  0.8183480E-01
       -4   -1    0    0    0  501  0.00000000000E+00  0.00000000000E+00  0.12265995895E+04  0.12266002470E+04  0.12699999809E+01 0.  1.
        4   -1    0    0  501    0  0.00000000000E+00  0.00000000000E+00 -0.21136160190E+04  0.21136164006E+04  0.12699999809E+01 0. -1.
    10030    2    1    2    0    0  0.00000000000E+00  0.00000000000E+00 -0.88701642952E+03  0.33402166475E+04  0.32202871155E+04 0.  0.
        3    1    3    3  502    0  0.54482963966E+03  0.54956221613E+03  0.10210627321E+04  0.12811819070E+04  0.10100000352E+00 0.  1.
       -3    1    3    3    0  502 -0.54482963966E+03 -0.54956221613E+03 -0.19080791616E+04  0.20590347406E+04  0.10100000352E+00 0. -1.
</event>
<event>
 5   0  0.3680814E-07  0.3884632E+04  0.7818609E-02  0.8028233E-01
        2   -1    0    0  501    0  0.00000000000E+00  0.00000000000E+00  0.22650624481E+04  0.22650624481E+04  0.25500000920E-02 0. -1.
       -2   -1    0    0    0  501  0.00000000000E+00  0.00000000000E+00 -0.16655570074E+04  0.16655570074E+04  0.25500000920E-02 0.  1.
    10030    2    1    2    0    0  0.00000000000E+00  0.00000000000E+00  0.59950544073E+03  0.39306194556E+04  0.38846315824E+04 0.  0.
        1    1    3    3  502    0  0.17865368303E+04 -0.63724070843E+01  0.10709011752E+04  0.20829267343E+04  0.50400001928E-02 0. -1.
       -1    1    3    3    0  502 -0.17865368303E+04  0.63724070843E+01 -0.47139573450E+03  0.18476927212E+04  0.50400001928E-02 0.  1.
</event>
<event>
 5   0  0.1187925E-07  0.2950147E+04  0.7818609E-02  0.8258112E-01
       -1   -1    0    0    0  501  0.00000000000E+00  0.00000000000E+00  0.15454517984E+04  0.15454517984E+04  0.50400001928E-02 0.  1.
        1   -1    0    0  501    0  0.00000000000E+00  0.00000000000E+00 -0.14078999530E+04  0.14078999530E+04  0.50400001928E-02 0. -1.
    10030    2    1    2    0    0  0.00000000000E+00  0.00000000000E+00  0.13755184541E+03  0.29533517515E+04  0.29501467858E+04 0.  0.
        1    1    3    3  502    0  0.59216671295E+03  0.13493548637E+04  0.13534289966E+03  0.14797762211E+04  0.50400001928E-02 0.  1.
       -1    1    3    3    0  502 -0.59216671295E+03 -0.13493548637E+04  0.22089457479E+01  0.14735755303E+04  0.50400001928E-02 0. -1.
</event>
<event>
 5   0  0.1187925E-07  0.3853530E+04  0.7818609E-02  0.8034764E-01
        1   -1    0    0  501    0  0.00000000000E+00  0.00000000000E+00  0.16252283869E+04  0.16252283869E+04  0.50400001928E-02 0.  1.
       -1   -1    0    0    0  501  0.00000000000E+00  0.00000000000E+00 -0.22842475461E+04  0.22842475461E+04  0.50400001928E-02 0. -1.
    10030    2    1    2    0    0  0.00000000000E+00  0.00000000000E+00 -0.65901915924E+03  0.39094759330E+04  0.38535303059E+04 0.  0.
        5    1    3    3  502    0  0.32979875994E+03  0.20856307989E+03 -0.22437349354E+04  0.22774183477E+04  0.46999998093E+01 0. -1.
       -5    1    3    3    0  502 -0.32979875994E+03 -0.20856307989E+03  0.15847157761E+04  0.16320575852E+04  0.46999998093E+01 0.  1.
</event>
<event>
 5   0  0.1187925E-07  0.3892433E+04  0.7818609E-02  0.8026605E-01
       -1   -1    0    0    0  501  0.00000000000E+00  0.00000000000E+00  0.18745178329E+04  0.18745178329E+04  0.50400001928E-02 0. -1.
        1   -1    0    0  501    0  0.00000000000E+00  0.00000000000E+00 -0.20206575590E+04  0.20206575590E+04  0.50400001928E-02 0.  1.
    10030    2    1    2    0    0  0.00000000000E+00  0.00000000000E+00 -0.14613972611E+03  0.38951753919E+04  0.38924329813E+04 0.  0.
        1    1    3    3  502    0  0.16828796821E+04  0.86929576840E+03  0.37445822452E+03  0.19307972756E+04  0.50400001928E-02 0. -1.
       -1    1    3    3    0  502 -0.16828796821E+04 -0.86929576840E+03 -0.52059795063E+03  0.19643781163E+04  0.50400001928E-02 0.  1.
</event>
<event>
 5   0  0.1187925E-07  0.3923917E+04  0.7818609E-02  0.8020073E-01
       -1   -1    0    0    0  501  0.00000000000E+00  0.00000000000E+00  0.26106872424E+04  0.26106872424E+04  0.50400001928E-02 0. -1.
        1   -1    0    0  501    0  0.00000000000E+00  0.00000000000E+00 -0.14744321714E+04  0.14744321714E+04  0.50400001928E-02 0.  1.
    10030    2    1    2    0    0  0.00000000000E+00  0.00000000000E+00  0.11362550711E+04  0.40851194138E+04  0.39239170529E+04 0.  0.
        3    1    3    3  502    0 -0.83283138834E+02 -0.19463080223E+04  0.32568671656E+03  0.19751260331E+04  0.10100000352E+00 0.  1.
       -3    1    3    3    0  502  0.83283138834E+02  0.19463080223E+04  0.81056835449E+03  0.21099933807E+04  0.10100000352E+00 0. -1.
</event>
<event>
 5   0  0.3680814E-07  0.3855413E+04  0.7818609E-02  0.8034367E-01
       -2   -1    0    0    0  501  0.00000000000E+00  0.00000000000E+00  0.18708003352E+04  0.18708003352E+04  0.25500000920E-02 0.  1.
        2   -1    0    0  501    0  0.00000000000E+00  0.00000000000E+00 -0.19863432374E+04  0.19863432374E+04  0.25500000920E-02 0. -1.
    10030    2    1    2    0    0  0.00000000000E+00  0.00000000000E+00 -0.11554290223E+03  0.38571435726E+04  0.38554126079E+04 0.  0.
        1    1    3    3  502    0  0.96198606866E+03 -0.15420147009E+04  0.58503165695E+03  0.19093162581E+04  0.50400001928E-02 0.  1.
       -1    1    3    3    0  502 -0.96198606866E+03  0.15420147009E+04 -0.70057455918E+03  0.19478273145E+04  0.50400001928E-02 0. -1.
</event>
<event>
 5   0  0.3680814E-07  0.3843010E+04  0.7818609E-02  0.8036987E-01
        2   -1    0    0  501    0  0.00000000000E+00  0.00000000000E+00  0.16635192216E+04  0.16635192216E+04  0.25500000920E-02 0.  1.
       -2   -1    0    0    0  501  0.00000000000E+00  0.00000000000E+00 -0.22195006354E+04  0.22195006354E+04  0.25500000920E-02 0. -1.
    10030    2    1    2    0    0  0.00000000000E+00  0.00000000000E+00 -0.55598141378E+03  0.38830198570E+04  0.38430102625E+04 0.  0.
        1    1    3    3  502    0  0.42197931816E+03  0.18299665303E+04 -0.68884166612E+03  0.20003366937E+04  0.50400001928E-02 0. -1.
       -1    1    3    3    0  502 -0.42197931816E+03 -0.18299665303E+04  0.13286025235E+03  0.18826831634E+04  0.50400001928E-02 0.  1.
</event>
<event>
 5   0  0.3610483E-07  0.3802595E+04  0.7818609E-02  0.8045598E-01
        2   -1    0    0  501    0  0.00000000000E+00  0.00000000000E+00  0.18025757578E+04  0.18025757578E+04  0.25500000920E-02 0.  1.
       -2   -1    0    0    0  501  0.00000000000E+00  0.00000000000E+00 -0.20054262917E+04  0.20054262917E+04  0.25500000920E-02 0. -1.
    10030    2    1    2    0    0  0.00000000000E+00  0.00000000000E+00 -0.20285053391E+03  0.38080020495E+04  0.38025953334E+04 0.  0.
        4    1    3    3  502    0 -0.18885808322E+04  0.15950955169E+03 -0.25247191121E+03  0.19120472106E+04  0.12699999809E+01 0. -1.
       -4    1    3    3    0  502  0.18885808322E+04 -0.15950955169E+03  0.49621377296E+02  0.18959548388E+04  0.12699999809E+01 0.  1.
</event>
<event>
 5   0  0.1187925E-07  0.3886955E+04  0.7818609E-02  0.8027748E-01
        1   -1    0    0  501    0  0.00000000000E+00  0.00000000000E+00  0.19320206361E+04  0.19320206361E+04  0.50400001928E-02 0.  1.
       -1   -1    0    0    0  501  0.00000000000E+00  0.00000000000E+00 -0.19550023617E+04  0.19550023617E+04  0.50400001928E-02 0. -1.
    10030    2    1    2    0    0  0.00000000000E+00  0.00000000000E+00 -0.22981725599E+02  0.38870229978E+04  0.38869550584E+04 0.  0.
        2    1    3    3  502    0 -0.33306821578E+03 -0.16485390176E+04 -0.98541218130E+03  0.19492697341E+04  0.25500000920E-02 0.  1.
       -2    1    3    3    0  502  0.33306821578E+03  0.16485390176E+04  0.96243045570E+03  0.19377532637E+04  0.25500000920E-02 0. -1.
</event>
<event>
 5   0  0.3832389E-07  0.3959066E+04  0.7818609E-02  0.8012856E-01
       -2   -1    0    0    0  501  0.00000000000E+00  0.00000000000E+00  0.14660316976E+04  0.14660316976E+04  0.25500000920E-02 0.  1.
        2   -1    0    0  501    0  0.00000000000E+00  0.00000000000E+00 -0.26728963732E+04  0.26728963732E+04  0.25500000920E-02 0. -1.
    10030    2    1    2    0    0  0.00000000000E+00  0.00000000000E+00 -0.12068646756E+04  0.41389280709E+04  0.39590659543E+04 0.  0.
        5    1    3    3  502    0 -0.12790502495E+04  0.14559202933E+04 -0.18154541922E+03  0.19464465752E+04  0.46999998093E+01 0.  1.
       -5    1    3    3    0  502  0.12790502495E+04 -0.14559202933E+04 -0.10253192564E+04  0.21924814956E+04  0.46999998093E+01 0. -1.
</event>
<event>
 5   0  0.3832389E-07  0.3907021E+04  0.7818609E-02  0.8023571E-01
       -2   -1    0    0    0  501  0.00000000000E+00  0.00000000000E+00  0.17801541350E+04  0.17801541350E+04  0.25500000920E-02 0.  1.
        2   -1    0    0  501    0  0.00000000000E+00  0.00000000000E+00 -0.21437483452E+04  0.21437483452E+04  0.25500000920E-02 0. -1.
    10030    2    1    2    0    0  0.00000000000E+00  0.00000000000E+00 -0.36359421015E+03  0.39239024802E+04  0.39070205944E+04 0.  0.
        5    1    3    3  502    0  0.10687573010E+04  0.12923506815E+04 -0.11880083463E+04  0.20551881601E+04  0.46999998093E+01 0. -1.
       -5    1    3    3    0  502 -0.10687573010E+04 -0.12923506815E+04  0.82441413618E+03  0.18687143202E+04  0.46999998093E+01 0.  1.
</event>
<event>
 5   0  0.3810833E-07  0.3916794E+04  0.7818609E-02  0.8021545E-01
        2   -1    0    0  501    0  0.00000000000E+00  0.00000000000E+00  0.26348456114E+04  0.26348456114E+04  0.25500000920E-02 0. -1.
       -2   -1    0    0    0  501  0.00000000000E+00  0.00000000000E+00 -0.14556145654E+04  0.14556145654E+04  0.25500000920E-02 0.  1.
    10030    2    1    2    0    0  0.00000000000E+00  0.00000000000E+00  0.11792310460E+04  0.40904601768E+04  0.39167944289E+04 0.  0.
        3    1    3    3  502    0 -0.16388198219E+04  0.36065825454E+03  0.16440950916E+04  0.23492240135E+04  0.10100000352E+00 0. -1.
       -3    1    3    3    0  502  0.16388198219E+04 -0.36065825454E+03 -0.46486404566E+03  0.17412361633E+04  0.10100000352E+00 0.  1.
</event>
<event>
 5   0  0.3832389E-07  0.3840955E+04  0.7818609E-02  0.8037423E-01
        2   -1    0    0  501    0  0.00000000000E+00  0.00000000000E+00  0.25410704863E+04  0.25410704863E+04  0.25500000920E-02 0. -1.
       -2   -1    0    0    0  501  0.00000000000E+00  0.00000000000E+00 -0.14514486836E+04  0.14514486836E+04  0.25500000920E-02 0.  1.
    10030    2    1    2    0    0  0.00000000000E+00  0.00000000000E+00  0.10896218026E+04  0.39925191699E+04  0.38409547836E+04 0.  0.
        5    1    3    3  502    0  0.40755280716E+03 -0.54088160678E+03 -0.13232001231E+04  0.14864497498E+04  0.46999998093E+01 0.  1.
       -5    1    3    3    0  502 -0.40755280716E+03  0.54088160678E+03  0.24128219257E+04  0.25060694201E+04  0.46999998093E+01 0. -1.
</event>
<event>
 5   0  0.3665303E-07  0.2984374E+04  0.7818609E-02  0.8248207E-01
       -2   -1    0    0    0  501  0.00000000000E+00  0.00000000000E+00  0.98999115655E+03  0.98999115656E+03  0.25500000920E-02 0. -1.
        2   -1    0    0  501    0  0.00000000000E+00  0.00000000000E+00 -0.22491338908E+04  0.22491338908E+04  0.25500000920E-02 0.  1.
    10030    2    1    2    0    0  0.00000000000E+00  0.00000000000E+00 -0.12591427342E+04  0.32391250473E+04  0.29843744147E+04 0.  0.
        2    1    3    3  502    0 -0.37415898104E+03 -0.92330291032E+03  0.57617656176E+03  0.11508530044E+04  0.25500000920E-02 0. -1.
       -2    1    3    3    0  502  0.37415898104E+03  0.92330291032E+03 -0.18353192960E+04  0.20882720430E+04  0.25500000920E-02 0.  1.
</event>
<event>
 5   0  0.3832389E-07  0.3845905E+04  0.7818609E-02  0.8036375E-01
       -2   -1    0    0    0  501  0.00000000000E+00  0.00000000000E+00  0.25552754091E+04  0.25552754091E+04  0.25500000920E-02 0.  1.
        2   -1    0    0  501    0  0.00000000000E+00  0.00000000000E+00 -0.14471031888E+04  0.14471031888E+04  0.25500000920E-02 0. -1.
    10030    2    1    2    0    0  0.00000000000E+00  0.00000000000E+00  0.11081722203E+04  0.40023785980E+04  0.38459054554E+04 0.  0.
        5    1    3    3  502    0 -0.62787824892E+03  0.10209859751E+04  0.21189540254E+04  0.24344674384E+04  0.46999998093E+01 0.  1.
       -5    1    3    3    0  502  0.62787824892E+03 -0.10209859751E+04 -0.10107818051E+04  0.15679111596E+04  0.46999998093E+01 0. -1.
</event>
<event>
 5   0  0.3665303E-07  0.3855222E+04  0.7818609E-02  0.8034407E-01
       -2   -1    0    0    0  501  0.00000000000E+00  0.00000000000E+00  0.17387111804E+04  0.17387111804E+04  0.25500000920E-02 0. -1.
        2   -1    0    0  501    0  0.00000000000E+00  0.00000000000E+00 -0.21370335594E+04  0.21370335594E+04  0.25500000920E-02 0.  1.
    10030    2    1    2    0    0  0.00000000000E+00  0.00000000000E+00 -0.39832237900E+03  0.38757447398E+04  0.38552219872E+04 0.  0.
        2    1    3    3  502    0 -0.12178062165E+04  0.40041956880E+03 -0.16463716904E+04  0.20866067083E+04  0.25500000920E-02 0.  1.
       -2    1    3    3    0  502  0.12178062165E+04 -0.40041956880E+03  0.12480493114E+04  0.17891380315E+04  0.25500000920E-02 0. -1.
</event>
<event>
 5   0  0.3610483E-07  0.3858150E+04  0.7818609E-02  0.8033790E-01
        2   -1    0    0  501    0  0.00000000000E+00  0.00000000000E+00  0.28039740376E+04  0.28039740376E+04  0.25500000920E-02 0. -1.
       -2   -1    0    0    0  501  0.00000000000E+00  0.00000000000E+00 -0.13271628505E+04  0.13271628505E+04  0.25500000920E-02 0.  1.
    10030    2    1    2    0    0  0.00000000000E+00  0.00000000000E+00  0.14768111871E+04  0.41311368881E+04  0.38581499072E+04 0.  0.
        4    1    3    3  502    0 -0.16158539147E+04 -0.26199256502E+03  0.18312611780E+04  0.24562457314E+04  0.12699999809E+01 0. -1.
       -4    1    3    3    0  502  0.16158539147E+04  0.26199256502E+03 -0.35444999097E+03  0.16748911567E+04  0.12699999809E+01 0.  1.
</event>
<event>
 5   0  0.3680814E-07  0.3890880E+04  0.7818609E-02  0.8026929E-01
       -2   -1    0    0    0  501  0.00000000000E+00  0.00000000000E+00  0.18647099911E+04  0.18647099911E+04  0.25500000920E-02 0. -1.
        2   -1    0    0  501    0  0.00000000000E+00  0.00000000000E+00 -0.20296652507E+04  0.20296652507E+04  0.25500000920E-02 0.  1.
    10030    2    1    2    0    0  0.00000000000E+00  0.00000000000E+00 -0.16495525957E+03  0.38943752419E+04  0.38908801429E+04 0.  0.
        1    1    3    3  502    0  0.18854431767E+04 -0.29430449955E+03 -0.46126964425E+03  0.19632322317E+04  0.50400001928E-02 0.  1.
       -1    1    3    3    0  502 -0.18854431767E+04  0.29430449955E+03  0.29631438467E+03  0.19311430101E+04  0.50400001928E-02 0. -1.
</event>
<event>
 5   0  0.1187925E-07  0.3908902E+04  0.7818609E-02  0.8023180E-01
       -1   -1    0    0    0  501  0.00000000000E+00  0.00000000000E+00  0.15929885918E+04  0.15929885918E+04  0.50400001928E-02 0. -1.
        1   -1    0    0  501    0  0.00000000000E+00  0.00000000000E+00 -0.23979322731E+04  0.23979322731E+04  0.50400001928E-02 0.  1.
    10030    2    1    2    0    0  0.00000000000E+00  0.00000000000E+00 -0.80494368131E+03  0.39909208649E+04  0.39089020223E+04 0.  0.
        1    1    3    3  502    0  0.54216585416E+03 -0.18022588004E+04 -0.94059664687E+03  0.21039968272E+04  0.50400001928E-02 0.  1.
       -1    1    3    3    0  502 -0.54216585416E+03  0.18022588004E+04  0.13565296557E+03  0.18869240377E+04  0.50400001928E-02 0. -1.
</event>
<event>
 5   0  0.1187925E-07  0.3914065E+04  0.7818609E-02  0.8022110E-01
       -1   -1    0    0    0  501  0.00000000000E+00  0.00000000000E+00  0.14997428552E+04  0.14997428552E+04  0.50400001928E-02 0. -1.
        1   -1    0    0  501    0  0.00000000000E+00  0.00000000000E+00 -0.25537556003E+04  0.25537556003E+04  0.50400001928E-02 0.  1.
    10030    2    1    2    0    0  0.00000000000E+00  0.00000000000E+00 -0.10540127451E+04  0.40534984555E+04  0.39140652603E+04 0.  0.
        5    1    3    3  502    0  0.18373278827E+04 -0.29874313209E+03 -0.11526236973E+04  0.21894256518E+04  0.46999998093E+01 0.  1.
       -5    1    3    3    0  502 -0.18373278827E+04  0.29874313209E+03  0.98610952204E+02  0.18640728036E+04  0.46999998093E+01 0. -1.
</event>
<event>
 5   0  0.1187925E-07  0.3923119E+04  0.7818609E-02  0.8020238E-01
       -1   -1    0    0    0  501  0.00000000000E+00  0.00000000000E+00  0.21689166780E+04  0.21689166780E+04  0.50400001928E-02 0.  1.
        1   -1    0    0  501    0  0.00000000000E+00  0.00000000000E+00 -0.17740262853E+04  0.17740262853E+04  0.50400001928E-02 0. -1.
    10030    2    1    2    0    0  0.00000000000E+00  0.00000000000E+00  0.39489039267E+03  0.39429429633E+04  0.39231187580E+04 0.  0.
        2    1    3    3  502    0 -0.79034133152E+03 -0.16223761824E+04  0.97007638442E+03  0.20488514073E+04  0.25500000920E-02 0.  1.
       -2    1    3    3    0  502  0.79034133152E+03  0.16223761824E+04 -0.57518599174E+03  0.18940915560E+04  0.25500000920E-02 0. -1.
</event>
<event>
 5   0  0.1187925E-07  0.3025460E+04  0.7818609E-02  0.8236498E-01
        3   -1    0    0  501    0  0.00000000000E+00  0.00000000000E+00  0.24764809526E+04  0.24764809547E+04  0.10100000352E+00 0. -1.
       -3   -1    0    0    0  501  0.00000000000E+00  0.00000000000E+00 -0.92403347860E+03  0.92403348412E+03  0.10100000352E+00 0.  1.
    10030    2    1    2    0    0  0.00000000000E+00  0.00000000000E+00  0.15524474740E+04  0.34005144388E+04  0.30254595170E+04 0.  0.
        2    1    3    3  502    0 -0.12417873413E+04  0.12274080743E+03 -0.18491544155E+03  0.12614653493E+04  0.25500000920E-02 0.  1.
       -2    1    3    3    0  502  0.12417873413E+04 -0.12274080743E+03  0.17373629156E+04  0.21390490895E+04  0.25500000920E-02 0. -1.
</event>
<event>
 5   0  0.3680814E-07  0.3888724E+04  0.7818609E-02  0.8027378E-01
        2   -1    0    0  501    0  0.00000000000E+00  0.00000000000E+00  0.16467213661E+04  0.16467213661E+04  0.25500000920E-02 0. -1.
       -2   -1    0    0    0  501  0.00000000000E+00  0.00000000000E+00 -0.22958005005E+04  0.22958005005E+04  0.25500000920E-02 0.  1.
    10030    2    1    2    0    0  0.00000000000E+00  0.00000000000E+00 -0.64907913439E+03  0.39425218666E+04  0.38887240768E+04 0.  0.
        1    1    3    3  502    0 -0.15776017823E+04  0.92519637765E+03  0.34468938928E+03  0.18610820766E+04  0.50400001928E-02 0. -1.
       -1    1    3    3    0  502  0.15776017823E+04 -0.92519637765E+03 -0.99376852367E+03  0.20814397900E+04  0.50400001928E-02 0.  1.
</event>
<event>
 5   0  0.3610483E-07  0.3810541E+04  0.7818609E-02  0.8043897E-01
        2   -1    0    0  501    0  0.00000000000E+00  0.00000000000E+00  0.17787264164E+04  0.17787264164E+04  0.25500000920E-02 0. -1.
       -2   -1    0    0    0  501  0.00000000000E+00  0.00000000000E+00 -0.20408175061E+04  0.20408175061E+04  0.25500000920E-02 0.  1.
    10030    2    1    2    0    0  0.00000000000E+00  0.00000000000E+00 -0.26209108973E+03  0.38195439226E+04  0.38105411738E+04 0.  0.
        4    1    3    3  502    0  0.18210114147E+04  0.38501100507E+03 -0.53911713015E+03  0.19377731909E+04  0.12699999809E+01 0.  1.
       -4    1    3    3    0  502 -0.18210114147E+04 -0.38501100507E+03  0.27702604042E+03  0.18817707316E+04  0.12699999809E+01 0. -1.
</event>
<event>
 5   0  0.1187925E-07  0.3977547E+04  0.7818609E-02  0.8009091E-01
        1   -1    0    0  501    0  0.00000000000E+00  0.00000000000E+00  0.22646706371E+04  0.22646706371E+04  0.50400001928E-02 0. -1.
       -1   -1    0    0    0  501  0.00000000000E+00  0.00000000000E+00 -0.17464878846E+04  0.17464878846E+04  0.50400001928E-02 0.  1.
    10030    2    1    2    0    0  0.00000000000E+00  0.00000000000E+00  0.51818275254E+03  0.40111585217E+04  0.39775468974E+04 0.  0.
        4    1    3    3  502    0  0.47492779897E+03  0.93047640306E+03  0.19656907477E+04  0.22260468278E+04  0.12699999809E+01 0. -1.
       -4    1    3    3    0  502 -0.47492779897E+03 -0.93047640306E+03 -0.14475079952E+04  0.17851116939E+04  0.12699999809E+01 0.  1.
</event>
<event>
 5   0  0.1187925E-07  0.3877940E+04  0.7818609E-02  0.8029633E-01
       -1   -1    0    0    0  501  0.00000000000E+00  0.00000000000E+00  0.15016247374E+04  0.15016247375E+04  0.50400001928E-02 0. -1.
        1   -1    0    0  501    0  0.00000000000E+00  0.00000000000E+00 -0.25036907083E+04  0.25036907083E+04  0.50400001928E-02 0.  1.
    10030    2    1    2    0    0  0.00000000000E+00  0.00000000000E+00 -0.10020659708E+04  0.40053154457E+04  0.38779396089E+04 0.  0.
        2    1    3    3  502    0 -0.15146133501E+04  0.11263240863E+04 -0.42672203110E+02  0.18879831739E+04  0.25500000920E-02 0. -1.
       -2    1    3    3    0  502  0.15146133501E+04 -0.11263240863E+04 -0.95939376772E+03  0.21173322719E+04  0.25500000920E-02 0.  1.
</event>
<event>
 5   0  0.1187925E-07  0.3896206E+04  0.7818609E-02  0.8025819E-01
       -1   -1    0    0    0  501  0.00000000000E+00  0.00000000000E+00  0.17096515198E+04  0.17096515198E+04  0.50400001928E-02 0.  1.
        1   -1    0    0  501    0  0.00000000000E+00  0.00000000000E+00 -0.22198116455E+04  0.22198116455E+04  0.50400001928E-02 0. -1.
    10030    2    1    2    0    0  0.00000000000E+00  0.00000000000E+00 -0.51016012570E+03  0.39294631654E+04  0.38962055149E+04 0.  0.
        2    1    3    3  502    0 -0.16861669512E+03 -0.12152496243E+04  0.12710587580E+04  0.17665937863E+04  0.25500000920E-02 0.  1.
       -2    1    3    3    0  502  0.16861669512E+03  0.12152496243E+04 -0.17812188837E+04  0.21628693791E+04  0.25500000920E-02 0. -1.
</event>
<event>
 5   0  0.3665303E-07  0.3952762E+04  0.7818609E-02  0.8014144E-01
        2   -1    0    0  501    0  0.00000000000E+00  0.00000000000E+00  0.12953163191E+04  0.12953163191E+04  0.25500000920E-02 0. -1.
       -2   -1    0    0    0  501  0.00000000000E+00  0.00000000000E+00 -0.30155421035E+04  0.30155421035E+04  0.25500000920E-02 0.  1.
    10030    2    1    2    0    0  0.00000000000E+00  0.00000000000E+00 -0.17202257844E+04  0.43108584226E+04  0.39527615145E+04 0.  0.
        2    1    3    3  502    0  0.78661930338E+03  0.40755166271E+03 -0.27868604804E+04  0.29242878831E+04  0.25500000920E-02 0.  1.
       -2    1    3    3    0  502 -0.78661930338E+03 -0.40755166271E+03  0.10666346960E+04  0.13865705395E+04  0.25500000920E-02 0. -1.
</event>
<event>
 5   0  0.1187925E-07  0.3927515E+04  0.7818609E-02  0.8019331E-01
        1   -1    0    0  501    0  0.00000000000E+00  0.00000000000E+00  0.23188137162E+04  0.23188137162E+04  0.50400001928E-02 0. -1.
       -1   -1    0    0    0  501  0.00000000000E+00  0.00000000000E+00 -0.16630674768E+04  0.16630674768E+04  0.50400001928E-02 0.  1.
    10030    2    1    2    0    0  0.00000000000E+00  0.00000000000E+00  0.65574623943E+03  0.39818811930E+04  0.39275150801E+04 0.  0.
        1    1    3    3  502    0  0.11323035384E+04 -0.62957272177E+03  0.18240621590E+04  0.22373367817E+04  0.50400001928E-02 0. -1.
       -1    1    3    3    0  502 -0.11323035384E+04  0.62957272177E+03 -0.11683159196E+04  0.17445444113E+04  0.50400001928E-02 0.  1.
</event>
<event>
 5   0  0.1187925E-07  0.2829785E+04  0.7818609E-02  0.8294080E-01
       -1   -1    0    0    0  501  0.00000000000E+00  0.00000000000E+00  0.16964289252E+04  0.16964289252E+04  0.50400001928E-02 0.  1.
        1   -1    0    0  501    0  0.00000000000E+00  0.00000000000E+00 -0.11800795351E+04  0.11800795351E+04  0.50400001928E-02 0. -1.
    10030    2    1    2    0    0  0.00000000000E+00  0.00000000000E+00  0.51634939009E+03  0.28765084603E+04  0.28297851914E+04 0.  0.
        4    1    3    3  502    0 -0.12213887995E+04  0.20212374040E+02  0.98390983708E+03  0.15685277556E+04  0.12699999809E+01 0.  1.
       -4    1    3    3    0  502  0.12213887995E+04 -0.20212374040E+02 -0.46756044699E+03  0.13079807048E+04  0.12699999809E+01 0. -1.
</event>
<event>
 5   0  0.1187925E-07  0.3905775E+04  0.7818609E-02  0.8023829E-01
       -1   -1    0    0    0  501  0.00000000000E+00  0.00000000000E+00  0.14192659088E+04  0.14192659088E+04  0.50400001928E-02 0. -1.
        1   -1    0    0  501    0  0.00000000000E+00  0.00000000000E+00 -0.26871429918E+04  0.26871429918E+04  0.50400001928E-02 0.  1.
    10030    2    1    2    0    0  0.00000000000E+00  0.00000000000E+00 -0.12678770830E+04  0.41064089006E+04  0.39057754367E+04 0.  0.
        3    1    3    3  502    0  0.58021757789E+03 -0.43185777961E+03  0.12732497920E+04  0.14643492147E+04  0.10100000352E+00 0. -1.
       -3    1    3    3    0  502 -0.58021757789E+03  0.43185777961E+03 -0.25411268750E+04  0.26420596860E+04  0.10100000352E+00 0.  1.
</event>
<event>
 5   0  0.1187925E-07  0.3866927E+04  0.7818609E-02  0.8031943E-01
        1   -1    0    0  501    0  0.00000000000E+00  0.00000000000E+00  0.25361499920E+04  0.25361499920E+04  0.50400001928E-02 0. -1.
       -1   -1    0    0    0  501  0.00000000000E+00  0.00000000000E+00 -0.14739981709E+04  0.14739981710E+04  0.50400001928E-02 0.  1.
    10030    2    1    2    0    0  0.00000000000E+00  0.00000000000E+00  0.10621518210E+04  0.40101481629E+04  0.38669266605E+04 0.  0.
        4    1    3    3  502    0 -0.48319717333E+03  0.12008109573E+04  0.20205349274E+04  0.23995811029E+04  0.12699999809E+01 0. -1.
       -4    1    3    3    0  502  0.48319717333E+03 -0.12008109573E+04 -0.95838310635E+03  0.16105670601E+04  0.12699999809E+01 0.  1.
</event>
<event>
 5   0  0.3610483E-07  0.3934360E+04  0.7818609E-02  0.8017921E-01
       -2   -1    0    0    0  501  0.00000000000E+00  0.00000000000E+00  0.22234872001E+04  0.22234872001E+04  0.25500000920E-02 0.  1.
        2   -1    0    0  501    0  0.00000000000E+00  0.00000000000E+00 -0.17404178913E+04  0.17404178913E+04  0.25500000920E-02 0. -1.
    10030    2    1    2    0    0  0.00000000000E+00  0.00000000000E+00  0.48306930883E+03  0.39639050914E+04  0.39343598737E+04 0.  0.
        4    1    3    3  502    0  0.20190068281E+03 -0.11816406988E+04 -0.13299078686E+04  0.17904455252E+04  0.12699999809E+01 0. -1.
       -4    1    3    3    0  502 -0.20190068281E+03  0.11816406988E+04  0.18129771774E+04  0.21734595661E+04  0.12699999809E+01 0.  1.
</event>
<event>
 5   0  0.3665303E-07  0.3885278E+04  0.7818609E-02  0.8028098E-01
       -2   -1    0    0    0  501  0.00000000000E+00  0.00000000000E+00  0.17497263873E+04  0.17497263873E+04  0.25500000920E-02 0.  1.
        2   -1    0    0  501    0  0.00000000000E+00  0.00000000000E+00 -0.21568210934E+04  0.21568210934E+04  0.25500000920E-02 0. -1.
    10030    2    1    2    0    0  0.00000000000E+00  0.00000000000E+00 -0.40709470609E+03  0.39065474807E+04  0.38852782550E+04 0.  0.
        2    1    3    3  502    0 -0.74356326136E+02  0.11516429253E+04 -0.17748037331E+04  0.21170117104E+04  0.25500000920E-02 0. -1.
       -2    1    3    3    0  502  0.74356326136E+02 -0.11516429253E+04  0.13677090270E+04  0.17895357703E+04  0.25500000920E-02 0.  1.
</event>
<event>
 5   0  0.3832389E-07  0.3942756E+04  0.7818609E-02  0.8016195E-01
       -2   -1    0    0    0  501  0.00000000000E+00  0.00000000000E+00  0.19591515272E+04  0.19591515272E+04  0.25500000920E-02 0.  1.
        2   -1    0    0  501    0  0.00000000000E+00  0.00000000000E+00 -0.19836812264E+04  0.19836812264E+04  0.25500000920E-02 0. -1.
    10030    2    1    2    0    0  0.00000000000E+00  0.00000000000E+00 -0.24529699193E+02  0.39428327536E+04  0.39427564491E+04 0.  0.
        5    1    3    3  502    0  0.61928445951E+03 -0.14154695185E+04  0.12121945597E+04  0.19637985997E+04  0.46999998093E+01 0.  1.
       -5    1    3    3    0  502 -0.61928445951E+03  0.14154695185E+04 -0.12367242589E+04  0.19790341539E+04  0.46999998093E+01 0. -1.
</event>
<event>
 5   0  0.3810833E-07  0.3814855E+04  0.7818609E-02  0.8042974E-01
        2   -1    0    0  501    0  0.00000000000E+00  0.00000000000E+00  0.17318110823E+04  0.17318110823E+04  0.25500000920E-02 0.  1.
       -2   -1    0    0    0  501  0.00000000000E+00  0.00000000000E+00 -0.21008529755E+04  0.21008529755E+04  0.25500000920E-02 0. -1.
    10030    2    1    2    0    0  0.00000000000E+00  0.00000000000E+00 -0.36904189321E+03  0.38326640579E+04  0.38148554182E+04 0.  0.
        3    1    3    3  502    0  0.27321639478E+03 -0.17011266051E+04 -0.10067555287E+04  0.19955038536E+04  0.10100000352E+00 0. -1.
       -3    1    3    3    0  502 -0.27321639478E+03  0.17011266051E+04  0.63771363548E+03  0.18371602043E+04  0.10100000352E+00 0.  1.
</event>
<event>
 5   0  0.3680814E-07  0.3927900E+04  0.7818609E-02  0.8019251E-01
       -2   -1    0    0    0  501  0.00000000000E+00  0.00000000000E+00  0.18621956138E+04  0.18621956138E+04  0.25500000920E-02 0. -1.
        2   -1    0    0  501    0  0.00000000000E+00  0.00000000000E+00 -0.20712641820E+04  0.20712641820E+04  0.25500000920E-02 0.  1.
    10030    2    1    2    0    0  0.00000000000E+00  0.00000000000E+00 -0.20906856825E+03  0.39334597958E+04  0.39278997313E+04 0.  0.
        1    1    3    3  502    0  0.47890101024E+03  0.24209085521E+03 -0.19964266009E+04  0.20672864660E+04  0.50400001928E-02 0.  1.
       -1    1    3    3    0  502 -0.47890101024E+03 -0.24209085521E+03  0.17873580327E+04  0.18661733298E+04  0.50400001928E-02 0. -1.
</event>
<event>
 5   0  0.1187925E-07  0.3021924E+04  0.7818609E-02  0.8237498E-01
       -1   -1    0    0    0  501  0.00000000000E+00  0.00000000000E+00  0.14610600450E+04  0.14610600450E+04  0.50400001928E-02 0.  1.
        1   -1    0    0  501    0  0.00000000000E+00  0.00000000000E+00 -0.15625687290E+04  0.15625687290E+04  0.50400001928E-02 0. -1.
    10030    2    1    2    0    0  0.00000000000E+00  0.00000000000E+00 -0.10150868407E+03  0.30236287740E+04  0.30219243786E+04 0.  0.
        3    1    3    3  502    0 -0.13722301407E+04 -0.37992882893E+03 -0.55665325242E+03  0.15287983280E+04  0.10100000352E+00 0. -1.
       -3    1    3    3    0  502  0.13722301407E+04  0.37992882893E+03  0.45514456836E+03  0.14948304460E+04  0.10100000352E+00 0.  1.
</event>
<event>
 5   0  0.1187925E-07  0.3587310E+04  0.7818609E-02  0.8093405E-01
        1   -1    0    0  501    0  0.00000000000E+00  0.00000000000E+00  0.99218616109E+03  0.99218616110E+03  0.50400001928E-02 0. -1.
       -1   -1    0    0    0  501  0.00000000000E+00  0.00000000000E+00 -0.32425354939E+04  0.32425354939E+04  0.50400001928E-02 0.  1.
    10030    2    1    2    0    0  0.00000000000E+00  0.00000000000E+00 -0.22503493328E+04  0.42347216550E+04  0.35873103261E+04 0.  0.
        3    1    3    3  502    0  0.14340446934E+04 -0.10772921889E+04 -0.11104215582E+04  0.21095209622E+04  0.10100000352E+00 0. -1.
       -3    1    3    3    0  502 -0.14340446934E+04  0.10772921889E+04 -0.11399277747E+04  0.21252006928E+04  0.10100000352E+00 0.  1.
</event>
<event>
 5   0  0.3810833E-07  0.3906795E+04  0.7818609E-02  0.8023618E-01
        2   -1    0    0  501    0  0.00000000000E+00  0.00000000000E+00  0.19617635459E+04  0.19617635459E+04  0.25500000920E-02 0. -1.
       -2   -1    0    0    0  501  0.00000000000E+00  0.00000000000E+00 -0.19450668992E+04  0.19450668992E+04  0.25500000920E-02 0.  1.
    10030    2    1    2    0    0  0.00000000000E+00  0.00000000000E+00  0.16696646677E+02  0.39068304451E+04  0.39067947667E+04 0.  0.
        3    1    3    3  502    0  0.95428559895E+03 -0.22853987732E+03 -0.16807111648E+04  0.19461966780E+04  0.10100000352E+00 0.  1.
       -3    1    3    3    0  502 -0.95428559895E+03  0.22853987732E+03  0.16974078115E+04  0.19606337671E+04  0.10100000352E+00 0. -1.
</event>
<event>
 5   0  0.1187925E-07  0.3776655E+04  0.7818609E-02  0.8051183E-01
       -1   -1    0    0    0  501  0.00000000000E+00  0.00000000000E+00  0.17030662360E+04  0.17030662360E+04  0.50400001928E-02 0. -1.
        1   -1    0    0  501    0  0.00000000000E+00  0.00000000000E+00 -0.20937421035E+04  0.20937421035E+04  0.50400001928E-02 0.  1.
    10030    2    1    2    0    0  0.00000000000E+00  0.00000000000E+00 -0.39067586749E+03  0.37968083395E+04  0.37766553898E+04 0.  0.
        4    1    3    3  502    0  0.80258065476E+03  0.11002023629E+04 -0.15104463758E+04  0.20337233867E+04  0.12699999809E+01 0.  1.
       -4    1    3    3    0  502 -0.80258065476E+03 -0.11002023629E+04  0.11197705083E+04  0.17630849528E+04  0.12699999809E+01 0. -1.
</event>
<event>
 5   0  0.3680814E-07  0.3923691E+04  0.7818609E-02  0.8020120E-01
       -2   -1    0    0    0  501  0.00000000000E+00  0.00000000000E+00  0.16714314136E+04  0.16714314136E+04  0.25500000920E-02 0. -1.
        2   -1    0    0  501    0  0.00000000000E+00  0.00000000000E+00 -0.23027192760E+04  0.23027192760E+04  0.25500000920E-02 0.  1.
    10030    2    1    2    0    0  0.00000000000E+00  0.00000000000E+00 -0.63128786245E+03  0.39741506896E+04  0.39236907801E+04 0.  0.
        1    1    3    3  502    0 -0.46040010116E+03 -0.20088806167E+03  0.16051924719E+04  0.16819533699E+04  0.50400001928E-02 0. -1.
       -1    1    3    3    0  502  0.46040010116E+03  0.20088806167E+03 -0.22364803344E+04  0.22921973197E+04  0.50400001928E-02 0.  1.
</event>
<event>
 5   0  0.3810833E-07  0.3934529E+04  0.7818609E-02  0.8017886E-01
       -2   -1    0    0    0  501  0.00000000000E+00  0.00000000000E+00  0.15256517088E+04  0.15256517088E+04  0.25500000920E-02 0. -1.
        2   -1    0    0  501    0  0.00000000000E+00  0.00000000000E+00 -0.25367057550E+04  0.25367057550E+04  0.25500000920E-02 0.  1.
    10030    2    1    2    0    0  0.00000000000E+00  0.00000000000E+00 -0.10110540461E+04  0.40623574638E+04  0.39345289272E+04 0.  0.
        3    1    3    3  502    0 -0.18765298647E+04  0.23908142506E+03  0.52021955766E+02  0.18924139491E+04  0.10100000352E+00 0.  1.
       -3    1    3    3    0  502  0.18765298647E+04 -0.23908142506E+03 -0.10630760019E+04  0.21699435147E+04  0.10100000352E+00 0. -1.
</event>
<event>
 5   0  0.1187925E-07  0.3849904E+04  0.7818609E-02  0.8035530E-01
        1   -1    0    0  501    0  0.00000000000E+00  0.00000000000E+00  0.18788235903E+04  0.18788235904E+04  0.50400001928E-02 0.  1.
       -1   -1    0    0    0  501  0.00000000000E+00  0.00000000000E+00 -0.19722133373E+04  0.19722133373E+04  0.50400001928E-02 0. -1.
    10030    2    1    2    0    0  0.00000000000E+00  0.00000000000E+00 -0.93389746983E+02  0.38510369277E+04  0.38499043850E+04 0.  0.
        3    1    3    3  502    0 -0.17431211696E+04  0.89544231815E+02 -0.85869185737E+03  0.19452098338E+04  0.10100000352E+00 0. -1.
       -3    1    3    3    0  502  0.17431211696E+04 -0.89544231815E+02  0.76530211038E+03  0.19058270939E+04  0.10100000352E+00 0.  1.
</event>
<event>
 5   0  0.3810833E-07  0.3887380E+04  0.7818609E-02  0.8027659E-01
       -2   -1    0    0    0  501  0.00000000000E+00  0.00000000000E+00  0.28199738568E+04  0.28199738568E+04  0.25500000920E-02 0. -1.
        2   -1    0    0  501    0  0.00000000000E+00  0.00000000000E+00 -0.13397041675E+04  0.13397041675E+04  0.25500000920E-02 0.  1.
    10030    2    1    2    0    0  0.00000000000E+00  0.00000000000E+00  0.14802696893E+04  0.41596780243E+04  0.38873799548E+04 0.  0.
        3    1    3    3  502    0  0.16084159523E+04 -0.33908880965E+03 -0.36980205547E+03  0.16848550878E+04  0.10100000352E+00 0.  1.
       -3    1    3    3    0  502 -0.16084159523E+04  0.33908880965E+03  0.18500717447E+04  0.24748229365E+04  0.10100000352E+00 0. -1.
</event>
<event>
 5   0  0.3680814E-07  0.3424000E+04  0.7818609E-02  0.8132041E-01
       -2   -1    0    0    0  501  0.00000000000E+00  0.00000000000E+00  0.11773453654E+04  0.11773453654E+04  0.25500000920E-02 0.  1.
        2   -1    0    0  501    0  0.00000000000E+00  0.00000000000E+00 -0.24894508293E+04  0.24894508293E+04  0.25500000920E-02 0. -1.
    10030    2    1    2    0    0  0.00000000000E+00  0.00000000000E+00 -0.13121054638E+04  0.36667961947E+04  0.34239996474E+04 0.  0.
        1    1    3    3  502    0 -0.96586422287E+03 -0.14092626275E+04 -0.53860094567E+03  0.17913698192E+04  0.50400001928E-02 0. -1.
       -1    1    3    3    0  502  0.96586422287E+03  0.14092626275E+04 -0.77350451816E+03  0.18754263755E+04  0.50400001928E-02 0.  1.
</event>
<event>
 5   0  0.1187925E-07  0.4018305E+04  0.7818609E-02  0.8000864E-01
        1   -1    0    0  501    0  0.00000000000E+00  0.00000000000E+00  0.19807971774E+04  0.19807971774E+04  0.50400001928E-02 0. -1.
       -1   -1    0    0    0  501  0.00000000000E+00  0.00000000000E+00 -0.20379142390E+04  0.20379142390E+04  0.50400001928E-02 0.  1.
    10030    2    1    2    0    0  0.00000000000E+00  0.00000000000E+00 -0.57117061582E+02  0.40187114164E+04  0.40183054998E+04 0.  0.
        2    1    3    3  502    0  0.71152236448E+03 -0.16770469140E+04  0.81884302807E+03  0.19973117762E+04  0.25500000920E-02 0.  1.
       -2    1    3    3    0  502 -0.71152236448E+03  0.16770469140E+04 -0.87596008965E+03  0.20213996402E+04  0.25500000920E-02 0. -1.
</event>
<event>
 5   0  0.3610483E-07  0.3642762E+04  0.7818609E-02  0.8080766E-01
       -2   -1    0    0    0  501  0.00000000000E+00  0.00000000000E+00  0.16160636714E+04  0.16160636714E+04  0.25500000920E-02 0. -1.
        2   -1    0    0  501    0  0.00000000000E+00  0.00000000000E+00 -0.20527839513E+04  0.20527839513E+04  0.25500000920E-02 0.  1.
    10030    2    1    2    0    0  0.00000000000E+00  0.00000000000E+00 -0.43672027988E+03  0.36688476228E+04  0.36427624513E+04 0.  0.
        4    1    3    3  502    0  0.98771581241E+03  0.31030408352E+03 -0.17276089646E+04  0.20140768351E+04  0.12699999809E+01 0.  1.
       -4    1    3    3    0  502 -0.98771581241E+03 -0.31030408352E+03  0.12908886847E+04  0.16547707876E+04  0.12699999809E+01 0. -1.
</event>
<event>
 5   0  0.3665303E-07  0.3894291E+04  0.7818609E-02  0.8026218E-01
        2   -1    0    0  501    0  0.00000000000E+00  0.00000000000E+00  0.23641700540E+04  0.23641700540E+04  0.25500000920E-02 0. -1.
       -2   -1    0    0    0  501  0.00000000000E+00  0.00000000000E+00 -0.16036815411E+04  0.16036815411E+04  0.25500000920E-02 0.  1.
    10030    2    1    2    0    0  0.00000000000E+00  0.00000000000E+00  0.76048851291E+03  0.39678515950E+04  0.38942911424E+04 0.  0.
        2    1    3    3  502    0 -0.18749192901E+04 -0.32286576125E+03  0.80257507927E+03  0.20648707955E+04  0.25500000920E-02 0.  1.
       -2    1    3    3    0  502  0.18749192901E+04  0.32286576125E+03 -0.42086566368E+02  0.19029807995E+04  0.25500000920E-02 0. -1.
</event>
<event>
 5   0  0.1187925E-07  0.3898620E+04  0.7818609E-02  0.8025316E-01
       -1   -1    0    0    0  501  0.00000000000E+00  0.00000000000E+00  0.13051714330E+04  0.13051714330E+04  0.50400001928E-02 0.  1.
        1   -1    0    0  501    0  0.00000000000E+00  0.00000000000E+00 -0.29113494110E+04  0.29113494110E+04  0.50400001928E-02 0. -1.
    10030    2    1    2    0    0  0.00000000000E+00  0.00000000000E+00 -0.16061779780E+04  0.42165208440E+04  0.38986203112E+04 0.  0.
        3    1    3    3  502    0 -0.91457288993E+03 -0.15668685660E+04 -0.15741679195E+04  0.24019836225E+04  0.10100000352E+00 0. -1.
       -3    1    3    3    0  502  0.91457288993E+03  0.15668685660E+04 -0.32010058473E+02  0.18145372214E+04  0.10100000352E+00 0.  1.
</event>
<event>
 5   0  0.1187925E-07  0.3889337E+04  0.7818609E-02  0.8027251E-01
        1   -1    0    0  501    0  0.00000000000E+00  0.00000000000E+00  0.23527780091E+04  0.23527780091E+04  0.50400001928E-02 0.  1.
       -1   -1    0    0    0  501  0.00000000000E+00  0.00000000000E+00 -0.16073489328E+04  0.16073489328E+04  0.50400001928E-02 0. -1.
    10030    2    1    2    0    0  0.00000000000E+00  0.00000000000E+00  0.74542907633E+03  0.39601269419E+04  0.38893368186E+04 0.  0.
        4    1    3    3  502    0 -0.41904600653E+03 -0.10470013325E+04  0.19858234406E+04  0.22837048180E+04  0.12699999809E+01 0.  1.
       -4    1    3    3    0  502  0.41904600653E+03  0.10470013325E+04 -0.12403943642E+04  0.16764221239E+04  0.12699999809E+01 0. -1.
</event>
<event>
 5   0  0.1187925E-07  0.3895673E+04  0.7818609E-02  0.8025930E-01
        1   -1    0    0  501    0  0.00000000000E+00  0.00000000000E+00  0.26547464588E+04  0.26547464588E+04  0.50400001928E-02 0. -1.
       -1   -1    0    0    0  501  0.00000000000E+00  0.00000000000E+00 -0.14291635804E+04  0.14291635804E+04  0.50400001928E-02 0.  1.
    10030    2    1    2    0    0  0.00000000000E+00  0.00000000000E+00  0.12255828784E+04  0.40839100392E+04  0.38956729607E+04 0.  0.
        5    1    3    3  502    0  0.46149327431E+03 -0.68969314665E+03  0.24601530042E+04  0.25963488928E+04  0.46999998093E+01 0. -1.
       -5    1    3    3    0  502 -0.46149327431E+03  0.68969314665E+03 -0.12345701258E+04  0.14875611464E+04  0.46999998093E+01 0.  1.
</event>
<event>
 5   0  0.1187925E-07  0.3847107E+04  0.7818609E-02  0.8036121E-01
        1   -1    0    0  501    0  0.00000000000E+00  0.00000000000E+00  0.32270885892E+04  0.32270885892E+04  0.50400001928E-02 0. -1.
       -1   -1    0    0    0  501  0.00000000000E+00  0.00000000000E+00 -0.11465625255E+04  0.11465625255E+04  0.50400001928E-02 0.  1.
    10030    2    1    2    0    0  0.00000000000E+00  0.00000000000E+00  0.20805260637E+04  0.43736511147E+04  0.38471074031E+04 0.  0.
        4    1    3    3  502    0 -0.10668594473E+04  0.12358834651E+04 -0.11602683765E+03  0.16367836936E+04  0.12699999809E+01 0.  1.
       -4    1    3    3    0  502  0.10668594473E+04 -0.12358834651E+04  0.21965529013E+04  0.27368674211E+04  0.12699999809E+01 0. -1.
</event>
<event>
 5   0  0.1187925E-07  0.3841653E+04  0.7818609E-02  0.8037275E-01
       -1   -1    0    0    0  501  0.00000000000E+00  0.00000000000E+00  0.19177680004E+04  0.19177680004E+04  0.50400001928E-02 0.  1.
        1   -1    0    0  501    0  0.00000000000E+00  0.00000000000E+00 -0.19238894201E+04  0.19238894201E+04  0.50400001928E-02 0. -1.
    10030    2    1    2    0    0  0.00000000000E+00  0.00000000000E+00 -0.61214196882E+01  0.38416574205E+04  0.38416525435E+04 0.  0.
        1    1    3    3  502    0 -0.49942852261E+03 -0.17013215082E+04 -0.74174279843E+03  0.19220057499E+04  0.50400001928E-02 0. -1.
       -1    1    3    3    0  502  0.49942852261E+03  0.17013215082E+04  0.73562137874E+03  0.19196516706E+04  0.50400001928E-02 0.  1.
</event>
<event>
 5   0  0.3832389E-07  0.3510274E+04  0.7818609E-02  0.8111360E-01
        2   -1    0    0  501    0  0.00000000000E+00  0.00000000000E+00  0.23306902726E+04  0.23306902726E+04  0.25500000920E-02 0.  1.
       -2   -1    0    0    0  501  0.00000000000E+00  0.00000000000E+00 -0.13217136387E+04  0.13217136387E+04  0.25500000920E-02 0. -1.
    10030    2    1    2    0    0  0.00000000000E+00  0.00000000000E+00  0.10089766339E+04  0.36524039112E+04  0.35102735624E+04 0.  0.
        5    1    3    3  502    0 -0.95164193598E+03 -0.12052233163E+04  0.13887806630E+04  0.20704877291E+04  0.46999998093E+01 0.  1.
       -5    1    3    3    0  502  0.95164193598E+03  0.12052233163E+04 -0.37980402911E+03  0.15819161821E+04  0.46999998093E+01 0. -1.
</event>
<event>
 5   0  0.1187925E-07  0.3609411E+04  0.7818609E-02  0.8088339E-01
        1   -1    0    0  501    0  0.00000000000E+00  0.00000000000E+00  0.23664404910E+04  0.23664404910E+04  0.50400001928E-02 0.  1.
       -1   -1    0    0    0  501  0.00000000000E+00  0.00000000000E+00 -0.13763123331E+04  0.13763123331E+04  0.50400001928E-02 0. -1.
    10030    2    1    2    0    0  0.00000000000E+00  0.00000000000E+00  0.99012815794E+03  0.37427528241E+04  0.36094106074E+04 0.  0.
        4    1    3    3  502    0 -0.33515540295E+03 -0.74182650423E+01 -0.13437417250E+04  0.13849287386E+04  0.12699999809E+01 0. -1.
       -4    1    3    3    0  502  0.33515540295E+03  0.74182650423E+01  0.23338698829E+04  0.23578240855E+04  0.12699999809E+01 0.  1.
</event>
<event>
 5   0  0.3832389E-07  0.3900607E+04  0.7818609E-02  0.8024903E-01
        2   -1    0    0  501    0  0.00000000000E+00  0.00000000000E+00  0.20751397095E+04  0.20751397095E+04  0.25500000920E-02 0.  1.
       -2   -1    0    0    0  501  0.00000000000E+00  0.00000000000E+00 -0.18329773066E+04  0.18329773066E+04  0.25500000920E-02 0. -1.
    10030    2    1    2    0    0  0.00000000000E+00  0.00000000000E+00  0.24216240280E+03  0.39081170161E+04  0.39006071299E+04 0.  0.
        5    1    3    3  502    0  0.11064089724E+04 -0.25911999851E+03  0.17091811523E+04  0.20524634684E+04  0.46999998093E+01 0.  1.
       -5    1    3    3    0  502 -0.11064089724E+04  0.25911999851E+03 -0.14670187495E+04  0.18556535477E+04  0.46999998093E+01 0. -1.
</event>
<event>
 5   0  0.3810833E-07  0.3720654E+04  0.7818609E-02  0.8063400E-01
        2   -1    0    0  501    0  0.00000000000E+00  0.00000000000E+00  0.28966031642E+04  0.28966031642E+04  0.25500000920E-02 0.  1.
       -2   -1    0    0    0  501  0.00000000000E+00  0.00000000000E+00 -0.11947846844E+04  0.11947846844E+04  0.25500000920E-02 0. -1.
    10030    2    1    2    0    0  0.00000000000E+00  0.00000000000E+00  0.17018184799E+04  0.40913878486E+04  0.37206542958E+04 0.  0.
        3    1    3    3  502    0  0.52383893306E+03 -0.74159085276E+03  0.26364153360E+04  0.27883776743E+04  0.10100000352E+00 0.  1.
       -3    1    3    3    0  502 -0.52383893306E+03  0.74159085276E+03 -0.93459685609E+03  0.13030101743E+04  0.10100000352E+00 0. -1.
</event>
<event>
 5   0  0.3810833E-07  0.3950400E+04  0.7818609E-02  0.8014628E-01
        2   -1    0    0  501    0  0.00000000000E+00  0.00000000000E+00  0.24406524197E+04  0.24406524197E+04  0.25500000920E-02 0.  1.
       -2   -1    0    0    0  501  0.00000000000E+00  0.00000000000E+00 -0.15985133629E+04  0.15985133629E+04  0.25500000920E-02 0. -1.
    10030    2    1    2    0    0  0.00000000000E+00  0.00000000000E+00  0.84213905680E+03  0.40391657825E+04  0.39504002364E+04 0.  0.
        3    1    3    3  502    0  0.98195896395E+03 -0.60074703143E+03 -0.12200745027E+04  0.16774153347E+04  0.10100000352E+00 0. -1.
       -3    1    3    3    0  502 -0.98195896395E+03  0.60074703143E+03  0.20622135595E+04  0.23617504478E+04  0.10100000352E+00 0.  1.
</event>
<event>
 5   0  0.1187925E-07  0.3404247E+04  0.7818609E-02  0.8136865E-01
       -1   -1    0    0    0  501  0.00000000000E+00  0.00000000000E+00  0.13716517680E+04  0.13716517680E+04  0.50400001928E-02 0.  1.
        1   -1    0    0  501    0  0.00000000000E+00  0.00000000000E+00 -0.21122162076E+04  0.21122162076E+04  0.50400001928E-02 0. -1.
    10030    2    1    2    0    0  0.00000000000E+00  0.00000000000E+00 -0.74056443964E+03  0.34838679756E+04  0.34042474032E+04 0.  0.
        5    1    3    3  502    0  0.15442286589E+04 -0.71583064710E+03 -0.38270445917E+03  0.17445745783E+04  0.46999998093E+01 0. -1.
       -5    1    3    3    0  502 -0.15442286589E+04  0.71583064710E+03 -0.35785998047E+03  0.17392933973E+04  0.46999998093E+01 0.  1.
</event>
<event>
 5   0  0.3832389E-07  0.3579542E+04  0.7818609E-02  0.8095194E-01
       -2   -1    0    0    0  501  0.00000000000E+00  0.00000000000E+00  0.20566501488E+04  0.20566501488E+04  0.25500000920E-02 0.  1.
        2   -1    0    0  501    0  0.00000000000E+00  0.00000000000E+00 -0.15575235491E+04  0.15575235491E+04  0.25500000920E-02 0. -1.
    10030    2    1    2    0    0  0.00000000000E+00  0.00000000000E+00  0.49912659974E+03  0.36141736979E+04  0.35795424506E+04 0.  0.
        5    1    3    3  502    0  0.92204758063E+03  0.10503557160E+04  0.13783417959E+04  0.19629740364E+04  0.46999998093E+01 0.  1.
       -5    1    3    3    0  502 -0.92204758063E+03 -0.10503557160E+04 -0.87921519620E+03  0.16511996615E+04  0.46999998093E+01 0. -1.
</event>
<event>
 5   0  0.3810833E-07  0.3046852E+04  0.7818609E-02  0.8230477E-01
       -2   -1    0    0    0  501  0.00000000000E+00  0.00000000000E+00  0.89546957571E+03  0.89546957571E+03  0.25500000920E-02 0.  1.
        2   -1    0    0  501    0  0.00000000000E+00  0.00000000000E+00 -0.25917425598E+04  0.25917425598E+04  0.25500000920E-02 0. -1.
    10030    2    1    2    0    0  0.00000000000E+00  0.00000000000E+00 -0.16962729841E+04  0.34872121355E+04  0.30468518903E+04 0.  0.
        3    1    3    3  502    0 -0.18749544288E+03 -0.14838971205E+04 -0.11793021175E+04  0.19046938599E+04  0.10100000352E+00 0.  1.
       -3    1    3    3    0  502  0.18749544288E+03  0.14838971205E+04 -0.51697086654E+03  0.15825182756E+04  0.10100000352E+00 0. -1.
</event>
<event>
 5   0  0.1187925E-07  0.3790507E+04  0.7818609E-02  0.8048195E-01
       -1   -1    0    0    0  501  0.00000000000E+00  0.00000000000E+00  0.23318242367E+04  0.23318242367E+04  0.50400001928E-02 0. -1.
        1   -1    0    0  501    0  0.00000000000E+00  0.00000000000E+00 -0.15404187647E+04  0.15404187647E+04  0.50400001928E-02 0.  1.
    10030    2    1    2    0    0  0.00000000000E+00  0.00000000000E+00  0.79140547196E+03  0.38722430014E+04  0.37905069900E+04 0.  0.
        3    1    3    3  502    0  0.59052243501E+03  0.28997779671E+03  0.22114383839E+04  0.23072198866E+04  0.10100000352E+00 0. -1.
       -3    1    3    3    0  502 -0.59052243501E+03 -0.28997779671E+03 -0.14200329120E+04  0.15650231149E+04  0.10100000352E+00 0.  1.
</event>
<event>
 5   0  0.1187925E-07  0.3500441E+04  0.7818609E-02  0.8113686E-01
       -1   -1    0    0    0  501  0.00000000000E+00  0.00000000000E+00  0.12383201541E+04  0.12383201541E+04  0.50400001928E-02 0.  1.
        1   -1    0    0  501    0  0.00000000000E+00  0.00000000000E+00 -0.24737311458E+04  0.24737311458E+04  0.50400001928E-02 0. -1.
    10030    2    1    2    0    0  0.00000000000E+00  0.00000000000E+00 -0.12354109917E+04  0.37120512999E+04  0.35004406200E+04 0.  0.
        3    1    3    3  502    0  0.74954865203E+02  0.70552985280E+03  0.10789790425E+04  0.12913506067E+04  0.10100000352E+00 0.  1.
       -3    1    3    3    0  502 -0.74954865203E+02 -0.70552985280E+03 -0.23143900343E+04  0.24207006932E+04  0.10100000352E+00 0. -1.
</event>
<event>
 5   0  0.1187925E-07  0.3919150E+04  0.7818609E-02  0.8021058E-01
        1   -1    0    0  501    0  0.00000000000E+00  0.00000000000E+00  0.22275475532E+04  0.22275475532E+04  0.50400001928E-02 0.  1.
       -1   -1    0    0    0  501  0.00000000000E+00  0.00000000000E+00 -0.17238395546E+04  0.17238395546E+04  0.50400001928E-02 0. -1.
    10030    2    1    2    0    0  0.00000000000E+00  0.00000000000E+00  0.50370799867E+03  0.39513871078E+04  0.39191502048E+04 0.  0.
        4    1    3    3  502    0 -0.10400173774E+03  0.27877721445E+03  0.22046386361E+04  0.22246272105E+04  0.12699999809E+01 0.  1.
       -4    1    3    3    0  502  0.10400173774E+03 -0.27877721445E+03 -0.17009306374E+04  0.17267598973E+04  0.12699999809E+01 0. -1.
</event>
<event>
 5   0  0.3680814E-07  0.3838394E+04  0.7818609E-02  0.8037965E-01
       -2   -1    0    0    0  501  0.00000000000E+00  0.00000000000E+00  0.14382574142E+04  0.14382574142E+04  0.25500000920E-02 0. -1.
        2   -1    0    0  501    0  0.00000000000E+00  0.00000000000E+00 -0.25609583217E+04  0.25609583217E+04  0.25500000920E-02 0.  1.
    10030    2    1    2    0    0  0.00000000000E+00  0.00000000000E+00 -0.11227009074E+04  0.39992157359E+04  0.38383940880E+04 0.  0.
        1    1    3    3  502    0 -0.69481379468E+03  0.31224525456E+03  0.12740039429E+04  0.14843683353E+04  0.50400001928E-02 0. -1.
       -1    1    3    3    0  502  0.69481379468E+03 -0.31224525456E+03 -0.23967048504E+04  0.25148474006E+04  0.50400001928E-02 0.  1.
</event>
<event>
 5   0  0.3832389E-07  0.3920928E+04  0.7818609E-02  0.8020691E-01
        2   -1    0    0  501    0  0.00000000000E+00  0.00000000000E+00  0.17179737174E+04  0.17179737174E+04  0.25500000920E-02 0.  1.
       -2   -1    0    0    0  501  0.00000000000E+00  0.00000000000E+00 -0.22371810341E+04  0.22371810341E+04  0.25500000920E-02 0. -1.
    10030    2    1    2    0    0  0.00000000000E+00  0.00000000000E+00 -0.51920731676E+03  0.39551547515E+04  0.39209275523E+04 0.  0.
        5    1    3    3  502    0  0.16999975464E+03 -0.14946150985E+04  0.10085990103E+04  0.18110958735E+04  0.46999998093E+01 0.  1.
       -5    1    3    3    0  502 -0.16999975464E+03  0.14946150985E+04 -0.15278063271E+04  0.21440588780E+04  0.46999998093E+01 0. -1.
</event>
<event>
 5   0  0.3665303E-07  0.3864088E+04  0.7818609E-02  0.8032540E-01
       -2   -1    0    0    0  501  0.00000000000E+00  0.00000000000E+00  0.15611708569E+04  0.15611708569E+04  0.25500000920E-02 0. -1.
        2   -1    0    0  501    0  0.00000000000E+00  0.00000000000E+00 -0.23910222397E+04  0.23910222397E+04  0.25500000920E-02 0.  1.
    10030    2    1    2    0    0  0.00000000000E+00  0.00000000000E+00 -0.82985138282E+03  0.39521930966E+04  0.38640881143E+04 0.  0.
        2    1    3    3  502    0  0.36128240863E+02  0.17296289433E+03  0.15528893829E+04  0.15629097377E+04  0.25500000920E-02 0. -1.
       -2    1    3    3    0  502 -0.36128240863E+02 -0.17296289433E+03 -0.23827407657E+04  0.23892833589E+04  0.25500000920E-02 0.  1.
</event>
<event>
 5   0  0.3810833E-07  0.3897094E+04  0.7818609E-02  0.8025634E-01
        2   -1    0    0  501    0  0.00000000000E+00  0.00000000000E+00  0.26399258193E+04  0.26399258193E+04  0.25500000920E-02 0.  1.
       -2   -1    0    0    0  501  0.00000000000E+00  0.00000000000E+00 -0.14382353181E+04  0.14382353181E+04  0.25500000920E-02 0. -1.
    10030    2    1    2    0    0  0.00000000000E+00  0.00000000000E+00  0.12016905011E+04  0.40781611374E+04  0.38970935583E+04 0.  0.
        3    1    3    3  502    0 -0.10200694313E+04 -0.10473062678E+04 -0.74720055965E+03  0.16418589311E+04  0.10100000352E+00 0. -1.
       -3    1    3    3    0  502  0.10200694313E+04  0.10473062678E+04  0.19488910608E+04  0.24363022063E+04  0.10100000352E+00 0.  1.
</event>
<event>
 5   0  0.1187925E-07  0.3672193E+04  0.7818609E-02  0.8074152E-01
       -1   -1    0    0    0  501  0.00000000000E+00  0.00000000000E+00  0.16304363816E+04  0.16304363816E+04  0.50400001928E-02 0. -1.
        1   -1    0    0  501    0  0.00000000000E+00  0.00000000000E+00 -0.20676981845E+04  0.20676981845E+04  0.50400001928E-02 0.  1.
    10030    2    1    2    0    0  0.00000000000E+00  0.00000000000E+00 -0.43726180289E+03  0.36981345662E+04  0.36721929940E+04 0.  0.
        2    1    3    3  502    0 -0.85219122963E+02  0.96509403058E+03  0.13520606851E+04  0.16633511003E+04  0.25500000920E-02 0. -1.
       -2    1    3    3    0  502  0.85219122963E+02 -0.96509403058E+03 -0.17893224880E+04  0.20347834658E+04  0.25500000920E-02 0.  1.
</event>
<event>
 5   0  0.1187925E-07  0.3887040E+04  0.7818609E-02  0.8027730E-01
       -1   -1    0    0    0  501  0.00000000000E+00  0.00000000000E+00  0.20800276618E+04  0.20800276618E+04  0.50400001928E-02 0.  1.
        1   -1    0    0  501    0  0.00000000000E+00  0.00000000000E+00 -0.18159714719E+04  0.18159714719E+04  0.50400001928E-02 0. -1.
    10030    2    1    2    0    0  0.00000000000E+00  0.00000000000E+00  0.26405618989E+03  0.38959991337E+04  0.38870404652E+04 0.  0.
        1    1    3    3  502    0  0.15026794675E+04  0.11868301045E+04  0.46545018426E+03  0.19705976639E+04  0.50400001928E-02 0.  1.
       -1    1    3    3    0  502 -0.15026794675E+04 -0.11868301045E+04 -0.20139399438E+03  0.19254014698E+04  0.50400001928E-02 0. -1.
</event>
<event>
 5   0  0.3810833E-07  0.3742213E+04  0.7818609E-02  0.8058671E-01
       -2   -1    0    0    0  501  0.00000000000E+00  0.00000000000E+00  0.16384754542E+04  0.16384754542E+04  0.25500000920E-02 0. -1.
        2   -1    0    0  501    0  0.00000000000E+00  0.00000000000E+00 -0.21367671004E+04  0.21367671004E+04  0.25500000920E-02 0.  1.
    10030    2    1    2    0    0  0.00000000000E+00  0.00000000000E+00 -0.49829164620E+03  0.37752425547E+04  0.37422134870E+04 0.  0.
        3    1    3    3  502    0 -0.79514672999E+03 -0.48419777118E+03  0.13882428084E+04  0.16715034876E+04  0.10100000352E+00 0. -1.
       -3    1    3    3    0  502  0.79514672999E+03  0.48419777118E+03 -0.18865344546E+04  0.21037390671E+04  0.10100000352E+00 0.  1.
</event>
<event>
 5   0  0.3832389E-07  0.2830544E+04  0.7818609E-02  0.8293848E-01
        2   -1    0    0  501    0  0.00000000000E+00  0.00000000000E+00  0.27360961180E+04  0.27360961180E+04  0.25500000920E-02 0. -1.
       -2   -1    0    0    0  501  0.00000000000E+00  0.00000000000E+00 -0.73206306297E+03  0.73206306297E+03  0.25500000920E-02 0.  1.
    10030    2    1    2    0    0  0.00000000000E+00  0.00000000000E+00  0.20040330550E+04  0.34681591810E+04  0.28305440500E+04 0.  0.
        5    1    3    3  502    0 -0.11675220418E+03 -0.55912154077E+03 -0.58455626937E+03  0.81729804637E+03  0.46999998093E+01 0.  1.
       -5    1    3    3    0  502  0.11675220418E+03  0.55912154077E+03  0.25885893244E+04  0.26508611346E+04  0.46999998093E+01 0. -1.
</event>
<event>
 5   0  0.1187925E-07  0.3905716E+04  0.7818609E-02  0.8023842E-01
       -1   -1    0    0    0  501  0.00000000000E+00  0.00000000000E+00  0.14891321641E+04  0.14891321641E+04  0.50400001928E-02 0. -1.
        1   -1    0    0  501    0  0.00000000000E+00  0.00000000000E+00 -0.25609906775E+04  0.25609906775E+04  0.50400001928E-02 0.  1.
    10030    2    1    2    0    0  0.00000000000E+00  0.00000000000E+00 -0.10718585134E+04  0.40501228416E+04  0.39057156015E+04 0.  0.
        3    1    3    3  502    0  0.61669603679E+03 -0.14446800617E+04 -0.17391039224E+04  0.23434796661E+04  0.10100000352E+00 0.  1.
       -3    1    3    3    0  502 -0.61669603679E+03  0.14446800617E+04  0.66724540908E+03  0.17066431755E+04  0.10100000352E+00 0. -1.
</event>
<event>
 5   0  0.1187925E-07  0.3962807E+04  0.7818609E-02  0.8012092E-01
       -1   -1    0    0    0  501  0.00000000000E+00  0.00000000000E+00  0.19737060859E+04  0.19737060859E+04  0.50400001928E-02 0. -1.
        1   -1    0    0  501    0  0.00000000000E+00  0.00000000000E+00 -0.19891309120E+04  0.19891309121E+04  0.50400001928E-02 0.  1.
    10030    2    1    2    0    0  0.00000000000E+00  0.00000000000E+00 -0.15424826156E+02  0.39628369980E+04  0.39628069783E+04 0.  0.
        4    1    3    3  502    0  0.16331140925E+04  0.99405337067E+03  0.51263221609E+03  0.19793931254E+04  0.12699999809E+01 0. -1.
       -4    1    3    3    0  502 -0.16331140925E+04 -0.99405337067E+03 -0.52805704225E+03  0.19834438726E+04  0.12699999809E+01 0.  1.
</event>
<event>
 5   0  0.1187925E-07  0.3723135E+04  0.7818609E-02  0.8062854E-01
        1   -1    0    0  501    0  0.00000000000E+00  0.00000000000E+00  0.12651454050E+04  0.12651454050E+04  0.50400001928E-02 0. -1.
       -1   -1    0    0    0  501  0.00000000000E+00  0.00000000000E+00 -0.27391576728E+04  0.27391576728E+04  0.50400001928E-02 0.  1.
    10030    2    1    2    0    0  0.00000000000E+00  0.00000000000E+00 -0.14740122677E+04  0.40043030778E+04  0.37231345629E+04 0.  0.
        2    1    3    3  502    0 -0.87793682857E+03 -0.15880705922E+04 -0.29006158790E+03  0.18376280923E+04  0.25500000920E-02 0. -1.
       -2    1    3    3    0  502  0.87793682857E+03  0.15880705922E+04 -0.11839506798E+04  0.21666749855E+04  0.25500000920E-02 0.  1.
</event>
<event>
 5   0  0.3610483E-07  0.3873923E+04  0.7818609E-02  0.8030475E-01
        2   -1    0    0  501    0  0.00000000000E+00  0.00000000000E+00  0.12476749421E+04  0.12476749421E+04  0.25500000920E-02 0.  1.
       -2   -1    0    0    0  501  0.00000000000E+00  0.00000000000E+00 -0.30070487999E+04  0.30070487999E+04  0.25500000920E-02 0. -1.
    10030    2    1    2    0    0  0.00000000000E+00  0.00000000000E+00 -0.17593738578E+04  0.42547237421E+04  0.38739227857E+04 0.  0.
        4    1    3    3  502    0 -0.31229833133E+03  0.78935573113E+03  0.10324899758E+04  0.13366562315E+04  0.12699999809E+01 0.  1.
       -4    1    3    3    0  502  0.31229833133E+03 -0.78935573113E+03 -0.27918638336E+04  0.29180675106E+04  0.12699999809E+01 0. -1.
</event>
<event>
 5   0  0.1187925E-07  0.3776584E+04  0.7818609E-02  0.8051199E-01
        1   -1    0    0  501    0  0.00000000000E+00  0.00000000000E+00  0.17247439100E+04  0.17247439100E+04  0.50400001928E-02 0. -1.
       -1   -1    0    0    0  501  0.00000000000E+00  0.00000000000E+00 -0.20673487820E+04  0.20673487820E+04  0.50400001928E-02 0.  1.
    10030    2    1    2    0    0  0.00000000000E+00  0.00000000000E+00 -0.34260487198E+03  0.37920926920E+04  0.37765842882E+04 0.  0.
        5    1    3    3  502    0 -0.10522863222E+04 -0.79836544072E+03  0.11836577593E+04  0.17736295165E+04  0.46999998093E+01 0. -1.
       -5    1    3    3    0  502  0.10522863222E+04  0.79836544072E+03 -0.15262626313E+04  0.20184631754E+04  0.46999998093E+01 0.  1.
</event>
<event>
 5   0  0.3832389E-07  0.3847951E+04  0.7818609E-02  0.8035942E-01
        2   -1    0    0  501    0  0.00000000000E+00  0.00000000000E+00  0.13673996207E+04  0.13673996207E+04  0.25500000920E-02 0. -1.
       -2   -1    0    0    0  501  0.00000000000E+00  0.00000000000E+00 -0.27070963123E+04  0.27070963123E+04  0.25500000920E-02 0.  1.
    10030    2    1    2    0    0  0.00000000000E+00  0.00000000000E+00 -0.13396966916E+04  0.40744959330E+04  0.38479513877E+04 0.  0.
        5    1    3    3  502    0 -0.67561616628E+03  0.15642648312E+04 -0.16159146758E+04  0.23483151397E+04  0.46999998093E+01 0.  1.
       -5    1    3    3    0  502  0.67561616628E+03 -0.15642648312E+04  0.27621798415E+03  0.17261807932E+04  0.46999998093E+01 0. -1.
</event>
<event>
 5   0  0.1187925E-07  0.3899619E+04  0.7818609E-02  0.8025108E-01
        1   -1    0    0  501    0  0.00000000000E+00  0.00000000000E+00  0.25294659991E+04  0.25294659991E+04  0.50400001928E-02 0.  1.
       -1   -1    0    0    0  501  0.00000000000E+00  0.00000000000E+00 -0.15029883352E+04  0.15029883352E+04  0.50400001928E-02 0. -1.
    10030    2    1    2    0    0  0.00000000000E+00  0.00000000000E+00  0.10264776639E+04  0.40324543343E+04  0.38996194127E+04 0.  0.
        2    1    3    3  502    0 -0.17562271768E+04 -0.84532185375E+03  0.56849071550E+03  0.20302917590E+04  0.25500000920E-02 0. -1.
       -2    1    3    3    0  502  0.17562271768E+04  0.84532185375E+03  0.45798694844E+03  0.20021625753E+04  0.25500000920E-02 0.  1.
</event>
<event>
 5   0  0.3680814E-07  0.3916442E+04  0.7818609E-02  0.8021618E-01
        2   -1    0    0  501    0  0.00000000000E+00  0.00000000000E+00  0.20879238366E+04  0.20879238366E+04  0.25500000920E-02 0.  1.
       -2   -1    0    0    0  501  0.00000000000E+00  0.00000000000E+00 -0.18365750353E+04  0.18365750353E+04  0.25500000920E-02 0. -1.
    10030    2    1    2    0    0  0.00000000000E+00  0.00000000000E+00  0.25134880131E+03  0.39244988719E+04  0.39164416471E+04 0.  0.
        1    1    3    3  502    0 -0.38196987688E+03 -0.11493092820E+04  0.16676110183E+04  0.20610044447E+04  0.50400001928E-02 0.  1.
       -1    1    3    3    0  502  0.38196987688E+03  0.11493092820E+04 -0.14162622170E+04  0.18634944271E+04  0.50400001928E-02 0. -1.
</event>
<event>
 5   0  0.1187925E-07  0.3468717E+04  0.7818609E-02  0.8121244E-01
       -1   -1    0    0    0  501  0.00000000000E+00  0.00000000000E+00  0.12706494157E+04  0.12706494158E+04  0.50400001928E-02 0.  1.
        1   -1    0    0  501    0  0.00000000000E+00  0.00000000000E+00 -0.23672931988E+04  0.23672931988E+04  0.50400001928E-02 0. -1.
    10030    2    1    2    0    0  0.00000000000E+00  0.00000000000E+00 -0.10966437831E+04  0.36379426146E+04  0.34687171807E+04 0.  0.
        5    1    3    3  502    0  0.13843116693E+03 -0.10614988148E+04  0.88281388522E+03  0.13875609420E+04  0.46999998093E+01 0.  1.
       -5    1    3    3    0  502 -0.13843116693E+03  0.10614988148E+04 -0.19794576683E+04  0.22503816726E+04  0.46999998093E+01 0. -1.
</event>
<event>
 5   0  0.1187925E-07  0.3759067E+04  0.7818609E-02  0.8054996E-01
       -1   -1    0    0    0  501  0.00000000000E+00  0.00000000000E+00  0.31821487887E+04  0.31821487887E+04  0.50400001928E-02 0.  1.
        1   -1    0    0  501    0  0.00000000000E+00  0.00000000000E+00 -0.11101449420E+04  0.11101449420E+04  0.50400001928E-02 0. -1.
    10030    2    1    2    0    0  0.00000000000E+00  0.00000000000E+00  0.20720038467E+04  0.42922937307E+04  0.37590671090E+04 0.  0.
        2    1    3    3  502    0  0.66199711545E+03 -0.76895856790E+03 -0.77054492783E+03  0.12740788617E+04  0.25500000920E-02 0. -1.
       -2    1    3    3    0  502 -0.66199711545E+03  0.76895856790E+03  0.28425487745E+04  0.30182148690E+04  0.25500000920E-02 0.  1.
</event>
<event>
 5   0  0.3665303E-07  0.3911460E+04  0.7818609E-02  0.8022650E-01
        2   -1    0    0  501    0  0.00000000000E+00  0.00000000000E+00  0.20849626116E+04  0.20849626116E+04  0.25500000920E-02 0.  1.
       -2   -1    0    0    0  501  0.00000000000E+00  0.00000000000E+00 -0.18345076430E+04  0.18345076430E+04  0.25500000920E-02 0. -1.
    10030    2    1    2    0    0  0.00000000000E+00  0.00000000000E+00  0.25045496853E+03  0.39194702546E+04  0.39114600069E+04 0.  0.
        2    1    3    3  502    0  0.21640394710E+03  0.24210059651E+03 -0.18073061083E+04  0.18362458268E+04  0.25500000920E-02 0. -1.
       -2    1    3    3    0  502 -0.21640394710E+03 -0.24210059651E+03  0.20577610769E+04  0.20832244278E+04  0.25500000920E-02 0.  1.
</event>
<event>
 5   0  0.3665303E-07  0.3901725E+04  0.7818609E-02  0.8024670E-01
       -2   -1    0    0    0  501  0.00000000000E+00  0.00000000000E+00  0.30832132666E+04  0.30832132666E+04  0.25500000920E-02 0. -1.
        2   -1    0    0  501    0  0.00000000000E+00  0.00000000000E+00 -0.12343827964E+04  0.12343827964E+04  0.25500000920E-02 0.  1.
    10030    2    1    2    0    0  0.00000000000E+00  0.00000000000E+00  0.18488304702E+04  0.43175960630E+04  0.39017254715E+04 0.  0.
        2    1    3    3  502    0  0.14017601047E+04 -0.89823376820E+03  0.20497162081E+04  0.26406612481E+04  0.25500000920E-02 0. -1.
       -2    1    3    3    0  502 -0.14017601047E+04  0.89823376820E+03 -0.20088573786E+03  0.16769348148E+04  0.25500000920E-02 0.  1.
</event>
<event>
 5   0  0.3610483E-07  0.3927191E+04  0.7818609E-02  0.8019398E-01
        2   -1    0    0  501    0  0.00000000000E+00  0.00000000000E+00  0.25909848103E+04  0.25909848103E+04  0.25500000920E-02 0.  1.
       -2   -1    0    0    0  501  0.00000000000E+00  0.00000000000E+00 -0.14881244456E+04  0.14881244456E+04  0.25500000920E-02 0. -1.
    10030    2    1    2    0    0  0.00000000000E+00  0.00000000000E+00  0.11028603648E+04  0.40791092559E+04  0.39271912784E+04 0.  0.
        4    1    3    3  502    0 -0.13351525142E+04 -0.54873584866E+03  0.19340749104E+04  0.24133774342E+04  0.12699999809E+01 0.  1.
       -4    1    3    3    0  502  0.13351525142E+04  0.54873584866E+03 -0.83121454568E+03  0.16657318217E+04  0.12699999809E+01 0. -1.
</event>
<event>
 5   0  0.3665303E-07  0.3840752E+04  0.7818609E-02  0.8037466E-01
        2   -1    0    0  501    0  0.00000000000E+00  0.00000000000E+00  0.16918766113E+04  0.16918766113E+04  0.25500000920E-02 0. -1.
       -2   -1    0    0    0  501  0.00000000000E+00  0.00000000000E+00 -0.21797358821E+04  0.21797358821E+04  0.25500000920E-02 0.  1.
    10030    2    1    2    0    0  0.00000000000E+00  0.00000000000E+00 -0.48785927070E+03  0.38716124934E+04  0.38407520919E+04 0.  0.
        2    1    3    3  502    0 -0.16567330794E+04 -0.42570646027E+02  0.73405518936E+03  0.18125710407E+04  0.25500000920E-02 0. -1.
       -2    1    3    3    0  502  0.16567330794E+04  0.42570646027E+02 -0.12219144601E+04  0.20590414527E+04  0.25500000920E-02 0.  1.
</event>
<event>
 5   0  0.3665303E-07  0.3888914E+04  0.7818609E-02  0.8027339E-01
        2   -1    0    0  501    0  0.00000000000E+00  0.00000000000E+00  0.20884656276E+04  0.20884656276E+04  0.25500000920E-02 0.  1.
       -2   -1    0    0    0  501  0.00000000000E+00  0.00000000000E+00 -0.18103783912E+04  0.18103783912E+04  0.25500000920E-02 0. -1.
    10030    2    1    2    0    0  0.00000000000E+00  0.00000000000E+00  0.27808723635E+03  0.38988440188E+04  0.38889140093E+04 0.  0.
        2    1    3    3  502    0  0.10483814949E+03 -0.19222327019E+04  0.41350064047E+03  0.19689978104E+04  0.25500000920E-02 0.  1.
       -2    1    3    3    0  502 -0.10483814949E+03  0.19222327019E+04 -0.13541340412E+03  0.19298462084E+04  0.25500000920E-02 0. -1.
</event>
<event>
 5   0  0.3810833E-07  0.3920827E+04  0.7818609E-02  0.8020711E-01
        2   -1    0    0  501    0  0.00000000000E+00  0.00000000000E+00  0.27113914122E+04  0.27113914122E+04  0.25500000920E-02 0. -1.
       -2   -1    0    0    0  501  0.00000000000E+00  0.00000000000E+00 -0.14174352648E+04  0.14174352648E+04  0.25500000920E-02 0.  1.
    10030    2    1    2    0    0  0.00000000000E+00  0.00000000000E+00  0.12939561474E+04  0.41288266769E+04  0.39208273638E+04 0.  0.
        3    1    3    3  502    0 -0.67177142710E+03  0.10523491253E+04 -0.94466289035E+03  0.15656000506E+04  0.10100000352E+00 0.  1.
       -3    1    3    3    0  502  0.67177142710E+03 -0.10523491253E+04  0.22386190378E+04  0.25632266264E+04  0.10100000352E+00 0. -1.
</event>
<event>
 5   0  0.1187925E-07  0.3905968E+04  0.7818609E-02  0.8023789E-01
       -1   -1    0    0    0  501  0.00000000000E+00  0.00000000000E+00  0.16936521035E+04  0.16936521035E+04  0.50400001928E-02 0. -1.
        1   -1    0    0  501    0  0.00000000000E+00  0.00000000000E+00 -0.22520250108E+04  0.22520250108E+04  0.50400001928E-02 0.  1.
    10030    2    1    2    0    0  0.00000000000E+00  0.00000000000E+00 -0.55837290728E+03  0.39456771143E+04  0.39059682010E+04 0.  0.
        4    1    3    3  502    0 -0.12124550699E+04 -0.96800350397E+03 -0.14774442400E+04  0.21424101324E+04  0.12699999809E+01 0.  1.
       -4    1    3    3    0  502  0.12124550699E+04  0.96800350397E+03  0.91907133275E+03  0.18032669819E+04  0.12699999809E+01 0. -1.
</event>
<event>
 5   0  0.1187925E-07  0.3121525E+04  0.7818609E-02  0.8209855E-01
        1   -1    0    0  501    0  0.00000000000E+00  0.00000000000E+00  0.18145163396E+04  0.18145163396E+04  0.50400001928E-02 0. -1.
       -1   -1    0    0    0  501  0.00000000000E+00  0.00000000000E+00 -0.13424949001E+04  0.13424949001E+04  0.50400001928E-02 0.  1.
    10030    2    1    2    0    0  0.00000000000E+00  0.00000000000E+00  0.47202143952E+03  0.31570112397E+04  0.31215245840E+04 0.  0.
        1    1    3    3  502    0  0.83904526447E+03 -0.12772575779E+04  0.55678363171E+03  0.16264660736E+04  0.50400001928E-02 0.  1.
       -1    1    3    3    0  502 -0.83904526447E+03  0.12772575779E+04 -0.84762192197E+02  0.15305451661E+04  0.50400001928E-02 0. -1.
</event>
<event>
 5   0  0.1187925E-07  0.3085783E+04  0.7818609E-02  0.8219650E-01
       -1   -1    0    0    0  501  0.00000000000E+00  0.00000000000E+00  0.12642729354E+04  0.12642729354E+04  0.50400001928E-02 0. -1.
        1   -1    0    0  501    0  0.00000000000E+00  0.00000000000E+00 -0.18829121642E+04  0.18829121642E+04  0.50400001928E-02 0.  1.
    10030    2    1    2    0    0  0.00000000000E+00  0.00000000000E+00 -0.61863922878E+03  0.31471850995E+04  0.30857834589E+04 0.  0.
        3    1    3    3  502    0  0.79409005744E+03  0.97975856461E+03 -0.12158301650E+04  0.17517844801E+04  0.10100000352E+00 0.  1.
       -3    1    3    3    0  502 -0.79409005744E+03 -0.97975856461E+03  0.59719093626E+03  0.13954006195E+04  0.10100000352E+00 0. -1.
</event>
<event>
 5   0  0.1187925E-07  0.3619108E+04  0.7818609E-02  0.8086129E-01
        1   -1    0    0  501    0  0.00000000000E+00  0.00000000000E+00  0.21459303241E+04  0.21459303241E+04  0.50400001928E-02 0.  1.
       -1   -1    0    0    0  501  0.00000000000E+00  0.00000000000E+00 -0.15259047148E+04  0.15259047148E+04  0.50400001928E-02 0. -1.
    10030    2    1    2    0    0  0.00000000000E+00  0.00000000000E+00  0.62002560927E+03  0.36718350389E+04  0.36191077349E+04 0.  0.
        2    1    3    3  502    0 -0.15648934608E+04 -0.74148626169E+03  0.84282273272E+03  0.19258877378E+04  0.25500000920E-02 0.  1.
       -2    1    3    3    0  502  0.15648934608E+04  0.74148626169E+03 -0.22279712345E+03  0.17459473011E+04  0.25500000920E-02 0. -1.
</event>
<event>
 5   0  0.1187925E-07  0.3669538E+04  0.7818609E-02  0.8074746E-01
       -1   -1    0    0    0  501  0.00000000000E+00  0.00000000000E+00  0.15609319135E+04  0.15609319135E+04  0.50400001928E-02 0. -1.
        1   -1    0    0  501    0  0.00000000000E+00  0.00000000000E+00 -0.21566463907E+04  0.21566463907E+04  0.50400001928E-02 0.  1.
    10030    2    1    2    0    0  0.00000000000E+00  0.00000000000E+00 -0.59571447719E+03  0.37175783041E+04  0.36695384872E+04 0.  0.
        3    1    3    3  502    0 -0.13095191509E+04  0.91528632022E+02 -0.15964968349E+04  0.20668865598E+04  0.10100000352E+00 0.  1.
       -3    1    3    3    0  502  0.13095191509E+04 -0.91528632022E+02  0.10007823577E+04  0.16506917443E+04  0.10100000352E+00 0. -1.
</event>
<event>
 5   0  0.3610483E-07  0.3838916E+04  0.7818609E-02  0.8037855E-01
       -2   -1    0    0    0  501  0.00000000000E+00  0.00000000000E+00  0.22562322218E+04  0.22562322218E+04  0.25500000920E-02 0. -1.
        2   -1    0    0  501    0  0.00000000000E+00  0.00000000000E+00 -0.16329522585E+04  0.16329522585E+04  0.25500000920E-02 0.  1.
    10030    2    1    2    0    0  0.00000000000E+00  0.00000000000E+00  0.62327996330E+03  0.38891844803E+04  0.38389162545E+04 0.  0.
        4    1    3    3  502    0  0.23680714065E+03 -0.13462677735E+03  0.22365502012E+04  0.22530779849E+04  0.12699999809E+01 0. -1.
       -4    1    3    3    0  502 -0.23680714065E+03  0.13462677735E+03 -0.16132702379E+04  0.16361064954E+04  0.12699999809E+01 0.  1.
</event>
<event>
 5   0  0.3610483E-07  0.3926354E+04  0.7818609E-02  0.8019570E-01
       -2   -1    0    0    0  501  0.00000000000E+00  0.00000000000E+00  0.17690324027E+04  0.17690324027E+04  0.25500000920E-02 0.  1.
        2   -1    0    0  501    0  0.00000000000E+00  0.00000000000E+00 -0.21786282650E+04  0.21786282650E+04  0.25500000920E-02 0. -1.
    10030    2    1    2    0    0  0.00000000000E+00  0.00000000000E+00 -0.40959586230E+03  0.39476606678E+04  0.39263540311E+04 0.  0.
        4    1    3    3  502    0 -0.10917720119E+04 -0.16260423499E+04 -0.69596907858E+02  0.19598023349E+04  0.12699999809E+01 0.  1.
       -4    1    3    3    0  502  0.10917720119E+04  0.16260423499E+04 -0.33999895444E+03  0.19878583328E+04  0.12699999809E+01 0. -1.
</event>
<event>
 5   0  0.3665303E-07  0.3376426E+04  0.7818609E-02  0.8143717E-01
       -2   -1    0    0    0  501  0.00000000000E+00  0.00000000000E+00  0.18409210384E+04  0.18409210384E+04  0.25500000920E-02 0.  1.
        2   -1    0    0  501    0  0.00000000000E+00  0.00000000000E+00 -0.15481723103E+04  0.15481723103E+04  0.25500000920E-02 0. -1.
    10030    2    1    2    0    0  0.00000000000E+00  0.00000000000E+00  0.29274872810E+03  0.33890933488E+04  0.33764259075E+04 0.  0.
        2    1    3    3  502    0  0.12642775971E+04  0.95333301176E+03 -0.44133174890E+03  0.16437808207E+04  0.25500000920E-02 0. -1.
       -2    1    3    3    0  502 -0.12642775971E+04 -0.95333301176E+03  0.73408047700E+03  0.17453125281E+04  0.25500000920E-02 0.  1.
</event>
<event>
 5   0  0.1187925E-07  0.3911923E+04  0.7818609E-02  0.8022554E-01
       -3   -1    0    0    0  501  0.00000000000E+00  0.00000000000E+00  0.16107442990E+04  0.16107443022E+04  0.10100000352E+00 0.  1.
        3   -1    0    0  501    0  0.00000000000E+00  0.00000000000E+00 -0.23751665614E+04  0.23751665636E+04  0.10100000352E+00 0. -1.
    10030    2    1    2    0    0  0.00000000000E+00  0.00000000000E+00 -0.76442226238E+03  0.39859108658E+04  0.39119233166E+04 0.  0.
        5    1    3    3  502    0  0.29516713680E+03 -0.19001107277E+04 -0.17361179293E+02  0.19229841177E+04  0.46999998093E+01 0.  1.
       -5    1    3    3    0  502 -0.29516713680E+03  0.19001107277E+04 -0.74706108309E+03  0.20629267481E+04  0.46999998093E+01 0. -1.
</event>
<event>
 5   0  0.1187925E-07  0.3842178E+04  0.7818609E-02  0.8037164E-01
       -1   -1    0    0    0  501  0.00000000000E+00  0.00000000000E+00  0.18052705999E+04  0.18052705999E+04  0.50400001928E-02 0. -1.
        1   -1    0    0  501    0  0.00000000000E+00  0.00000000000E+00 -0.20443382888E+04  0.20443382888E+04  0.50400001928E-02 0.  1.
    10030    2    1    2    0    0  0.00000000000E+00  0.00000000000E+00 -0.23906768890E+03  0.38496088887E+04  0.38421784493E+04 0.  0.
        4    1    3    3  502    0  0.19186889634E+04 -0.82271231188E+02 -0.16908960395E+03  0.19278819468E+04  0.12699999809E+01 0. -1.
       -4    1    3    3    0  502 -0.19186889634E+04  0.82271231188E+02 -0.69978084952E+02  0.19217269419E+04  0.12699999809E+01 0.  1.
</event>
<event>
 5   0  0.1187925E-07  0.3925830E+04  0.7818609E-02  0.8019678E-01
       -1   -1    0    0    0  501  0.00000000000E+00  0.00000000000E+00  0.25318345438E+04  0.25318345438E+04  0.50400001928E-02 0. -1.
        1   -1    0    0  501    0  0.00000000000E+00  0.00000000000E+00 -0.15218357322E+04  0.15218357323E+04  0.50400001928E-02 0.  1.
    10030    2    1    2    0    0  0.00000000000E+00  0.00000000000E+00  0.10099988116E+04  0.40536702761E+04  0.39258304991E+04 0.  0.
        3    1    3    3  502    0 -0.38042144201E+03  0.13513311650E+04 -0.91161630300E+03  0.16738759468E+04  0.10100000352E+00 0.  1.
       -3    1    3    3    0  502  0.38042144201E+03 -0.13513311650E+04  0.19216151146E+04  0.23797943293E+04  0.10100000352E+00 0. -1.
</event>
<event>
 5   0  0.1187925E-07  0.3924002E+04  0.7818609E-02  0.8020056E-01
       -1   -1    0    0    0  501  0.00000000000E+00  0.00000000000E+00  0.17101303086E+04  0.17101303086E+04  0.50400001928E-02 0. -1.
        1   -1    0    0  501    0  0.00000000000E+00  0.00000000000E+00 -0.22509673458E+04  0.22509673458E+04  0.50400001928E-02 0.  1.
    10030    2    1    2    0    0  0.00000000000E+00  0.00000000000E+00 -0.54083703720E+03  0.39610976543E+04  0.39240017745E+04 0.  0.
        4    1    3    3  502    0 -0.16457453113E+04  0.75588887121E+03  0.49143493591E+03  0.18765275177E+04  0.12699999809E+01 0. -1.
       -4    1    3    3    0  502  0.16457453113E+04 -0.75588887121E+03 -0.10322719731E+04  0.20845701367E+04  0.12699999809E+01 0.  1.
</event>
<event>
 5   0  0.1187925E-07  0.3922303E+04  0.7818609E-02  0.8020407E-01
       -1   -1    0    0    0  501  0.00000000000E+00  0.00000000000E+00  0.18608348039E+04  0.18608348039E+04  0.50400001928E-02 0.  1.
        1   -1    0    0  501    0  0.00000000000E+00  0.00000000000E+00 -0.20668761938E+04  0.20668761938E+04  0.50400001928E-02 0. -1.
    10030    2    1    2    0    0  0.00000000000E+00  0.00000000000E+00 -0.20604138988E+03  0.39277109977E+04  0.39223029750E+04 0.  0.
        4    1    3    3  502    0  0.16401739400E+04 -0.90552050889E+03  0.47741251851E+03  0.19334069078E+04  0.12699999809E+01 0. -1.
       -4    1    3    3    0  502 -0.16401739400E+04  0.90552050889E+03 -0.68345390839E+03  0.19943040899E+04  0.12699999809E+01 0.  1.
</event>
<event>
 5   0  0.3680814E-07  0.3000473E+04  0.7818609E-02  0.8243596E-01
       -2   -1    0    0    0  501  0.00000000000E+00  0.00000000000E+00  0.13761940123E+04  0.13761940123E+04  0.25500000920E-02 0. -1.
        2   -1    0    0  501    0  0.00000000000E+00  0.00000000000E+00 -0.16354594388E+04  0.16354594388E+04  0.25500000920E-02 0.  1.
    10030    2    1    2    0    0  0.00000000000E+00  0.00000000000E+00 -0.25926542648E+03  0.30116534512E+04  0.30004729541E+04 0.  0.
        1    1    3    3  502    0 -0.13460888673E+04 -0.64721959071E+03  0.11821660611E+02  0.14936492858E+04  0.50400001928E-02 0.  1.
       -1    1    3    3    0  502  0.13460888673E+04  0.64721959071E+03 -0.27108708709E+03  0.15180041654E+04  0.50400001928E-02 0. -1.
</event>
<event>
 5   0  0.3665303E-07  0.3268216E+04  0.7818609E-02  0.8171030E-01
        2   -1    0    0  501    0  0.00000000000E+00  0.00000000000E+00  0.81690983714E+03  0.81690983714E+03  0.25500000920E-02 0.  1.
       -2   -1    0    0    0  501  0.00000000000E+00  0.00000000000E+00 -0.32687934851E+04  0.32687934851E+04  0.25500000920E-02 0. -1.
    10030    2    1    2    0    0  0.00000000000E+00  0.00000000000E+00 -0.24518836480E+04  0.40857033223E+04  0.32682163659E+04 0.  0.
        2    1    3    3  502    0 -0.71369488171E+03  0.14000757618E+03  0.60341976865E+03  0.94502800106E+03  0.25500000920E-02 0.  1.
       -2    1    3    3    0  502  0.71369488171E+03 -0.14000757618E+03 -0.30553034166E+04  0.31406753212E+04  0.25500000920E-02 0. -1.
</event>
<event>
 5   0  0.3810833E-07  0.4017512E+04  0.7818609E-02  0.8001023E-01
        2   -1    0    0  501    0  0.00000000000E+00  0.00000000000E+00  0.29677264363E+04  0.29677264363E+04  0.25500000920E-02 0. -1.
       -2   -1    0    0    0  501  0.00000000000E+00  0.00000000000E+00 -0.13596604934E+04  0.13596604934E+04  0.25500000920E-02 0.  1.
    10030    2    1    2    0    0  0.00000000000E+00  0.00000000000E+00  0.16080659429E+04  0.43273869296E+04  0.40175118621E+04 0.  0.
        3    1    3    3  502    0  0.82288884593E+03 -0.30696376659E+03  0.27499553455E+04  0.28868022480E+04  0.10100000352E+00 0. -1.
       -3    1    3    3    0  502 -0.82288884593E+03  0.30696376659E+03 -0.11418894026E+04  0.14405846816E+04  0.10100000352E+00 0.  1.
</event>
<event>
 5   0  0.3832389E-07  0.3957785E+04  0.7818609E-02  0.8013117E-01
        2   -1    0    0  501    0  0.00000000000E+00  0.00000000000E+00  0.12639538569E+04  0.12639538569E+04  0.25500000920E-02 0.  1.
       -2   -1    0    0    0  501  0.00000000000E+00  0.00000000000E+00 -0.30982265305E+04  0.30982265305E+04  0.25500000920E-02 0. -1.
    10030    2    1    2    0    0  0.00000000000E+00  0.00000000000E+00 -0.18342726736E+04  0.43621803875E+04  0.39577849223E+04 0.  0.
        5    1    3    3  502    0  0.16534086679E+04  0.68091872547E+03 -0.18514438144E+04  0.25739613092E+04  0.46999998093E+01 0. -1.
       -5    1    3    3    0  502 -0.16534086679E+04 -0.68091872547E+03  0.17171140752E+02  0.17882190782E+04  0.46999998093E+01 0.  1.
</event>
<event>
 5   0  0.1187925E-07  0.4067679E+04  0.7818609E-02  0.7991031E-01
        1   -1    0    0  501    0  0.00000000000E+00  0.00000000000E+00  0.15673575771E+04  0.15673575771E+04  0.50400001928E-02 0. -1.
       -1   -1    0    0    0  501  0.00000000000E+00  0.00000000000E+00 -0.26391566315E+04  0.26391566315E+04  0.50400001928E-02 0.  1.
    10030    2    1    2    0    0  0.00000000000E+00  0.00000000000E+00 -0.10717990544E+04  0.42065142086E+04  0.40676785239E+04 0.  0.
        5    1    3    3  502    0  0.17610562630E+03 -0.15039920246E+04  0.86818853335E+03  0.17455023979E+04  0.46999998093E+01 0. -1.
       -5    1    3    3    0  502 -0.17610562630E+03  0.15039920246E+04 -0.19399875877E+04  0.24610118107E+04  0.46999998093E+01 0.  1.
</event>
<event>
 5   0  0.1187925E-07  0.3093813E+04  0.7818609E-02  0.8217438E-01
       -1   -1    0    0    0  501  0.00000000000E+00  0.00000000000E+00  0.12909444272E+04  0.12909444272E+04  0.50400001928E-02 0. -1.
        1   -1    0    0  501    0  0.00000000000E+00  0.00000000000E+00 -0.18536190854E+04  0.18536190854E+04  0.50400001928E-02 0.  1.
    10030    2    1    2    0    0  0.00000000000E+00  0.00000000000E+00 -0.56267465818E+03  0.31445635126E+04  0.30938126824E+04 0.  0.
        2    1    3    3  502    0  0.30394562703E+03  0.10765523347E+04 -0.13673074759E+04  0.17666005795E+04  0.25500000920E-02 0.  1.
       -2    1    3    3    0  502 -0.30394562703E+03 -0.10765523347E+04  0.80463281776E+03  0.13779629331E+04  0.25500000920E-02 0. -1.
</event>
<event>
 5   0  0.1187925E-07  0.3940400E+04  0.7818609E-02  0.8016679E-01
        1   -1    0    0  501    0  0.00000000000E+00  0.00000000000E+00  0.14275783184E+04  0.14275783184E+04  0.50400001928E-02 0.  1.
       -1   -1    0    0    0  501  0.00000000000E+00  0.00000000000E+00 -0.27190712015E+04  0.27190712015E+04  0.50400001928E-02 0. -1.
    10030    2    1    2    0    0  0.00000000000E+00  0.00000000000E+00 -0.12914928831E+04  0.41466495199E+04  0.39403995196E+04 0.  0.
        5    1    3    3  502    0  0.12358780964E+04 -0.14698926323E+04 -0.11088799130E+04  0.22175697895E+04  0.46999998093E+01 0. -1.
       -5    1    3    3    0  502 -0.12358780964E+04  0.14698926323E+04 -0.18261297007E+03  0.19290797305E+04  0.46999998093E+01 0.  1.
</event>
<event>
 5   0  0.3665303E-07  0.3895304E+04  0.7818609E-02  0.8026007E-01
        2   -1    0    0  501    0  0.00000000000E+00  0.00000000000E+00  0.14689096364E+04  0.14689096364E+04  0.25500000920E-02 0.  1.
       -2   -1    0    0    0  501  0.00000000000E+00  0.00000000000E+00 -0.25824242413E+04  0.25824242413E+04  0.25500000920E-02 0. -1.
    10030    2    1    2    0    0  0.00000000000E+00  0.00000000000E+00 -0.11135146049E+04  0.40513338777E+04  0.38953037639E+04 0.  0.
        2    1    3    3  502    0 -0.12749722194E+04 -0.14700548415E+04 -0.64209549958E+03  0.20491222579E+04  0.25500000920E-02 0. -1.
       -2    1    3    3    0  502  0.12749722194E+04  0.14700548415E+04 -0.47141910535E+03  0.20022116198E+04  0.25500000920E-02 0.  1.
</event>
<event>
 5   0  0.3680814E-07  0.2863535E+04  0.7818609E-02  0.8283810E-01
       -2   -1    0    0    0  501  0.00000000000E+00  0.00000000000E+00  0.11361986602E+04  0.11361986602E+04  0.25500000920E-02 0.  1.
        2   -1    0    0  501    0  0.00000000000E+00  0.00000000000E+00 -0.18042249015E+04  0.18042249015E+04  0.25500000920E-02 0. -1.
    10030    2    1    2    0    0  0.00000000000E+00  0.00000000000E+00 -0.66802624134E+03  0.29404235617E+04  0.28635348196E+04 0.  0.
        1    1    3    3  502    0 -0.10145204936E+04  0.86841875429E+03 -0.86416560707E+03  0.15906555759E+04  0.50400001928E-02 0.  1.
       -1    1    3    3    0  502  0.10145204936E+04 -0.86841875429E+03  0.19613936573E+03  0.13497679858E+04  0.50400001928E-02 0. -1.
</event>
<event>
 5   0  0.3680814E-07  0.3912751E+04  0.7818609E-02  0.8022383E-01
       -2   -1    0    0    0  501  0.00000000000E+00  0.00000000000E+00  0.17158390020E+04  0.17158390020E+04  0.25500000920E-02 0.  1.
        2   -1    0    0  501    0  0.00000000000E+00  0.00000000000E+00 -0.22306314237E+04  0.22306314237E+04  0.25500000920E-02 0. -1.
    10030    2    1    2    0    0  0.00000000000E+00  0.00000000000E+00 -0.51479242169E+03  0.39464704257E+04  0.39127506417E+04 0.  0.
        1    1    3    3  502    0  0.15151298584E+04 -0.12100286490E+04 -0.51966902159E+03  0.20074470632E+04  0.50400001928E-02 0. -1.
       -1    1    3    3    0  502 -0.15151298584E+04  0.12100286490E+04  0.48765998953E+01  0.19390233626E+04  0.50400001928E-02 0.  1.
</event>
<event>
 5   0  0.3810833E-07  0.3072966E+04  0.7818609E-02  0.8223196E-01
        2   -1    0    0  501    0  0.00000000000E+00  0.00000000000E+00  0.25502582992E+04  0.25502582992E+04  0.25500000920E-02 0.  1.
       -2   -1    0    0    0  501  0.00000000000E+00  0.00000000000E+00 -0.92570243411E+03  0.92570243411E+03  0.25500000920E-02 0. -1.
    10030    2    1    2    0    0  0.00000000000E+00  0.00000000000E+00  0.16245558651E+04  0.34759607334E+04  0.30729661991E+04 0.  0.
        3    1    3    3  502    0  0.10250934722E+04 -0.51098070007E+03 -0.34616951611E+03  0.11965580833E+04  0.10100000352E+00 0. -1.
       -3    1    3    3    0  502 -0.10250934722E+04  0.51098070007E+03  0.19707253813E+04  0.22794026501E+04  0.10100000352E+00 0.  1.
</event>
<event>
 5   0  0.1187925E-07  0.3892300E+04  0.7818609E-02  0.8026633E-01
        1   -1    0    0  501    0  0.00000000000E+00  0.00000000000E+00  0.15171254363E+04  0.15171254363E+04  0.50400001928E-02 0. -1.
       -1   -1    0    0    0  501  0.00000000000E+00  0.00000000000E+00 -0.24964970136E+04  0.24964970136E+04  0.50400001928E-02 0.  1.
    10030    2    1    2    0    0  0.00000000000E+00  0.00000000000E+00 -0.97937157731E+03  0.40136224499E+04  0.38922996395E+04 0.  0.
        4    1    3    3  502    0  0.33775442762E+03 -0.17976031016E+04 -0.11752723340E+04  0.21741024898E+04  0.12699999809E+01 0.  1.
       -4    1    3    3    0  502 -0.33775442762E+03  0.17976031016E+04  0.19590075665E+03  0.18395199601E+04  0.12699999809E+01 0. -1.
</event>
<event>
 5   0  0.3680814E-07  0.3891570E+04  0.7818609E-02  0.8026785E-01
       -2   -1    0    0    0  501  0.00000000000E+00  0.00000000000E+00  0.27231455056E+04  0.27231455056E+04  0.25500000920E-02 0. -1.
        2   -1    0    0  501    0  0.00000000000E+00  0.00000000000E+00 -0.13903328213E+04  0.13903328213E+04  0.25500000920E-02 0.  1.
    10030    2    1    2    0    0  0.00000000000E+00  0.00000000000E+00  0.13328126843E+04  0.41134783269E+04  0.38915696440E+04 0.  0.
        1    1    3    3  502    0 -0.18178303655E+03  0.89121050725E+03 -0.11517890293E+04  0.14676236604E+04  0.50400001928E-02 0.  1.
       -1    1    3    3    0  502  0.18178303655E+03 -0.89121050725E+03  0.24846017136E+04  0.26458546664E+04  0.50400001928E-02 0. -1.
</event>
<event>
 5   0  0.1187925E-07  0.3919906E+04  0.7818609E-02  0.8020902E-01
       -1   -1    0    0    0  501  0.00000000000E+00  0.00000000000E+00  0.21048862729E+04  0.21048862729E+04  0.50400001928E-02 0. -1.
        1   -1    0    0  501    0  0.00000000000E+00  0.00000000000E+00 -0.18249990699E+04  0.18249990699E+04  0.50400001928E-02 0.  1.
    10030    2    1    2    0    0  0.00000000000E+00  0.00000000000E+00  0.27988720300E+03  0.39298853429E+04  0.39199058613E+04 0.  0.
        2    1    3    3  502    0 -0.16749363629E+04 -0.66826018514E+03  0.90964290870E+03  0.20197608067E+04  0.25500000920E-02 0. -1.
       -2    1    3    3    0  502  0.16749363629E+04  0.66826018514E+03 -0.62975570570E+03  0.19101245362E+04  0.25500000920E-02 0.  1.
</event>
<event>
 5   0  0.3832389E-07  0.3946227E+04  0.7818609E-02  0.8015483E-01
        2   -1    0    0  501    0  0.00000000000E+00  0.00000000000E+00  0.20705999459E+04  0.20705999459E+04  0.25500000920E-02 0.  1.
       -2   -1    0    0    0  501  0.00000000000E+00  0.00000000000E+00 -0.18802168540E+04  0.18802168540E+04  0.25500000920E-02 0. -1.
    10030    2    1    2    0    0  0.00000000000E+00  0.00000000000E+00  0.19038309192E+03  0.39508167999E+04  0.39462270163E+04 0.  0.
        5    1    3    3  502    0  0.32905528512E+03 -0.14617080719E+04 -0.11901579675E+04  0.19134696093E+04  0.46999998093E+01 0. -1.
       -5    1    3    3    0  502 -0.32905528512E+03  0.14617080719E+04  0.13805410594E+04  0.20373471906E+04  0.46999998093E+01 0.  1.
</event>
<event>
 5   0  0.3810833E-07  0.3903960E+04  0.7818609E-02  0.8024206E-01
       -2   -1    0    0    0  501  0.00000000000E+00  0.00000000000E+00  0.20061049672E+04  0.20061049672E+04  0.25500000920E-02 0. -1.
        2   -1    0    0  501    0  0.00000000000E+00  0.00000000000E+00 -0.18993148813E+04  0.18993148813E+04  0.25500000920E-02 0.  1.
    10030    2    1    2    0    0  0.00000000000E+00  0.00000000000E+00  0.10679008595E+03  0.39054198485E+04  0.39039595375E+04 0.  0.
        3    1    3    3  502    0  0.79086555458E+03  0.17231152129E+04 -0.41113912427E+03  0.19400076680E+04  0.10100000352E+00 0.  1.
       -3    1    3    3    0  502 -0.79086555458E+03 -0.17231152129E+04  0.51792921022E+03  0.19654121805E+04  0.10100000352E+00 0. -1.
</event>
<event>
 5   0  0.1187925E-07  0.3884265E+04  0.7818609E-02  0.8028310E-01
       -1   -1    0    0    0  501  0.00000000000E+00  0.00000000000E+00  0.23420479396E+04  0.23420479396E+04  0.50400001928E-02 0. -1.
        1   -1    0    0  501    0  0.00000000000E+00  0.00000000000E+00 -0.16105046614E+04  0.16105046614E+04  0.50400001928E-02 0.  1.
    10030    2    1    2    0    0  0.00000000000E+00  0.00000000000E+00  0.73154327820E+03  0.39525526010E+04  0.38842652453E+04 0.  0.
        2    1    3    3  502    0 -0.93741984773E+03 -0.15477216541E+04 -0.35209577099E+03  0.18434125207E+04  0.25500000920E-02 0.  1.
       -2    1    3    3    0  502  0.93741984773E+03  0.15477216541E+04  0.10836390492E+04  0.21091400803E+04  0.25500000920E-02 0. -1.
</event>
<event>
 5   0  0.1187925E-07  0.3988294E+04  0.7818609E-02  0.8006912E-01
        1   -1    0    0  501    0  0.00000000000E+00  0.00000000000E+00  0.20757920420E+04  0.20757920420E+04  0.50400001928E-02 0. -1.
       -1   -1    0    0    0  501  0.00000000000E+00  0.00000000000E+00 -0.19157135507E+04  0.19157135507E+04  0.50400001928E-02 0.  1.
    10030    2    1    2    0    0  0.00000000000E+00  0.00000000000E+00  0.16007849127E+03  0.39915055927E+04  0.39882943438E+04 0.  0.
        2    1    3    3  502    0 -0.32404660928E+03 -0.17607440833E+04 -0.79896002650E+03  0.19605007156E+04  0.25500000920E-02 0.  1.
       -2    1    3    3    0  502  0.32404660928E+03  0.17607440833E+04  0.95903851777E+03  0.20310048770E+04  0.25500000920E-02 0. -1.
</event>
<event>
 5   0  0.1187925E-07  0.3797872E+04  0.7818609E-02  0.8046612E-01
        3   -1    0    0  501    0  0.00000000000E+00  0.00000000000E+00  0.16952378781E+04  0.16952378811E+04  0.10100000352E+00 0.  1.
       -3   -1    0    0    0  501  0.00000000000E+00  0.00000000000E+00 -0.21271097616E+04  0.21271097640E+04  0.10100000352E+00 0. -1.
    10030    2    1    2    0    0  0.00000000000E+00  0.00000000000E+00 -0.43187188348E+03  0.38223476451E+04  0.37978715350E+04 0.  0.
        4    1    3    3  502    0 -0.13178275764E+04 -0.96560394699E+03  0.75823542063E+03  0.18011060684E+04  0.12699999809E+01 0.  1.
       -4    1    3    3    0  502  0.13178275764E+04  0.96560394699E+03 -0.11901073041E+04  0.20212415768E+04  0.12699999809E+01 0. -1.
</event>
<event>
 5   0  0.3665303E-07  0.3775647E+04  0.7818609E-02  0.8051401E-01
       -2   -1    0    0    0  501  0.00000000000E+00  0.00000000000E+00  0.25358036498E+04  0.25358036498E+04  0.25500000920E-02 0. -1.
        2   -1    0    0  501    0  0.00000000000E+00  0.00000000000E+00 -0.14054233076E+04  0.14054233076E+04  0.25500000920E-02 0.  1.
    10030    2    1    2    0    0  0.00000000000E+00  0.00000000000E+00  0.11303803423E+04  0.39412269574E+04  0.37756469925E+04 0.  0.
        2    1    3    3  502    0  0.81094977030E+02  0.22933933217E+03 -0.13889952677E+04  0.14101350213E+04  0.25500000920E-02 0.  1.
       -2    1    3    3    0  502 -0.81094977030E+02 -0.22933933217E+03  0.25193756100E+04  0.25310919361E+04  0.25500000920E-02 0. -1.
</event>
<event>
 5   0  0.3665303E-07  0.3921131E+04  0.7818609E-02  0.8020649E-01
       -2   -1    0    0    0  501  0.00000000000E+00  0.00000000000E+00  0.19903082382E+04  0.19903082382E+04  0.25500000920E-02 0. -1.
        2   -1    0    0  501    0  0.00000000000E+00  0.00000000000E+00 -0.19312676011E+04  0.19312676011E+04  0.25500000920E-02 0.  1.
    10030    2    1    2    0    0  0.00000000000E+00  0.00000000000E+00  0.59040637163E+02  0.39215758393E+04  0.39211313759E+04 0.  0.
        2    1    3    3  502    0 -0.12733158026E+04 -0.83105201105E+03 -0.12082940973E+04  0.19421522092E+04  0.25500000920E-02 0.  1.
       -2    1    3    3    0  502  0.12733158026E+04  0.83105201105E+03  0.12673347345E+04  0.19794236301E+04  0.25500000920E-02 0. -1.
</event>
<event>
 5   0  0.1187925E-07  0.3839005E+04  0.7818609E-02  0.8037836E-01
        1   -1    0    0  501    0  0.00000000000E+00  0.00000000000E+00  0.11913939448E+04  0.11913939448E+04  0.50400001928E-02 0.  1.
       -1   -1    0    0    0  501  0.00000000000E+00  0.00000000000E+00 -0.30925868806E+04  0.30925868806E+04  0.50400001928E-02 0. -1.
    10030    2    1    2    0    0  0.00000000000E+00  0.00000000000E+00 -0.19011929358E+04  0.42839808254E+04  0.38390047061E+04 0.  0.
        3    1    3    3  502    0  0.46673608718E+02 -0.11682087150E+04 -0.26494191238E+04  0.28959129358E+04  0.10100000352E+00 0. -1.
       -3    1    3    3    0  502 -0.46673608718E+02  0.11682087150E+04  0.74822618805E+03  0.13880678897E+04  0.10100000352E+00 0.  1.
</event>
<event>
 5   0  0.3610483E-07  0.4005509E+04  0.7818609E-02  0.8003436E-01
       -2   -1    0    0    0  501  0.00000000000E+00  0.00000000000E+00  0.24211914313E+04  0.24211914313E+04  0.25500000920E-02 0.  1.
        2   -1    0    0  501    0  0.00000000000E+00  0.00000000000E+00 -0.16566330411E+04  0.16566330411E+04  0.25500000920E-02 0. -1.
    10030    2    1    2    0    0  0.00000000000E+00  0.00000000000E+00  0.76455839019E+03  0.40778244724E+04  0.40055090682E+04 0.  0.
        4    1    3    3  502    0 -0.27917545527E+03  0.17826018218E+04 -0.50255902908E+03  0.18730123813E+04  0.12699999809E+01 0. -1.
       -4    1    3    3    0  502  0.27917545527E+03 -0.17826018218E+04  0.12671174193E+04  0.22048120911E+04  0.12699999809E+01 0.  1.
</event>
<event>
 5   0  0.1187925E-07  0.3814814E+04  0.7818609E-02  0.8042983E-01
       -1   -1    0    0    0  501  0.00000000000E+00  0.00000000000E+00  0.12753588727E+04  0.12753588727E+04  0.50400001928E-02 0.  1.
        1   -1    0    0  501    0  0.00000000000E+00  0.00000000000E+00 -0.28526890863E+04  0.28526890863E+04  0.50400001928E-02 0. -1.
    10030    2    1    2    0    0  0.00000000000E+00  0.00000000000E+00 -0.15773302136E+04  0.41280479590E+04  0.38148144580E+04 0.  0.
        1    1    3    3  502    0 -0.94701731206E+03  0.21518178564E+03 -0.25651246431E+04  0.27428104974E+04  0.50400001928E-02 0. -1.
       -1    1    3    3    0  502  0.94701731206E+03 -0.21518178564E+03  0.98779442944E+03  0.13852374616E+04  0.50400001928E-02 0.  1.
</event>
<event>
 5   0  0.3665303E-07  0.4318318E+04  0.7818609E-02  0.7943240E-01
       -2   -1    0    0    0  501  0.00000000000E+00  0.00000000000E+00  0.25012176347E+04  0.25012176347E+04  0.25500000920E-02 0. -1.
        2   -1    0    0  501    0  0.00000000000E+00  0.00000000000E+00 -0.18638791557E+04  0.18638791557E+04  0.25500000920E-02 0.  1.
    10030    2    1    2    0    0  0.00000000000E+00  0.00000000000E+00  0.63733847897E+03  0.43650967904E+04  0.43183179193E+04 0.  0.
        2    1    3    3  502    0  0.10185817740E+04  0.17992231030E+04 -0.31036990962E+03  0.20907037297E+04  0.25500000920E-02 0. -1.
       -2    1    3    3    0  502 -0.10185817740E+04 -0.17992231030E+04  0.94770838859E+03  0.22743930607E+04  0.25500000920E-02 0.  1.
</event>
<event>
 5   0  0.1187925E-07  0.3809831E+04  0.7818609E-02  0.8044048E-01
       -1   -1    0    0    0  501  0.00000000000E+00  0.00000000000E+00  0.13573074325E+04  0.13573074325E+04  0.50400001928E-02 0. -1.
        1   -1    0    0  501    0  0.00000000000E+00  0.00000000000E+00 -0.26734570191E+04  0.26734570191E+04  0.50400001928E-02 0.  1.
    10030    2    1    2    0    0  0.00000000000E+00  0.00000000000E+00 -0.13161495866E+04  0.40307644516E+04  0.38098310107E+04 0.  0.
        5    1    3    3  502    0  0.21009597236E+03  0.15964209112E+04 -0.17349306933E+04  0.23670037270E+04  0.46999998093E+01 0.  1.
       -5    1    3    3    0  502 -0.21009597236E+03 -0.15964209112E+04  0.41878110669E+03  0.16637607246E+04  0.46999998093E+01 0. -1.
</event>
<event>
 5   0  0.3680814E-07  0.4031657E+04  0.7818609E-02  0.7998191E-01
        2   -1    0    0  501    0  0.00000000000E+00  0.00000000000E+00  0.16586266688E+04  0.16586266688E+04  0.25500000920E-02 0.  1.
       -2   -1    0    0    0  501  0.00000000000E+00  0.00000000000E+00 -0.24499568534E+04  0.24499568534E+04  0.25500000920E-02 0. -1.
    10030    2    1    2    0    0  0.00000000000E+00  0.00000000000E+00 -0.79133018462E+03  0.41085835223E+04  0.40316566196E+04 0.  0.
        1    1    3    3  502    0  0.72455750346E+03 -0.29545210832E+03 -0.22888768842E+04  0.24189321850E+04  0.50400001928E-02 0. -1.
       -1    1    3    3    0  502 -0.72455750346E+03  0.29545210832E+03  0.14975466996E+04  0.16896513373E+04  0.50400001928E-02 0.  1.
</event>
<event>
 5   0  0.3832389E-07  0.3880382E+04  0.7818609E-02  0.8029122E-01
       -2   -1    0    0    0  501  0.00000000000E+00  0.00000000000E+00  0.18774099621E+04  0.18774099621E+04  0.25500000920E-02 0. -1.
        2   -1    0    0  501    0  0.00000000000E+00  0.00000000000E+00 -0.20050713488E+04  0.20050713488E+04  0.25500000920E-02 0.  1.
    10030    2    1    2    0    0  0.00000000000E+00  0.00000000000E+00 -0.12766138672E+03  0.38824813109E+04  0.38803819013E+04 0.  0.
        5    1    3    3  502    0 -0.15621158080E+04 -0.26534805480E+03  0.10564640896E+04  0.19044038044E+04  0.46999998093E+01 0.  1.
       -5    1    3    3    0  502  0.15621158080E+04  0.26534805480E+03 -0.11841254764E+04  0.19780775064E+04  0.46999998093E+01 0. -1.
</event>
<event>
 5   0  0.1187925E-07  0.3911276E+04  0.7818609E-02  0.8022688E-01
        1   -1    0    0  501    0  0.00000000000E+00  0.00000000000E+00  0.28893449361E+04  0.28893449361E+04  0.50400001928E-02 0. -1.
       -1   -1    0    0    0  501  0.00000000000E+00  0.00000000000E+00 -0.13236636529E+04  0.13236636529E+04  0.50400001928E-02 0.  1.
    10030    2    1    2    0    0  0.00000000000E+00  0.00000000000E+00  0.15656812832E+04  0.42130085890E+04  0.39112764528E+04 0.  0.
        1    1    3    3  502    0 -0.76405284473E+03 -0.10274396653E+04  0.23750884800E+04  0.26982316993E+04  0.50400001928E-02 0. -1.
       -1    1    3    3    0  502  0.76405284473E+03  0.10274396653E+04 -0.80940719678E+03  0.15147768897E+04  0.50400001928E-02 0.  1.
</event>
<event>
 5   0  0.1187925E-07  0.3889653E+04  0.7818609E-02  0.8027185E-01
       -1   -1    0    0    0  501  0.00000000000E+00  0.00000000000E+00  0.20456817127E+04  0.20456817128E+04  0.50400001928E-02 0. -1.
        1   -1    0    0  501    0  0.00000000000E+00  0.00000000000E+00 -0.18489440647E+04  0.18489440647E+04  0.50400001928E-02 0.  1.
    10030    2    1    2    0    0  0.00000000000E+00  0.00000000000E+00  0.19673764809E+03  0.38946257774E+04  0.38896534864E+04 0.  0.
        4    1    3    3  502    0 -0.19391394962E+04 -0.14740400088E+03  0.79383495772E+02  0.19463538418E+04  0.12699999809E+01 0.  1.
       -4    1    3    3    0  502  0.19391394962E+04  0.14740400088E+03  0.11735415232E+03  0.19482719356E+04  0.12699999809E+01 0. -1.
</event>
<event>
 5   0  0.1187925E-07  0.3286885E+04  0.7818609E-02  0.8166241E-01
       -1   -1    0    0    0  501  0.00000000000E+00  0.00000000000E+00  0.18344704473E+04  0.18344704473E+04  0.50400001928E-02 0. -1.
        1   -1    0    0  501    0  0.00000000000E+00  0.00000000000E+00 -0.14723063446E+04  0.14723063447E+04  0.50400001928E-02 0.  1.
    10030    2    1    2    0    0  0.00000000000E+00  0.00000000000E+00  0.36216410264E+03  0.33067767919E+04  0.32868845301E+04 0.  0.
        4    1    3    3  502    0 -0.10556892302E+04  0.16194529255E+03  0.14377190774E+04  0.17910175284E+04  0.12699999809E+01 0. -1.
       -4    1    3    3    0  502  0.10556892302E+04 -0.16194529255E+03 -0.10755549748E+04  0.15157592636E+04  0.12699999809E+01 0.  1.
</event>
<event>
 5   0  0.3665303E-07  0.3917306E+04  0.7818609E-02  0.8021439E-01
        2   -1    0    0  501    0  0.00000000000E+00  0.00000000000E+00  0.15503629659E+04  0.15503629659E+04  0.25500000920E-02 0. -1.
       -2   -1    0    0    0  501  0.00000000000E+00  0.00000000000E+00 -0.24744671737E+04  0.24744671737E+04  0.25500000920E-02 0.  1.
    10030    2    1    2    0    0  0.00000000000E+00  0.00000000000E+00 -0.92410420772E+03  0.40248301396E+04  0.39173063533E+04 0.  0.
        2    1    3    3  502    0 -0.85670613628E+03  0.76851379923E+03 -0.20904081977E+04  0.23862869267E+04  0.25500000920E-02 0.  1.
       -2    1    3    3    0  502  0.85670613628E+03 -0.76851379923E+03  0.11663039900E+04  0.16385432129E+04  0.25500000920E-02 0. -1.
</event>
<event>
 5   0  0.3665303E-07  0.3904654E+04  0.7818609E-02  0.8024062E-01
        2   -1    0    0  501    0  0.00000000000E+00  0.00000000000E+00  0.23674945702E+04  0.23674945702E+04  0.25500000920E-02 0. -1.
       -2   -1    0    0    0  501  0.00000000000E+00  0.00000000000E+00 -0.16099634738E+04  0.16099634738E+04  0.25500000920E-02 0.  1.
    10030    2    1    2    0    0  0.00000000000E+00  0.00000000000E+00  0.75753109638E+03  0.39774580439E+04  0.39046535223E+04 0.  0.
        2    1    3    3  502    0  0.19494475853E+04  0.89848409297E+02  0.32149304026E+03  0.19778211242E+04  0.25500000920E-02 0.  1.
       -2    1    3    3    0  502 -0.19494475853E+04 -0.89848409297E+02  0.43603805612E+03  0.19996369197E+04  0.25500000920E-02 0. -1.
</event>
<event>
 5   0  0.3610483E-07  0.3883147E+04  0.7818609E-02  0.8028543E-01
       -2   -1    0    0    0  501  0.00000000000E+00  0.00000000000E+00  0.17151355092E+04  0.17151355092E+04  0.25500000920E-02 0.  1.
        2   -1    0    0  501    0  0.00000000000E+00  0.00000000000E+00 -0.21979067381E+04  0.21979067381E+04  0.25500000920E-02 0. -1.
    10030    2    1    2    0    0  0.00000000000E+00  0.00000000000E+00 -0.48277122892E+03  0.39130422472E+04  0.38831471218E+04 0.  0.
        4    1    3    3  502    0 -0.11651858073E+04 -0.14093346086E+04  0.41619030281E+03  0.18753927550E+04  0.12699999809E+01 0.  1.
       -4    1    3    3    0  502  0.11651858073E+04  0.14093346086E+04 -0.89896153173E+03  0.20376494922E+04  0.12699999809E+01 0. -1.
</event>
<event>
 5   0  0.3832389E-07  0.3807947E+04  0.7818609E-02  0.8044452E-01
        2   -1    0    0  501    0  0.00000000000E+00  0.00000000000E+00  0.24592471636E+04  0.24592471636E+04  0.25500000920E-02 0. -1.
       -2   -1    0    0    0  501  0.00000000000E+00  0.00000000000E+00 -0.14740748132E+04  0.14740748132E+04  0.25500000920E-02 0.  1.
    10030    2    1    2    0    0  0.00000000000E+00  0.00000000000E+00  0.98517235040E+03  0.39333219768E+04  0.38079465875E+04 0.  0.
        5    1    3    3  502    0 -0.12663568230E+04 -0.14038195299E+04  0.72521983975E+03  0.20249283399E+04  0.46999998093E+01 0. -1.
       -5    1    3    3    0  502  0.12663568230E+04  0.14038195299E+04  0.25995251065E+03  0.19083936369E+04  0.46999998093E+01 0.  1.
</event>
<event>
 5   0  0.3665303E-07  0.3932164E+04  0.7818609E-02  0.8018373E-01
       -2   -1    0    0    0  501  0.00000000000E+00  0.00000000000E+00  0.21954728498E+04  0.21954728498E+04  0.25500000920E-02 0.  1.
        2   -1    0    0  501    0  0.00000000000E+00  0.00000000000E+00 -0.17606583963E+04  0.17606583963E+04  0.25500000920E-02 0. -1.
    10030    2    1    2    0    0  0.00000000000E+00  0.00000000000E+00  0.43481445349E+03  0.39561312461E+04  0.39321636318E+04 0.  0.
        2    1    3    3  502    0  0.10143322569E+03  0.10354812148E+04  0.18957984074E+04  0.21625359296E+04  0.25500000920E-02 0.  1.
       -2    1    3    3    0  502 -0.10143322569E+03 -0.10354812148E+04 -0.14609839539E+04  0.17935953164E+04  0.25500000920E-02 0. -1.
</event>
<event>
 5   0  0.3680814E-07  0.3909164E+04  0.7818609E-02  0.8023126E-01
       -2   -1    0    0    0  501  0.00000000000E+00  0.00000000000E+00  0.32163626854E+04  0.32163626854E+04  0.25500000920E-02 0. -1.
        2   -1    0    0  501    0  0.00000000000E+00  0.00000000000E+00 -0.11877983742E+04  0.11877983742E+04  0.25500000920E-02 0.  1.
    10030    2    1    2    0    0  0.00000000000E+00  0.00000000000E+00  0.20285643112E+04  0.44041610596E+04  0.39091637819E+04 0.  0.
        1    1    3    3  502    0  0.18595903402E+04 -0.14074611573E+03  0.16736269358E+04  0.25057758924E+04  0.50400001928E-02 0. -1.
       -1    1    3    3    0  502 -0.18595903402E+04  0.14074611573E+03  0.35493737540E+03  0.18983851672E+04  0.50400001928E-02 0.  1.
</event>
<event>
 5   0  0.3610483E-07  0.3914797E+04  0.7818609E-02  0.8021959E-01
       -2   -1    0    0    0  501  0.00000000000E+00  0.00000000000E+00  0.19464160680E+04  0.19464160680E+04  0.25500000920E-02 0.  1.
        2   -1    0    0  501    0  0.00000000000E+00  0.00000000000E+00 -0.19684432413E+04  0.19684432413E+04  0.25500000920E-02 0. -1.
    10030    2    1    2    0    0  0.00000000000E+00  0.00000000000E+00 -0.22027173320E+02  0.39148593093E+04  0.39147973403E+04 0.  0.
        4    1    3    3  502    0  0.36146922489E+03  0.76107947685E+03 -0.17778199695E+04  0.19673706889E+04  0.12699999809E+01 0. -1.
       -4    1    3    3    0  502 -0.36146922489E+03 -0.76107947685E+03  0.17557927962E+04  0.19474886204E+04  0.12699999809E+01 0.  1.
</event>
<event>
 5   0  0.3610483E-07  0.3953090E+04  0.7818609E-02  0.8014077E-01
       -2   -1    0    0    0  501  0.00000000000E+00  0.00000000000E+00  0.20268288316E+04  0.20268288316E+04  0.25500000920E-02 0.  1.
        2   -1    0    0  501    0  0.00000000000E+00  0.00000000000E+00 -0.19275084014E+04  0.19275084014E+04  0.25500000920E-02 0. -1.
    10030    2    1    2    0    0  0.00000000000E+00  0.00000000000E+00  0.99320430144E+02  0.39543372330E+04  0.39530897289E+04 0.  0.
        4    1    3    3  502    0 -0.53595794904E+03  0.16728814516E+04  0.95600614138E+03  0.19999331563E+04  0.12699999809E+01 0.  1.
       -4    1    3    3    0  502  0.53595794904E+03 -0.16728814516E+04 -0.85668571124E+03  0.19544040767E+04  0.12699999809E+01 0. -1.
</event>
<event>
 5   0  0.3832389E-07  0.3892019E+04  0.7818609E-02  0.8026691E-01
       -2   -1    0    0    0  501  0.00000000000E+00  0.00000000000E+00  0.25587632921E+04  0.25587632921E+04  0.25500000920E-02 0.  1.
        2   -1    0    0  501    0  0.00000000000E+00  0.00000000000E+00 -0.14799931729E+04  0.14799931729E+04  0.25500000920E-02 0. -1.
    10030    2    1    2    0    0  0.00000000000E+00  0.00000000000E+00  0.10787701192E+04  0.40387564649E+04  0.38920186039E+04 0.  0.
        5    1    3    3  502    0  0.21372588471E+03 -0.39378015154E+03  0.25045061586E+04  0.25442709663E+04  0.46999998093E+01 0.  1.
       -5    1    3    3    0  502 -0.21372588471E+03  0.39378015154E+03 -0.14257360394E+04  0.14944854986E+04  0.46999998093E+01 0. -1.
</event>
<event>
 5   0  0.1187925E-07  0.3376824E+04  0.7818609E-02  0.8143618E-01
        1   -1    0    0  501    0  0.00000000000E+00  0.00000000000E+00  0.26542202637E+04  0.26542202637E+04  0.50400001928E-02 0. -1.
       -1   -1    0    0    0  501  0.00000000000E+00  0.00000000000E+00 -0.10740386734E+04  0.10740386735E+04  0.50400001928E-02 0.  1.
    10030    2    1    2    0    0  0.00000000000E+00  0.00000000000E+00  0.15801815903E+04  0.37282589372E+04  0.33768240766E+04 0.  0.
        4    1    3    3  502    0  0.48876668770E+03 -0.41256732796E+03 -0.93510131132E+03  0.11329257480E+04  0.12699999809E+01 0.  1.
       -4    1    3    3    0  502 -0.48876668770E+03  0.41256732796E+03  0.25152829016E+04  0.25953331892E+04  0.12699999809E+01 0. -1.
</event>
<event>
 5   0  0.3832389E-07  0.3949300E+04  0.7818609E-02  0.8014853E-01
       -2   -1    0    0    0  501  0.00000000000E+00  0.00000000000E+00  0.17524299579E+04  0.17524299579E+04  0.25500000920E-02 0. -1.
        2   -1    0    0  501    0  0.00000000000E+00  0.00000000000E+00 -0.22250486378E+04  0.22250486378E+04  0.25500000920E-02 0.  1.
    10030    2    1    2    0    0  0.00000000000E+00  0.00000000000E+00 -0.47261867993E+03  0.39774785957E+04  0.39492996294E+04 0.  0.
        5    1    3    3  502    0  0.17264486442E+04 -0.63699491555E+03  0.48492347181E+03  0.19030397545E+04  0.46999998093E+01 0. -1.
       -5    1    3    3    0  502 -0.17264486442E+04  0.63699491555E+03 -0.95754215175E+03  0.20744388412E+04  0.46999998093E+01 0.  1.
</event>
<event>
 5   0  0.3810833E-07  0.3419013E+04  0.7818609E-02  0.8133256E-01
        2   -1    0    0  501    0  0.00000000000E+00  0.00000000000E+00  0.28024226926E+04  0.28024226926E+04  0.25500000920E-02 0.  1.
       -2   -1    0    0    0  501  0.00000000000E+00  0.00000000000E+00 -0.10428162582E+04  0.10428162582E+04  0.25500000920E-02 0. -1.
    10030    2    1    2    0    0  0.00000000000E+00  0.00000000000E+00  0.17596064344E+04  0.38452389508E+04  0.34190126915E+04 0.  0.
        3    1    3    3  502    0  0.14811757123E+04 -0.84349546747E+03  0.73296745390E+03  0.18554264720E+04  0.10100000352E+00 0.  1.
       -3    1    3    3    0  502 -0.14811757123E+04  0.84349546747E+03  0.10266389805E+04  0.19898124788E+04  0.10100000352E+00 0. -1.
</event>
<event>
 5   0  0.3832389E-07  0.4091060E+04  0.7818609E-02  0.7986425E-01
        2   -1    0    0  501    0  0.00000000000E+00  0.00000000000E+00  0.22748590981E+04  0.22748590981E+04  0.25500000920E-02 0. -1.
       -2   -1    0    0    0  501  0.00000000000E+00  0.00000000000E+00 -0.18393195025E+04  0.18393195025E+04  0.25500000920E-02 0.  1.
    10030    2    1    2    0    0  0.00000000000E+00  0.00000000000E+00  0.43553959556E+03  0.41141786006E+04  0.40910598649E+04 0.  0.
        5    1    3    3  502    0 -0.13707505973E+04 -0.14397959321E+04 -0.26682576356E+03  0.20057885243E+04  0.46999998093E+01 0. -1.
       -5    1    3    3    0  502  0.13707505973E+04  0.14397959321E+04  0.70236535913E+03  0.21083900763E+04  0.46999998093E+01 0.  1.
</event>
<event>
 5   0  0.1187925E-07  0.2791634E+04  0.7818609E-02  0.8305870E-01
       -1   -1    0    0    0  501  0.00000000000E+00  0.00000000000E+00  0.17929398435E+04  0.17929398435E+04  0.50400001928E-02 0. -1.
        1   -1    0    0  501    0  0.00000000000E+00  0.00000000000E+00 -0.10866541970E+04  0.10866541970E+04  0.50400001928E-02 0.  1.
    10030    2    1    2    0    0  0.00000000000E+00  0.00000000000E+00  0.70628564645E+03  0.28795940405E+04  0.27916343642E+04 0.  0.
        1    1    3    3  502    0  0.17422705257E+03  0.12858164582E+04  0.88376996299E+03  0.15699453423E+04  0.50400001928E-02 0. -1.
       -1    1    3    3    0  502 -0.17422705257E+03 -0.12858164582E+04 -0.17748431654E+03  0.13096486982E+04  0.50400001928E-02 0.  1.
</event>
<event>
 5   0  0.1187925E-07  0.3818340E+04  0.7818609E-02  0.8042230E-01
        1   -1    0    0  501    0  0.00000000000E+00  0.00000000000E+00  0.10297517041E+04  0.10297517041E+04  0.50400001928E-02 0. -1.
       -1   -1    0    0    0  501  0.00000000000E+00  0.00000000000E+00 -0.35396212321E+04  0.35396212321E+04  0.50400001928E-02 0.  1.
    10030    2    1    2    0    0  0.00000000000E+00  0.00000000000E+00 -0.25098695280E+04  0.45693729361E+04  0.38183404749E+04 0.  0.
        5    1    3    3  502    0 -0.12345462016E+04 -0.14425310771E+04 -0.10158699843E+04  0.21533727377E+04  0.46999998093E+01 0. -1.
       -5    1    3    3    0  502  0.12345462016E+04  0.14425310771E+04 -0.14939995437E+04  0.24160001985E+04  0.46999998093E+01 0.  1.
</event>
<event>
 5   0  0.1187925E-07  0.3898341E+04  0.7818609E-02  0.8025374E-01
       -1   -1    0    0    0  501  0.00000000000E+00  0.00000000000E+00  0.20532703108E+04  0.20532703108E+04  0.50400001928E-02 0. -1.
        1   -1    0    0  501    0  0.00000000000E+00  0.00000000000E+00 -0.18503487405E+04  0.18503487405E+04  0.50400001928E-02 0.  1.
    10030    2    1    2    0    0  0.00000000000E+00  0.00000000000E+00  0.20292157029E+03  0.39036190513E+04  0.38983412541E+04 0.  0.
        5    1    3    3  502    0  0.66395774026E+03  0.38327997527E+03  0.18959530074E+04  0.20450924958E+04  0.46999998093E+01 0. -1.
       -5    1    3    3    0  502 -0.66395774026E+03 -0.38327997527E+03 -0.16930314371E+04  0.18585265554E+04  0.46999998093E+01 0.  1.
</event>
<event>
 5   0  0.3680814E-07  0.3860725E+04  0.7818609E-02  0.8033248E-01
        2   -1    0    0  501    0  0.00000000000E+00  0.00000000000E+00  0.21146954703E+04  0.21146954703E+04  0.25500000920E-02 0.  1.
       -2   -1    0    0    0  501  0.00000000000E+00  0.00000000000E+00 -0.17620975858E+04  0.17620975858E+04  0.25500000920E-02 0. -1.
    10030    2    1    2    0    0  0.00000000000E+00  0.00000000000E+00  0.35259788451E+03  0.38767930561E+04  0.38607252080E+04 0.  0.
        1    1    3    3  502    0 -0.13677935982E+03  0.15888706062E+04 -0.91592335550E+03  0.18390579082E+04  0.50400001928E-02 0.  1.
       -1    1    3    3    0  502  0.13677935982E+03 -0.15888706062E+04  0.12685212400E+04  0.20377351479E+04  0.50400001928E-02 0. -1.
</event>
<event>
 5   0  0.3680814E-07  0.3853489E+04  0.7818609E-02  0.8034773E-01
       -2   -1    0    0    0  501  0.00000000000E+00  0.00000000000E+00  0.20314383656E+04  0.20314383656E+04  0.25500000920E-02 0.  1.
        2   -1    0    0  501    0  0.00000000000E+00  0.00000000000E+00 -0.18274464317E+04  0.18274464317E+04  0.25500000920E-02 0. -1.
    10030    2    1    2    0    0  0.00000000000E+00  0.00000000000E+00  0.20399193390E+03  0.38588847973E+04  0.38534892201E+04 0.  0.
        1    1    3    3  502    0  0.99076709535E+03  0.13077872838E+04  0.11135676710E+04  0.19829170368E+04  0.50400001928E-02 0.  1.
       -1    1    3    3    0  502 -0.99076709535E+03 -0.13077872838E+04 -0.90957573708E+03  0.18759677605E+04  0.50400001928E-02 0. -1.
</event>
<event>
 5   0  0.1187925E-07  0.2934238E+04  0.7818609E-02  0.8262763E-01
       -1   -1    0    0    0  501  0.00000000000E+00  0.00000000000E+00  0.12801729455E+04  0.12801729455E+04  0.50400001928E-02 0.  1.
        1   -1    0    0  501    0  0.00000000000E+00  0.00000000000E+00 -0.16813657065E+04  0.16813657065E+04  0.50400001928E-02 0. -1.
    10030    2    1    2    0    0  0.00000000000E+00  0.00000000000E+00 -0.40119276104E+03  0.29615386520E+04  0.29342384967E+04 0.  0.
        4    1    3    3  502    0 -0.10729268640E+04 -0.99515953104E+03 -0.95112144531E+02  0.14664796216E+04  0.12699999809E+01 0. -1.
       -4    1    3    3    0  502  0.10729268640E+04  0.99515953104E+03 -0.30608061650E+03  0.14950590304E+04  0.12699999809E+01 0.  1.
</event>
<event>
 5   0  0.3665303E-07  0.3699925E+04  0.7818609E-02  0.8067978E-01
        2   -1    0    0  501    0  0.00000000000E+00  0.00000000000E+00  0.25664886384E+04  0.25664886384E+04  0.25500000920E-02 0.  1.
       -2   -1    0    0    0  501  0.00000000000E+00  0.00000000000E+00 -0.13334798291E+04  0.13334798291E+04  0.25500000920E-02 0. -1.
    10030    2    1    2    0    0  0.00000000000E+00  0.00000000000E+00  0.12330088092E+04  0.38999684675E+04  0.36999247727E+04 0.  0.
        2    1    3    3  502    0 -0.16938075590E+04 -0.66745685832E+03  0.96271065078E+03  0.20594403370E+04  0.25500000920E-02 0.  1.
       -2    1    3    3    0  502  0.16938075590E+04  0.66745685832E+03  0.27029815844E+03  0.18405281305E+04  0.25500000920E-02 0. -1.
</event>
<event>
 5   0  0.3832389E-07  0.2863145E+04  0.7818609E-02  0.8283928E-01
        2   -1    0    0  501    0  0.00000000000E+00  0.00000000000E+00  0.26145566687E+04  0.26145566687E+04  0.25500000920E-02 0. -1.
       -2   -1    0    0    0  501  0.00000000000E+00  0.00000000000E+00 -0.78384228648E+03  0.78384228649E+03  0.25500000920E-02 0.  1.
    10030    2    1    2    0    0  0.00000000000E+00  0.00000000000E+00  0.18307143822E+04  0.33983989552E+04  0.28631451778E+04 0.  0.
        5    1    3    3  502    0 -0.23864131946E+03  0.13676952601E+04  0.50105012253E+03  0.14760126419E+04  0.46999998093E+01 0.  1.
       -5    1    3    3    0  502  0.23864131946E+03 -0.13676952601E+04  0.13296642597E+04  0.19223863132E+04  0.46999998093E+01 0. -1.
</event>
<event>
 5   0  0.3832389E-07  0.3755528E+04  0.7818609E-02  0.8055766E-01
        2   -1    0    0  501    0  0.00000000000E+00  0.00000000000E+00  0.22385446601E+04  0.22385446601E+04  0.25500000920E-02 0. -1.
       -2   -1    0    0    0  501  0.00000000000E+00  0.00000000000E+00 -0.15751294328E+04  0.15751294328E+04  0.25500000920E-02 0.  1.
    10030    2    1    2    0    0  0.00000000000E+00  0.00000000000E+00  0.66341522729E+03  0.38136740928E+04  0.37555279686E+04 0.  0.
        5    1    3    3  502    0  0.17764994043E+04  0.48615336995E+02  0.94744694130E+03  0.20139492002E+04  0.46999998093E+01 0. -1.
       -5    1    3    3    0  502 -0.17764994043E+04 -0.48615336995E+02 -0.28403171401E+03  0.17997248926E+04  0.46999998093E+01 0.  1.
</event>
<event>
 5   0  0.1187925E-07  0.4073532E+04  0.7818609E-02  0.7989875E-01
        1   -1    0    0  501    0  0.00000000000E+00  0.00000000000E+00  0.18245508064E+04  0.18245508064E+04  0.50400001928E-02 0.  1.
       -1   -1    0    0    0  501  0.00000000000E+00  0.00000000000E+00 -0.22736641943E+04  0.22736641944E+04  0.50400001928E-02 0. -1.
    10030    2    1    2    0    0  0.00000000000E+00  0.00000000000E+00 -0.44911338792E+03  0.40982150008E+04  0.40735320494E+04 0.  0.
        1    1    3    3  502    0 -0.63776103088E+03  0.14752609107E+04 -0.14832499056E+04  0.21870446200E+04  0.50400001928E-02 0. -1.
       -1    1    3    3    0  502  0.63776103088E+03 -0.14752609107E+04  0.10341365177E+04  0.19111703808E+04  0.50400001928E-02 0.  1.
</event>
<event>
 5   0  0.1187925E-07  0.3910333E+04  0.7818609E-02  0.8022883E-01
       -1   -1    0    0    0  501  0.00000000000E+00  0.00000000000E+00  0.18224776142E+04  0.18224776143E+04  0.50400001928E-02 0. -1.
        1   -1    0    0  501    0  0.00000000000E+00  0.00000000000E+00 -0.20975164494E+04  0.20975164494E+04  0.50400001928E-02 0.  1.
    10030    2    1    2    0    0  0.00000000000E+00  0.00000000000E+00 -0.27503883515E+03  0.39199940637E+04  0.39103333743E+04 0.  0.
        4    1    3    3  502    0  0.18442584613E+04  0.56702915597E+03 -0.45431252592E+03  0.19822242103E+04  0.12699999809E+01 0.  1.
       -4    1    3    3    0  502 -0.18442584613E+04 -0.56702915597E+03  0.17927369077E+03  0.19377698534E+04  0.12699999809E+01 0. -1.
</event>
<event>
 5   0  0.3810833E-07  0.2819248E+04  0.7818609E-02  0.8297317E-01
        2   -1    0    0  501    0  0.00000000000E+00  0.00000000000E+00  0.21292226749E+04  0.21292226749E+04  0.25500000920E-02 0. -1.
       -2   -1    0    0    0  501  0.00000000000E+00  0.00000000000E+00 -0.93322313936E+03  0.93322313936E+03  0.25500000920E-02 0.  1.
    10030    2    1    2    0    0  0.00000000000E+00  0.00000000000E+00  0.11959995355E+04  0.30624458143E+04  0.28192480338E+04 0.  0.
        3    1    3    3  502    0  0.90619383345E+03 -0.53858687442E+03 -0.41855747410E+03  0.11342193149E+04  0.10100000352E+00 0.  1.
       -3    1    3    3    0  502 -0.90619383345E+03  0.53858687442E+03  0.16145570096E+04  0.19282264993E+04  0.10100000352E+00 0. -1.
</event>
<event>
 5   0  0.3680814E-07  0.2986465E+04  0.7818609E-02  0.8247606E-01
        2   -1    0    0  501    0  0.00000000000E+00  0.00000000000E+00  0.20686230679E+04  0.20686230679E+04  0.25500000920E-02 0. -1.
       -2   -1    0    0    0  501  0.00000000000E+00  0.00000000000E+00 -0.10778877052E+04  0.10778877052E+04  0.25500000920E-02 0.  1.
    10030    2    1    2    0    0  0.00000000000E+00  0.00000000000E+00  0.99073536265E+03  0.31465107731E+04  0.29864650486E+04 0.  0.
        1    1    3    3  502    0  0.12695915102E+04  0.28943191599E+03 -0.27462591733E+03  0.13308090890E+04  0.50400001928E-02 0.  1.
       -1    1    3    3    0  502 -0.12695915102E+04 -0.28943191599E+03  0.12653612800E+04  0.18157016841E+04  0.50400001928E-02 0. -1.
</event>
<event>
 5   0  0.3832389E-07  0.3917164E+04  0.7818609E-02  0.8021469E-01
        2   -1    0    0  501    0  0.00000000000E+00  0.00000000000E+00  0.16894821071E+04  0.16894821071E+04  0.25500000920E-02 0.  1.
       -2   -1    0    0    0  501  0.00000000000E+00  0.00000000000E+00 -0.22705441413E+04  0.22705441413E+04  0.25500000920E-02 0. -1.
    10030    2    1    2    0    0  0.00000000000E+00  0.00000000000E+00 -0.58106203417E+03  0.39600262484E+04  0.39171641274E+04 0.  0.
        5    1    3    3  502    0 -0.20469145572E+03  0.17936013656E+04  0.47746380093E+03  0.18673238128E+04  0.46999998093E+01 0. -1.
       -5    1    3    3    0  502  0.20469145572E+03 -0.17936013656E+04 -0.10585258351E+04  0.20927024356E+04  0.46999998093E+01 0.  1.
</event>
<event>
 5   0  0.3832389E-07  0.3243719E+04  0.7818609E-02  0.8177366E-01
       -2   -1    0    0    0  501  0.00000000000E+00  0.00000000000E+00  0.13119755699E+04  0.13119755699E+04  0.25500000920E-02 0.  1.
        2   -1    0    0  501    0  0.00000000000E+00  0.00000000000E+00 -0.20049364901E+04  0.20049364901E+04  0.25500000920E-02 0. -1.
    10030    2    1    2    0    0  0.00000000000E+00  0.00000000000E+00 -0.69296092020E+03  0.33169120600E+04  0.32437186649E+04 0.  0.
        5    1    3    3  502    0 -0.67728742501E+03 -0.92029449515E+03 -0.15234276764E+04  0.19043408805E+04  0.46999998093E+01 0. -1.
       -5    1    3    3    0  502  0.67728742501E+03  0.92029449515E+03  0.83046675622E+03  0.14125711795E+04  0.46999998093E+01 0.  1.
</event>
<event>
 5   0  0.3810833E-07  0.3777399E+04  0.7818609E-02  0.8051022E-01
       -2   -1    0    0    0  501  0.00000000000E+00  0.00000000000E+00  0.12719589081E+04  0.12719589081E+04  0.25500000920E-02 0.  1.
        2   -1    0    0  501    0  0.00000000000E+00  0.00000000000E+00 -0.28044820928E+04  0.28044820928E+04  0.25500000920E-02 0. -1.
    10030    2    1    2    0    0  0.00000000000E+00  0.00000000000E+00 -0.15325231847E+04  0.40764410009E+04  0.37773990949E+04 0.  0.
        3    1    3    3  502    0  0.16428754034E+03  0.14269552761E+04 -0.20897232750E+04  0.25357711119E+04  0.10100000352E+00 0. -1.
       -3    1    3    3    0  502 -0.16428754034E+03 -0.14269552761E+04  0.55720009029E+03  0.15406698889E+04  0.10100000352E+00 0.  1.
</event>
<event>
 5   0  0.3610483E-07  0.3799597E+04  0.7818609E-02  0.8046241E-01
       -2   -1    0    0    0  501  0.00000000000E+00  0.00000000000E+00  0.18971138184E+04  0.18971138184E+04  0.25500000920E-02 0. -1.
        2   -1    0    0  501    0  0.00000000000E+00  0.00000000000E+00 -0.19024867525E+04  0.19024867525E+04  0.25500000920E-02 0.  1.
    10030    2    1    2    0    0  0.00000000000E+00  0.00000000000E+00 -0.53729340951E+01  0.37996005708E+04  0.37995967720E+04 0.  0.
        4    1    3    3  502    0  0.48279582612E+02  0.10300321168E+04  0.15929138293E+04  0.18975439811E+04  0.12699999809E+01 0. -1.
       -4    1    3    3    0  502 -0.48279582612E+02 -0.10300321168E+04 -0.15982867634E+04  0.19020565898E+04  0.12699999809E+01 0.  1.
</event>
<event>
 5   0  0.1187925E-07  0.3852762E+04  0.7818609E-02  0.8034926E-01
       -3   -1    0    0    0  501  0.00000000000E+00  0.00000000000E+00  0.13855961860E+04  0.13855961896E+04  0.10100000352E+00 0.  1.
        3   -1    0    0  501    0  0.00000000000E+00  0.00000000000E+00 -0.26782292430E+04  0.26782292449E+04  0.10100000352E+00 0. -1.
    10030    2    1    2    0    0  0.00000000000E+00  0.00000000000E+00 -0.12926330570E+04  0.40638254345E+04  0.38527622483E+04 0.  0.
        5    1    3    3  502    0  0.17821145229E+04  0.48641732675E+03 -0.70142570007E+02  0.18486416793E+04  0.46999998093E+01 0.  1.
       -5    1    3    3    0  502 -0.17821145229E+04 -0.48641732675E+03 -0.12224904870E+04  0.22151837552E+04  0.46999998093E+01 0. -1.
</event>
<event>
 5   0  0.3810833E-07  0.3446098E+04  0.7818609E-02  0.8126684E-01
        2   -1    0    0  501    0  0.00000000000E+00  0.00000000000E+00  0.12944104836E+04  0.12944104836E+04  0.25500000920E-02 0.  1.
       -2   -1    0    0    0  501  0.00000000000E+00  0.00000000000E+00 -0.22936296912E+04  0.22936296912E+04  0.25500000920E-02 0. -1.
    10030    2    1    2    0    0  0.00000000000E+00  0.00000000000E+00 -0.99921920766E+03  0.35880401748E+04  0.34460982677E+04 0.  0.
        3    1    3    3  502    0 -0.79143042921E+03 -0.95188160050E+03 -0.17474988601E+04  0.21415398623E+04  0.10100000352E+00 0. -1.
       -3    1    3    3    0  502  0.79143042921E+03  0.95188160050E+03  0.74827965241E+03  0.14465003125E+04  0.10100000352E+00 0.  1.
</event>
<event>
 5   0  0.3610483E-07  0.3638716E+04  0.7818609E-02  0.8081680E-01
        2   -1    0    0  501    0  0.00000000000E+00  0.00000000000E+00  0.18451626692E+04  0.18451626692E+04  0.25500000920E-02 0. -1.
       -2   -1    0    0    0  501  0.00000000000E+00  0.00000000000E+00 -0.17939145525E+04  0.17939145525E+04  0.25500000920E-02 0.  1.
    10030    2    1    2    0    0  0.00000000000E+00  0.00000000000E+00  0.51248116622E+02  0.36390772217E+04  0.36387163473E+04 0.  0.
        4    1    3    3  502    0 -0.58086873975E+03  0.10468131846E+04 -0.13444885314E+04  0.18002436947E+04  0.12699999809E+01 0.  1.
       -4    1    3    3    0  502  0.58086873975E+03 -0.10468131846E+04  0.13957366480E+04  0.18388335270E+04  0.12699999809E+01 0. -1.
</event>
<event>
 5   0  0.3680814E-07  0.3915096E+04  0.7818609E-02  0.8021897E-01
        2   -1    0    0  501    0  0.00000000000E+00  0.00000000000E+00  0.25516280080E+04  0.25516280080E+04  0.25500000920E-02 0.  1.
       -2   -1    0    0    0  501  0.00000000000E+00  0.00000000000E+00 -0.15017841945E+04  0.15017841945E+04  0.25500000920E-02 0. -1.
    10030    2    1    2    0    0  0.00000000000E+00  0.00000000000E+00  0.10498438135E+04  0.40534122025E+04  0.39150962249E+04 0.  0.
        1    1    3    3  502    0 -0.59632218419E+03 -0.15326517390E+04  0.16242116258E+04  0.23114248649E+04  0.50400001928E-02 0.  1.
       -1    1    3    3    0  502  0.59632218419E+03  0.15326517390E+04 -0.57436781228E+03  0.17419873376E+04  0.50400001928E-02 0. -1.
</event>
<event>
 5   0  0.1187925E-07  0.3564495E+04  0.7818609E-02  0.8098673E-01
        1   -1    0    0  501    0  0.00000000000E+00  0.00000000000E+00  0.14220823829E+04  0.14220823829E+04  0.50400001928E-02 0. -1.
       -1   -1    0    0    0  501  0.00000000000E+00  0.00000000000E+00 -0.22336300739E+04  0.22336300739E+04  0.50400001928E-02 0.  1.
    10030    2    1    2    0    0  0.00000000000E+00  0.00000000000E+00 -0.81154769104E+03  0.36557124568E+04  0.35644949028E+04 0.  0.
        4    1    3    3  502    0 -0.98753013566E+03 -0.13693205627E+04  0.17993608048E+03  0.16978319052E+04  0.12699999809E+01 0. -1.
       -4    1    3    3    0  502  0.98753013566E+03  0.13693205627E+04 -0.99148377152E+03  0.19578805516E+04  0.12699999809E+01 0.  1.
</event>
<event>
 5   0  0.3810833E-07  0.3162890E+04  0.7818609E-02  0.8198687E-01
       -2   -1    0    0    0  501  0.00000000000E+00  0.00000000000E+00  0.12192331509E+04  0.12192331509E+04  0.25500000920E-02 0.  1.
        2   -1    0    0  501    0  0.00000000000E+00  0.00000000000E+00 -0.20512630079E+04  0.20512630079E+04  0.25500000920E-02 0. -1.
    10030    2    1    2    0    0  0.00000000000E+00  0.00000000000E+00 -0.83202985701E+03  0.32704961588E+04  0.31628897297E+04 0.  0.
        3    1    3    3  502    0  0.84011875613E+03  0.86945769031E+03  0.63808454366E+03  0.13670801347E+04  0.10100000352E+00 0.  1.
       -3    1    3    3    0  502 -0.84011875613E+03 -0.86945769031E+03 -0.14701144007E+04  0.19034160241E+04  0.10100000352E+00 0. -1.
</event>
<event>
 5   0  0.3832389E-07  0.3728371E+04  0.7818609E-02  0.8061703E-01
       -2   -1    0    0    0  501  0.00000000000E+00  0.00000000000E+00  0.20810669097E+04  0.20810669097E+04  0.25500000920E-02 0.  1.
        2   -1    0    0  501    0  0.00000000000E+00  0.00000000000E+00 -0.16699066768E+04  0.16699066768E+04  0.25500000920E-02 0. -1.
    10030    2    1    2    0    0  0.00000000000E+00  0.00000000000E+00  0.41116023287E+03  0.37509735865E+04  0.37283709726E+04 0.  0.
        5    1    3    3  502    0 -0.36834573142E+03  0.22796998703E+02 -0.16327815750E+04  0.16739761178E+04  0.46999998093E+01 0. -1.
       -5    1    3    3    0  502  0.36834573142E+03 -0.22796998703E+02  0.20439418079E+04  0.20769974687E+04  0.46999998093E+01 0.  1.
</event>
<event>
 5   0  0.1187925E-07  0.3918876E+04  0.7818609E-02  0.8021115E-01
        1   -1    0    0  501    0  0.00000000000E+00  0.00000000000E+00  0.22959095303E+04  0.22959095303E+04  0.50400001928E-02 0. -1.
       -1   -1    0    0    0  501  0.00000000000E+00  0.00000000000E+00 -0.16722776038E+04  0.16722776038E+04  0.50400001928E-02 0.  1.
    10030    2    1    2    0    0  0.00000000000E+00  0.00000000000E+00  0.62363192650E+03  0.39681871341E+04  0.39188764144E+04 0.  0.
        3    1    3    3  502    0 -0.10658564914E+04  0.60292255375E+03 -0.12370825153E+04  0.17406719467E+04  0.10100000352E+00 0.  1.
       -3    1    3    3    0  502  0.10658564914E+04 -0.60292255375E+03  0.18607144418E+04  0.22275151874E+04  0.10100000352E+00 0. -1.
</event>
<event>
 5   0  0.1187925E-07  0.3090111E+04  0.7818609E-02  0.8218457E-01
        1   -1    0    0  501    0  0.00000000000E+00  0.00000000000E+00  0.18984250008E+04  0.18984250008E+04  0.50400001928E-02 0. -1.
       -1   -1    0    0    0  501  0.00000000000E+00  0.00000000000E+00 -0.12574614372E+04  0.12574614372E+04  0.50400001928E-02 0.  1.
    10030    2    1    2    0    0  0.00000000000E+00  0.00000000000E+00  0.64096356357E+03  0.31558864380E+04  0.30901108264E+04 0.  0.
        4    1    3    3  502    0 -0.11119010115E+04 -0.39380014677E+03 -0.69865311315E+03  0.13709559440E+04  0.12699999809E+01 0.  1.
       -4    1    3    3    0  502  0.11119010115E+04  0.39380014677E+03  0.13396166767E+04  0.17849304940E+04  0.12699999809E+01 0. -1.
</event>
<event>
 5   0  0.3610483E-07  0.2910191E+04  0.7818609E-02  0.8269852E-01
       -2   -1    0    0    0  501  0.00000000000E+00  0.00000000000E+00  0.12782556137E+04  0.12782556137E+04  0.25500000920E-02 0.  1.
        2   -1    0    0  501    0  0.00000000000E+00  0.00000000000E+00 -0.16564007493E+04  0.16564007493E+04  0.25500000920E-02 0. -1.
    10030    2    1    2    0    0  0.00000000000E+00  0.00000000000E+00 -0.37814513561E+03  0.29346563630E+04  0.29101914414E+04 0.  0.
        4    1    3    3  502    0  0.29075859374E+03  0.30104931474E+03 -0.15943915781E+04  0.16484105578E+04  0.12699999809E+01 0. -1.
       -4    1    3    3    0  502 -0.29075859374E+03 -0.30104931474E+03  0.12162464425E+04  0.12862458053E+04  0.12699999809E+01 0.  1.
</event>
<event>
 5   0  0.1187925E-07  0.3976788E+04  0.7818609E-02  0.8009245E-01
       -1   -1    0    0    0  501  0.00000000000E+00  0.00000000000E+00  0.26983045085E+04  0.26983045085E+04  0.50400001928E-02 0.  1.
        1   -1    0    0  501    0  0.00000000000E+00  0.00000000000E+00 -0.14652577751E+04  0.14652577752E+04  0.50400001928E-02 0. -1.
    10030    2    1    2    0    0  0.00000000000E+00  0.00000000000E+00  0.12330467333E+04  0.41635622836E+04  0.39767884836E+04 0.  0.
        3    1    3    3  502    0 -0.16190263401E+04 -0.10609296612E+04  0.10927417067E+04  0.22228140912E+04  0.10100000352E+00 0.  1.
       -3    1    3    3    0  502  0.16190263401E+04  0.10609296612E+04  0.14030502658E+03  0.19407481925E+04  0.10100000352E+00 0. -1.
</event>
<event>
 5   0  0.3832389E-07  0.3893280E+04  0.7818609E-02  0.8026428E-01
        2   -1    0    0  501    0  0.00000000000E+00  0.00000000000E+00  0.28817258201E+04  0.28817258201E+04  0.25500000920E-02 0.  1.
       -2   -1    0    0    0  501  0.00000000000E+00  0.00000000000E+00 -0.13149787192E+04  0.13149787192E+04  0.25500000920E-02 0. -1.
    10030    2    1    2    0    0  0.00000000000E+00  0.00000000000E+00  0.15667471010E+04  0.41967045393E+04  0.38932804307E+04 0.  0.
        5    1    3    3  502    0  0.15214491096E+03  0.53844110150E+02 -0.13077484223E+04  0.13176779911E+04  0.46999998093E+01 0. -1.
       -5    1    3    3    0  502 -0.15214491096E+03 -0.53844110150E+02  0.28744955233E+04  0.28790265482E+04  0.46999998093E+01 0.  1.
</event>
<event>
 5   0  0.3665303E-07  0.3880465E+04  0.7818609E-02  0.8029104E-01
       -2   -1    0    0    0  501  0.00000000000E+00  0.00000000000E+00  0.15116417811E+04  0.15116417811E+04  0.25500000920E-02 0.  1.
        2   -1    0    0  501    0  0.00000000000E+00  0.00000000000E+00 -0.24903397897E+04  0.24903397897E+04  0.25500000920E-02 0. -1.
    10030    2    1    2    0    0  0.00000000000E+00  0.00000000000E+00 -0.97869800858E+03  0.40019815708E+04  0.38804647532E+04 0.  0.
        2    1    3    3  502    0 -0.62040674848E+03 -0.14605288401E+04 -0.16407569809E+04  0.22825714658E+04  0.25500000920E-02 0. -1.
       -2    1    3    3    0  502  0.62040674848E+03  0.14605288401E+04  0.66205897234E+03  0.17194101050E+04  0.25500000920E-02 0.  1.
</event>
<event>
 5   0  0.3832389E-07  0.3902943E+04  0.7818609E-02  0.8024417E-01
       -2   -1    0    0    0  501  0.00000000000E+00  0.00000000000E+00  0.23364911999E+04  0.23364911999E+04  0.25500000920E-02 0.  1.
        2   -1    0    0  501    0  0.00000000000E+00  0.00000000000E+00 -0.16298974109E+04  0.16298974109E+04  0.25500000920E-02 0. -1.
    10030    2    1    2    0    0  0.00000000000E+00  0.00000000000E+00  0.70659378902E+03  0.39663886108E+04  0.39029429703E+04 0.  0.
        5    1    3    3  502    0  0.13120579138E+03  0.75234178599E+03  0.21783140724E+04  0.23083126761E+04  0.46999998093E+01 0.  1.
       -5    1    3    3    0  502 -0.13120579138E+03 -0.75234178599E+03 -0.14717202834E+04  0.16580759347E+04  0.46999998093E+01 0. -1.
</event>
<event>
 5   0  0.1187925E-07  0.3906288E+04  0.7818609E-02  0.8023723E-01
       -1   -1    0    0    0  501  0.00000000000E+00  0.00000000000E+00  0.15347717935E+04  0.15347717935E+04  0.50400001928E-02 0.  1.
        1   -1    0    0  501    0  0.00000000000E+00  0.00000000000E+00 -0.24855627878E+04  0.24855627878E+04  0.50400001928E-02 0. -1.
    10030    2    1    2    0    0  0.00000000000E+00  0.00000000000E+00 -0.95079099439E+03  0.40203345813E+04  0.39062880885E+04 0.  0.
        5    1    3    3  502    0 -0.16189577119E+04 -0.10824235282E+04 -0.62834380114E+03  0.20463388746E+04  0.46999998093E+01 0.  1.
       -5    1    3    3    0  502  0.16189577119E+04  0.10824235282E+04 -0.32244719324E+03  0.19739957067E+04  0.46999998093E+01 0. -1.
</event>
<event>
 5   0  0.1187925E-07  0.3949678E+04  0.7818609E-02  0.8014776E-01
       -1   -1    0    0    0  501  0.00000000000E+00  0.00000000000E+00  0.26162184656E+04  0.26162184656E+04  0.50400001928E-02 0. -1.
        1   -1    0    0  501    0  0.00000000000E+00  0.00000000000E+00 -0.14906968928E+04  0.14906968928E+04  0.50400001928E-02 0.  1.
    10030    2    1    2    0    0  0.00000000000E+00  0.00000000000E+00  0.11255215728E+04  0.41069153585E+04  0.39496778287E+04 0.  0.
        4    1    3    3  502    0 -0.12818416565E+04  0.10920255159E+03 -0.99520108967E+03  0.16264901019E+04  0.12699999809E+01 0.  1.
       -4    1    3    3    0  502  0.12818416565E+04 -0.10920255159E+03  0.21207226624E+04  0.24804252566E+04  0.12699999809E+01 0. -1.
</event>
<event>
 5   0  0.3810833E-07  0.3904853E+04  0.7818609E-02  0.8024021E-01
        2   -1    0    0  501    0  0.00000000000E+00  0.00000000000E+00  0.13658353680E+04  0.13658353680E+04  0.25500000920E-02 0.  1.
       -2   -1    0    0    0  501  0.00000000000E+00  0.00000000000E+00 -0.27909429697E+04  0.27909429697E+04  0.25500000920E-02 0. -1.
    10030    2    1    2    0    0  0.00000000000E+00  0.00000000000E+00 -0.14251076017E+04  0.41567783377E+04  0.39048526825E+04 0.  0.
        3    1    3    3  502    0 -0.60709118665E+03  0.17108976035E+04  0.52298044066E+02  0.18161677825E+04  0.10100000352E+00 0.  1.
       -3    1    3    3    0  502  0.60709118665E+03 -0.17108976035E+04 -0.14774056458E+04  0.23406105552E+04  0.10100000352E+00 0. -1.
</event>
<event>
 5   0  0.1187925E-07  0.3853164E+04  0.7818609E-02  0.8034841E-01
       -1   -1    0    0    0  501  0.00000000000E+00  0.00000000000E+00  0.17019179583E+04  0.17019179583E+04  0.50400001928E-02 0. -1.
        1   -1    0    0  501    0  0.00000000000E+00  0.00000000000E+00 -0.21809028282E+04  0.21809028282E+04  0.50400001928E-02 0.  1.
    10030    2    1    2    0    0  0.00000000000E+00  0.00000000000E+00 -0.47898486988E+03  0.38828207865E+04  0.38531637332E+04 0.  0.
        2    1    3    3  502    0  0.56499734624E+03 -0.63818988347E+02  0.16154425026E+04  0.17125855727E+04  0.25500000920E-02 0. -1.
       -2    1    3    3    0  502 -0.56499734624E+03  0.63818988347E+02 -0.20944273725E+04  0.21702352138E+04  0.25500000920E-02 0.  1.
</event>
<event>
 5   0  0.3610483E-07  0.3709016E+04  0.7818609E-02  0.8065967E-01
       -2   -1    0    0    0  501  0.00000000000E+00  0.00000000000E+00  0.12387892653E+04  0.12387892653E+04  0.25500000920E-02 0. -1.
        2   -1    0    0  501    0  0.00000000000E+00  0.00000000000E+00 -0.27762593510E+04  0.27762593510E+04  0.25500000920E-02 0.  1.
    10030    2    1    2    0    0  0.00000000000E+00  0.00000000000E+00 -0.15374700857E+04  0.40150486163E+04  0.37090161939E+04 0.  0.
        4    1    3    3  502    0 -0.86747605779E+03  0.95081804168E+03  0.67658013589E+03  0.14540742596E+04  0.12699999809E+01 0. -1.
       -4    1    3    3    0  502  0.86747605779E+03 -0.95081804168E+03 -0.22140502216E+04  0.25609743567E+04  0.12699999809E+01 0.  1.
</event>
<event>
 5   0  0.1187925E-07  0.3821354E+04  0.7818609E-02  0.8041588E-01
       -1   -1    0    0    0  501  0.00000000000E+00  0.00000000000E+00  0.14173942325E+04  0.14173942325E+04  0.50400001928E-02 0. -1.
        1   -1    0    0  501    0  0.00000000000E+00  0.00000000000E+00 -0.25756322253E+04  0.25756322253E+04  0.50400001928E-02 0.  1.
    10030    2    1    2    0    0  0.00000000000E+00  0.00000000000E+00 -0.11582379928E+04  0.39930264578E+04  0.38213538235E+04 0.  0.
        4    1    3    3  502    0  0.18902756250E+04  0.15292403139E+03 -0.33594785264E+03  0.19259777440E+04  0.12699999809E+01 0. -1.
       -4    1    3    3    0  502 -0.18902756250E+04 -0.15292403139E+03 -0.82229014021E+03  0.20670487138E+04  0.12699999809E+01 0.  1.
</event>
<event>
 5   0  0.1187925E-07  0.3645187E+04  0.7818609E-02  0.8080219E-01
       -1   -1    0    0    0  501  0.00000000000E+00  0.00000000000E+00  0.12837419296E+04  0.12837419296E+04  0.50400001928E-02 0.  1.
        1   -1    0    0  501    0  0.00000000000E+00  0.00000000000E+00 -0.25876284098E+04  0.25876284098E+04  0.50400001928E-02 0. -1.
    10030    2    1    2    0    0  0.00000000000E+00  0.00000000000E+00 -0.13038864801E+04  0.38713703394E+04  0.36451870119E+04 0.  0.
        1    1    3    3  502    0  0.93753224622E+03  0.15511395532E+04 -0.44807817999E+03  0.18670229462E+04  0.50400001928E-02 0.  1.
       -1    1    3    3    0  502 -0.93753224622E+03 -0.15511395532E+04 -0.85580830015E+03  0.20043473932E+04  0.50400001928E-02 0. -1.
</event>
<event>
 5   0  0.1187925E-07  0.3990861E+04  0.7818609E-02  0.8006393E-01
       -1   -1    0    0    0  501  0.00000000000E+00  0.00000000000E+00  0.18667412214E+04  0.18667412214E+04  0.50400001928E-02 0. -1.
        1   -1    0    0  501    0  0.00000000000E+00  0.00000000000E+00 -0.21329915240E+04  0.21329915240E+04  0.50400001928E-02 0.  1.
    10030    2    1    2    0    0  0.00000000000E+00  0.00000000000E+00 -0.26625030254E+03  0.39997327454E+04  0.39908611616E+04 0.  0.
        5    1    3    3  502    0 -0.12235644712E+04  0.10950570510E+04 -0.12694273121E+04  0.20755066250E+04  0.46999998093E+01 0.  1.
       -5    1    3    3    0  502  0.12235644712E+04 -0.10950570510E+04  0.10031770095E+04  0.19242261204E+04  0.46999998093E+01 0. -1.
</event>
<event>
 5   0  0.1187925E-07  0.3939426E+04  0.7818609E-02  0.8016879E-01
        1   -1    0    0  501    0  0.00000000000E+00  0.00000000000E+00  0.23203717764E+04  0.23203717764E+04  0.50400001928E-02 0.  1.
       -1   -1    0    0    0  501  0.00000000000E+00  0.00000000000E+00 -0.16720461439E+04  0.16720461439E+04  0.50400001928E-02 0. -1.
    10030    2    1    2    0    0  0.00000000000E+00  0.00000000000E+00  0.64832563255E+03  0.39924179203E+04  0.39394256846E+04 0.  0.
        3    1    3    3  502    0 -0.48704043828E+03  0.78964521421E+02  0.22567292107E+04  0.23100369098E+04  0.10100000352E+00 0.  1.
       -3    1    3    3    0  502  0.48704043828E+03 -0.78964521421E+02 -0.16084035781E+04  0.16823810105E+04  0.10100000352E+00 0. -1.
</event>
<event>
 5   0  0.3665303E-07  0.3912513E+04  0.7818609E-02  0.8022432E-01
       -2   -1    0    0    0  501  0.00000000000E+00  0.00000000000E+00  0.27411867402E+04  0.27411867402E+04  0.25500000920E-02 0. -1.
        2   -1    0    0  501    0  0.00000000000E+00  0.00000000000E+00 -0.13960883371E+04  0.13960883371E+04  0.25500000920E-02 0.  1.
    10030    2    1    2    0    0  0.00000000000E+00  0.00000000000E+00  0.13450984030E+04  0.41372750773E+04  0.39125126647E+04 0.  0.
        2    1    3    3  502    0 -0.89218314458E+03 -0.12906498824E+04  0.19080759744E+04  0.24703282791E+04  0.25500000920E-02 0. -1.
       -2    1    3    3    0  502  0.89218314458E+03  0.12906498824E+04 -0.56297757131E+03  0.16669467982E+04  0.25500000920E-02 0.  1.
</event>
<event>
 5   0  0.1187925E-07  0.3932682E+04  0.7818609E-02  0.8018266E-01
        1   -1    0    0  501    0  0.00000000000E+00  0.00000000000E+00  0.16797247791E+04  0.16797247791E+04  0.50400001928E-02 0. -1.
       -1   -1    0    0    0  501  0.00000000000E+00  0.00000000000E+00 -0.23018638655E+04  0.23018638655E+04  0.50400001928E-02 0.  1.
    10030    2    1    2    0    0  0.00000000000E+00  0.00000000000E+00 -0.62213908645E+03  0.39815886446E+04  0.39326824296E+04 0.  0.
        4    1    3    3  502    0 -0.17257463689E+04  0.86390147850E+03  0.70405031171E+02  0.19311874004E+04  0.12699999809E+01 0.  1.
       -4    1    3    3    0  502  0.17257463689E+04 -0.86390147850E+03 -0.69254411762E+03  0.20504012442E+04  0.12699999809E+01 0. -1.
</event>
<event>
 5   0  0.3810833E-07  0.3932833E+04  0.7818609E-02  0.8018235E-01
        2   -1    0    0  501    0  0.00000000000E+00  0.00000000000E+00  0.19043100881E+04  0.19043100881E+04  0.25500000920E-02 0.  1.
       -2   -1    0    0    0  501  0.00000000000E+00  0.00000000000E+00 -0.20305486051E+04  0.20305486051E+04  0.25500000920E-02 0. -1.
    10030    2    1    2    0    0  0.00000000000E+00  0.00000000000E+00 -0.12623851702E+03  0.39348586932E+04  0.39328331737E+04 0.  0.
        3    1    3    3  502    0  0.10084106193E+04  0.90702299209E+03 -0.14876543324E+04  0.20131314186E+04  0.10100000352E+00 0. -1.
       -3    1    3    3    0  502 -0.10084106193E+04 -0.90702299209E+03  0.13614158154E+04  0.19217272746E+04  0.10100000352E+00 0.  1.
</event>
<event>
 5   0  0.3610483E-07  0.3821449E+04  0.7818609E-02  0.8041568E-01
        2   -1    0    0  501    0  0.00000000000E+00  0.00000000000E+00  0.24244870336E+04  0.24244870336E+04  0.25500000920E-02 0.  1.
       -2   -1    0    0    0  501  0.00000000000E+00  0.00000000000E+00 -0.15058314568E+04  0.15058314568E+04  0.25500000920E-02 0. -1.
    10030    2    1    2    0    0  0.00000000000E+00  0.00000000000E+00  0.91865557679E+03  0.39303184905E+04  0.38214493805E+04 0.  0.
        4    1    3    3  502    0 -0.89888764551E+02 -0.51611248177E+03  0.23491787377E+04  0.24068847996E+04  0.12699999809E+01 0.  1.
       -4    1    3    3    0  502  0.89888764551E+02  0.51611248177E+03 -0.14305231609E+04  0.15234336909E+04  0.12699999809E+01 0. -1.
</event>
<event>
 5   0  0.1187925E-07  0.3964620E+04  0.7818609E-02  0.8011722E-01
       -1   -1    0    0    0  501  0.00000000000E+00  0.00000000000E+00  0.21735573174E+04  0.21735573174E+04  0.50400001928E-02 0. -1.
        1   -1    0    0  501    0  0.00000000000E+00  0.00000000000E+00 -0.18078904110E+04  0.18078904110E+04  0.50400001928E-02 0.  1.
    10030    2    1    2    0    0  0.00000000000E+00  0.00000000000E+00  0.36566690642E+03  0.39814477284E+04  0.39646202501E+04 0.  0.
        1    1    3    3  502    0  0.69816906942E+03 -0.95340367796E+03 -0.14155043630E+04  0.18439282048E+04  0.50400001928E-02 0.  1.
       -1    1    3    3    0  502 -0.69816906942E+03  0.95340367796E+03  0.17811712694E+04  0.21375195236E+04  0.50400001928E-02 0. -1.
</event>
<event>
 5   0  0.3832389E-07  0.3875390E+04  0.7818609E-02  0.8030167E-01
       -2   -1    0    0    0  501  0.00000000000E+00  0.00000000000E+00  0.20548064863E+04  0.20548064863E+04  0.25500000920E-02 0. -1.
        2   -1    0    0  501    0  0.00000000000E+00  0.00000000000E+00 -0.18272577174E+04  0.18272577174E+04  0.25500000920E-02 0.  1.
    10030    2    1    2    0    0  0.00000000000E+00  0.00000000000E+00  0.22754876885E+03  0.38820642037E+04  0.38753895339E+04 0.  0.
        5    1    3    3  502    0  0.17577595218E+04  0.80939084266E+03  0.21297447253E+03  0.19468467553E+04  0.46999998093E+01 0.  1.
       -5    1    3    3    0  502 -0.17577595218E+04 -0.80939084266E+03  0.14574296314E+02  0.19352174484E+04  0.46999998093E+01 0. -1.
</event>
<event>
 5   0  0.3680814E-07  0.3880931E+04  0.7818609E-02  0.8029007E-01
       -2   -1    0    0    0  501  0.00000000000E+00  0.00000000000E+00  0.20164731971E+04  0.20164731971E+04  0.25500000920E-02 0.  1.
        2   -1    0    0  501    0  0.00000000000E+00  0.00000000000E+00 -0.18673229022E+04  0.18673229022E+04  0.25500000920E-02 0. -1.
    10030    2    1    2    0    0  0.00000000000E+00  0.00000000000E+00  0.14915029488E+03  0.38837960994E+04  0.38809311165E+04 0.  0.
        1    1    3    3  502    0 -0.81469275461E+03 -0.63704514016E+03  0.17176933808E+04  0.20049990887E+04  0.50400001928E-02 0.  1.
       -1    1    3    3    0  502  0.81469275461E+03  0.63704514016E+03 -0.15685430859E+04  0.18787970107E+04  0.50400001928E-02 0. -1.
</event>
<event>
 5   0  0.3810833E-07  0.4068613E+04  0.7818609E-02  0.7990846E-01
       -2   -1    0    0    0  501  0.00000000000E+00  0.00000000000E+00  0.25549745375E+04  0.25549745375E+04  0.25500000920E-02 0.  1.
        2   -1    0    0  501    0  0.00000000000E+00  0.00000000000E+00 -0.16197431530E+04  0.16197431530E+04  0.25500000920E-02 0. -1.
    10030    2    1    2    0    0  0.00000000000E+00  0.00000000000E+00  0.93523138455E+03  0.41747176905E+04  0.40686127922E+04 0.  0.
        3    1    3    3  502    0  0.74547284351E+03 -0.10223565624E+04 -0.11668670426E+04  0.17211976663E+04  0.10100000352E+00 0. -1.
       -3    1    3    3    0  502 -0.74547284351E+03  0.10223565624E+04  0.21020984272E+04  0.24535200242E+04  0.10100000352E+00 0.  1.
</event>
<event>
 5   0  0.1187925E-07  0.3828519E+04  0.7818609E-02  0.8040062E-01
       -1   -1    0    0    0  501  0.00000000000E+00  0.00000000000E+00  0.29286336386E+04  0.29286336386E+04  0.50400001928E-02 0. -1.
        1   -1    0    0  501    0  0.00000000000E+00  0.00000000000E+00 -0.12512285595E+04  0.12512285595E+04  0.50400001928E-02 0.  1.
    10030    2    1    2    0    0  0.00000000000E+00  0.00000000000E+00  0.16774050791E+04  0.41798621981E+04  0.38285193216E+04 0.  0.
        1    1    3    3  502    0 -0.10606120646E+04 -0.10315551863E+04 -0.48742089354E+03  0.15577493962E+04  0.50400001928E-02 0.  1.
       -1    1    3    3    0  502  0.10606120646E+04  0.10315551863E+04  0.21648259726E+04  0.26221128019E+04  0.50400001928E-02 0. -1.
</event>
<event>
 5   0  0.1187925E-07  0.3775670E+04  0.7818609E-02  0.8051396E-01
       -1   -1    0    0    0  501  0.00000000000E+00  0.00000000000E+00  0.29839881757E+04  0.29839881757E+04  0.50400001928E-02 0. -1.
        1   -1    0    0  501    0  0.00000000000E+00  0.00000000000E+00 -0.11943482103E+04  0.11943482103E+04  0.50400001928E-02 0.  1.
    10030    2    1    2    0    0  0.00000000000E+00  0.00000000000E+00  0.17896399654E+04  0.41783363860E+04  0.37756699735E+04 0.  0.
        2    1    3    3  502    0 -0.61114335113E+03  0.82211329786E+03 -0.86002960626E+03  0.13375415484E+04  0.25500000920E-02 0.  1.
       -2    1    3    3    0  502  0.61114335113E+03 -0.82211329786E+03  0.26496695717E+04  0.28407948376E+04  0.25500000920E-02 0. -1.
</event>
<event>
 5   0  0.3680814E-07  0.4018408E+04  0.7818609E-02  0.8000843E-01
       -2   -1    0    0    0  501  0.00000000000E+00  0.00000000000E+00  0.27268784108E+04  0.27268784108E+04  0.25500000920E-02 0.  1.
        2   -1    0    0  501    0  0.00000000000E+00  0.00000000000E+00 -0.14804108906E+04  0.14804108906E+04  0.25500000920E-02 0. -1.
    10030    2    1    2    0    0  0.00000000000E+00  0.00000000000E+00  0.12464675202E+04  0.42072893014E+04  0.40184078920E+04 0.  0.
        1    1    3    3  502    0 -0.17101612195E+04  0.75373691306E+03  0.13955578830E+04  0.23324563309E+04  0.50400001928E-02 0. -1.
       -1    1    3    3    0  502  0.17101612195E+04 -0.75373691306E+03 -0.14909036278E+03  0.18748329705E+04  0.50400001928E-02 0.  1.
</event>
<event>
 5   0  0.3810833E-07  0.3415669E+04  0.7818609E-02  0.8134071E-01
        2   -1    0    0  501    0  0.00000000000E+00  0.00000000000E+00  0.15053301558E+04  0.15053301558E+04  0.25500000920E-02 0. -1.
       -2   -1    0    0    0  501  0.00000000000E+00  0.00000000000E+00 -0.19375805835E+04  0.19375805835E+04  0.25500000920E-02 0.  1.
    10030    2    1    2    0    0  0.00000000000E+00  0.00000000000E+00 -0.43225042763E+03  0.34429107393E+04  0.34156688842E+04 0.  0.
        3    1    3    3  502    0  0.66651779636E+03  0.14727446610E+04  0.33915466115E+03  0.16517411129E+04  0.10100000352E+00 0. -1.
       -3    1    3    3    0  502 -0.66651779636E+03 -0.14727446610E+04 -0.77140508878E+03  0.17911696264E+04  0.10100000352E+00 0.  1.
</event>
<event>
 5   0  0.1187925E-07  0.3959208E+04  0.7818609E-02  0.8012827E-01
       -1   -1    0    0    0  501  0.00000000000E+00  0.00000000000E+00  0.15591826313E+04  0.15591826313E+04  0.50400001928E-02 0.  1.
        1   -1    0    0  501    0  0.00000000000E+00  0.00000000000E+00 -0.25133883011E+04  0.25133883011E+04  0.50400001928E-02 0. -1.
    10030    2    1    2    0    0  0.00000000000E+00  0.00000000000E+00 -0.95420566980E+03  0.40725709324E+04  0.39592076908E+04 0.  0.
        5    1    3    3  502    0  0.94634555555E+03  0.13562474687E+04  0.64209134950E+03  0.17740576366E+04  0.46999998093E+01 0.  1.
       -5    1    3    3    0  502 -0.94634555555E+03 -0.13562474687E+04 -0.15962970193E+04  0.22985132958E+04  0.46999998093E+01 0. -1.
</event>
<event>
 5   0  0.3810833E-07  0.3780193E+04  0.7818609E-02  0.8050419E-01
        2   -1    0    0  501    0  0.00000000000E+00  0.00000000000E+00  0.27742907300E+04  0.27742907300E+04  0.25500000920E-02 0. -1.
       -2   -1    0    0    0  501  0.00000000000E+00  0.00000000000E+00 -0.12877039154E+04  0.12877039154E+04  0.25500000920E-02 0.  1.
    10030    2    1    2    0    0  0.00000000000E+00  0.00000000000E+00  0.14865868147E+04  0.40619946454E+04  0.37801931355E+04 0.  0.
        3    1    3    3  502    0 -0.10287146703E+04  0.15808266524E+04  0.87576480215E+03  0.20794784868E+04  0.10100000352E+00 0.  1.
       -3    1    3    3    0  502  0.10287146703E+04 -0.15808266524E+04  0.61082201252E+03  0.19825161586E+04  0.10100000352E+00 0. -1.
</event>
<event>
 5   0  0.1187925E-07  0.3796040E+04  0.7818609E-02  0.8047005E-01
       -1   -1    0    0    0  501  0.00000000000E+00  0.00000000000E+00  0.24371254803E+04  0.24371254803E+04  0.50400001928E-02 0. -1.
        1   -1    0    0  501    0  0.00000000000E+00  0.00000000000E+00 -0.14781679626E+04  0.14781679626E+04  0.50400001928E-02 0.  1.
    10030    2    1    2    0    0  0.00000000000E+00  0.00000000000E+00  0.95895751776E+03  0.39152934429E+04  0.37960404665E+04 0.  0.
        4    1    3    3  502    0  0.89214560867E+03  0.96433904990E+03 -0.93344909891E+03  0.16115838245E+04  0.12699999809E+01 0.  1.
       -4    1    3    3    0  502 -0.89214560867E+03 -0.96433904990E+03  0.18924066167E+04  0.23037096184E+04  0.12699999809E+01 0. -1.
</event>
<event>
 5   0  0.1187925E-07  0.3871943E+04  0.7818609E-02  0.8030890E-01
        1   -1    0    0  501    0  0.00000000000E+00  0.00000000000E+00  0.28640771607E+04  0.28640771607E+04  0.50400001928E-02 0. -1.
       -1   -1    0    0    0  501  0.00000000000E+00  0.00000000000E+00 -0.13086188068E+04  0.13086188068E+04  0.50400001928E-02 0.  1.
    10030    2    1    2    0    0  0.00000000000E+00  0.00000000000E+00  0.15554583539E+04  0.41726959675E+04  0.38719427871E+04 0.  0.
        4    1    3    3  502    0  0.18921828285E+04  0.22193157471E+03  0.11485091214E+04  0.22245638439E+04  0.12699999809E+01 0. -1.
       -4    1    3    3    0  502 -0.18921828285E+04 -0.22193157471E+03  0.40694923242E+03  0.19481321236E+04  0.12699999809E+01 0.  1.
</event>
<event>
 5   0  0.3810833E-07  0.3996524E+04  0.7818609E-02  0.8005248E-01
       -2   -1    0    0    0  501  0.00000000000E+00  0.00000000000E+00  0.18772481102E+04  0.18772481102E+04  0.25500000920E-02 0. -1.
        2   -1    0    0  501    0  0.00000000000E+00  0.00000000000E+00 -0.21270767681E+04  0.21270767681E+04  0.25500000920E-02 0.  1.
    10030    2    1    2    0    0  0.00000000000E+00  0.00000000000E+00 -0.24982865783E+03  0.40043248783E+04  0.39965239112E+04 0.  0.
        3    1    3    3  502    0  0.19620038155E+04 -0.17175752967E+03  0.21351889128E+03  0.19810476895E+04  0.10100000352E+00 0. -1.
       -3    1    3    3    0  502 -0.19620038155E+04  0.17175752967E+03 -0.46334754911E+03  0.20232771888E+04  0.10100000352E+00 0.  1.
</event>
<event>
 5   0  0.1187925E-07  0.3897185E+04  0.7818609E-02  0.8025615E-01
        1   -1    0    0  501    0  0.00000000000E+00  0.00000000000E+00  0.13972066717E+04  0.13972066717E+04  0.50400001928E-02 0. -1.
       -1   -1    0    0    0  501  0.00000000000E+00  0.00000000000E+00 -0.27175742166E+04  0.27175742166E+04  0.50400001928E-02 0.  1.
    10030    2    1    2    0    0  0.00000000000E+00  0.00000000000E+00 -0.13203675448E+04  0.41147808883E+04  0.38971850489E+04 0.  0.
        5    1    3    3  502    0 -0.63560320311E+03 -0.91701688555E+03 -0.23469029074E+04  0.25986317067E+04  0.46999998093E+01 0.  1.
       -5    1    3    3    0  502  0.63560320311E+03  0.91701688555E+03  0.10265353626E+04  0.15161491816E+04  0.46999998093E+01 0. -1.
</event>
<event>
 5   0  0.1187925E-07  0.3205276E+04  0.7818609E-02  0.8187425E-01
       -1   -1    0    0    0  501  0.00000000000E+00  0.00000000000E+00  0.12046518481E+04  0.12046518481E+04  0.50400001928E-02 0.  1.
        1   -1    0    0  501    0  0.00000000000E+00  0.00000000000E+00 -0.21321084486E+04  0.21321084486E+04  0.50400001928E-02 0. -1.
    10030    2    1    2    0    0  0.00000000000E+00  0.00000000000E+00 -0.92745660048E+03  0.33367602968E+04  0.32052758902E+04 0.  0.
        1    1    3    3  502    0  0.51414348839E+03 -0.11593733412E+04  0.55623789743E+03  0.13848792978E+04  0.50400001928E-02 0.  1.
       -1    1    3    3    0  502 -0.51414348839E+03  0.11593733412E+04 -0.14836944979E+04  0.19518809990E+04  0.50400001928E-02 0. -1.
</event>
<event>
 5   0  0.1187925E-07  0.3897747E+04  0.7818609E-02  0.8025498E-01
        1   -1    0    0  501    0  0.00000000000E+00  0.00000000000E+00  0.22915086905E+04  0.22915086905E+04  0.50400001928E-02 0.  1.
       -1   -1    0    0    0  501  0.00000000000E+00  0.00000000000E+00 -0.16574704295E+04  0.16574704295E+04  0.50400001928E-02 0. -1.
    10030    2    1    2    0    0  0.00000000000E+00  0.00000000000E+00  0.63403826105E+03  0.39489791200E+04  0.38977469869E+04 0.  0.
        4    1    3    3  502    0 -0.64630405563E+03  0.13620151599E+04 -0.93424946258E+03  0.17735889883E+04  0.12699999809E+01 0. -1.
       -4    1    3    3    0  502  0.64630405563E+03 -0.13620151599E+04  0.15682877236E+04  0.21753901317E+04  0.12699999809E+01 0.  1.
</event>
<event>
 5   0  0.3665303E-07  0.3854340E+04  0.7818609E-02  0.8034593E-01
       -2   -1    0    0    0  501  0.00000000000E+00  0.00000000000E+00  0.10629462800E+04  0.10629462800E+04  0.25500000920E-02 0.  1.
        2   -1    0    0  501    0  0.00000000000E+00  0.00000000000E+00 -0.34940467499E+04  0.34940467499E+04  0.25500000920E-02 0. -1.
    10030    2    1    2    0    0  0.00000000000E+00  0.00000000000E+00 -0.24311004699E+04  0.45569930298E+04  0.38543398889E+04 0.  0.
        2    1    3    3  502    0  0.12952564811E+04  0.86189382177E+03 -0.25601729324E+04  0.29958364034E+04  0.25500000920E-02 0. -1.
       -2    1    3    3    0  502 -0.12952564811E+04 -0.86189382177E+03  0.12907246249E+03  0.15611566265E+04  0.25500000920E-02 0.  1.
</event>
<event>
 5   0  0.3665303E-07  0.3887588E+04  0.7818609E-02  0.8027616E-01
       -2   -1    0    0    0  501  0.00000000000E+00  0.00000000000E+00  0.30623534254E+04  0.30623534254E+04  0.25500000920E-02 0. -1.
        2   -1    0    0  501    0  0.00000000000E+00  0.00000000000E+00 -0.12338009936E+04  0.12338009936E+04  0.25500000920E-02 0.  1.
    10030    2    1    2    0    0  0.00000000000E+00  0.00000000000E+00  0.18285524317E+04  0.42961544190E+04  0.38875877863E+04 0.  0.
        2    1    3    3  502    0  0.14022634717E+03  0.19386737165E+04  0.89805382790E+03  0.21411725492E+04  0.25500000920E-02 0. -1.
       -2    1    3    3    0  502 -0.14022634717E+03 -0.19386737165E+04  0.93049860384E+03  0.21549818698E+04  0.25500000920E-02 0.  1.
</event>
<event>
 5   0  0.3665303E-07  0.3869501E+04  0.7818609E-02  0.8031402E-01
       -2   -1    0    0    0  501  0.00000000000E+00  0.00000000000E+00  0.13060610629E+04  0.13060610629E+04  0.25500000920E-02 0. -1.
        2   -1    0    0  501    0  0.00000000000E+00  0.00000000000E+00 -0.28660678948E+04  0.28660678948E+04  0.25500000920E-02 0.  1.
    10030    2    1    2    0    0  0.00000000000E+00  0.00000000000E+00 -0.15600068319E+04  0.41721289578E+04  0.38695010950E+04 0.  0.
        2    1    3    3  502    0 -0.82239956291E+03  0.90607449241E+03 -0.23958590798E+04  0.26902514301E+04  0.25500000920E-02 0.  1.
       -2    1    3    3    0  502  0.82239956291E+03 -0.90607449241E+03  0.83585224785E+03  0.14818775277E+04  0.25500000920E-02 0. -1.
</event>
<event>
 5   0  0.1187925E-07  0.3807563E+04  0.7818609E-02  0.8044534E-01
        1   -1    0    0  501    0  0.00000000000E+00  0.00000000000E+00  0.18941798969E+04  0.18941798969E+04  0.50400001928E-02 0.  1.
       -1   -1    0    0    0  501  0.00000000000E+00  0.00000000000E+00 -0.19134319815E+04  0.19134319815E+04  0.50400001928E-02 0. -1.
    10030    2    1    2    0    0  0.00000000000E+00  0.00000000000E+00 -0.19252084530E+02  0.38076118784E+04  0.38075632068E+04 0.  0.
        2    1    3    3  502    0 -0.28928075894E+03  0.16376638091E+04  0.91707792305E+03  0.18991203295E+04  0.25500000920E-02 0.  1.
       -2    1    3    3    0  502  0.28928075894E+03 -0.16376638091E+04 -0.93633000758E+03  0.19084915489E+04  0.25500000920E-02 0. -1.
</event>
<event>
 5   0  0.1187925E-07  0.3813941E+04  0.7818609E-02  0.8043170E-01
       -1   -1    0    0    0  501  0.00000000000E+00  0.00000000000E+00  0.20123286453E+04  0.20123286453E+04  0.50400001928E-02 0.  1.
        1   -1    0    0  501    0  0.00000000000E+00  0.00000000000E+00 -0.18071281690E+04  0.18071281690E+04  0.50400001928E-02 0. -1.
    10030    2    1    2    0    0  0.00000000000E+00  0.00000000000E+00  0.20520047632E+03  0.38194568142E+04  0.38139406288E+04 0.  0.
        4    1    3    3  502    0  0.10109941744E+04 -0.47120138522E+03 -0.14463734702E+04  0.18265097302E+04  0.12699999809E+01 0. -1.
       -4    1    3    3    0  502 -0.10109941744E+04  0.47120138522E+03  0.16515739466E+04  0.19929470841E+04  0.12699999809E+01 0.  1.
</event>
<event>
 5   0  0.1187925E-07  0.3915748E+04  0.7818609E-02  0.8021762E-01
       -1   -1    0    0    0  501  0.00000000000E+00  0.00000000000E+00  0.15198415743E+04  0.15198415743E+04  0.50400001928E-02 0.  1.
        1   -1    0    0  501    0  0.00000000000E+00  0.00000000000E+00 -0.25221516857E+04  0.25221516857E+04  0.50400001928E-02 0. -1.
    10030    2    1    2    0    0  0.00000000000E+00  0.00000000000E+00 -0.10023101114E+04  0.40419932601E+04  0.39157481986E+04 0.  0.
        3    1    3    3  502    0 -0.68846417817E+03 -0.11466118211E+04 -0.19771394137E+04  0.23870026946E+04  0.10100000352E+00 0. -1.
       -3    1    3    3    0  502  0.68846417817E+03  0.11466118211E+04  0.97482930231E+03  0.16549905654E+04  0.10100000352E+00 0.  1.
</event>
<event>
 5   0  0.3832389E-07  0.2783865E+04  0.7818609E-02  0.8308295E-01
       -2   -1    0    0    0  501  0.00000000000E+00  0.00000000000E+00  0.11471615742E+04  0.11471615742E+04  0.25500000920E-02 0. -1.
        2   -1    0    0  501    0  0.00000000000E+00  0.00000000000E+00 -0.16889309310E+04  0.16889309310E+04  0.25500000920E-02 0.  1.
    10030    2    1    2    0    0  0.00000000000E+00  0.00000000000E+00 -0.54176935682E+03  0.28360925053E+04  0.27838654174E+04 0.  0.
        5    1    3    3  502    0  0.40730000528E+03  0.13279495141E+04 -0.17913189546E+03  0.14005190224E+04  0.46999998093E+01 0. -1.
       -5    1    3    3    0  502 -0.40730000528E+03 -0.13279495141E+04 -0.36263746136E+03  0.14355734828E+04  0.46999998093E+01 0.  1.
</event>
<event>
 5   0  0.1187925E-07  0.3905952E+04  0.7818609E-02  0.8023792E-01
       -1   -1    0    0    0  501  0.00000000000E+00  0.00000000000E+00  0.30095535121E+04  0.30095535121E+04  0.50400001928E-02 0. -1.
        1   -1    0    0  501    0  0.00000000000E+00  0.00000000000E+00 -0.12673362055E+04  0.12673362055E+04  0.50400001928E-02 0.  1.
    10030    2    1    2    0    0  0.00000000000E+00  0.00000000000E+00  0.17422173066E+04  0.42768897176E+04  0.39059524463E+04 0.  0.
        4    1    3    3  502    0  0.92497998333E+03 -0.59582151808E+03  0.26378860384E+04  0.28581524829E+04  0.12699999809E+01 0. -1.
       -4    1    3    3    0  502 -0.92497998333E+03  0.59582151808E+03 -0.89566873181E+03  0.14187372347E+04  0.12699999809E+01 0.  1.
</event>
<event>
 5   0  0.3810833E-07  0.3643100E+04  0.7818609E-02  0.8080690E-01
       -2   -1    0    0    0  501  0.00000000000E+00  0.00000000000E+00  0.13983694875E+04  0.13983694875E+04  0.25500000920E-02 0.  1.
        2   -1    0    0  501    0  0.00000000000E+00  0.00000000000E+00 -0.23727945689E+04  0.23727945690E+04  0.25500000920E-02 0. -1.
    10030    2    1    2    0    0  0.00000000000E+00  0.00000000000E+00 -0.97442508144E+03  0.37711640565E+04  0.36430995185E+04 0.  0.
        3    1    3    3  502    0 -0.14421105460E+04  0.23190085564E+03 -0.16138575062E+04  0.21766940286E+04  0.10100000352E+00 0. -1.
       -3    1    3    3    0  502  0.14421105460E+04 -0.23190085564E+03  0.63943242475E+03  0.15944700279E+04  0.10100000352E+00 0.  1.
</event>
<event>
 5   0  0.1187925E-07  0.3911418E+04  0.7818609E-02  0.8022659E-01
        1   -1    0    0  501    0  0.00000000000E+00  0.00000000000E+00  0.24691484818E+04  0.24691484818E+04  0.50400001928E-02 0.  1.
       -1   -1    0    0    0  501  0.00000000000E+00  0.00000000000E+00 -0.15490351129E+04  0.15490351129E+04  0.50400001928E-02 0. -1.
    10030    2    1    2    0    0  0.00000000000E+00  0.00000000000E+00  0.92011336898E+03  0.40181835947E+04  0.39114180023E+04 0.  0.
        4    1    3    3  502    0  0.12907579289E+04  0.13050172760E+04  0.11535156166E+04  0.21678851475E+04  0.12699999809E+01 0.  1.
       -4    1    3    3    0  502 -0.12907579289E+04 -0.13050172760E+04 -0.23340224765E+03  0.18502984473E+04  0.12699999809E+01 0. -1.
</event>
<event>
 5   0  0.1187925E-07  0.3529346E+04  0.7818609E-02  0.8106870E-01
        3   -1    0    0  501    0  0.00000000000E+00  0.00000000000E+00  0.20448568267E+04  0.20448568292E+04  0.10100000352E+00 0. -1.
       -3   -1    0    0    0  501  0.00000000000E+00  0.00000000000E+00 -0.15228794011E+04  0.15228794045E+04  0.10100000352E+00 0.  1.
    10030    2    1    2    0    0  0.00000000000E+00  0.00000000000E+00  0.52197742551E+03  0.35677362337E+04  0.35293457468E+04 0.  0.
        4    1    3    3  502    0 -0.15315931765E+03 -0.61034962775E+03  0.19275834039E+04  0.20276991484E+04  0.12699999809E+01 0. -1.
       -4    1    3    3    0  502  0.15315931765E+03  0.61034962775E+03 -0.14056059783E+04  0.15400370853E+04  0.12699999809E+01 0.  1.
</event>
<event>
 5   0  0.1187925E-07  0.3880133E+04  0.7818609E-02  0.8029174E-01
       -1   -1    0    0    0  501  0.00000000000E+00  0.00000000000E+00  0.16028149790E+04  0.16028149790E+04  0.50400001928E-02 0. -1.
        1   -1    0    0  501    0  0.00000000000E+00  0.00000000000E+00 -0.23482798086E+04  0.23482798086E+04  0.50400001928E-02 0.  1.
    10030    2    1    2    0    0  0.00000000000E+00  0.00000000000E+00 -0.74546482954E+03  0.39510947876E+04  0.38801330143E+04 0.  0.
        3    1    3    3  502    0 -0.14710594266E+04 -0.77415318183E+03  0.64582540545E+03  0.17833730541E+04  0.10100000352E+00 0. -1.
       -3    1    3    3    0  502  0.14710594266E+04  0.77415318183E+03 -0.13912902350E+04  0.21677217335E+04  0.10100000352E+00 0.  1.
</event>
<event>
 5   0  0.1187925E-07  0.3162898E+04  0.7818609E-02  0.8198685E-01
       -1   -1    0    0    0  501  0.00000000000E+00  0.00000000000E+00  0.14186706219E+04  0.14186706219E+04  0.50400001928E-02 0.  1.
        1   -1    0    0  501    0  0.00000000000E+00  0.00000000000E+00 -0.17629042792E+04  0.17629042792E+04  0.50400001928E-02 0. -1.
    10030    2    1    2    0    0  0.00000000000E+00  0.00000000000E+00 -0.34423365736E+03  0.31815749011E+04  0.31628977284E+04 0.  0.
        3    1    3    3  502    0  0.77818086114E+03  0.13684739153E+04 -0.32365231611E+03  0.16071829832E+04  0.10100000352E+00 0. -1.
       -3    1    3    3    0  502 -0.77818086114E+03 -0.13684739153E+04 -0.20581341251E+02  0.15743919179E+04  0.10100000352E+00 0.  1.
</event>
<event>
 5   0  0.3610483E-07  0.3874818E+04  0.7818609E-02  0.8030287E-01
       -2   -1    0    0    0  501  0.00000000000E+00  0.00000000000E+00  0.16473985580E+04  0.16473985580E+04  0.25500000920E-02 0.  1.
        2   -1    0    0  501    0  0.00000000000E+00  0.00000000000E+00 -0.22784731131E+04  0.22784731131E+04  0.25500000920E-02 0. -1.
    10030    2    1    2    0    0  0.00000000000E+00  0.00000000000E+00 -0.63107455507E+03  0.39258716711E+04  0.38748178388E+04 0.  0.
        4    1    3    3  502    0  0.28987214632E+03 -0.56723607759E+03 -0.21693359026E+04  0.22609295655E+04  0.12699999809E+01 0. -1.
       -4    1    3    3    0  502 -0.28987214632E+03  0.56723607759E+03  0.15382613475E+04  0.16649421056E+04  0.12699999809E+01 0.  1.
</event>
<event>
 5   0  0.3665303E-07  0.3725178E+04  0.7818609E-02  0.8062405E-01
       -2   -1    0    0    0  501  0.00000000000E+00  0.00000000000E+00  0.18139052106E+04  0.18139052106E+04  0.25500000920E-02 0. -1.
        2   -1    0    0  501    0  0.00000000000E+00  0.00000000000E+00 -0.19125792447E+04  0.19125792447E+04  0.25500000920E-02 0.  1.
    10030    2    1    2    0    0  0.00000000000E+00  0.00000000000E+00 -0.98674034039E+02  0.37264844553E+04  0.37251778254E+04 0.  0.
        2    1    3    3  502    0  0.22770104008E+03 -0.16715939749E+04 -0.83902082133E+03  0.18841523609E+04  0.25500000920E-02 0.  1.
       -2    1    3    3    0  502 -0.22770104008E+03  0.16715939749E+04  0.74034678729E+03  0.18423320944E+04  0.25500000920E-02 0. -1.
</event>
<event>
 5   0  0.1187925E-07  0.3942940E+04  0.7818609E-02  0.8016157E-01
        1   -1    0    0  501    0  0.00000000000E+00  0.00000000000E+00  0.23837112817E+04  0.23837112817E+04  0.50400001928E-02 0. -1.
       -1   -1    0    0    0  501  0.00000000000E+00  0.00000000000E+00 -0.16305219210E+04  0.16305219210E+04  0.50400001928E-02 0.  1.
    10030    2    1    2    0    0  0.00000000000E+00  0.00000000000E+00  0.75318936069E+03  0.40142332028E+04  0.39429397654E+04 0.  0.
        3    1    3    3  502    0 -0.12943852533E+04  0.39259119075E+03  0.18367988520E+04  0.22810942681E+04  0.10100000352E+00 0. -1.
       -3    1    3    3    0  502  0.12943852533E+04 -0.39259119075E+03 -0.10836094914E+04  0.17331389347E+04  0.10100000352E+00 0.  1.
</event>
<event>
 5   0  0.3810833E-07  0.3908800E+04  0.7818609E-02  0.8023202E-01
        2   -1    0    0  501    0  0.00000000000E+00  0.00000000000E+00  0.26710646677E+04  0.26710646677E+04  0.25500000920E-02 0.  1.
       -2   -1    0    0    0  501  0.00000000000E+00  0.00000000000E+00 -0.14300209514E+04  0.14300209514E+04  0.25500000920E-02 0. -1.
    10030    2    1    2    0    0  0.00000000000E+00  0.00000000000E+00  0.12410437164E+04  0.41010856191E+04  0.39087995279E+04 0.  0.
        3    1    3    3  502    0 -0.80779645799E+03  0.17388504877E+04  0.22301431357E+03  0.19302516754E+04  0.10100000352E+00 0. -1.
       -3    1    3    3    0  502  0.80779645799E+03 -0.17388504877E+04  0.10180294028E+04  0.21708339437E+04  0.10100000352E+00 0.  1.
</event>
<event>
 5   0  0.1187925E-07  0.3732022E+04  0.7818609E-02  0.8060902E-01
        1   -1    0    0  501    0  0.00000000000E+00  0.00000000000E+00  0.21570577904E+04  0.21570577904E+04  0.50400001928E-02 0. -1.
       -1   -1    0    0    0  501  0.00000000000E+00  0.00000000000E+00 -0.16142340467E+04  0.16142340467E+04  0.50400001928E-02 0.  1.
    10030    2    1    2    0    0  0.00000000000E+00  0.00000000000E+00  0.54282374369E+03  0.37712918371E+04  0.37320215036E+04 0.  0.
        1    1    3    3  502    0 -0.14433627120E+04  0.19541167664E+03 -0.90727267154E+03  0.17159910671E+04  0.50400001928E-02 0.  1.
       -1    1    3    3    0  502  0.14433627120E+04 -0.19541167664E+03  0.14500964152E+04  0.20553007700E+04  0.50400001928E-02 0. -1.
</event>
<event>
 5   0  0.1187925E-07  0.3912436E+04  0.7818609E-02  0.8022448E-01
       -1   -1    0    0    0  501  0.00000000000E+00  0.00000000000E+00  0.20632673707E+04  0.20632673707E+04  0.50400001928E-02 0.  1.
        1   -1    0    0  501    0  0.00000000000E+00  0.00000000000E+00 -0.18547223197E+04  0.18547223197E+04  0.50400001928E-02 0. -1.
    10030    2    1    2    0    0  0.00000000000E+00  0.00000000000E+00  0.20854505096E+03  0.39179896904E+04  0.39124355811E+04 0.  0.
        4    1    3    3  502    0  0.18768555104E+04  0.21578691429E+03  0.61257148555E+03  0.19860503612E+04  0.12699999809E+01 0.  1.
       -4    1    3    3    0  502 -0.18768555104E+04 -0.21578691429E+03 -0.40402643459E+03  0.19319393293E+04  0.12699999809E+01 0. -1.
</event>
<event>
 5   0  0.1187925E-07  0.3896579E+04  0.7818609E-02  0.8025741E-01
       -1   -1    0    0    0  501  0.00000000000E+00  0.00000000000E+00  0.17996354684E+04  0.17996354684E+04  0.50400001928E-02 0.  1.
        1   -1    0    0  501    0  0.00000000000E+00  0.00000000000E+00 -0.21092222877E+04  0.21092222877E+04  0.50400001928E-02 0. -1.
    10030    2    1    2    0    0  0.00000000000E+00  0.00000000000E+00 -0.30958681931E+03  0.39088577561E+04  0.38965786222E+04 0.  0.
        5    1    3    3  502    0  0.19222279518E+04 -0.31558739516E+03 -0.19030902960E+03  0.19572417632E+04  0.46999998093E+01 0. -1.
       -5    1    3    3    0  502 -0.19222279518E+04  0.31558739516E+03 -0.11927778971E+03  0.19516159929E+04  0.46999998093E+01 0.  1.
</event>
<event>
 5   0  0.3810833E-07  0.3099045E+04  0.7818609E-02  0.8216000E-01
       -2   -1    0    0    0  501  0.00000000000E+00  0.00000000000E+00  0.13000879400E+04  0.13000879400E+04  0.25500000920E-02 0. -1.
        2   -1    0    0  501    0  0.00000000000E+00  0.00000000000E+00 -0.18468138206E+04  0.18468138206E+04  0.25500000920E-02 0.  1.
    10030    2    1    2    0    0  0.00000000000E+00  0.00000000000E+00 -0.54672588056E+03  0.31469017605E+04  0.30990452565E+04 0.  0.
        3    1    3    3  502    0 -0.14022911603E+04 -0.60817378992E+03 -0.53170174541E+03  0.16183332825E+04  0.10100000352E+00 0. -1.
       -3    1    3    3    0  502  0.14022911603E+04  0.60817378992E+03 -0.15024135148E+02  0.15285684780E+04  0.10100000352E+00 0.  1.
</event>
<event>
 5   0  0.1187925E-07  0.3587302E+04  0.7818609E-02  0.8093406E-01
       -1   -1    0    0    0  501  0.00000000000E+00  0.00000000000E+00  0.15826545677E+04  0.15826545677E+04  0.50400001928E-02 0. -1.
        1   -1    0    0  501    0  0.00000000000E+00  0.00000000000E+00 -0.20327774216E+04  0.20327774216E+04  0.50400001928E-02 0.  1.
    10030    2    1    2    0    0  0.00000000000E+00  0.00000000000E+00 -0.45012285392E+03  0.36154319893E+04  0.35873023131E+04 0.  0.
        1    1    3    3  502    0  0.15674850004E+03  0.15577329362E+03 -0.20190047989E+04  0.20310627241E+04  0.50400001928E-02 0.  1.
       -1    1    3    3    0  502 -0.15674850004E+03 -0.15577329362E+03  0.15688819450E+04  0.15843692652E+04  0.50400001928E-02 0. -1.
</event>
<event>
 5   0  0.3680814E-07  0.3365877E+04  0.7818609E-02  0.8146332E-01
       -2   -1    0    0    0  501  0.00000000000E+00  0.00000000000E+00  0.21417673803E+04  0.21417673803E+04  0.25500000920E-02 0.  1.
        2   -1    0    0  501    0  0.00000000000E+00  0.00000000000E+00 -0.13224044567E+04  0.13224044567E+04  0.25500000920E-02 0. -1.
    10030    2    1    2    0    0  0.00000000000E+00  0.00000000000E+00  0.81936292360E+03  0.34641718369E+04  0.33658774362E+04 0.  0.
        1    1    3    3  502    0  0.79905153054E+03  0.12198375030E+04 -0.45496919987E+03  0.15275745006E+04  0.50400001928E-02 0. -1.
       -1    1    3    3    0  502 -0.79905153054E+03 -0.12198375030E+04  0.12743321235E+04  0.19365973363E+04  0.50400001928E-02 0.  1.
</event>
<event>
 5   0  0.1187925E-07  0.3409040E+04  0.7818609E-02  0.8135691E-01
       -1   -1    0    0    0  501  0.00000000000E+00  0.00000000000E+00  0.15382425224E+04  0.15382425224E+04  0.50400001928E-02 0. -1.
        1   -1    0    0  501    0  0.00000000000E+00  0.00000000000E+00 -0.18887719063E+04  0.18887719063E+04  0.50400001928E-02 0.  1.
    10030    2    1    2    0    0  0.00000000000E+00  0.00000000000E+00 -0.35052938386E+03  0.34270144288E+04  0.34090404876E+04 0.  0.
        4    1    3    3  502    0 -0.18035626553E+03  0.16371331650E+03 -0.18711855717E+04  0.18869731024E+04  0.12699999809E+01 0.  1.
       -4    1    3    3    0  502  0.18035626553E+03 -0.16371331650E+03  0.15206561878E+04  0.15400413264E+04  0.12699999809E+01 0. -1.
</event>
<event>
 5   0  0.1187925E-07  0.3924840E+04  0.7818609E-02  0.8019883E-01
        1   -1    0    0  501    0  0.00000000000E+00  0.00000000000E+00  0.16867643144E+04  0.16867643144E+04  0.50400001928E-02 0. -1.
       -1   -1    0    0    0  501  0.00000000000E+00  0.00000000000E+00 -0.22831242183E+04  0.22831242183E+04  0.50400001928E-02 0.  1.
    10030    2    1    2    0    0  0.00000000000E+00  0.00000000000E+00 -0.59635990393E+03  0.39698885328E+04  0.39248401022E+04 0.  0.
        5    1    3    3  502    0  0.72637817156E+03 -0.14668188016E+04 -0.13931427058E+04  0.21494304673E+04  0.46999998093E+01 0.  1.
       -5    1    3    3    0  502 -0.72637817156E+03  0.14668188016E+04  0.79678280188E+03  0.18204580655E+04  0.46999998093E+01 0. -1.
</event>
<event>
 5   0  0.1187925E-07  0.3781461E+04  0.7818609E-02  0.8050145E-01
        1   -1    0    0  501    0  0.00000000000E+00  0.00000000000E+00  0.10995251506E+04  0.10995251506E+04  0.50400001928E-02 0. -1.
       -1   -1    0    0    0  501  0.00000000000E+00  0.00000000000E+00 -0.32512784318E+04  0.32512784318E+04  0.50400001928E-02 0.  1.
    10030    2    1    2    0    0  0.00000000000E+00  0.00000000000E+00 -0.21517532812E+04  0.43508035824E+04  0.37814613088E+04 0.  0.
        2    1    3    3  502    0 -0.17470163511E+04  0.12703278303E+03 -0.25690724058E+03  0.17703685461E+04  0.25500000920E-02 0. -1.
       -2    1    3    3    0  502  0.17470163511E+04 -0.12703278303E+03 -0.18948460406E+04  0.25804350363E+04  0.25500000920E-02 0.  1.
</event>
<event>
 5   0  0.1187925E-07  0.3870752E+04  0.7818609E-02  0.8031140E-01
       -1   -1    0    0    0  501  0.00000000000E+00  0.00000000000E+00  0.24288971721E+04  0.24288971721E+04  0.50400001928E-02 0. -1.
        1   -1    0    0  501    0  0.00000000000E+00  0.00000000000E+00 -0.15421319614E+04  0.15421319614E+04  0.50400001928E-02 0.  1.
    10030    2    1    2    0    0  0.00000000000E+00  0.00000000000E+00  0.88676521070E+03  0.39710291336E+04  0.38707518444E+04 0.  0.
        4    1    3    3  502    0  0.87230486869E+03 -0.39143343986E+03  0.21696945697E+04  0.23710149853E+04  0.12699999809E+01 0. -1.
       -4    1    3    3    0  502 -0.87230486869E+03  0.39143343986E+03 -0.12829293590E+04  0.16000141483E+04  0.12699999809E+01 0.  1.
</event>
<event>
 5   0  0.1187925E-07  0.3897198E+04  0.7818609E-02  0.8025612E-01
       -1   -1    0    0    0  501  0.00000000000E+00  0.00000000000E+00  0.28448478272E+04  0.28448478272E+04  0.50400001928E-02 0.  1.
        1   -1    0    0  501    0  0.00000000000E+00  0.00000000000E+00 -0.13347070274E+04  0.13347070274E+04  0.50400001928E-02 0. -1.
    10030    2    1    2    0    0  0.00000000000E+00  0.00000000000E+00  0.15101407998E+04  0.41795548546E+04  0.38971981663E+04 0.  0.
        5    1    3    3  502    0 -0.16176913456E+04  0.10245447339E+04  0.36779953142E+03  0.19498501959E+04  0.46999998093E+01 0.  1.
       -5    1    3    3    0  502  0.16176913456E+04 -0.10245447339E+04  0.11423412684E+04  0.22297046586E+04  0.46999998093E+01 0. -1.
</event>
<event>
 5   0  0.3665303E-07  0.3171799E+04  0.7818609E-02  0.8196305E-01
        2   -1    0    0  501    0  0.00000000000E+00  0.00000000000E+00  0.22185315997E+04  0.22185315997E+04  0.25500000920E-02 0.  1.
       -2   -1    0    0    0  501  0.00000000000E+00  0.00000000000E+00 -0.11336673222E+04  0.11336673222E+04  0.25500000920E-02 0. -1.
    10030    2    1    2    0    0  0.00000000000E+00  0.00000000000E+00  0.10848642775E+04  0.33521989219E+04  0.31717987186E+04 0.  0.
        2    1    3    3  502    0 -0.56113443091E+02  0.92039415548E+03  0.19060903849E+04  0.21174169819E+04  0.25500000920E-02 0.  1.
       -2    1    3    3    0  502  0.56113443091E+02 -0.92039415548E+03 -0.82122610737E+03  0.12347819400E+04  0.25500000920E-02 0. -1.
</event>
<event>
 5   0  0.1187925E-07  0.3921184E+04  0.7818609E-02  0.8020638E-01
       -1   -1    0    0    0  501  0.00000000000E+00  0.00000000000E+00  0.26776199695E+04  0.26776199695E+04  0.50400001928E-02 0. -1.
        1   -1    0    0  501    0  0.00000000000E+00  0.00000000000E+00 -0.14355736576E+04  0.14355736576E+04  0.50400001928E-02 0.  1.
    10030    2    1    2    0    0  0.00000000000E+00  0.00000000000E+00  0.12420463120E+04  0.41131936271E+04  0.39211838484E+04 0.  0.
        1    1    3    3  502    0 -0.36501913114E+02  0.58173068658E+03 -0.13425858290E+04  0.14636528583E+04  0.50400001928E-02 0.  1.
       -1    1    3    3    0  502  0.36501913114E+02 -0.58173068658E+03  0.25846321410E+04  0.26495407688E+04  0.50400001928E-02 0. -1.
</event>
<event>
 5   0  0.1187925E-07  0.3841301E+04  0.7818609E-02  0.8037349E-01
       -1   -1    0    0    0  501  0.00000000000E+00  0.00000000000E+00  0.20088435962E+04  0.20088435963E+04  0.50400001928E-02 0.  1.
        1   -1    0    0  501    0  0.00000000000E+00  0.00000000000E+00 -0.18363295391E+04  0.18363295392E+04  0.50400001928E-02 0. -1.
    10030    2    1    2    0    0  0.00000000000E+00  0.00000000000E+00  0.17251405710E+03  0.38451731354E+04  0.38413012563E+04 0.  0.
        1    1    3    3  502    0  0.48175286419E+03  0.11012359963E+03  0.19441142671E+04  0.20059395088E+04  0.50400001928E-02 0.  1.
       -1    1    3    3    0  502 -0.48175286419E+03 -0.11012359963E+03 -0.17716002100E+04  0.18392336266E+04  0.50400001928E-02 0. -1.
</event>
<event>
 5   0  0.1187925E-07  0.2804464E+04  0.7818609E-02  0.8301884E-01
        1   -1    0    0  501    0  0.00000000000E+00  0.00000000000E+00  0.21437938176E+04  0.21437938176E+04  0.50400001928E-02 0.  1.
       -1   -1    0    0    0  501  0.00000000000E+00  0.00000000000E+00 -0.91718459911E+03  0.91718459912E+03  0.50400001928E-02 0. -1.
    10030    2    1    2    0    0  0.00000000000E+00  0.00000000000E+00  0.12266092185E+04  0.30609784167E+04  0.28044640652E+04 0.  0.
        1    1    3    3  502    0  0.26727417850E+03 -0.92792657076E+03 -0.49643901380E+03  0.10857876872E+04  0.50400001928E-02 0. -1.
       -1    1    3    3    0  502 -0.26727417850E+03  0.92792657076E+03  0.17230482323E+04  0.19751907295E+04  0.50400001928E-02 0.  1.
</event>
<event>
 5   0  0.3610483E-07  0.3827972E+04  0.7818609E-02  0.8040179E-01
        2   -1    0    0  501    0  0.00000000000E+00  0.00000000000E+00  0.23135847872E+04  0.23135847872E+04  0.25500000920E-02 0.  1.
       -2   -1    0    0    0  501  0.00000000000E+00  0.00000000000E+00 -0.15834052776E+04  0.15834052776E+04  0.25500000920E-02 0. -1.
    10030    2    1    2    0    0  0.00000000000E+00  0.00000000000E+00  0.73017950955E+03  0.38969900648E+04  0.38279719760E+04 0.  0.
        4    1    3    3  502    0 -0.15564033552E+04 -0.73578545731E+03 -0.48639300672E+03  0.17889526023E+04  0.12699999809E+01 0. -1.
       -4    1    3    3    0  502  0.15564033552E+04  0.73578545731E+03  0.12165725163E+04  0.21080374626E+04  0.12699999809E+01 0.  1.
</event>
<event>
 5   0  0.1187925E-07  0.3886082E+04  0.7818609E-02  0.8027930E-01
       -1   -1    0    0    0  501  0.00000000000E+00  0.00000000000E+00  0.14410127747E+04  0.14410127748E+04  0.50400001928E-02 0. -1.
        1   -1    0    0  501    0  0.00000000000E+00  0.00000000000E+00 -0.26199688188E+04  0.26199688188E+04  0.50400001928E-02 0.  1.
    10030    2    1    2    0    0  0.00000000000E+00  0.00000000000E+00 -0.11789560441E+04  0.40609815936E+04  0.38860821079E+04 0.  0.
        3    1    3    3  502    0  0.10318255349E+04 -0.89830233751E+03  0.85240299783E+03  0.16118938876E+04  0.10100000352E+00 0. -1.
       -3    1    3    3    0  502 -0.10318255349E+04  0.89830233751E+03 -0.20313590419E+04  0.24490877059E+04  0.10100000352E+00 0.  1.
</event>
<event>
 5   0  0.3610483E-07  0.3946065E+04  0.7818609E-02  0.8015516E-01
        2   -1    0    0  501    0  0.00000000000E+00  0.00000000000E+00  0.21012469306E+04  0.21012469306E+04  0.25500000920E-02 0. -1.
       -2   -1    0    0    0  501  0.00000000000E+00  0.00000000000E+00 -0.18526418245E+04  0.18526418245E+04  0.25500000920E-02 0.  1.
    10030    2    1    2    0    0  0.00000000000E+00  0.00000000000E+00  0.24860510612E+03  0.39538887550E+04  0.39460653553E+04 0.  0.
        4    1    3    3  502    0  0.12903399084E+04 -0.11429815922E+04  0.10861392057E+04  0.20374209154E+04  0.12699999809E+01 0. -1.
       -4    1    3    3    0  502 -0.12903399084E+04  0.11429815922E+04 -0.83753409960E+03  0.19164678396E+04  0.12699999809E+01 0.  1.
</event>
<event>
 5   0  0.3810833E-07  0.3109958E+04  0.7818609E-02  0.8213010E-01
       -2   -1    0    0    0  501  0.00000000000E+00  0.00000000000E+00  0.16238452969E+04  0.16238452969E+04  0.25500000920E-02 0.  1.
        2   -1    0    0  501    0  0.00000000000E+00  0.00000000000E+00 -0.14890333773E+04  0.14890333773E+04  0.25500000920E-02 0. -1.
    10030    2    1    2    0    0  0.00000000000E+00  0.00000000000E+00  0.13481191962E+03  0.31128786743E+04  0.31099581005E+04 0.  0.
        3    1    3    3  502    0 -0.43699692102E+03 -0.37020297434E+03  0.15144272023E+04  0.16191066403E+04  0.10100000352E+00 0.  1.
       -3    1    3    3    0  502  0.43699692102E+03  0.37020297434E+03 -0.13796152827E+04  0.14937720340E+04  0.10100000352E+00 0. -1.
</event>
<event>
 5   0  0.3680814E-07  0.3889844E+04  0.7818609E-02  0.8027145E-01
        2   -1    0    0  501    0  0.00000000000E+00  0.00000000000E+00  0.19034884570E+04  0.19034884570E+04  0.25500000920E-02 0.  1.
       -2   -1    0    0    0  501  0.00000000000E+00  0.00000000000E+00 -0.19872576898E+04  0.19872576898E+04  0.25500000920E-02 0. -1.
    10030    2    1    2    0    0  0.00000000000E+00  0.00000000000E+00 -0.83769232742E+02  0.38907461468E+04  0.38898442507E+04 0.  0.
        1    1    3    3  502    0  0.19273848051E+04  0.16801245394E+03  0.15736423674E+03  0.19410831704E+04  0.50400001928E-02 0. -1.
       -1    1    3    3    0  502 -0.19273848051E+04 -0.16801245394E+03 -0.24113346948E+03  0.19496629764E+04  0.50400001928E-02 0.  1.
</event>
<event>
 5   0  0.3610483E-07  0.3815937E+04  0.7818609E-02  0.8042744E-01
       -2   -1    0    0    0  501  0.00000000000E+00  0.00000000000E+00  0.16295217132E+04  0.16295217132E+04  0.25500000920E-02 0.  1.
        2   -1    0    0  501    0  0.00000000000E+00  0.00000000000E+00 -0.22339950546E+04  0.22339950546E+04  0.25500000920E-02 0. -1.
    10030    2    1    2    0    0  0.00000000000E+00  0.00000000000E+00 -0.60447334147E+03  0.38635167678E+04  0.38159368174E+04 0.  0.
        4    1    3    3  502    0  0.44408699745E+03 -0.13733282396E+04  0.96115967521E+03  0.17340914766E+04  0.12699999809E+01 0.  1.
       -4    1    3    3    0  502 -0.44408699745E+03  0.13733282396E+04 -0.15656330167E+04  0.21294252912E+04  0.12699999809E+01 0. -1.
</event>
<event>
 5   0  0.1187925E-07  0.3924998E+04  0.7818609E-02  0.8019850E-01
        1   -1    0    0  501    0  0.00000000000E+00  0.00000000000E+00  0.22137731579E+04  0.22137731580E+04  0.50400001928E-02 0.  1.
       -1   -1    0    0    0  501  0.00000000000E+00  0.00000000000E+00 -0.17397452921E+04  0.17397452921E+04  0.50400001928E-02 0. -1.
    10030    2    1    2    0    0  0.00000000000E+00  0.00000000000E+00  0.47402786583E+03  0.39535184501E+04  0.39249975436E+04 0.  0.
        3    1    3    3  502    0 -0.30710236150E+03  0.50143974316E+03  0.21229567390E+04  0.22028842463E+04  0.10100000352E+00 0.  1.
       -3    1    3    3    0  502  0.30710236150E+03 -0.50143974316E+03 -0.16489288732E+04  0.17506342038E+04  0.10100000352E+00 0. -1.
</event>
<event>
 5   0  0.3810833E-07  0.3918659E+04  0.7818609E-02  0.8021160E-01
        2   -1    0    0  501    0  0.00000000000E+00  0.00000000000E+00  0.14896412240E+04  0.14896412240E+04  0.25500000920E-02 0. -1.
       -2   -1    0    0    0  501  0.00000000000E+00  0.00000000000E+00 -0.25771118365E+04  0.25771118365E+04  0.25500000920E-02 0.  1.
    10030    2    1    2    0    0  0.00000000000E+00  0.00000000000E+00 -0.10874706125E+04  0.40667530605E+04  0.39186589698E+04 0.  0.
        3    1    3    3  502    0 -0.10741048133E+04 -0.14093986528E+04  0.32384040396E+03  0.18013823386E+04  0.10100000352E+00 0. -1.
       -3    1    3    3    0  502  0.10741048133E+04  0.14093986528E+04 -0.14113110165E+04  0.22653707219E+04  0.10100000352E+00 0.  1.
</event>
<event>
 5   0  0.1187925E-07  0.3915596E+04  0.7818609E-02  0.8021793E-01
        1   -1    0    0  501    0  0.00000000000E+00  0.00000000000E+00  0.12834273911E+04  0.12834273911E+04  0.50400001928E-02 0.  1.
       -1   -1    0    0    0  501  0.00000000000E+00  0.00000000000E+00 -0.29865134271E+04  0.29865134272E+04  0.50400001928E-02 0. -1.
    10030    2    1    2    0    0  0.00000000000E+00  0.00000000000E+00 -0.17030860361E+04  0.42699408182E+04  0.39155960651E+04 0.  0.
        3    1    3    3  502    0  0.71819406922E+03 -0.16084343756E+04  0.80246674488E+02  0.17633216951E+04  0.10100000352E+00 0.  1.
       -3    1    3    3    0  502 -0.71819406922E+03  0.16084343756E+04 -0.17833327106E+04  0.25066191231E+04  0.10100000352E+00 0. -1.
</event>
<event>
 5   0  0.3610483E-07  0.3678101E+04  0.7818609E-02  0.8072832E-01
        2   -1    0    0  501    0  0.00000000000E+00  0.00000000000E+00  0.15471323757E+04  0.15471323757E+04  0.25500000920E-02 0. -1.
       -2   -1    0    0    0  501  0.00000000000E+00  0.00000000000E+00 -0.21860487687E+04  0.21860487687E+04  0.25500000920E-02 0.  1.
    10030    2    1    2    0    0  0.00000000000E+00  0.00000000000E+00 -0.63891639304E+03  0.37331811445E+04  0.36781010454E+04 0.  0.
        4    1    3    3  502    0  0.16464167254E+04  0.39946653468E+03  0.40668801230E+03  0.17423140642E+04  0.12699999809E+01 0. -1.
       -4    1    3    3    0  502 -0.16464167254E+04 -0.39946653468E+03 -0.10456044053E+04  0.19908670803E+04  0.12699999809E+01 0.  1.
</event>
<event>
 5   0  0.3665303E-07  0.4014768E+04  0.7818609E-02  0.8001574E-01
        2   -1    0    0  501    0  0.00000000000E+00  0.00000000000E+00  0.13276652816E+04  0.13276652816E+04  0.25500000920E-02 0. -1.
       -2   -1    0    0    0  501  0.00000000000E+00  0.00000000000E+00 -0.30350952378E+04  0.30350952378E+04  0.25500000920E-02 0.  1.
    10030    2    1    2    0    0  0.00000000000E+00  0.00000000000E+00 -0.17074299562E+04  0.43627605193E+04  0.40147680249E+04 0.  0.
        2    1    3    3  502    0  0.87147820801E+02 -0.39630235664E+03 -0.29900645166E+04  0.30174718083E+04  0.25500000920E-02 0.  1.
       -2    1    3    3    0  502 -0.87147820801E+02  0.39630235664E+03  0.12826345604E+04  0.13452887110E+04  0.25500000920E-02 0. -1.
</event>
<event>
 5   0  0.3680814E-07  0.3903950E+04  0.7818609E-02  0.8024208E-01
        2   -1    0    0  501    0  0.00000000000E+00  0.00000000000E+00  0.22271380369E+04  0.22271380369E+04  0.25500000920E-02 0. -1.
       -2   -1    0    0    0  501  0.00000000000E+00  0.00000000000E+00 -0.17108081964E+04  0.17108081964E+04  0.25500000920E-02 0.  1.
    10030    2    1    2    0    0  0.00000000000E+00  0.00000000000E+00  0.51632984056E+03  0.39379462333E+04  0.39039497989E+04 0.  0.
        1    1    3    3  502    0  0.11529991472E+04  0.99682215054E+03 -0.97193999355E+03  0.18076860304E+04  0.50400001928E-02 0.  1.
       -1    1    3    3    0  502 -0.11529991472E+04 -0.99682215054E+03  0.14882698341E+04  0.21302602030E+04  0.50400001928E-02 0. -1.
</event>
<event>
 5   0  0.3680814E-07  0.3857589E+04  0.7818609E-02  0.8033908E-01
        2   -1    0    0  501    0  0.00000000000E+00  0.00000000000E+00  0.22090591971E+04  0.22090591971E+04  0.25500000920E-02 0. -1.
       -2   -1    0    0    0  501  0.00000000000E+00  0.00000000000E+00 -0.16840873400E+04  0.16840873400E+04  0.25500000920E-02 0.  1.
    10030    2    1    2    0    0  0.00000000000E+00  0.00000000000E+00  0.52497185718E+03  0.38931465371E+04  0.38575892094E+04 0.  0.
        1    1    3    3  502    0 -0.13099640157E+04  0.14109009503E+04  0.14478584028E+03  0.19307019846E+04  0.50400001928E-02 0. -1.
       -1    1    3    3    0  502  0.13099640157E+04 -0.14109009503E+04  0.38018601690E+03  0.19624445524E+04  0.50400001928E-02 0.  1.
</event>
<event>
 5   0  0.3665303E-07  0.3792325E+04  0.7818609E-02  0.8047804E-01
        2   -1    0    0  501    0  0.00000000000E+00  0.00000000000E+00  0.20689781887E+04  0.20689781887E+04  0.25500000920E-02 0. -1.
       -2   -1    0    0    0  501  0.00000000000E+00  0.00000000000E+00 -0.17377818234E+04  0.17377818234E+04  0.25500000920E-02 0.  1.
    10030    2    1    2    0    0  0.00000000000E+00  0.00000000000E+00  0.33119636529E+03  0.38067600120E+04  0.37923252441E+04 0.  0.
        2    1    3    3  502    0  0.68459717249E+03 -0.17466846412E+04  0.44205920640E+03  0.19274327138E+04  0.25500000920E-02 0. -1.
       -2    1    3    3    0  502 -0.68459717249E+03  0.17466846412E+04 -0.11086284111E+03  0.18793272982E+04  0.25500000920E-02 0.  1.
</event>
<event>
 5   0  0.1187925E-07  0.3657061E+04  0.7818609E-02  0.8077545E-01
        1   -1    0    0  501    0  0.00000000000E+00  0.00000000000E+00  0.26526049947E+04  0.26526049947E+04  0.50400001928E-02 0. -1.
       -1   -1    0    0    0  501  0.00000000000E+00  0.00000000000E+00 -0.12604681375E+04  0.12604681375E+04  0.50400001928E-02 0.  1.
    10030    2    1    2    0    0  0.00000000000E+00  0.00000000000E+00  0.13921368572E+04  0.39130731322E+04  0.36570611573E+04 0.  0.
        2    1    3    3  502    0  0.54744683066E+02  0.12014359383E+04  0.21698340616E+04  0.24808516983E+04  0.25500000920E-02 0. -1.
       -2    1    3    3    0  502 -0.54744683066E+02 -0.12014359383E+04 -0.77769720435E+03  0.14322214339E+04  0.25500000920E-02 0.  1.
</event>
<event>
 5   0  0.1187925E-07  0.3947946E+04  0.7818609E-02  0.8015131E-01
       -1   -1    0    0    0  501  0.00000000000E+00  0.00000000000E+00  0.19410779459E+04  0.19410779459E+04  0.50400001928E-02 0. -1.
        1   -1    0    0  501    0  0.00000000000E+00  0.00000000000E+00 -0.20074252936E+04  0.20074252936E+04  0.50400001928E-02 0.  1.
    10030    2    1    2    0    0  0.00000000000E+00  0.00000000000E+00 -0.66347347647E+02  0.39485032395E+04  0.39479457775E+04 0.  0.
        2    1    3    3  502    0 -0.38288366729E+03  0.76085979069E+03  0.17478252122E+04  0.19443252033E+04  0.25500000920E-02 0. -1.
       -2    1    3    3    0  502  0.38288366729E+03 -0.76085979069E+03 -0.18141725599E+04  0.20041780362E+04  0.25500000920E-02 0.  1.
</event>
<event>
 5   0  0.1187925E-07  0.3919966E+04  0.7818609E-02  0.8020889E-01
        1   -1    0    0  501    0  0.00000000000E+00  0.00000000000E+00  0.18514084004E+04  0.18514084004E+04  0.50400001928E-02 0.  1.
       -1   -1    0    0    0  501  0.00000000000E+00  0.00000000000E+00 -0.20749251441E+04  0.20749251441E+04  0.50400001928E-02 0. -1.
    10030    2    1    2    0    0  0.00000000000E+00  0.00000000000E+00 -0.22351674373E+03  0.39263335445E+04  0.39199662458E+04 0.  0.
        4    1    3    3  502    0 -0.26536748176E+03 -0.16170422241E+04 -0.11888127790E+04  0.20244808943E+04  0.12699999809E+01 0. -1.
       -4    1    3    3    0  502  0.26536748176E+03  0.16170422241E+04  0.96529603524E+03  0.19018526503E+04  0.12699999809E+01 0.  1.
</event>
<event>
 5   0  0.1187925E-07  0.3777731E+04  0.7818609E-02  0.8050951E-01
       -1   -1    0    0    0  501  0.00000000000E+00  0.00000000000E+00  0.15579914115E+04  0.15579914115E+04  0.50400001928E-02 0.  1.
        1   -1    0    0  501    0  0.00000000000E+00  0.00000000000E+00 -0.22900083581E+04  0.22900083582E+04  0.50400001928E-02 0. -1.
    10030    2    1    2    0    0  0.00000000000E+00  0.00000000000E+00 -0.73201694668E+03  0.38479997696E+04  0.37777312526E+04 0.  0.
        5    1    3    3  502    0 -0.53881628911E+03 -0.14490898837E+04  0.73935250002E+03  0.17137236340E+04  0.46999998093E+01 0.  1.
       -5    1    3    3    0  502  0.53881628911E+03  0.14490898837E+04 -0.14713694467E+04  0.21342761356E+04  0.46999998093E+01 0. -1.
</event>
<event>
 5   0  0.1187925E-07  0.3765070E+04  0.7818609E-02  0.8053693E-01
        1   -1    0    0  501    0  0.00000000000E+00  0.00000000000E+00  0.24021467547E+04  0.24021467547E+04  0.50400001928E-02 0. -1.
       -1   -1    0    0    0  501  0.00000000000E+00  0.00000000000E+00 -0.14753214043E+04  0.14753214043E+04  0.50400001928E-02 0.  1.
    10030    2    1    2    0    0  0.00000000000E+00  0.00000000000E+00  0.92682535036E+03  0.38774681590E+04  0.37650702642E+04 0.  0.
        5    1    3    3  502    0 -0.12627308548E+04 -0.12264583658E+04  0.11505854578E+04  0.21029879506E+04  0.46999998093E+01 0. -1.
       -5    1    3    3    0  502  0.12627308548E+04  0.12264583658E+04 -0.22376010740E+03  0.17744802085E+04  0.46999998093E+01 0.  1.
</event>
<event>
 5   0  0.3810833E-07  0.3931522E+04  0.7818609E-02  0.8018505E-01
       -2   -1    0    0    0  501  0.00000000000E+00  0.00000000000E+00  0.26758390090E+04  0.26758390090E+04  0.25500000920E-02 0. -1.
        2   -1    0    0  501    0  0.00000000000E+00  0.00000000000E+00 -0.14441139274E+04  0.14441139274E+04  0.25500000920E-02 0.  1.
    10030    2    1    2    0    0  0.00000000000E+00  0.00000000000E+00  0.12317250816E+04  0.41199529364E+04  0.39315220362E+04 0.  0.
        3    1    3    3  502    0  0.10407790041E+04  0.28616086298E+03 -0.11057746008E+04  0.15452658194E+04  0.10100000352E+00 0.  1.
       -3    1    3    3    0  502 -0.10407790041E+04 -0.28616086298E+03  0.23374996824E+04  0.25746871169E+04  0.10100000352E+00 0. -1.
</event>
<event>
 5   0  0.3810833E-07  0.2991970E+04  0.7818609E-02  0.8246028E-01
       -2   -1    0    0    0  501  0.00000000000E+00  0.00000000000E+00  0.10153309069E+04  0.10153309069E+04  0.25500000920E-02 0. -1.
        2   -1    0    0  501    0  0.00000000000E+00  0.00000000000E+00 -0.22041796373E+04  0.22041796373E+04  0.25500000920E-02 0.  1.
    10030    2    1    2    0    0  0.00000000000E+00  0.00000000000E+00 -0.11888487304E+04  0.32195105442E+04  0.29919703943E+04 0.  0.
        3    1    3    3  502    0 -0.51539473431E+03  0.12905219956E+04 -0.11905338246E+04  0.18298769224E+04  0.10100000352E+00 0.  1.
       -3    1    3    3    0  502  0.51539473431E+03 -0.12905219956E+04  0.16850941800E+01  0.13896336219E+04  0.10100000352E+00 0. -1.
</event>
<event>
 5   0  0.1187925E-07  0.3361089E+04  0.7818609E-02  0.8147523E-01
        3   -1    0    0  501    0  0.00000000000E+00  0.00000000000E+00  0.26451306567E+04  0.26451306586E+04  0.10100000352E+00 0. -1.
       -3   -1    0    0    0  501  0.00000000000E+00  0.00000000000E+00 -0.10677089914E+04  0.10677089962E+04  0.10100000352E+00 0.  1.
    10030    2    1    2    0    0  0.00000000000E+00  0.00000000000E+00  0.15774216653E+04  0.37128396548E+04  0.33610889890E+04 0.  0.
        4    1    3    3  502    0 -0.11267338018E+04 -0.31988687110E+03  0.21199774568E+04  0.24220162470E+04  0.12699999809E+01 0. -1.
       -4    1    3    3    0  502  0.11267338018E+04  0.31988687110E+03 -0.54255579151E+03  0.12908234078E+04  0.12699999809E+01 0.  1.
</event>
<event>
 5   0  0.3680814E-07  0.3809486E+04  0.7818609E-02  0.8044122E-01
       -2   -1    0    0    0  501  0.00000000000E+00  0.00000000000E+00  0.13531090316E+04  0.13531090316E+04  0.25500000920E-02 0.  1.
        2   -1    0    0  501    0  0.00000000000E+00  0.00000000000E+00 -0.26812660593E+04  0.26812660593E+04  0.25500000920E-02 0. -1.
    10030    2    1    2    0    0  0.00000000000E+00  0.00000000000E+00 -0.13281570277E+04  0.40343750908E+04  0.38094856980E+04 0.  0.
        1    1    3    3  502    0 -0.12921482453E+04  0.10962524155E+04  0.25711608244E+03  0.17139209801E+04  0.50400001928E-02 0.  1.
       -1    1    3    3    0  502  0.12921482453E+04 -0.10962524155E+04 -0.15852731102E+04  0.23204541107E+04  0.50400001928E-02 0. -1.
</event>
<event>
 5   0  0.1187925E-07  0.3908328E+04  0.7818609E-02  0.8023299E-01
       -1   -1    0    0    0  501  0.00000000000E+00  0.00000000000E+00  0.27302259689E+04  0.27302259689E+04  0.50400001928E-02 0.  1.
        1   -1    0    0  501    0  0.00000000000E+00  0.00000000000E+00 -0.13986959536E+04  0.13986959536E+04  0.50400001928E-02 0. -1.
    10030    2    1    2    0    0  0.00000000000E+00  0.00000000000E+00  0.13315300153E+04  0.41289219225E+04  0.39083275273E+04 0.  0.
        2    1    3    3  502    0 -0.15192744737E+04 -0.11457893982E+04  0.11355287830E+04  0.22159543968E+04  0.25500000920E-02 0.  1.
       -2    1    3    3    0  502  0.15192744737E+04  0.11457893982E+04  0.19600123227E+03  0.19129675258E+04  0.25500000920E-02 0. -1.
</event>
<event>
 5   0  0.3810833E-07  0.3897049E+04  0.7818609E-02  0.8025643E-01
        2   -1    0    0  501    0  0.00000000000E+00  0.00000000000E+00  0.13831895359E+04  0.13831895359E+04  0.25500000920E-02 0.  1.
       -2   -1    0    0    0  501  0.00000000000E+00  0.00000000000E+00 -0.27449216066E+04  0.27449216066E+04  0.25500000920E-02 0. -1.
    10030    2    1    2    0    0  0.00000000000E+00  0.00000000000E+00 -0.13617320706E+04  0.41281111425E+04  0.38970485463E+04 0.  0.
        3    1    3    3  502    0  0.68251343143E+03 -0.15366025281E+04 -0.17240263089E+04  0.24081608413E+04  0.10100000352E+00 0. -1.
       -3    1    3    3    0  502 -0.68251343143E+03  0.15366025281E+04  0.36229423825E+03  0.17199503012E+04  0.10100000352E+00 0.  1.
</event>
<event>
 5   0  0.3610483E-07  0.3936900E+04  0.7818609E-02  0.8017398E-01
       -2   -1    0    0    0  501  0.00000000000E+00  0.00000000000E+00  0.15921491351E+04  0.15921491351E+04  0.25500000920E-02 0.  1.
        2   -1    0    0  501    0  0.00000000000E+00  0.00000000000E+00 -0.24336881886E+04  0.24336881886E+04  0.25500000920E-02 0. -1.
    10030    2    1    2    0    0  0.00000000000E+00  0.00000000000E+00 -0.84153905358E+03  0.40258373237E+04  0.39368995642E+04 0.  0.
        4    1    3    3  502    0 -0.18699607095E+04 -0.16975304897E+03  0.18353213743E+03  0.18865987414E+04  0.12699999809E+01 0. -1.
       -4    1    3    3    0  502  0.18699607095E+04  0.16975304897E+03 -0.10250711910E+04  0.21392385823E+04  0.12699999809E+01 0.  1.
</event>
<event>
 5   0  0.3832389E-07  0.3902429E+04  0.7818609E-02  0.8024524E-01
        2   -1    0    0  501    0  0.00000000000E+00  0.00000000000E+00  0.16935840993E+04  0.16935840993E+04  0.25500000920E-02 0.  1.
       -2   -1    0    0    0  501  0.00000000000E+00  0.00000000000E+00 -0.22480360535E+04  0.22480360535E+04  0.25500000920E-02 0. -1.
    10030    2    1    2    0    0  0.00000000000E+00  0.00000000000E+00 -0.55445195419E+03  0.39416201528E+04  0.39024290461E+04 0.  0.
        5    1    3    3  502    0 -0.90396674598E+03  0.15118407484E+04  0.57048677928E+03  0.18515657109E+04  0.46999998093E+01 0.  1.
       -5    1    3    3    0  502  0.90396674598E+03 -0.15118407484E+04 -0.11249387335E+04  0.20900544420E+04  0.46999998093E+01 0. -1.
</event>
<event>
 5   0  0.1187925E-07  0.3836817E+04  0.7818609E-02  0.8038300E-01
       -1   -1    0    0    0  501  0.00000000000E+00  0.00000000000E+00  0.16684223003E+04  0.16684223003E+04  0.50400001928E-02 0.  1.
        1   -1    0    0  501    0  0.00000000000E+00  0.00000000000E+00 -0.22058510050E+04  0.22058510050E+04  0.50400001928E-02 0. -1.
    10030    2    1    2    0    0  0.00000000000E+00  0.00000000000E+00 -0.53742870464E+03  0.38742733053E+04  0.38368169140E+04 0.  0.
        1    1    3    3  502    0  0.18604449482E+04 -0.31552159183E+03  0.80321408358E+02  0.18887193568E+04  0.50400001928E-02 0.  1.
       -1    1    3    3    0  502 -0.18604449482E+04  0.31552159183E+03 -0.61775011300E+03  0.19855539485E+04  0.50400001928E-02 0. -1.
</event>
<event>
 5   0  0.1187925E-07  0.3884661E+04  0.7818609E-02  0.8028227E-01
        1   -1    0    0  501    0  0.00000000000E+00  0.00000000000E+00  0.22986641807E+04  0.22986641807E+04  0.50400001928E-02 0. -1.
       -1   -1    0    0    0  501  0.00000000000E+00  0.00000000000E+00 -0.16412351769E+04  0.16412351769E+04  0.50400001928E-02 0.  1.
    10030    2    1    2    0    0  0.00000000000E+00  0.00000000000E+00  0.65742900379E+03  0.39398993577E+04  0.38846613821E+04 0.  0.
        3    1    3    3  502    0  0.12292735768E+04  0.12151535449E+04 -0.56985012063E+03  0.18200112182E+04  0.10100000352E+00 0.  1.
       -3    1    3    3    0  502 -0.12292735768E+04 -0.12151535449E+04  0.12272791244E+04  0.21198881394E+04  0.10100000352E+00 0. -1.
</event>
<event>
 5   0  0.1187925E-07  0.3582701E+04  0.7818609E-02  0.8094466E-01
       -1   -1    0    0    0  501  0.00000000000E+00  0.00000000000E+00  0.16961792749E+04  0.16961792749E+04  0.50400001928E-02 0.  1.
        1   -1    0    0  501    0  0.00000000000E+00  0.00000000000E+00 -0.18918619183E+04  0.18918619183E+04  0.50400001928E-02 0. -1.
    10030    2    1    2    0    0  0.00000000000E+00  0.00000000000E+00 -0.19568264337E+03  0.35880411932E+04  0.35827012026E+04 0.  0.
        4    1    3    3  502    0  0.14897794056E+04 -0.88168850392E+03 -0.55909056098E+03  0.18191759573E+04  0.12699999809E+01 0.  1.
       -4    1    3    3    0  502 -0.14897794056E+04  0.88168850392E+03  0.36340791760E+03  0.17688652359E+04  0.12699999809E+01 0. -1.
</event>
<event>
 5   0  0.1187925E-07  0.4018550E+04  0.7818609E-02  0.8000815E-01
        1   -1    0    0  501    0  0.00000000000E+00  0.00000000000E+00  0.19305131857E+04  0.19305131857E+04  0.50400001928E-02 0. -1.
       -1   -1    0    0    0  501  0.00000000000E+00  0.00000000000E+00 -0.20912502541E+04  0.20912502541E+04  0.50400001928E-02 0.  1.
    10030    2    1    2    0    0  0.00000000000E+00  0.00000000000E+00 -0.16073706847E+03  0.40217634398E+04  0.40185500819E+04 0.  0.
        5    1    3    3  502    0 -0.12235400966E+04  0.97448445757E+03  0.11817877191E+04  0.19604373566E+04  0.46999998093E+01 0. -1.
       -5    1    3    3    0  502  0.12235400966E+04 -0.97448445757E+03 -0.13425247876E+04  0.20613260832E+04  0.46999998093E+01 0.  1.
</event>
<event>
 5   0  0.3810833E-07  0.3011113E+04  0.7818609E-02  0.8240565E-01
        2   -1    0    0  501    0  0.00000000000E+00  0.00000000000E+00  0.86724063569E+03  0.86724063569E+03  0.25500000920E-02 0. -1.
       -2   -1    0    0    0  501  0.00000000000E+00  0.00000000000E+00 -0.26136920253E+04  0.26136920253E+04  0.25500000920E-02 0.  1.
    10030    2    1    2    0    0  0.00000000000E+00  0.00000000000E+00 -0.17464513897E+04  0.34809326610E+04  0.30111127070E+04 0.  0.
        3    1    3    3  502    0  0.45859164799E+03  0.12770145881E+04 -0.16274202310E+04  0.21188603485E+04  0.10100000352E+00 0.  1.
       -3    1    3    3    0  502 -0.45859164799E+03 -0.12770145881E+04 -0.11903115865E+03  0.13620723126E+04  0.10100000352E+00 0. -1.
</event>
<event>
 5   0  0.1187925E-07  0.3217029E+04  0.7818609E-02  0.8184334E-01
        1   -1    0    0  501    0  0.00000000000E+00  0.00000000000E+00  0.23478712770E+04  0.23478712770E+04  0.50400001928E-02 0.  1.
       -1   -1    0    0    0  501  0.00000000000E+00  0.00000000000E+00 -0.11019847020E+04  0.11019847020E+04  0.50400001928E-02 0. -1.
    10030    2    1    2    0    0  0.00000000000E+00  0.00000000000E+00  0.12458865750E+04  0.34498559790E+04  0.32170285852E+04 0.  0.
        2    1    3    3  502    0 -0.76903125028E+03 -0.13055196289E+04  0.43933464815E+02  0.15158234445E+04  0.25500000920E-02 0. -1.
       -2    1    3    3    0  502  0.76903125028E+03  0.13055196289E+04  0.12019531102E+04  0.19340325345E+04  0.25500000920E-02 0.  1.
</event>
<event>
 5   0  0.1187925E-07  0.3937927E+04  0.7818609E-02  0.8017187E-01
       -1   -1    0    0    0  501  0.00000000000E+00  0.00000000000E+00  0.20801647799E+04  0.20801647799E+04  0.50400001928E-02 0. -1.
        1   -1    0    0  501    0  0.00000000000E+00  0.00000000000E+00 -0.18637064406E+04  0.18637064406E+04  0.50400001928E-02 0.  1.
    10030    2    1    2    0    0  0.00000000000E+00  0.00000000000E+00  0.21645833932E+03  0.39438712205E+04  0.39379266107E+04 0.  0.
        4    1    3    3  502    0  0.17731985328E+04 -0.84346962571E+03 -0.37389216185E+02  0.19639433833E+04  0.12699999809E+01 0.  1.
       -4    1    3    3    0  502 -0.17731985328E+04  0.84346962571E+03  0.25384755550E+03  0.19799278372E+04  0.12699999809E+01 0. -1.
</event>
<event>
 5   0  0.1187925E-07  0.3845941E+04  0.7818609E-02  0.8036367E-01
        1   -1    0    0  501    0  0.00000000000E+00  0.00000000000E+00  0.22564260230E+04  0.22564260230E+04  0.50400001928E-02 0. -1.
       -1   -1    0    0    0  501  0.00000000000E+00  0.00000000000E+00 -0.16387931053E+04  0.16387931053E+04  0.50400001928E-02 0.  1.
    10030    2    1    2    0    0  0.00000000000E+00  0.00000000000E+00  0.61763291770E+03  0.38952191283E+04  0.38459409299E+04 0.  0.
        3    1    3    3  502    0  0.12649242883E+04  0.19577730606E+03  0.17622836978E+04  0.21780739314E+04  0.10100000352E+00 0. -1.
       -3    1    3    3    0  502 -0.12649242883E+04 -0.19577730606E+03 -0.11446507801E+04  0.17171451969E+04  0.10100000352E+00 0.  1.
</event>
<event>
 5   0  0.1187925E-07  0.3886219E+04  0.7818609E-02  0.8027901E-01
        1   -1    0    0  501    0  0.00000000000E+00  0.00000000000E+00  0.17118269618E+04  0.17118269618E+04  0.50400001928E-02 0.  1.
       -1   -1    0    0    0  501  0.00000000000E+00  0.00000000000E+00 -0.22056405186E+04  0.22056405186E+04  0.50400001928E-02 0. -1.
    10030    2    1    2    0    0  0.00000000000E+00  0.00000000000E+00 -0.49381355679E+03  0.39174674804E+04  0.38862191950E+04 0.  0.
        4    1    3    3  502    0  0.14604214207E+04  0.11173129433E+04  0.38619930345E+03  0.18789280066E+04  0.12699999809E+01 0.  1.
       -4    1    3    3    0  502 -0.14604214207E+04 -0.11173129433E+04 -0.88001286024E+03  0.20385394738E+04  0.12699999809E+01 0. -1.
</event>
<event>
 5   0  0.3665303E-07  0.3937510E+04  0.7818609E-02  0.8017273E-01
        2   -1    0    0  501    0  0.00000000000E+00  0.00000000000E+00  0.21043658968E+04  0.21043658968E+04  0.25500000920E-02 0. -1.
       -2   -1    0    0    0  501  0.00000000000E+00  0.00000000000E+00 -0.18418832543E+04  0.18418832543E+04  0.25500000920E-02 0.  1.
    10030    2    1    2    0    0  0.00000000000E+00  0.00000000000E+00  0.26248264251E+03  0.39462491511E+04  0.39375100286E+04 0.  0.
        2    1    3    3  502    0  0.17948734907E+04 -0.70714929536E+03  0.52500686901E+03  0.19993156795E+04  0.25500000920E-02 0.  1.
       -2    1    3    3    0  502 -0.17948734907E+04  0.70714929536E+03 -0.26252422650E+03  0.19469334717E+04  0.25500000920E-02 0. -1.
</event>
<event>
 5   0  0.3832389E-07  0.3621313E+04  0.7818609E-02  0.8085627E-01
        2   -1    0    0  501    0  0.00000000000E+00  0.00000000000E+00  0.18719293341E+04  0.18719293341E+04  0.25500000920E-02 0. -1.
       -2   -1    0    0    0  501  0.00000000000E+00  0.00000000000E+00 -0.17513891826E+04  0.17513891826E+04  0.25500000920E-02 0.  1.
    10030    2    1    2    0    0  0.00000000000E+00  0.00000000000E+00  0.12054015152E+03  0.36233185168E+04  0.36213129036E+04 0.  0.
        5    1    3    3  502    0  0.74912310882E+03  0.15330988915E+04 -0.54576915167E+03  0.17914976138E+04  0.46999998093E+01 0.  1.
       -5    1    3    3    0  502 -0.74912310882E+03 -0.15330988915E+04  0.66630930319E+03  0.18318209030E+04  0.46999998093E+01 0. -1.
</event>
<event>
 5   0  0.3810833E-07  0.3570413E+04  0.7818609E-02  0.8097303E-01
       -2   -1    0    0    0  501  0.00000000000E+00  0.00000000000E+00  0.17789447481E+04  0.17789447481E+04  0.25500000920E-02 0.  1.
        2   -1    0    0  501    0  0.00000000000E+00  0.00000000000E+00 -0.17914901517E+04  0.17914901517E+04  0.25500000920E-02 0. -1.
    10030    2    1    2    0    0  0.00000000000E+00  0.00000000000E+00 -0.12545403603E+02  0.35704348998E+04  0.35704128594E+04 0.  0.
        3    1    3    3  502    0 -0.80986254965E+03  0.82440642776E+03  0.13544115148E+04  0.17804364266E+04  0.10100000352E+00 0.  1.
       -3    1    3    3    0  502  0.80986254965E+03 -0.82440642776E+03 -0.13669569184E+04  0.17899984733E+04  0.10100000352E+00 0. -1.
</event>
<event>
 5   0  0.3832389E-07  0.3895931E+04  0.7818609E-02  0.8025876E-01
       -2   -1    0    0    0  501  0.00000000000E+00  0.00000000000E+00  0.23241151056E+04  0.23241151056E+04  0.25500000920E-02 0.  1.
        2   -1    0    0  501    0  0.00000000000E+00  0.00000000000E+00 -0.16326946533E+04  0.16326946533E+04  0.25500000920E-02 0. -1.
    10030    2    1    2    0    0  0.00000000000E+00  0.00000000000E+00  0.69142045237E+03  0.39568097589E+04  0.38959313683E+04 0.  0.
        5    1    3    3  502    0  0.67650512969E+03  0.44491831161E+03 -0.14536791538E+04  0.16639761617E+04  0.46999998093E+01 0. -1.
       -5    1    3    3    0  502 -0.67650512969E+03 -0.44491831161E+03  0.21450996061E+04  0.22928335973E+04  0.46999998093E+01 0.  1.
</event>
<event>
 5   0  0.1187925E-07  0.3881251E+04  0.7818609E-02  0.8028940E-01
       -1   -1    0    0    0  501  0.00000000000E+00  0.00000000000E+00  0.24749694844E+04  0.24749694844E+04  0.50400001928E-02 0. -1.
        1   -1    0    0  501    0  0.00000000000E+00  0.00000000000E+00 -0.15216455744E+04  0.15216455744E+04  0.50400001928E-02 0.  1.
    10030    2    1    2    0    0  0.00000000000E+00  0.00000000000E+00  0.95332391004E+03  0.39966150588E+04  0.38812505009E+04 0.  0.
        4    1    3    3  502    0  0.51498057740E+03  0.14975644383E+04  0.16316613790E+04  0.22738128135E+04  0.12699999809E+01 0. -1.
       -4    1    3    3    0  502 -0.51498057740E+03 -0.14975644383E+04 -0.67833746900E+03  0.17228022454E+04  0.12699999809E+01 0.  1.
</event>
<event>
 5   0  0.1187925E-07  0.3817067E+04  0.7818609E-02  0.8042502E-01
        1   -1    0    0  501    0  0.00000000000E+00  0.00000000000E+00  0.24765151142E+04  0.24765151142E+04  0.50400001928E-02 0. -1.
       -1   -1    0    0    0  501  0.00000000000E+00  0.00000000000E+00 -0.14708165614E+04  0.14708165614E+04  0.50400001928E-02 0.  1.
    10030    2    1    2    0    0  0.00000000000E+00  0.00000000000E+00  0.10056985528E+04  0.39473316756E+04  0.38170666457E+04 0.  0.
        5    1    3    3  502    0 -0.28878616092E+03  0.12034036559E+04  0.20053256809E+04  0.23564657821E+04  0.46999998093E+01 0. -1.
       -5    1    3    3    0  502  0.28878616092E+03 -0.12034036559E+04 -0.99962712807E+03  0.15908658935E+04  0.46999998093E+01 0.  1.
</event>
<event>
 5   0  0.1187925E-07  0.3997684E+04  0.7818609E-02  0.8005014E-01
       -1   -1    0    0    0  501  0.00000000000E+00  0.00000000000E+00  0.20702138707E+04  0.20702138707E+04  0.50400001928E-02 0. -1.
        1   -1    0    0  501    0  0.00000000000E+00  0.00000000000E+00 -0.19299309319E+04  0.19299309319E+04  0.50400001928E-02 0.  1.
    10030    2    1    2    0    0  0.00000000000E+00  0.00000000000E+00  0.14028293887E+03  0.40001448026E+04  0.39976842220E+04 0.  0.
        3    1    3    3  502    0  0.12146481025E+04  0.26872569437E+03 -0.14953617794E+04  0.19451710396E+04  0.10100000352E+00 0.  1.
       -3    1    3    3    0  502 -0.12146481025E+04 -0.26872569437E+03  0.16356447183E+04  0.20549737630E+04  0.10100000352E+00 0. -1.
</event>
<event>
 5   0  0.1187925E-07  0.3934655E+04  0.7818609E-02  0.8017860E-01
       -1   -1    0    0    0  501  0.00000000000E+00  0.00000000000E+00  0.24419384874E+04  0.24419384874E+04  0.50400001928E-02 0.  1.
        1   -1    0    0  501    0  0.00000000000E+00  0.00000000000E+00 -0.15849610525E+04  0.15849610525E+04  0.50400001928E-02 0. -1.
    10030    2    1    2    0    0  0.00000000000E+00  0.00000000000E+00  0.85697743493E+03  0.40268995399E+04  0.39346549506E+04 0.  0.
        5    1    3    3  502    0  0.19281591940E+04 -0.38794394622E+03  0.38207214225E+03  0.20035717094E+04  0.46999998093E+01 0. -1.
       -5    1    3    3    0  502 -0.19281591940E+04  0.38794394622E+03  0.47490529267E+03  0.20233278305E+04  0.46999998093E+01 0.  1.
</event>
<event>
 5   0  0.3665303E-07  0.3896627E+04  0.7818609E-02  0.8025731E-01
        2   -1    0    0  501    0  0.00000000000E+00  0.00000000000E+00  0.28649484357E+04  0.28649484357E+04  0.25500000920E-02 0. -1.
       -2   -1    0    0    0  501  0.00000000000E+00  0.00000000000E+00 -0.13249543864E+04  0.13249543864E+04  0.25500000920E-02 0.  1.
    10030    2    1    2    0    0  0.00000000000E+00  0.00000000000E+00  0.15399940493E+04  0.41899028221E+04  0.38966272579E+04 0.  0.
        2    1    3    3  502    0 -0.38067656762E+03 -0.18433039772E+04  0.13111035583E+04  0.22938345063E+04  0.25500000920E-02 0. -1.
       -2    1    3    3    0  502  0.38067656762E+03  0.18433039772E+04  0.22889049094E+03  0.18960683158E+04  0.25500000920E-02 0.  1.
</event>
<event>
 5   0  0.3810833E-07  0.3787447E+04  0.7818609E-02  0.8048854E-01
       -2   -1    0    0    0  501  0.00000000000E+00  0.00000000000E+00  0.17717495277E+04  0.17717495277E+04  0.25500000920E-02 0. -1.
        2   -1    0    0  501    0  0.00000000000E+00  0.00000000000E+00 -0.20240947068E+04  0.20240947068E+04  0.25500000920E-02 0.  1.
    10030    2    1    2    0    0  0.00000000000E+00  0.00000000000E+00 -0.25234517906E+03  0.37958442345E+04  0.37874470772E+04 0.  0.
        3    1    3    3  502    0  0.58086144311E+03 -0.44185607440E+03  0.16251432322E+04  0.17814958159E+04  0.10100000352E+00 0. -1.
       -3    1    3    3    0  502 -0.58086144311E+03  0.44185607440E+03 -0.18774884113E+04  0.20143484186E+04  0.10100000352E+00 0.  1.
</event>
<event>
 5   0  0.3810833E-07  0.3769261E+04  0.7818609E-02  0.8052784E-01
       -2   -1    0    0    0  501  0.00000000000E+00  0.00000000000E+00  0.15067535772E+04  0.15067535773E+04  0.25500000920E-02 0.  1.
        2   -1    0    0  501    0  0.00000000000E+00  0.00000000000E+00 -0.23572747726E+04  0.23572747726E+04  0.25500000920E-02 0. -1.
    10030    2    1    2    0    0  0.00000000000E+00  0.00000000000E+00 -0.85052119540E+03  0.38640283499E+04  0.37692610396E+04 0.  0.
        3    1    3    3  502    0  0.65120723433E+03 -0.15794004528E+04 -0.12410415963E+04  0.21115778239E+04  0.10100000352E+00 0. -1.
       -3    1    3    3    0  502 -0.65120723433E+03  0.15794004528E+04  0.39052040091E+03  0.17524505260E+04  0.10100000352E+00 0.  1.
</event>
<event>
 5   0  0.1187925E-07  0.3869122E+04  0.7818609E-02  0.8031482E-01
        1   -1    0    0  501    0  0.00000000000E+00  0.00000000000E+00  0.29448396611E+04  0.29448396611E+04  0.50400001928E-02 0.  1.
       -1   -1    0    0    0  501  0.00000000000E+00  0.00000000000E+00 -0.12708757674E+04  0.12708757674E+04  0.50400001928E-02 0. -1.
    10030    2    1    2    0    0  0.00000000000E+00  0.00000000000E+00  0.16739638937E+04  0.42157154286E+04  0.38691215356E+04 0.  0.
        2    1    3    3  502    0 -0.76134832272E+03 -0.17590491824E+04  0.55156188717E+03  0.19945239557E+04  0.25500000920E-02 0. -1.
       -2    1    3    3    0  502  0.76134832272E+03  0.17590491824E+04  0.11224020066E+04  0.22211914728E+04  0.25500000920E-02 0.  1.
</event>
<event>
 5   0  0.3610483E-07  0.3916755E+04  0.7818609E-02  0.8021554E-01
       -2   -1    0    0    0  501  0.00000000000E+00  0.00000000000E+00  0.12911359482E+04  0.12911359482E+04  0.25500000920E-02 0.  1.
        2   -1    0    0  501    0  0.00000000000E+00  0.00000000000E+00 -0.29704400525E+04  0.29704400525E+04  0.25500000920E-02 0. -1.
    10030    2    1    2    0    0  0.00000000000E+00  0.00000000000E+00 -0.16793041043E+04  0.42615760007E+04  0.39167547454E+04 0.  0.
        4    1    3    3  502    0 -0.17280298411E+04 -0.10538511932E+03  0.15639095452E+03  0.17382902228E+04  0.12699999809E+01 0.  1.
       -4    1    3    3    0  502  0.17280298411E+04  0.10538511932E+03 -0.18356950588E+04  0.25232857779E+04  0.12699999809E+01 0. -1.
</event>
<event>
 5   0  0.3680814E-07  0.3885771E+04  0.7818609E-02  0.8027995E-01
       -2   -1    0    0    0  501  0.00000000000E+00  0.00000000000E+00  0.28023987948E+04  0.28023987948E+04  0.25500000920E-02 0. -1.
        2   -1    0    0  501    0  0.00000000000E+00  0.00000000000E+00 -0.13469901980E+04  0.13469901980E+04  0.25500000920E-02 0.  1.
    10030    2    1    2    0    0  0.00000000000E+00  0.00000000000E+00  0.14554085968E+04  0.41493889927E+04  0.38857708153E+04 0.  0.
        1    1    3    3  502    0  0.99842492885E+03  0.84041087134E+03 -0.80926894427E+03  0.15355972764E+04  0.50400001928E-02 0.  1.
       -1    1    3    3    0  502 -0.99842492885E+03 -0.84041087134E+03  0.22646775410E+04  0.26137917163E+04  0.50400001928E-02 0. -1.
</event>
<event>
 5   0  0.3810833E-07  0.3848563E+04  0.7818609E-02  0.8035813E-01
       -2   -1    0    0    0  501  0.00000000000E+00  0.00000000000E+00  0.20241733401E+04  0.20241733401E+04  0.25500000920E-02 0.  1.
        2   -1    0    0  501    0  0.00000000000E+00  0.00000000000E+00 -0.18293193330E+04  0.18293193330E+04  0.25500000920E-02 0. -1.
    10030    2    1    2    0    0  0.00000000000E+00  0.00000000000E+00  0.19485400713E+03  0.38534926731E+04  0.38485630692E+04 0.  0.
        3    1    3    3  502    0  0.15847032596E+04 -0.74210728302E+03  0.89898458255E+03  0.19672775428E+04  0.10100000352E+00 0. -1.
       -3    1    3    3    0  502 -0.15847032596E+04  0.74210728302E+03 -0.70413057541E+03  0.18862151303E+04  0.10100000352E+00 0.  1.
</event>
<event>
 5   0  0.3810833E-07  0.3868095E+04  0.7818609E-02  0.8031698E-01
        2   -1    0    0  501    0  0.00000000000E+00  0.00000000000E+00  0.12785039174E+04  0.12785039174E+04  0.25500000920E-02 0.  1.
       -2   -1    0    0    0  501  0.00000000000E+00  0.00000000000E+00 -0.29257157627E+04  0.29257157627E+04  0.25500000920E-02 0. -1.
    10030    2    1    2    0    0  0.00000000000E+00  0.00000000000E+00 -0.16472118454E+04  0.42042196801E+04  0.38680946544E+04 0.  0.
        3    1    3    3  502    0  0.88740811202E+03 -0.65900410231E+03 -0.25485763649E+04  0.27779526745E+04  0.10100000352E+00 0. -1.
       -3    1    3    3    0  502 -0.88740811202E+03  0.65900410231E+03  0.90136451950E+03  0.14262670056E+04  0.10100000352E+00 0.  1.
</event>
<event>
 5   0  0.3832389E-07  0.3724918E+04  0.7818609E-02  0.8062462E-01
       -2   -1    0    0    0  501  0.00000000000E+00  0.00000000000E+00  0.15545259794E+04  0.15545259795E+04  0.25500000920E-02 0.  1.
        2   -1    0    0  501    0  0.00000000000E+00  0.00000000000E+00 -0.22313902779E+04  0.22313902779E+04  0.25500000920E-02 0. -1.
    10030    2    1    2    0    0  0.00000000000E+00  0.00000000000E+00 -0.67686429846E+03  0.37859162574E+04  0.37249183386E+04 0.  0.
        5    1    3    3  502    0 -0.12379120398E+04 -0.11322641530E+04  0.48369181917E+03  0.17459748556E+04  0.46999998093E+01 0.  1.
       -5    1    3    3    0  502  0.12379120398E+04  0.11322641530E+04 -0.11605561176E+04  0.20399414018E+04  0.46999998093E+01 0. -1.
</event>
<event>
 5   0  0.1187925E-07  0.3643376E+04  0.7818609E-02  0.8080627E-01
        1   -1    0    0  501    0  0.00000000000E+00  0.00000000000E+00  0.21193775307E+04  0.21193775307E+04  0.50400001928E-02 0. -1.
       -1   -1    0    0    0  501  0.00000000000E+00  0.00000000000E+00 -0.15658123525E+04  0.15658123525E+04  0.50400001928E-02 0.  1.
    10030    2    1    2    0    0  0.00000000000E+00  0.00000000000E+00  0.55356517825E+03  0.36851898832E+04  0.36433761909E+04 0.  0.
        3    1    3    3  502    0  0.12253292448E+04 -0.70203918610E+03 -0.88718784420E+03  0.16677508981E+04  0.10100000352E+00 0.  1.
       -3    1    3    3    0  502 -0.12253292448E+04  0.70203918610E+03  0.14407530224E+04  0.20174389851E+04  0.10100000352E+00 0. -1.
</event>
<event>
 5   0  0.1187925E-07  0.3371240E+04  0.7818609E-02  0.8145001E-01
        1   -1    0    0  501    0  0.00000000000E+00  0.00000000000E+00  0.27977171601E+04  0.27977171601E+04  0.50400001928E-02 0. -1.
       -1   -1    0    0    0  501  0.00000000000E+00  0.00000000000E+00 -0.10155835029E+04  0.10155835029E+04  0.50400001928E-02 0.  1.
    10030    2    1    2    0    0  0.00000000000E+00  0.00000000000E+00  0.17821336572E+04  0.38133006630E+04  0.33712403615E+04 0.  0.
        2    1    3    3  502    0  0.35898322068E+03 -0.13819392921E+04  0.19044771441E+04  0.23802643450E+04  0.25500000920E-02 0. -1.
       -2    1    3    3    0  502 -0.35898322068E+03  0.13819392921E+04 -0.12234348693E+03  0.14330363180E+04  0.25500000920E-02 0.  1.
</event>
<event>
 5   0  0.1187925E-07  0.4010748E+04  0.7818609E-02  0.8002382E-01
        1   -1    0    0  501    0  0.00000000000E+00  0.00000000000E+00  0.17821694947E+04  0.17821694947E+04  0.50400001928E-02 0. -1.
       -1   -1    0    0    0  501  0.00000000000E+00  0.00000000000E+00 -0.22565337392E+04  0.22565337392E+04  0.50400001928E-02 0.  1.
    10030    2    1    2    0    0  0.00000000000E+00  0.00000000000E+00 -0.47436424443E+03  0.40387032339E+04  0.40107483560E+04 0.  0.
        4    1    3    3  502    0  0.14201041934E+04 -0.13710619751E+04 -0.59322415757E+03  0.20611703893E+04  0.12699999809E+01 0.  1.
       -4    1    3    3    0  502 -0.14201041934E+04  0.13710619751E+04  0.11885991313E+03  0.19775328446E+04  0.12699999809E+01 0. -1.
</event>
<event>
 5   0  0.3810833E-07  0.3897039E+04  0.7818609E-02  0.8025645E-01
        2   -1    0    0  501    0  0.00000000000E+00  0.00000000000E+00  0.24266165367E+04  0.24266165367E+04  0.25500000920E-02 0.  1.
       -2   -1    0    0    0  501  0.00000000000E+00  0.00000000000E+00 -0.15646182384E+04  0.15646182384E+04  0.25500000920E-02 0. -1.
    10030    2    1    2    0    0  0.00000000000E+00  0.00000000000E+00  0.86199829823E+03  0.39912347751E+04  0.38970391278E+04 0.  0.
        3    1    3    3  502    0  0.14206544712E+04  0.11581490069E+04  0.11081615442E+04  0.21418660712E+04  0.10100000352E+00 0.  1.
       -3    1    3    3    0  502 -0.14206544712E+04 -0.11581490069E+04 -0.24616324601E+03  0.18493687038E+04  0.10100000352E+00 0. -1.
</event>
<event>
 5   0  0.3810833E-07  0.3975078E+04  0.7818609E-02  0.8009593E-01
        2   -1    0    0  501    0  0.00000000000E+00  0.00000000000E+00  0.21362425567E+04  0.21362425567E+04  0.25500000920E-02 0. -1.
       -2   -1    0    0    0  501  0.00000000000E+00  0.00000000000E+00 -0.18491866719E+04  0.18491866719E+04  0.25500000920E-02 0.  1.
    10030    2    1    2    0    0  0.00000000000E+00  0.00000000000E+00  0.28705588481E+03  0.39854292285E+04  0.39750779935E+04 0.  0.
        3    1    3    3  502    0 -0.49069405608E+03 -0.10232639711E+04 -0.14924261438E+04  0.18748828273E+04  0.10100000352E+00 0.  1.
       -3    1    3    3    0  502  0.49069405608E+03  0.10232639711E+04  0.17794820286E+04  0.21105464012E+04  0.10100000352E+00 0. -1.
</event>
<event>
 5   0  0.3680814E-07  0.3914608E+04  0.7818609E-02  0.8021998E-01
        2   -1    0    0  501    0  0.00000000000E+00  0.00000000000E+00  0.19642523428E+04  0.19642523428E+04  0.25500000920E-02 0.  1.
       -2   -1    0    0    0  501  0.00000000000E+00  0.00000000000E+00 -0.19503803149E+04  0.19503803149E+04  0.25500000920E-02 0. -1.
    10030    2    1    2    0    0  0.00000000000E+00  0.00000000000E+00  0.13872027931E+02  0.39146326577E+04  0.39146080789E+04 0.  0.
        1    1    3    3  502    0 -0.61576046244E+03  0.14783617733E+04  0.11322539800E+04  0.19613040446E+04  0.50400001928E-02 0.  1.
       -1    1    3    3    0  502  0.61576046244E+03 -0.14783617733E+04 -0.11183819521E+04  0.19533286131E+04  0.50400001928E-02 0. -1.
</event>
<event>
 5   0  0.1187925E-07  0.3918354E+04  0.7818609E-02  0.8021223E-01
       -1   -1    0    0    0  501  0.00000000000E+00  0.00000000000E+00  0.13648347376E+04  0.13648347376E+04  0.50400001928E-02 0.  1.
        1   -1    0    0  501    0  0.00000000000E+00  0.00000000000E+00 -0.28123361608E+04  0.28123361608E+04  0.50400001928E-02 0. -1.
    10030    2    1    2    0    0  0.00000000000E+00  0.00000000000E+00 -0.14475014232E+04  0.41771708985E+04  0.39183537800E+04 0.  0.
        1    1    3    3  502    0 -0.15583000268E+04  0.11865959087E+04 -0.77219763147E+03  0.21053736026E+04  0.50400001928E-02 0. -1.
       -1    1    3    3    0  502  0.15583000268E+04 -0.11865959087E+04 -0.67530379172E+03  0.20717972959E+04  0.50400001928E-02 0.  1.
</event>
<event>
 5   0  0.3665303E-07  0.3988549E+04  0.7818609E-02  0.8006861E-01
       -2   -1    0    0    0  501  0.00000000000E+00  0.00000000000E+00  0.21457151800E+04  0.21457151800E+04  0.25500000920E-02 0.  1.
        2   -1    0    0  501    0  0.00000000000E+00  0.00000000000E+00 -0.18535225157E+04  0.18535225157E+04  0.25500000920E-02 0. -1.
    10030    2    1    2    0    0  0.00000000000E+00  0.00000000000E+00  0.29219266432E+03  0.39992376957E+04  0.39885493094E+04 0.  0.
        2    1    3    3  502    0  0.88050439163E+03  0.14511935101E+04  0.11957448891E+04  0.20763083651E+04  0.25500000920E-02 0.  1.
       -2    1    3    3    0  502 -0.88050439163E+03 -0.14511935101E+04 -0.90355222476E+03  0.19229293305E+04  0.25500000920E-02 0. -1.
</event>
<event>
 5   0  0.3810833E-07  0.3939271E+04  0.7818609E-02  0.8016911E-01
        2   -1    0    0  501    0  0.00000000000E+00  0.00000000000E+00  0.24607665792E+04  0.24607665793E+04  0.25500000920E-02 0. -1.
       -2   -1    0    0    0  501  0.00000000000E+00  0.00000000000E+00 -0.15765268378E+04  0.15765268378E+04  0.25500000920E-02 0.  1.
    10030    2    1    2    0    0  0.00000000000E+00  0.00000000000E+00  0.88423974143E+03  0.40372934171E+04  0.39392712797E+04 0.  0.
        3    1    3    3  502    0  0.82542579564E+03  0.13025998580E+04 -0.81367397383E+03  0.17436053108E+04  0.10100000352E+00 0.  1.
       -3    1    3    3    0  502 -0.82542579564E+03 -0.13025998580E+04  0.16979137153E+04  0.22936881062E+04  0.10100000352E+00 0. -1.
</event>
<event>
 5   0  0.1187925E-07  0.3574611E+04  0.7818609E-02  0.8096332E-01
        1   -1    0    0  501    0  0.00000000000E+00  0.00000000000E+00  0.29246698384E+04  0.29246698384E+04  0.50400001928E-02 0. -1.
       -1   -1    0    0    0  501  0.00000000000E+00  0.00000000000E+00 -0.10922467733E+04  0.10922467733E+04  0.50400001928E-02 0.  1.
    10030    2    1    2    0    0  0.00000000000E+00  0.00000000000E+00  0.18324230651E+04  0.40169166117E+04  0.35746111363E+04 0.  0.
        1    1    3    3  502    0  0.41701462893E+03 -0.13848022328E+04  0.20963383730E+04  0.25468044682E+04  0.50400001928E-02 0. -1.
       -1    1    3    3    0  502 -0.41701462893E+03  0.13848022328E+04 -0.26391530794E+03  0.14701121435E+04  0.50400001928E-02 0.  1.
</event>
<event>
 5   0  0.3610483E-07  0.3395272E+04  0.7818609E-02  0.8139068E-01
        2   -1    0    0  501    0  0.00000000000E+00  0.00000000000E+00  0.23922714644E+04  0.23922714644E+04  0.25500000920E-02 0. -1.
       -2   -1    0    0    0  501  0.00000000000E+00  0.00000000000E+00 -0.12046996973E+04  0.12046996973E+04  0.25500000920E-02 0.  1.
    10030    2    1    2    0    0  0.00000000000E+00  0.00000000000E+00  0.11875717670E+04  0.35969711617E+04  0.33952724244E+04 0.  0.
        4    1    3    3  502    0 -0.13744891079E+04 -0.82480985306E+03  0.11859505811E+04  0.19939939808E+04  0.12699999809E+01 0. -1.
       -4    1    3    3    0  502  0.13744891079E+04  0.82480985306E+03  0.16211858846E+01  0.16029771809E+04  0.12699999809E+01 0.  1.
</event>
<event>
 5   0  0.1187925E-07  0.3907224E+04  0.7818609E-02  0.8023528E-01
       -3   -1    0    0    0  501  0.00000000000E+00  0.00000000000E+00  0.16559688177E+04  0.16559688208E+04  0.10100000352E+00 0. -1.
        3   -1    0    0  501    0  0.00000000000E+00  0.00000000000E+00 -0.23047532290E+04  0.23047532312E+04  0.10100000352E+00 0.  1.
    10030    2    1    2    0    0  0.00000000000E+00  0.00000000000E+00 -0.64878441134E+03  0.39607220520E+04  0.39072238176E+04 0.  0.
        3    1    3    3  502    0 -0.41078699122E+03  0.45929449745E+03  0.15548798545E+04  0.16725276559E+04  0.10100000352E+00 0. -1.
       -3    1    3    3    0  502  0.41078699122E+03 -0.45929449745E+03 -0.22036642659E+04  0.22881943961E+04  0.10100000352E+00 0.  1.
</event>
<event>
 5   0  0.3832389E-07  0.4125678E+04  0.7818609E-02  0.7979662E-01
       -2   -1    0    0    0  501  0.00000000000E+00  0.00000000000E+00  0.21922206923E+04  0.21922206923E+04  0.25500000920E-02 0. -1.
        2   -1    0    0  501    0  0.00000000000E+00  0.00000000000E+00 -0.19410935439E+04  0.19410935439E+04  0.25500000920E-02 0.  1.
    10030    2    1    2    0    0  0.00000000000E+00  0.00000000000E+00  0.25112714838E+03  0.41333142363E+04  0.41256783359E+04 0.  0.
        5    1    3    3  502    0  0.12768558997E+04  0.10078917809E+04  0.13964051284E+04  0.21438694464E+04  0.46999998093E+01 0. -1.
       -5    1    3    3    0  502 -0.12768558997E+04 -0.10078917809E+04 -0.11452779800E+04  0.19894447899E+04  0.46999998093E+01 0.  1.
</event>
<event>
 5   0  0.3610483E-07  0.2842927E+04  0.7818609E-02  0.8290064E-01
       -2   -1    0    0    0  501  0.00000000000E+00  0.00000000000E+00  0.19749521416E+04  0.19749521416E+04  0.25500000920E-02 0.  1.
        2   -1    0    0  501    0  0.00000000000E+00  0.00000000000E+00 -0.10230923682E+04  0.10230923682E+04  0.25500000920E-02 0. -1.
    10030    2    1    2    0    0  0.00000000000E+00  0.00000000000E+00  0.95185977340E+03  0.29980445099E+04  0.28429269873E+04 0.  0.
        4    1    3    3  502    0 -0.54855183151E+03 -0.10662280202E+04  0.12810009344E+04  0.17546271142E+04  0.12699999809E+01 0.  1.
       -4    1    3    3    0  502  0.54855183151E+03  0.10662280202E+04 -0.32914116105E+03  0.12434173956E+04  0.12699999809E+01 0. -1.
</event>
<event>
 5   0  0.3810833E-07  0.3878271E+04  0.7818609E-02  0.8029564E-01
       -2   -1    0    0    0  501  0.00000000000E+00  0.00000000000E+00  0.17719756339E+04  0.17719756339E+04  0.25500000920E-02 0.  1.
        2   -1    0    0  501    0  0.00000000000E+00  0.00000000000E+00 -0.21220640285E+04  0.21220640285E+04  0.25500000920E-02 0. -1.
    10030    2    1    2    0    0  0.00000000000E+00  0.00000000000E+00 -0.35008839463E+03  0.38940396624E+04  0.38782706208E+04 0.  0.
        3    1    3    3  502    0 -0.12227035643E+04 -0.12108862827E+04  0.72245610316E+03  0.18663312747E+04  0.10100000352E+00 0.  1.
       -3    1    3    3    0  502  0.12227035643E+04  0.12108862827E+04 -0.10725444978E+04  0.20277083877E+04  0.10100000352E+00 0. -1.
</event>
<event>
 5   0  0.3810833E-07  0.3715410E+04  0.7818609E-02  0.8064555E-01
       -2   -1    0    0    0  501  0.00000000000E+00  0.00000000000E+00  0.29776159420E+04  0.29776159420E+04  0.25500000920E-02 0.  1.
        2   -1    0    0  501    0  0.00000000000E+00  0.00000000000E+00 -0.11590034303E+04  0.11590034304E+04  0.25500000920E-02 0. -1.
    10030    2    1    2    0    0  0.00000000000E+00  0.00000000000E+00  0.18186125117E+04  0.41366193724E+04  0.37154095823E+04 0.  0.
        3    1    3    3  502    0  0.72711681513E+03 -0.13981673195E+04 -0.18581834628E+03  0.15868519730E+04  0.10100000352E+00 0. -1.
       -3    1    3    3    0  502 -0.72711681513E+03  0.13981673195E+04  0.20044308579E+04  0.25497673993E+04  0.10100000352E+00 0.  1.
</event>
<event>
 5   0  0.3665303E-07  0.3911348E+04  0.7818609E-02  0.8022673E-01
        2   -1    0    0  501    0  0.00000000000E+00  0.00000000000E+00  0.21705031384E+04  0.21705031384E+04  0.25500000920E-02 0.  1.
       -2   -1    0    0    0  501  0.00000000000E+00  0.00000000000E+00 -0.17621076768E+04  0.17621076768E+04  0.25500000920E-02 0. -1.
    10030    2    1    2    0    0  0.00000000000E+00  0.00000000000E+00  0.40839546166E+03  0.39326108152E+04  0.39113477179E+04 0.  0.
        2    1    3    3  502    0  0.14455063594E+04  0.12242593463E+04  0.69301004739E+03  0.20170677996E+04  0.25500000920E-02 0. -1.
       -2    1    3    3    0  502 -0.14455063594E+04 -0.12242593463E+04 -0.28461458573E+03  0.19155430156E+04  0.25500000920E-02 0.  1.
</event>
<event>
 5   0  0.3810833E-07  0.3882080E+04  0.7818609E-02  0.8028766E-01
        2   -1    0    0  501    0  0.00000000000E+00  0.00000000000E+00  0.24560229032E+04  0.24560229032E+04  0.25500000920E-02 0. -1.
       -2   -1    0    0    0  501  0.00000000000E+00  0.00000000000E+00 -0.15340399464E+04  0.15340399464E+04  0.25500000920E-02 0.  1.
    10030    2    1    2    0    0  0.00000000000E+00  0.00000000000E+00  0.92198295677E+03  0.39900628496E+04  0.38820804952E+04 0.  0.
        3    1    3    3  502    0  0.31804916058E+03 -0.47903926980E+03  0.23664749126E+04  0.24353310684E+04  0.10100000352E+00 0. -1.
       -3    1    3    3    0  502 -0.31804916058E+03  0.47903926980E+03 -0.14444919559E+04  0.15547317812E+04  0.10100000352E+00 0.  1.
</event>
<event>
 5   0  0.1187925E-07  0.3912290E+04  0.7818609E-02  0.8022478E-01
       -1   -1    0    0    0  501  0.00000000000E+00  0.00000000000E+00  0.21586272018E+04  0.21586272018E+04  0.50400001928E-02 0. -1.
        1   -1    0    0  501    0  0.00000000000E+00  0.00000000000E+00 -0.17726558279E+04  0.17726558279E+04  0.50400001928E-02 0.  1.
    10030    2    1    2    0    0  0.00000000000E+00  0.00000000000E+00  0.38597137390E+03  0.39312830298E+04  0.39122899124E+04 0.  0.
        5    1    3    3  502    0 -0.84157590991E+03  0.64423890371E+03  0.18451047593E+04  0.21278457275E+04  0.46999998093E+01 0. -1.
       -5    1    3    3    0  502  0.84157590991E+03 -0.64423890371E+03 -0.14591333854E+04  0.18034373023E+04  0.46999998093E+01 0.  1.
</event>
<event>
 5   0  0.3680814E-07  0.3927451E+04  0.7818609E-02  0.8019344E-01
       -2   -1    0    0    0  501  0.00000000000E+00  0.00000000000E+00  0.20223479235E+04  0.20223479235E+04  0.25500000920E-02 0. -1.
        2   -1    0    0  501    0  0.00000000000E+00  0.00000000000E+00 -0.19068026203E+04  0.19068026203E+04  0.25500000920E-02 0.  1.
    10030    2    1    2    0    0  0.00000000000E+00  0.00000000000E+00  0.11554530321E+03  0.39291505438E+04  0.39274512446E+04 0.  0.
        1    1    3    3  502    0  0.14329817669E+04 -0.38477853268E+03 -0.12291458676E+04  0.19267306058E+04  0.50400001928E-02 0.  1.
       -1    1    3    3    0  502 -0.14329817669E+04  0.38477853268E+03  0.13446911708E+04  0.20024199380E+04  0.50400001928E-02 0. -1.
</event>
<event>
 5   0  0.1187925E-07  0.3833973E+04  0.7818609E-02  0.8038903E-01
        1   -1    0    0  501    0  0.00000000000E+00  0.00000000000E+00  0.23454660227E+04  0.23454660227E+04  0.50400001928E-02 0. -1.
       -1   -1    0    0    0  501  0.00000000000E+00  0.00000000000E+00 -0.15667837061E+04  0.15667837061E+04  0.50400001928E-02 0.  1.
    10030    2    1    2    0    0  0.00000000000E+00  0.00000000000E+00  0.77868231664E+03  0.39122497288E+04  0.38339733685E+04 0.  0.
        3    1    3    3  502    0 -0.15320981564E+04 -0.61150028312E+03  0.13857926837E+04  0.21544555529E+04  0.10100000352E+00 0. -1.
       -3    1    3    3    0  502  0.15320981564E+04  0.61150028312E+03 -0.60711036702E+03  0.17577941759E+04  0.10100000352E+00 0.  1.
</event>
<event>
 5   0  0.3610483E-07  0.3880298E+04  0.7818609E-02  0.8029139E-01
       -2   -1    0    0    0  501  0.00000000000E+00  0.00000000000E+00  0.30813222643E+04  0.30813222643E+04  0.25500000920E-02 0.  1.
        2   -1    0    0  501    0  0.00000000000E+00  0.00000000000E+00 -0.12216110633E+04  0.12216110633E+04  0.25500000920E-02 0. -1.
    10030    2    1    2    0    0  0.00000000000E+00  0.00000000000E+00  0.18597112011E+04  0.43029333276E+04  0.38802976008E+04 0.  0.
        4    1    3    3  502    0  0.49001872803E+03 -0.11789410590E+04 -0.69013539097E+03  0.14513128006E+04  0.12699999809E+01 0. -1.
       -4    1    3    3    0  502 -0.49001872803E+03  0.11789410590E+04  0.25498465920E+04  0.28516205270E+04  0.12699999809E+01 0.  1.
</event>
<event>
 5   0  0.3610483E-07  0.3889840E+04  0.7818609E-02  0.8027146E-01
       -2   -1    0    0    0  501  0.00000000000E+00  0.00000000000E+00  0.17502108463E+04  0.17502108463E+04  0.25500000920E-02 0. -1.
        2   -1    0    0  501    0  0.00000000000E+00  0.00000000000E+00 -0.21612899963E+04  0.21612899963E+04  0.25500000920E-02 0.  1.
    10030    2    1    2    0    0  0.00000000000E+00  0.00000000000E+00 -0.41107915003E+03  0.39115008426E+04  0.38898396848E+04 0.  0.
        4    1    3    3  502    0  0.44712660037E+03 -0.10359583440E+04  0.13874473865E+04  0.17883354692E+04  0.12699999809E+01 0.  1.
       -4    1    3    3    0  502 -0.44712660037E+03  0.10359583440E+04 -0.17985265365E+04  0.21231653734E+04  0.12699999809E+01 0. -1.
</event>
<event>
 5   0  0.3610483E-07  0.3948006E+04  0.7818609E-02  0.8015118E-01
        2   -1    0    0  501    0  0.00000000000E+00  0.00000000000E+00  0.11411976763E+04  0.11411976763E+04  0.25500000920E-02 0.  1.
       -2   -1    0    0    0  501  0.00000000000E+00  0.00000000000E+00 -0.34145596161E+04  0.34145596161E+04  0.25500000920E-02 0. -1.
    10030    2    1    2    0    0  0.00000000000E+00  0.00000000000E+00 -0.22733619398E+04  0.45557572925E+04  0.39480058256E+04 0.  0.
        4    1    3    3  502    0 -0.96913505948E+03  0.11670949541E+04  0.32082761555E+03  0.15505693687E+04  0.12699999809E+01 0.  1.
       -4    1    3    3    0  502  0.96913505948E+03 -0.11670949541E+04 -0.25941895553E+04  0.30051879238E+04  0.12699999809E+01 0. -1.
</event>
<event>
 5   0  0.3680814E-07  0.2792962E+04  0.7818609E-02  0.8305457E-01
       -2   -1    0    0    0  501  0.00000000000E+00  0.00000000000E+00  0.10899250559E+04  0.10899250559E+04  0.25500000920E-02 0.  1.
        2   -1    0    0  501    0  0.00000000000E+00  0.00000000000E+00 -0.17892592962E+04  0.17892592963E+04  0.25500000920E-02 0. -1.
    10030    2    1    2    0    0  0.00000000000E+00  0.00000000000E+00 -0.69933424033E+03  0.28791843522E+04  0.27929615382E+04 0.  0.
        1    1    3    3  502    0 -0.14285425439E+03 -0.12833019128E+04  0.19862413736E+03  0.13064159695E+04  0.50400001928E-02 0.  1.
       -1    1    3    3    0  502  0.14285425439E+03  0.12833019128E+04 -0.89795837769E+03  0.15727683827E+04  0.50400001928E-02 0. -1.
</event>
<event>
 5   0  0.1187925E-07  0.4057326E+04  0.7818609E-02  0.7993081E-01
        1   -1    0    0  501    0  0.00000000000E+00  0.00000000000E+00  0.20371919990E+04  0.20371919990E+04  0.50400001928E-02 0. -1.
       -1   -1    0    0    0  501  0.00000000000E+00  0.00000000000E+00 -0.20201695339E+04  0.20201695339E+04  0.50400001928E-02 0.  1.
    10030    2    1    2    0    0  0.00000000000E+00  0.00000000000E+00  0.17022465135E+02  0.40573615330E+04  0.40573258243E+04 0.  0.
        4    1    3    3  502    0 -0.89205559575E+03  0.47019939901E+03 -0.17517942750E+04  0.20212954894E+04  0.12699999809E+01 0.  1.
       -4    1    3    3    0  502  0.89205559575E+03 -0.47019939901E+03  0.17688167401E+04  0.20360660436E+04  0.12699999809E+01 0. -1.
</event>
<event>
 5   0  0.1187925E-07  0.3654862E+04  0.7818609E-02  0.8078039E-01
        1   -1    0    0  501    0  0.00000000000E+00  0.00000000000E+00  0.11962810287E+04  0.11962810287E+04  0.50400001928E-02 0. -1.
       -1   -1    0    0    0  501  0.00000000000E+00  0.00000000000E+00 -0.27915720649E+04  0.27915720649E+04  0.50400001928E-02 0.  1.
    10030    2    1    2    0    0  0.00000000000E+00  0.00000000000E+00 -0.15952910362E+04  0.39878530936E+04  0.36548623512E+04 0.  0.
        5    1    3    3  502    0 -0.11326932139E+04  0.76016237949E+03 -0.21244276773E+04  0.25246892494E+04  0.46999998093E+01 0.  1.
       -5    1    3    3    0  502  0.11326932139E+04 -0.76016237949E+03  0.52913664118E+03  0.14631638442E+04  0.46999998093E+01 0. -1.
</event>
<event>
 5   0  0.3610483E-07  0.3903298E+04  0.7818609E-02  0.8024344E-01
        2   -1    0    0  501    0  0.00000000000E+00  0.00000000000E+00  0.21258827033E+04  0.21258827033E+04  0.25500000920E-02 0. -1.
       -2   -1    0    0    0  501  0.00000000000E+00  0.00000000000E+00 -0.17916948516E+04  0.17916948516E+04  0.25500000920E-02 0.  1.
    10030    2    1    2    0    0  0.00000000000E+00  0.00000000000E+00  0.33418785169E+03  0.39175775548E+04  0.39032976286E+04 0.  0.
        4    1    3    3  502    0  0.43706852152E+03  0.16878648617E+04  0.10472370154E+04  0.20338691362E+04  0.12699999809E+01 0. -1.
       -4    1    3    3    0  502 -0.43706852152E+03 -0.16878648617E+04 -0.71304916371E+03  0.18837084186E+04  0.12699999809E+01 0.  1.
</event>
<event>
 5   0  0.3680814E-07  0.3880238E+04  0.7818609E-02  0.8029152E-01
       -2   -1    0    0    0  501  0.00000000000E+00  0.00000000000E+00  0.16591455432E+04  0.16591455432E+04  0.25500000920E-02 0.  1.
        2   -1    0    0  501    0  0.00000000000E+00  0.00000000000E+00 -0.22686752028E+04  0.22686752028E+04  0.25500000920E-02 0. -1.
    10030    2    1    2    0    0  0.00000000000E+00  0.00000000000E+00 -0.60952965961E+03  0.39278207459E+04  0.38802383182E+04 0.  0.
        1    1    3    3  502    0 -0.14007352709E+04  0.37873285998E+03 -0.16084101164E+04  0.21662135123E+04  0.50400001928E-02 0. -1.
       -1    1    3    3    0  502  0.14007352709E+04 -0.37873285998E+03  0.99888045681E+03  0.17616072336E+04  0.50400001928E-02 0.  1.
</event>
<event>
 5   0  0.3665303E-07  0.3877850E+04  0.7818609E-02  0.8029652E-01
       -2   -1    0    0    0  501  0.00000000000E+00  0.00000000000E+00  0.30519491327E+04  0.30519491327E+04  0.25500000920E-02 0.  1.
        2   -1    0    0  501    0  0.00000000000E+00  0.00000000000E+00 -0.12318128925E+04  0.12318128925E+04  0.25500000920E-02 0. -1.
    10030    2    1    2    0    0  0.00000000000E+00  0.00000000000E+00  0.18201362402E+04  0.42837620252E+04  0.38778500687E+04 0.  0.
        2    1    3    3  502    0  0.76534416736E+03 -0.75755160590E+03  0.26912316931E+04  0.28986831762E+04  0.25500000920E-02 0.  1.
       -2    1    3    3    0  502 -0.76534416736E+03  0.75755160590E+03 -0.87109545283E+03  0.13850788490E+04  0.25500000920E-02 0. -1.
</event>
<event>
 5   0  0.3832389E-07  0.3907536E+04  0.7818609E-02  0.8023464E-01
       -2   -1    0    0    0  501  0.00000000000E+00  0.00000000000E+00  0.21693465388E+04  0.21693465388E+04  0.25500000920E-02 0. -1.
        2   -1    0    0  501    0  0.00000000000E+00  0.00000000000E+00 -0.17596126093E+04  0.17596126093E+04  0.25500000920E-02 0.  1.
    10030    2    1    2    0    0  0.00000000000E+00  0.00000000000E+00  0.40973392956E+03  0.39289591481E+04  0.39075360643E+04 0.  0.
        5    1    3    3  502    0  0.17490007321E+04 -0.19034029497E+03 -0.64947042881E+03  0.18753844717E+04  0.46999998093E+01 0.  1.
       -5    1    3    3    0  502 -0.17490007321E+04  0.19034029497E+03  0.10592043584E+04  0.20535746764E+04  0.46999998093E+01 0. -1.
</event>
<event>
 5   0  0.3665303E-07  0.3951653E+04  0.7818609E-02  0.8014371E-01
       -2   -1    0    0    0  501  0.00000000000E+00  0.00000000000E+00  0.18466703790E+04  0.18466703790E+04  0.25500000920E-02 0. -1.
        2   -1    0    0  501    0  0.00000000000E+00  0.00000000000E+00 -0.21140158141E+04  0.21140158141E+04  0.25500000920E-02 0.  1.
    10030    2    1    2    0    0  0.00000000000E+00  0.00000000000E+00 -0.26734543511E+03  0.39606861931E+04  0.39516530134E+04 0.  0.
        2    1    3    3  502    0 -0.16276522306E+04 -0.58016276026E+03  0.82666667774E+03  0.19155204014E+04  0.25500000920E-02 0. -1.
       -2    1    3    3    0  502  0.16276522306E+04  0.58016276026E+03 -0.10940121128E+04  0.20451657916E+04  0.25500000920E-02 0.  1.
</event>
<event>
 5   0  0.1187925E-07  0.3923422E+04  0.7818609E-02  0.8020176E-01
       -1   -1    0    0    0  501  0.00000000000E+00  0.00000000000E+00  0.31881125007E+04  0.31881125008E+04  0.50400001928E-02 0.  1.
        1   -1    0    0  501    0  0.00000000000E+00  0.00000000000E+00 -0.12070807241E+04  0.12070807241E+04  0.50400001928E-02 0. -1.
    10030    2    1    2    0    0  0.00000000000E+00  0.00000000000E+00  0.19810317766E+04  0.43951932249E+04  0.39234215404E+04 0.  0.
        3    1    3    3  502    0  0.21716047563E+03  0.19029159676E+04  0.51515530041E+03  0.19833388126E+04  0.10100000352E+00 0. -1.
       -3    1    3    3    0  502 -0.21716047563E+03 -0.19029159676E+04  0.14658764762E+04  0.24118544122E+04  0.10100000352E+00 0.  1.
</event>
<event>
 5   0  0.3680814E-07  0.3914747E+04  0.7818609E-02  0.8021969E-01
        2   -1    0    0  501    0  0.00000000000E+00  0.00000000000E+00  0.18282490842E+04  0.18282490842E+04  0.25500000920E-02 0.  1.
       -2   -1    0    0    0  501  0.00000000000E+00  0.00000000000E+00 -0.20956174311E+04  0.20956174311E+04  0.25500000920E-02 0. -1.
    10030    2    1    2    0    0  0.00000000000E+00  0.00000000000E+00 -0.26736834690E+03  0.39238665153E+04  0.39147468114E+04 0.  0.
        1    1    3    3  502    0 -0.53835399296E+03 -0.10713442622E+04 -0.16844493845E+04  0.20676008509E+04  0.50400001928E-02 0. -1.
       -1    1    3    3    0  502  0.53835399296E+03  0.10713442622E+04  0.14170810376E+04  0.18562656644E+04  0.50400001928E-02 0.  1.
</event>
<event>
 5   0  0.1187925E-07  0.3911255E+04  0.7818609E-02  0.8022692E-01
        1   -1    0    0  501    0  0.00000000000E+00  0.00000000000E+00  0.11836934588E+04  0.11836934588E+04  0.50400001928E-02 0. -1.
       -1   -1    0    0    0  501  0.00000000000E+00  0.00000000000E+00 -0.32309707414E+04  0.32309707414E+04  0.50400001928E-02 0.  1.
    10030    2    1    2    0    0  0.00000000000E+00  0.00000000000E+00 -0.20472772825E+04  0.44146642002E+04  0.39112550069E+04 0.  0.
        2    1    3    3  502    0  0.90989504651E+03 -0.32435532204E+03  0.89561730307E+03  0.13172872595E+04  0.25500000920E-02 0. -1.
       -2    1    3    3    0  502 -0.90989504651E+03  0.32435532204E+03 -0.29428945856E+04  0.30973769407E+04  0.25500000920E-02 0.  1.
</event>
<event>
 5   0  0.1187925E-07  0.4076091E+04  0.7818609E-02  0.7989370E-01
        1   -1    0    0  501    0  0.00000000000E+00  0.00000000000E+00  0.22882300345E+04  0.22882300345E+04  0.50400001928E-02 0.  1.
       -1   -1    0    0    0  501  0.00000000000E+00  0.00000000000E+00 -0.18152153953E+04  0.18152153953E+04  0.50400001928E-02 0. -1.
    10030    2    1    2    0    0  0.00000000000E+00  0.00000000000E+00  0.47301463914E+03  0.41034454298E+04  0.40760914546E+04 0.  0.
        4    1    3    3  502    0  0.90227308602E+03 -0.36251900902E+03  0.20396475571E+04  0.22595752972E+04  0.12699999809E+01 0.  1.
       -4    1    3    3    0  502 -0.90227308602E+03  0.36251900902E+03 -0.15666329179E+04  0.18438701326E+04  0.12699999809E+01 0. -1.
</event>
<event>
 5   0  0.3810833E-07  0.3911918E+04  0.7818609E-02  0.8022555E-01
       -2   -1    0    0    0  501  0.00000000000E+00  0.00000000000E+00  0.26668070258E+04  0.26668070258E+04  0.25500000920E-02 0.  1.
        2   -1    0    0  501    0  0.00000000000E+00  0.00000000000E+00 -0.14345900936E+04  0.14345900936E+04  0.25500000920E-02 0. -1.
    10030    2    1    2    0    0  0.00000000000E+00  0.00000000000E+00  0.12322169322E+04  0.41013971194E+04  0.39119176580E+04 0.  0.
        3    1    3    3  502    0 -0.19069166305E+04 -0.11502914254E+03  0.10562173076E+04  0.21829241284E+04  0.10100000352E+00 0. -1.
       -3    1    3    3    0  502  0.19069166305E+04  0.11502914254E+03  0.17599962464E+03  0.19184729910E+04  0.10100000352E+00 0.  1.
</event>
<event>
 5   0  0.3832389E-07  0.3917359E+04  0.7818609E-02  0.8021428E-01
        2   -1    0    0  501    0  0.00000000000E+00  0.00000000000E+00  0.12061532384E+04  0.12061532384E+04  0.25500000920E-02 0.  1.
       -2   -1    0    0    0  501  0.00000000000E+00  0.00000000000E+00 -0.31807121513E+04  0.31807121513E+04  0.25500000920E-02 0. -1.
    10030    2    1    2    0    0  0.00000000000E+00  0.00000000000E+00 -0.19745589128E+04  0.43868653897E+04  0.39173594483E+04 0.  0.
        5    1    3    3  502    0 -0.63956616521E+03 -0.74704459266E+03 -0.28841933973E+04  0.30472469782E+04  0.46999998093E+01 0. -1.
       -5    1    3    3    0  502  0.63956616521E+03  0.74704459266E+03  0.90963448447E+03  0.13396184115E+04  0.46999998093E+01 0.  1.
</event>
<event>
 5   0  0.3832389E-07  0.3835310E+04  0.7818609E-02  0.8038620E-01
        2   -1    0    0  501    0  0.00000000000E+00  0.00000000000E+00  0.11618562680E+04  0.11618562680E+04  0.25500000920E-02 0.  1.
       -2   -1    0    0    0  501  0.00000000000E+00  0.00000000000E+00 -0.31651087777E+04  0.31651087777E+04  0.25500000920E-02 0. -1.
    10030    2    1    2    0    0  0.00000000000E+00  0.00000000000E+00 -0.20032525097E+04  0.43269650457E+04  0.38353104032E+04 0.  0.
        5    1    3    3  502    0 -0.13703859118E+03  0.50923436249E+03 -0.30816885842E+04  0.31264877788E+04  0.46999998093E+01 0. -1.
       -5    1    3    3    0  502  0.13703859118E+03 -0.50923436249E+03  0.10784360745E+04  0.12004772668E+04  0.46999998093E+01 0.  1.
</event>
<event>
 5   0  0.3680814E-07  0.3895047E+04  0.7818609E-02  0.8026060E-01
       -2   -1    0    0    0  501  0.00000000000E+00  0.00000000000E+00  0.13273801471E+04  0.13273801471E+04  0.25500000920E-02 0. -1.
        2   -1    0    0  501    0  0.00000000000E+00  0.00000000000E+00 -0.28573942862E+04  0.28573942862E+04  0.25500000920E-02 0.  1.
    10030    2    1    2    0    0  0.00000000000E+00  0.00000000000E+00 -0.15300141391E+04  0.41847744333E+04  0.38950473415E+04 0.  0.
        1    1    3    3  502    0 -0.10587919812E+04 -0.16084828211E+03 -0.25126349555E+04  0.27313452819E+04  0.50400001928E-02 0.  1.
       -1    1    3    3    0  502  0.10587919812E+04  0.16084828211E+03  0.98262081646E+03  0.14534291514E+04  0.50400001928E-02 0. -1.
</event>
<event>
 5   0  0.1187925E-07  0.3768020E+04  0.7818609E-02  0.8053053E-01
        1   -1    0    0  501    0  0.00000000000E+00  0.00000000000E+00  0.28597156255E+04  0.28597156255E+04  0.50400001928E-02 0. -1.
       -1   -1    0    0    0  501  0.00000000000E+00  0.00000000000E+00 -0.12412049098E+04  0.12412049099E+04  0.50400001928E-02 0.  1.
    10030    2    1    2    0    0  0.00000000000E+00  0.00000000000E+00  0.16185107156E+04  0.41009205353E+04  0.37680196789E+04 0.  0.
        4    1    3    3  502    0 -0.40204263106E+03  0.16852808277E+04  0.38169909115E+01  0.17325778273E+04  0.12699999809E+01 0.  1.
       -4    1    3    3    0  502  0.40204263106E+03 -0.16852808277E+04  0.16146937247E+04  0.23683427081E+04  0.12699999809E+01 0. -1.
</event>
<event>
 5   0  0.1187925E-07  0.3879821E+04  0.7818609E-02  0.8029239E-01
        3   -1    0    0  501    0  0.00000000000E+00  0.00000000000E+00  0.19738504090E+04  0.19738504116E+04  0.10100000352E+00 0. -1.
       -3   -1    0    0    0  501  0.00000000000E+00  0.00000000000E+00 -0.19065539315E+04  0.19065539342E+04  0.10100000352E+00 0.  1.
    10030    2    1    2    0    0  0.00000000000E+00  0.00000000000E+00  0.67296477503E+02  0.38804043457E+04  0.38798207523E+04 0.  0.
        3    1    3    3  502    0 -0.11243870654E+04 -0.91233329059E+03 -0.12575354730E+04  0.19178096313E+04  0.10100000352E+00 0.  1.
       -3    1    3    3    0  502  0.11243870654E+04  0.91233329059E+03  0.13248319505E+04  0.19625947144E+04  0.10100000352E+00 0. -1.
</event>
<event>
 5   0  0.3832389E-07  0.3863845E+04  0.7818609E-02  0.8032591E-01
       -2   -1    0    0    0  501  0.00000000000E+00  0.00000000000E+00  0.16524043899E+04  0.16524043899E+04  0.25500000920E-02 0.  1.
        2   -1    0    0  501    0  0.00000000000E+00  0.00000000000E+00 -0.22587230031E+04  0.22587230031E+04  0.25500000920E-02 0. -1.
    10030    2    1    2    0    0  0.00000000000E+00  0.00000000000E+00 -0.60631861326E+03  0.39111273930E+04  0.38638446169E+04 0.  0.
        5    1    3    3  502    0 -0.56428292400E+03  0.13860200381E+04 -0.15399272109E+04  0.21472924042E+04  0.46999998093E+01 0. -1.
       -5    1    3    3    0  502  0.56428292400E+03 -0.13860200381E+04  0.93360859760E+03  0.17638349888E+04  0.46999998093E+01 0.  1.
</event>
<event>
 5   0  0.3665303E-07  0.3601119E+04  0.7818609E-02  0.8090236E-01
       -2   -1    0    0    0  501  0.00000000000E+00  0.00000000000E+00  0.11423449481E+04  0.11423449481E+04  0.25500000920E-02 0. -1.
        2   -1    0    0  501    0  0.00000000000E+00  0.00000000000E+00 -0.28380340704E+04  0.28380340704E+04  0.25500000920E-02 0.  1.
    10030    2    1    2    0    0  0.00000000000E+00  0.00000000000E+00 -0.16956891223E+04  0.39803790186E+04  0.36011186501E+04 0.  0.
        2    1    3    3  502    0 -0.54337551673E+03  0.11588336487E+04 -0.22476588730E+04  0.25865271673E+04  0.25500000920E-02 0.  1.
       -2    1    3    3    0  502  0.54337551673E+03 -0.11588336487E+04  0.55196975074E+03  0.13938518513E+04  0.25500000920E-02 0. -1.
</event>
<event>
 5   0  0.3810833E-07  0.3257951E+04  0.7818609E-02  0.8173678E-01
        2   -1    0    0  501    0  0.00000000000E+00  0.00000000000E+00  0.22484534418E+04  0.22484534418E+04  0.25500000920E-02 0. -1.
       -2   -1    0    0    0  501  0.00000000000E+00  0.00000000000E+00 -0.11801716869E+04  0.11801716870E+04  0.25500000920E-02 0.  1.
    10030    2    1    2    0    0  0.00000000000E+00  0.00000000000E+00  0.10682817548E+04  0.34286251287E+04  0.32579509459E+04 0.  0.
        3    1    3    3  502    0 -0.66511060922E+03 -0.76462676129E+03 -0.80802796450E+03  0.12961232226E+04  0.10100000352E+00 0.  1.
       -3    1    3    3    0  502  0.66511060922E+03  0.76462676129E+03  0.18763097193E+04  0.21325019061E+04  0.10100000352E+00 0. -1.
</event>
<event>
 5   0  0.1187925E-07  0.3892352E+04  0.7818609E-02  0.8026622E-01
       -1   -1    0    0    0  501  0.00000000000E+00  0.00000000000E+00  0.13916287763E+04  0.13916287763E+04  0.50400001928E-02 0. -1.
        1   -1    0    0  501    0  0.00000000000E+00  0.00000000000E+00 -0.27217042330E+04  0.27217042330E+04  0.50400001928E-02 0.  1.
    10030    2    1    2    0    0  0.00000000000E+00  0.00000000000E+00 -0.13300754567E+04  0.41133330094E+04  0.38923524667E+04 0.  0.
        1    1    3    3  502    0  0.11848822989E+04  0.13065635079E+04 -0.15342601320E+04  0.23377357453E+04  0.50400001928E-02 0.  1.
       -1    1    3    3    0  502 -0.11848822989E+04 -0.13065635079E+04  0.20418467523E+03  0.17755972640E+04  0.50400001928E-02 0. -1.
</event>
<event>
 5   0  0.3810833E-07  0.3834131E+04  0.7818609E-02  0.8038870E-01
        2   -1    0    0  501    0  0.00000000000E+00  0.00000000000E+00  0.16774513997E+04  0.16774513997E+04  0.25500000920E-02 0.  1.
       -2   -1    0    0    0  501  0.00000000000E+00  0.00000000000E+00 -0.21909065312E+04  0.21909065312E+04  0.25500000920E-02 0. -1.
    10030    2    1    2    0    0  0.00000000000E+00  0.00000000000E+00 -0.51345513148E+03  0.38683579308E+04  0.38341305284E+04 0.  0.
        3    1    3    3  502    0  0.60613492267E+03  0.51139367937E+02 -0.20909570297E+04  0.21776400276E+04  0.10100000352E+00 0. -1.
       -3    1    3    3    0  502 -0.60613492267E+03 -0.51139367937E+02  0.15775018982E+04  0.16907179033E+04  0.10100000352E+00 0.  1.
</event>
<event>
 5   0  0.3832389E-07  0.3911451E+04  0.7818609E-02  0.8022652E-01
        2   -1    0    0  501    0  0.00000000000E+00  0.00000000000E+00  0.24519928972E+04  0.24519928972E+04  0.25500000920E-02 0. -1.
       -2   -1    0    0    0  501  0.00000000000E+00  0.00000000000E+00 -0.15598995063E+04  0.15598995063E+04  0.25500000920E-02 0.  1.
    10030    2    1    2    0    0  0.00000000000E+00  0.00000000000E+00  0.89209339091E+03  0.40118924035E+04  0.39114511424E+04 0.  0.
        5    1    3    3  502    0  0.37674430759E+02 -0.15964031087E+04  0.16041639250E+04  0.22634677458E+04  0.46999998093E+01 0. -1.
       -5    1    3    3    0  502 -0.37674430759E+02  0.15964031087E+04 -0.71207053412E+03  0.17484246577E+04  0.46999998093E+01 0.  1.
</event>
<event>
 5   0  0.1187925E-07  0.3905435E+04  0.7818609E-02  0.8023900E-01
        1   -1    0    0  501    0  0.00000000000E+00  0.00000000000E+00  0.11705771760E+04  0.11705771760E+04  0.50400001928E-02 0. -1.
       -1   -1    0    0    0  501  0.00000000000E+00  0.00000000000E+00 -0.32574580372E+04  0.32574580372E+04  0.50400001928E-02 0.  1.
    10030    2    1    2    0    0  0.00000000000E+00  0.00000000000E+00 -0.20868808612E+04  0.44280352131E+04  0.39054352024E+04 0.  0.
        1    1    3    3  502    0  0.53358694652E+03 -0.59265898384E+03 -0.30644121587E+04  0.31664777875E+04  0.50400001928E-02 0.  1.
       -1    1    3    3    0  502 -0.53358694652E+03  0.59265898384E+03  0.97753129745E+03  0.12615574256E+04  0.50400001928E-02 0. -1.
</event>
<event>
 5   0  0.1187925E-07  0.3907820E+04  0.7818609E-02  0.8023405E-01
       -1   -1    0    0    0  501  0.00000000000E+00  0.00000000000E+00  0.20023850480E+04  0.20023850481E+04  0.50400001928E-02 0.  1.
        1   -1    0    0  501    0  0.00000000000E+00  0.00000000000E+00 -0.19066079999E+04  0.19066079999E+04  0.50400001928E-02 0. -1.
    10030    2    1    2    0    0  0.00000000000E+00  0.00000000000E+00  0.95777048137E+02  0.39089930480E+04  0.39078195207E+04 0.  0.
        2    1    3    3  502    0 -0.73787988437E+03  0.47269189530E+03 -0.16990204702E+04  0.19116942512E+04  0.25500000920E-02 0. -1.
       -2    1    3    3    0  502  0.73787988437E+03 -0.47269189530E+03  0.17947975184E+04  0.19972987968E+04  0.25500000920E-02 0.  1.
</event>
<event>
 5   0  0.3610483E-07  0.3868836E+04  0.7818609E-02  0.8031542E-01
        2   -1    0    0  501    0  0.00000000000E+00  0.00000000000E+00  0.20579959239E+04  0.20579959239E+04  0.25500000920E-02 0. -1.
       -2   -1    0    0    0  501  0.00000000000E+00  0.00000000000E+00 -0.18182607784E+04  0.18182607784E+04  0.25500000920E-02 0.  1.
    10030    2    1    2    0    0  0.00000000000E+00  0.00000000000E+00  0.23973514544E+03  0.38762567023E+04  0.38688361405E+04 0.  0.
        4    1    3    3  502    0 -0.11077352623E+04  0.12326342251E+04 -0.87979717611E+03  0.18763020088E+04  0.12699999809E+01 0. -1.
       -4    1    3    3    0  502  0.11077352623E+04 -0.12326342251E+04  0.11195323215E+04  0.19999546935E+04  0.12699999809E+01 0.  1.
</event>
<event>
 5   0  0.3610483E-07  0.3948552E+04  0.7818609E-02  0.8015006E-01
        2   -1    0    0  501    0  0.00000000000E+00  0.00000000000E+00  0.21038793540E+04  0.21038793540E+04  0.25500000920E-02 0. -1.
       -2   -1    0    0    0  501  0.00000000000E+00  0.00000000000E+00 -0.18526563289E+04  0.18526563290E+04  0.25500000920E-02 0.  1.
    10030    2    1    2    0    0  0.00000000000E+00  0.00000000000E+00  0.25122302509E+03  0.39565356830E+04  0.39485518361E+04 0.  0.
        4    1    3    3  502    0 -0.14855933802E+04 -0.10328457585E+04 -0.66592605860E+03  0.19280086049E+04  0.12699999809E+01 0.  1.
       -4    1    3    3    0  502  0.14855933802E+04  0.10328457585E+04  0.91714908369E+03  0.20285270781E+04  0.12699999809E+01 0. -1.
</event>
<event>
 5   0  0.3665303E-07  0.3924378E+04  0.7818609E-02  0.8019978E-01
        2   -1    0    0  501    0  0.00000000000E+00  0.00000000000E+00  0.27330195856E+04  0.27330195856E+04  0.25500000920E-02 0. -1.
       -2   -1    0    0    0  501  0.00000000000E+00  0.00000000000E+00 -0.14087661754E+04  0.14087661754E+04  0.25500000920E-02 0.  1.
    10030    2    1    2    0    0  0.00000000000E+00  0.00000000000E+00  0.13242534102E+04  0.41417857610E+04  0.39243779374E+04 0.  0.
        2    1    3    3  502    0 -0.18147165385E+04  0.61369780413E+03  0.21390564020E+03  0.19275831325E+04  0.25500000920E-02 0. -1.
       -2    1    3    3    0  502  0.18147165385E+04 -0.61369780413E+03  0.11103477700E+04  0.22142026285E+04  0.25500000920E-02 0.  1.
</event>
<event>
 5   0  0.3680814E-07  0.3830471E+04  0.7818609E-02  0.8039647E-01
       -2   -1    0    0    0  501  0.00000000000E+00  0.00000000000E+00  0.22494041974E+04  0.22494041975E+04  0.25500000920E-02 0. -1.
        2   -1    0    0  501    0  0.00000000000E+00  0.00000000000E+00 -0.16307101305E+04  0.16307101305E+04  0.25500000920E-02 0.  1.
    10030    2    1    2    0    0  0.00000000000E+00  0.00000000000E+00  0.61869406695E+03  0.38801143280E+04  0.38304705781E+04 0.  0.
        1    1    3    3  502    0  0.63051948527E+03  0.15368413875E+04 -0.65625962456E+03  0.17860887342E+04  0.50400001928E-02 0.  1.
       -1    1    3    3    0  502 -0.63051948527E+03 -0.15368413875E+04  0.12749536915E+04  0.20940255937E+04  0.50400001928E-02 0. -1.
</event>
<event>
 5   0  0.3610483E-07  0.3965637E+04  0.7818609E-02  0.8011515E-01
       -2   -1    0    0    0  501  0.00000000000E+00  0.00000000000E+00  0.12219049893E+04  0.12219049893E+04  0.25500000920E-02 0.  1.
        2   -1    0    0  501    0  0.00000000000E+00  0.00000000000E+00 -0.32175730573E+04  0.32175730573E+04  0.25500000920E-02 0. -1.
    10030    2    1    2    0    0  0.00000000000E+00  0.00000000000E+00 -0.19956680680E+04  0.44394780465E+04  0.39656366813E+04 0.  0.
        4    1    3    3  502    0  0.15642702930E+04  0.65540844176E+01  0.36618726340E+03  0.16065737550E+04  0.12699999809E+01 0.  1.
       -4    1    3    3    0  502 -0.15642702930E+04 -0.65540844176E+01 -0.23618553314E+04  0.28329042915E+04  0.12699999809E+01 0. -1.
</event>
<event>
 5   0  0.3810833E-07  0.3928630E+04  0.7818609E-02  0.8019101E-01
       -2   -1    0    0    0  501  0.00000000000E+00  0.00000000000E+00  0.19877043963E+04  0.19877043963E+04  0.25500000920E-02 0.  1.
        2   -1    0    0  501    0  0.00000000000E+00  0.00000000000E+00 -0.19412008225E+04  0.19412008225E+04  0.25500000920E-02 0. -1.
    10030    2    1    2    0    0  0.00000000000E+00  0.00000000000E+00  0.46503573735E+02  0.39289052188E+04  0.39286299948E+04 0.  0.
        3    1    3    3  502    0 -0.11118211628E+04 -0.90188220762E+03  0.13683350762E+04  0.19803733752E+04  0.10100000352E+00 0.  1.
       -3    1    3    3    0  502  0.11118211628E+04  0.90188220762E+03 -0.13218315025E+04  0.19485318436E+04  0.10100000352E+00 0. -1.
</event>
<event>
 5   0  0.1187925E-07  0.3907935E+04  0.7818609E-02  0.8023381E-01
        1   -1    0    0  501    0  0.00000000000E+00  0.00000000000E+00  0.16903860591E+04  0.16903860591E+04  0.50400001928E-02 0. -1.
       -1   -1    0    0    0  501  0.00000000000E+00  0.00000000000E+00 -0.22586487361E+04  0.22586487361E+04  0.50400001928E-02 0.  1.
    10030    2    1    2    0    0  0.00000000000E+00  0.00000000000E+00 -0.56826267697E+03  0.39490347952E+04  0.39079346647E+04 0.  0.
        3    1    3    3  502    0 -0.65280921404E+03 -0.10231093060E+04 -0.18316008773E+04  0.21971969201E+04  0.10100000352E+00 0.  1.
       -3    1    3    3    0  502  0.65280921404E+03  0.10231093060E+04  0.12633382003E+04  0.17518378751E+04  0.10100000352E+00 0. -1.
</event>
<event>
 5   0  0.1187925E-07  0.3405408E+04  0.7818609E-02  0.8136580E-01
       -1   -1    0    0    0  501  0.00000000000E+00  0.00000000000E+00  0.12014402044E+04  0.12014402044E+04  0.50400001928E-02 0.  1.
        1   -1    0    0  501    0  0.00000000000E+00  0.00000000000E+00 -0.24131040150E+04  0.24131040150E+04  0.50400001928E-02 0. -1.
    10030    2    1    2    0    0  0.00000000000E+00  0.00000000000E+00 -0.12116638106E+04  0.36145442194E+04  0.34054075709E+04 0.  0.
        3    1    3    3  502    0  0.10971004827E+04  0.33234730803E+03  0.73050193249E+03  0.13593076495E+04  0.10100000352E+00 0.  1.
       -3    1    3    3    0  502 -0.10971004827E+04 -0.33234730803E+03 -0.19421657431E+04  0.22552365699E+04  0.10100000352E+00 0. -1.
</event>
<event>
 5   0  0.1187925E-07  0.3884205E+04  0.7818609E-02  0.8028322E-01
        1   -1    0    0  501    0  0.00000000000E+00  0.00000000000E+00  0.23291792665E+04  0.23291792665E+04  0.50400001928E-02 0.  1.
       -1   -1    0    0    0  501  0.00000000000E+00  0.00000000000E+00 -0.16193525026E+04  0.16193525026E+04  0.50400001928E-02 0. -1.
    10030    2    1    2    0    0  0.00000000000E+00  0.00000000000E+00  0.70982676388E+03  0.39485317690E+04  0.38842050791E+04 0.  0.
        4    1    3    3  502    0 -0.75927994872E+03  0.17642890589E+04  0.62859895240E+02  0.19217634878E+04  0.12699999809E+01 0. -1.
       -4    1    3    3    0  502  0.75927994872E+03 -0.17642890589E+04  0.64696686864E+03  0.20267682812E+04  0.12699999809E+01 0.  1.
</event>
<event>
 5   0  0.1187925E-07  0.4037286E+04  0.7818609E-02  0.7997067E-01
        1   -1    0    0  501    0  0.00000000000E+00  0.00000000000E+00  0.23471066290E+04  0.23471066290E+04  0.50400001928E-02 0.  1.
       -1   -1    0    0    0  501  0.00000000000E+00  0.00000000000E+00 -0.17361459305E+04  0.17361459305E+04  0.50400001928E-02 0. -1.
    10030    2    1    2    0    0  0.00000000000E+00  0.00000000000E+00  0.61096069845E+03  0.40832525595E+04  0.40372860302E+04 0.  0.
        1    1    3    3  502    0  0.19666644291E+04 -0.43445613576E+03  0.44266580474E+03  0.20621527891E+04  0.50400001928E-02 0.  1.
       -1    1    3    3    0  502 -0.19666644291E+04  0.43445613576E+03  0.16829489371E+03  0.20210997704E+04  0.50400001928E-02 0. -1.
</event>
<event>
 5   0  0.3680814E-07  0.3685729E+04  0.7818609E-02  0.8071132E-01
        2   -1    0    0  501    0  0.00000000000E+00  0.00000000000E+00  0.18441022835E+04  0.18441022835E+04  0.25500000920E-02 0. -1.
       -2   -1    0    0    0  501  0.00000000000E+00  0.00000000000E+00 -0.18416273101E+04  0.18416273101E+04  0.25500000920E-02 0.  1.
    10030    2    1    2    0    0  0.00000000000E+00  0.00000000000E+00  0.24749733957E+01  0.36857295935E+04  0.36857287625E+04 0.  0.
        1    1    3    3  502    0  0.81965212162E+03 -0.85451639715E+03  0.14133713874E+04  0.18438130470E+04  0.50400001928E-02 0. -1.
       -1    1    3    3    0  502 -0.81965212162E+03  0.85451639715E+03 -0.14108964140E+04  0.18419165466E+04  0.50400001928E-02 0.  1.
</event>
<event>
 5   0  0.3610483E-07  0.3704075E+04  0.7818609E-02  0.8067059E-01
        2   -1    0    0  501    0  0.00000000000E+00  0.00000000000E+00  0.32080267998E+04  0.32080267998E+04  0.25500000920E-02 0. -1.
       -2   -1    0    0    0  501  0.00000000000E+00  0.00000000000E+00 -0.10692063017E+04  0.10692063018E+04  0.25500000920E-02 0.  1.
    10030    2    1    2    0    0  0.00000000000E+00  0.00000000000E+00  0.21388204981E+04  0.42772331016E+04  0.37040747674E+04 0.  0.
        4    1    3    3  502    0  0.37339195575E+03 -0.89665471739E+03  0.28903212777E+04  0.30491588899E+04  0.12699999809E+01 0. -1.
       -4    1    3    3    0  502 -0.37339195575E+03  0.89665471739E+03 -0.75150077957E+03  0.12280742117E+04  0.12699999809E+01 0.  1.
</event>
<event>
 5   0  0.3665303E-07  0.3896817E+04  0.7818609E-02  0.8025691E-01
       -2   -1    0    0    0  501  0.00000000000E+00  0.00000000000E+00  0.19320378552E+04  0.19320378552E+04  0.25500000920E-02 0.  1.
        2   -1    0    0  501    0  0.00000000000E+00  0.00000000000E+00 -0.19649180839E+04  0.19649180839E+04  0.25500000920E-02 0. -1.
    10030    2    1    2    0    0  0.00000000000E+00  0.00000000000E+00 -0.32880228738E+02  0.38969559391E+04  0.38968172246E+04 0.  0.
        2    1    3    3  502    0  0.60293760605E+03  0.17545315861E+04 -0.61176062239E+03  0.19535009349E+04  0.25500000920E-02 0. -1.
       -2    1    3    3    0  502 -0.60293760605E+03 -0.17545315861E+04  0.57888039365E+03  0.19434550042E+04  0.25500000920E-02 0.  1.
</event>
<event>
 5   0  0.1187925E-07  0.3314800E+04  0.7818609E-02  0.8159140E-01
       -3   -1    0    0    0  501  0.00000000000E+00  0.00000000000E+00  0.21832055320E+04  0.21832055343E+04  0.10100000352E+00 0.  1.
        3   -1    0    0  501    0  0.00000000000E+00  0.00000000000E+00 -0.12582299598E+04  0.12582299638E+04  0.10100000352E+00 0. -1.
    10030    2    1    2    0    0  0.00000000000E+00  0.00000000000E+00  0.92497557223E+03  0.34414354981E+04  0.33147999153E+04 0.  0.
        2    1    3    3  502    0 -0.12844251058E+04 -0.63993965087E+03 -0.39847244949E+03  0.14893122245E+04  0.25500000920E-02 0. -1.
       -2    1    3    3    0  502  0.12844251058E+04  0.63993965087E+03  0.13234480217E+04  0.19521232736E+04  0.25500000920E-02 0.  1.
</event>
<event>
 5   0  0.1187925E-07  0.3929256E+04  0.7818609E-02  0.8018972E-01
        1   -1    0    0  501    0  0.00000000000E+00  0.00000000000E+00  0.13470044982E+04  0.13470044982E+04  0.50400001928E-02 0. -1.
       -1   -1    0    0    0  501  0.00000000000E+00  0.00000000000E+00 -0.28654419296E+04  0.28654419296E+04  0.50400001928E-02 0.  1.
    10030    2    1    2    0    0  0.00000000000E+00  0.00000000000E+00 -0.15184374314E+04  0.42124464278E+04  0.39292559949E+04 0.  0.
        3    1    3    3  502    0  0.13059143523E+04 -0.10483678436E+04 -0.18605222697E+04  0.25032040582E+04  0.10100000352E+00 0.  1.
       -3    1    3    3    0  502 -0.13059143523E+04  0.10483678436E+04  0.34208483824E+03  0.17092423695E+04  0.10100000352E+00 0. -1.
</event>
<event>
 5   0  0.3680814E-07  0.3902039E+04  0.7818609E-02  0.8024605E-01
       -2   -1    0    0    0  501  0.00000000000E+00  0.00000000000E+00  0.15605819913E+04  0.15605819913E+04  0.25500000920E-02 0. -1.
        2   -1    0    0  501    0  0.00000000000E+00  0.00000000000E+00 -0.24391390189E+04  0.24391390189E+04  0.25500000920E-02 0.  1.
    10030    2    1    2    0    0  0.00000000000E+00  0.00000000000E+00 -0.87855702767E+03  0.39997210102E+04  0.39020386605E+04 0.  0.
        1    1    3    3  502    0 -0.15100019592E+04  0.38991303144E+03  0.76239077543E+03  0.17359083453E+04  0.50400001928E-02 0. -1.
       -1    1    3    3    0  502  0.15100019592E+04 -0.38991303144E+03 -0.16409478031E+04  0.22638126648E+04  0.50400001928E-02 0.  1.
</event>
<event>
 5   0  0.1187925E-07  0.3945561E+04  0.7818609E-02  0.8015620E-01
        1   -1    0    0  501    0  0.00000000000E+00  0.00000000000E+00  0.19587074799E+04  0.19587074799E+04  0.50400001928E-02 0.  1.
       -1   -1    0    0    0  501  0.00000000000E+00  0.00000000000E+00 -0.19869548254E+04  0.19869548254E+04  0.50400001928E-02 0. -1.
    10030    2    1    2    0    0  0.00000000000E+00  0.00000000000E+00 -0.28247345458E+02  0.39456623053E+04  0.39455611913E+04 0.  0.
        4    1    3    3  502    0  0.94751428184E+03 -0.12265743204E+04 -0.12346441098E+04  0.19815689664E+04  0.12699999809E+01 0. -1.
       -4    1    3    3    0  502 -0.94751428184E+03  0.12265743204E+04  0.12063967644E+04  0.19640933389E+04  0.12699999809E+01 0.  1.
</event>
<event>
 5   0  0.1187925E-07  0.3955769E+04  0.7818609E-02  0.8013529E-01
       -1   -1    0    0    0  501  0.00000000000E+00  0.00000000000E+00  0.20154533305E+04  0.20154533305E+04  0.50400001928E-02 0. -1.
        1   -1    0    0  501    0  0.00000000000E+00  0.00000000000E+00 -0.19410161054E+04  0.19410161054E+04  0.50400001928E-02 0.  1.
    10030    2    1    2    0    0  0.00000000000E+00  0.00000000000E+00  0.74437225070E+02  0.39564694359E+04  0.39557691410E+04 0.  0.
        3    1    3    3  502    0  0.10334648775E+03  0.11463953221E+04  0.16459574720E+04  0.20085016159E+04  0.10100000352E+00 0. -1.
       -3    1    3    3    0  502 -0.10334648775E+03 -0.11463953221E+04 -0.15715202470E+04  0.19479678200E+04  0.10100000352E+00 0.  1.
</event>
<event>
 5   0  0.1187925E-07  0.3902800E+04  0.7818609E-02  0.8024447E-01
        1   -1    0    0  501    0  0.00000000000E+00  0.00000000000E+00  0.13512067310E+04  0.13512067310E+04  0.50400001928E-02 0.  1.
       -1   -1    0    0    0  501  0.00000000000E+00  0.00000000000E+00 -0.28181938324E+04  0.28181938324E+04  0.50400001928E-02 0. -1.
    10030    2    1    2    0    0  0.00000000000E+00  0.00000000000E+00 -0.14669871014E+04  0.41694005634E+04  0.39028002642E+04 0.  0.
        1    1    3    3  502    0  0.36159266987E+03 -0.19139480111E+04 -0.60701617079E+03  0.20401997157E+04  0.50400001928E-02 0.  1.
       -1    1    3    3    0  502 -0.36159266987E+03  0.19139480111E+04 -0.85997093063E+03  0.21292008477E+04  0.50400001928E-02 0. -1.
</event>
<event>
 5   0  0.1187925E-07  0.3934906E+04  0.7818609E-02  0.8017808E-01
        3   -1    0    0  501    0  0.00000000000E+00  0.00000000000E+00  0.19837069016E+04  0.19837069042E+04  0.10100000352E+00 0. -1.
       -3   -1    0    0    0  501  0.00000000000E+00  0.00000000000E+00 -0.19513324576E+04  0.19513324602E+04  0.10100000352E+00 0.  1.
    10030    2    1    2    0    0  0.00000000000E+00  0.00000000000E+00  0.32374444063E+02  0.39350393644E+04  0.39349061862E+04 0.  0.
        2    1    3    3  502    0  0.72491286379E+02 -0.19812294991E+03  0.19723628269E+04  0.19836135740E+04  0.25500000920E-02 0. -1.
       -2    1    3    3    0  502 -0.72491286379E+02  0.19812294991E+03 -0.19399883828E+04  0.19514257904E+04  0.25500000920E-02 0.  1.
</event>
<event>
 5   0  0.1187925E-07  0.4058695E+04  0.7818609E-02  0.7992809E-01
        1   -1    0    0  501    0  0.00000000000E+00  0.00000000000E+00  0.26214845500E+04  0.26214845500E+04  0.50400001928E-02 0. -1.
       -1   -1    0    0    0  501  0.00000000000E+00  0.00000000000E+00 -0.15709614501E+04  0.15709614501E+04  0.50400001928E-02 0.  1.
    10030    2    1    2    0    0  0.00000000000E+00  0.00000000000E+00  0.10505231000E+04  0.41924460001E+04  0.40586949479E+04 0.  0.
        3    1    3    3  502    0  0.16643874860E+04 -0.50751918957E+03  0.16039396368E+04  0.23665130044E+04  0.10100000352E+00 0. -1.
       -3    1    3    3    0  502 -0.16643874860E+04  0.50751918957E+03 -0.55341653684E+03  0.18259329957E+04  0.10100000352E+00 0.  1.
</event>
<event>
 5   0  0.3610483E-07  0.3934015E+04  0.7818609E-02  0.8017992E-01
        2   -1    0    0  501    0  0.00000000000E+00  0.00000000000E+00  0.12563723735E+04  0.12563723735E+04  0.25500000920E-02 0.  1.
       -2   -1    0    0    0  501  0.00000000000E+00  0.00000000000E+00 -0.30795954478E+04  0.30795954478E+04  0.25500000920E-02 0. -1.
    10030    2    1    2    0    0  0.00000000000E+00  0.00000000000E+00 -0.18232230743E+04  0.43359678214E+04  0.39340150698E+04 0.  0.
        4    1    3    3  502    0  0.24258802322E+03  0.16273452678E+04 -0.20997197126E+04  0.26675693157E+04  0.12699999809E+01 0. -1.
       -4    1    3    3    0  502 -0.24258802322E+03 -0.16273452678E+04  0.27649663839E+03  0.16683985056E+04  0.12699999809E+01 0.  1.
</event>
<event>
 5   0  0.3680814E-07  0.3897469E+04  0.7818609E-02  0.8025556E-01
        2   -1    0    0  501    0  0.00000000000E+00  0.00000000000E+00  0.25133937906E+04  0.25133937906E+04  0.25500000920E-02 0. -1.
       -2   -1    0    0    0  501  0.00000000000E+00  0.00000000000E+00 -0.15109316693E+04  0.15109316693E+04  0.25500000920E-02 0.  1.
    10030    2    1    2    0    0  0.00000000000E+00  0.00000000000E+00  0.10024621212E+04  0.40243254599E+04  0.38974690637E+04 0.  0.
        1    1    3    3  502    0 -0.81280494035E+03  0.15815959131E+04 -0.32187827299E+03  0.18071256531E+04  0.50400001928E-02 0.  1.
       -1    1    3    3    0  502  0.81280494035E+03 -0.15815959131E+04  0.13243403942E+04  0.22171998068E+04  0.50400001928E-02 0. -1.
</event>
<event>
 5   0  0.1187925E-07  0.3890778E+04  0.7818609E-02  0.8026950E-01
       -1   -1    0    0    0  501  0.00000000000E+00  0.00000000000E+00  0.20828217975E+04  0.20828217975E+04  0.50400001928E-02 0. -1.
        1   -1    0    0  501    0  0.00000000000E+00  0.00000000000E+00 -0.18170246864E+04  0.18170246864E+04  0.50400001928E-02 0.  1.
    10030    2    1    2    0    0  0.00000000000E+00  0.00000000000E+00  0.26579711110E+03  0.38998464840E+04  0.38907781348E+04 0.  0.
        4    1    3    3  502    0 -0.10528983367E+04 -0.16353055090E+04  0.91353242043E+02  0.19470916884E+04  0.12699999809E+01 0.  1.
       -4    1    3    3    0  502  0.10528983367E+04  0.16353055090E+04  0.17444386906E+03  0.19527547956E+04  0.12699999809E+01 0. -1.
</event>
<event>
 5   0  0.3832389E-07  0.3897746E+04  0.7818609E-02  0.8025498E-01
        2   -1    0    0  501    0  0.00000000000E+00  0.00000000000E+00  0.18736805676E+04  0.18736805676E+04  0.25500000920E-02 0. -1.
       -2   -1    0    0    0  501  0.00000000000E+00  0.00000000000E+00 -0.20270829124E+04  0.20270829124E+04  0.25500000920E-02 0.  1.
    10030    2    1    2    0    0  0.00000000000E+00  0.00000000000E+00 -0.15340234478E+03  0.39007634800E+04  0.38977459445E+04 0.  0.
        5    1    3    3  502    0  0.42361178500E+03  0.14036706381E+04 -0.13615742281E+04  0.20009109609E+04  0.46999998093E+01 0.  1.
       -5    1    3    3    0  502 -0.42361178500E+03 -0.14036706381E+04  0.12081718833E+04  0.18998525191E+04  0.46999998093E+01 0. -1.
</event>
<event>
 5   0  0.1187925E-07  0.3022269E+04  0.7818609E-02  0.8237400E-01
       -1   -1    0    0    0  501  0.00000000000E+00  0.00000000000E+00  0.18549594197E+04  0.18549594197E+04  0.50400001928E-02 0. -1.
        1   -1    0    0  501    0  0.00000000000E+00  0.00000000000E+00 -0.12310392530E+04  0.12310392530E+04  0.50400001928E-02 0.  1.
    10030    2    1    2    0    0  0.00000000000E+00  0.00000000000E+00  0.62392016670E+03  0.30859986726E+04  0.30222692522E+04 0.  0.
        4    1    3    3  502    0  0.10388638499E+04  0.81058749538E+02 -0.80552002835E+03  0.13170697584E+04  0.12699999809E+01 0.  1.
       -4    1    3    3    0  502 -0.10388638499E+04 -0.81058749538E+02  0.14294401951E+04  0.17689289142E+04  0.12699999809E+01 0. -1.
</event>
<event>
 5   0  0.1187925E-07  0.3942000E+04  0.7818609E-02  0.8016350E-01
        1   -1    0    0  501    0  0.00000000000E+00  0.00000000000E+00  0.28116291320E+04  0.28116291320E+04  0.50400001928E-02 0. -1.
       -1   -1    0    0    0  501  0.00000000000E+00  0.00000000000E+00 -0.13817046605E+04  0.13817046605E+04  0.50400001928E-02 0.  1.
    10030    2    1    2    0    0  0.00000000000E+00  0.00000000000E+00  0.14299244715E+04  0.41933337925E+04  0.39420000382E+04 0.  0.
        1    1    3    3  502    0 -0.57951058955E+03 -0.92813346980E+03 -0.10289444902E+04  0.15019956808E+04  0.50400001928E-02 0.  1.
       -1    1    3    3    0  502  0.57951058955E+03  0.92813346980E+03  0.24588689617E+04  0.26913381118E+04  0.50400001928E-02 0. -1.
</event>
<event>
 5   0  0.1187925E-07  0.4137740E+04  0.7818609E-02  0.7977322E-01
        1   -1    0    0  501    0  0.00000000000E+00  0.00000000000E+00  0.21468565845E+04  0.21468565845E+04  0.50400001928E-02 0.  1.
       -1   -1    0    0    0  501  0.00000000000E+00  0.00000000000E+00 -0.19937166391E+04  0.19937166392E+04  0.50400001928E-02 0. -1.
    10030    2    1    2    0    0  0.00000000000E+00  0.00000000000E+00  0.15313994534E+03  0.41405732236E+04  0.41377402985E+04 0.  0.
        1    1    3    3  502    0 -0.12020454496E+04  0.16421701865E+04 -0.29595834049E+03  0.20565085762E+04  0.50400001928E-02 0.  1.
       -1    1    3    3    0  502  0.12020454496E+04 -0.16421701865E+04  0.44909828583E+03  0.20840646475E+04  0.50400001928E-02 0. -1.
</event>
<event>
 5   0  0.1187925E-07  0.3220836E+04  0.7818609E-02  0.8183336E-01
       -1   -1    0    0    0  501  0.00000000000E+00  0.00000000000E+00  0.11711925993E+04  0.11711925993E+04  0.50400001928E-02 0. -1.
        1   -1    0    0  501    0  0.00000000000E+00  0.00000000000E+00 -0.22143628463E+04  0.22143628463E+04  0.50400001928E-02 0.  1.
    10030    2    1    2    0    0  0.00000000000E+00  0.00000000000E+00 -0.10431702470E+04  0.33855554456E+04  0.32208355299E+04 0.  0.
        3    1    3    3  502    0  0.70706870051E+03 -0.61068760532E+03  0.85719900907E+03  0.12679415010E+04  0.10100000352E+00 0. -1.
       -3    1    3    3    0  502 -0.70706870051E+03  0.61068760532E+03 -0.19003692561E+04  0.21176139446E+04  0.10100000352E+00 0.  1.
</event>
<event>
 5   0  0.3832389E-07  0.3489856E+04  0.7818609E-02  0.8116198E-01
        2   -1    0    0  501    0  0.00000000000E+00  0.00000000000E+00  0.16697978760E+04  0.16697978760E+04  0.25500000920E-02 0. -1.
       -2   -1    0    0    0  501  0.00000000000E+00  0.00000000000E+00 -0.18234383044E+04  0.18234383044E+04  0.25500000920E-02 0.  1.
    10030    2    1    2    0    0  0.00000000000E+00  0.00000000000E+00 -0.15364042841E+03  0.34932361804E+04  0.34898558181E+04 0.  0.
        5    1    3    3  502    0  0.53924416345E+03 -0.36522752136E+03 -0.16972075377E+04  0.18178863898E+04  0.46999998093E+01 0.  1.
       -5    1    3    3    0  502 -0.53924416345E+03  0.36522752136E+03  0.15435671093E+04  0.16753497906E+04  0.46999998093E+01 0. -1.
</event>
<event>
 5   0  0.3680814E-07  0.3912145E+04  0.7818609E-02  0.8022508E-01
       -2   -1    0    0    0  501  0.00000000000E+00  0.00000000000E+00  0.12219453322E+04  0.12219453322E+04  0.25500000920E-02 0. -1.
        2   -1    0    0  501    0  0.00000000000E+00  0.00000000000E+00 -0.31312533384E+04  0.31312533384E+04  0.25500000920E-02 0.  1.
    10030    2    1    2    0    0  0.00000000000E+00  0.00000000000E+00 -0.19093080062E+04  0.43531986706E+04  0.39121453965E+04 0.  0.
        1    1    3    3  502    0 -0.98438868215E+03  0.97931786237E+03 -0.24877069219E+04  0.28489946091E+04  0.50400001928E-02 0.  1.
       -1    1    3    3    0  502  0.98438868215E+03 -0.97931786237E+03  0.57839891571E+03  0.15042040616E+04  0.50400001928E-02 0. -1.
</event>
<event>
 5   0  0.1187925E-07  0.3893684E+04  0.7818609E-02  0.8026344E-01
        1   -1    0    0  501    0  0.00000000000E+00  0.00000000000E+00  0.26593669698E+04  0.26593669698E+04  0.50400001928E-02 0.  1.
       -1   -1    0    0    0  501  0.00000000000E+00  0.00000000000E+00 -0.14252239187E+04  0.14252239187E+04  0.50400001928E-02 0. -1.
    10030    2    1    2    0    0  0.00000000000E+00  0.00000000000E+00  0.12341430511E+04  0.40845908884E+04  0.38936838155E+04 0.  0.
        4    1    3    3  502    0 -0.17415207220E+04 -0.41013746529E+03 -0.18807834977E+03  0.17990225802E+04  0.12699999809E+01 0. -1.
       -4    1    3    3    0  502  0.17415207220E+04  0.41013746529E+03  0.14222214009E+04  0.22855683082E+04  0.12699999809E+01 0.  1.
</event>
<event>
 5   0  0.1187925E-07  0.3244089E+04  0.7818609E-02  0.8177270E-01
       -1   -1    0    0    0  501  0.00000000000E+00  0.00000000000E+00  0.14426845033E+04  0.14426845033E+04  0.50400001928E-02 0.  1.
        1   -1    0    0  501    0  0.00000000000E+00  0.00000000000E+00 -0.18237028695E+04  0.18237028695E+04  0.50400001928E-02 0. -1.
    10030    2    1    2    0    0  0.00000000000E+00  0.00000000000E+00 -0.38101836624E+03  0.32663873728E+04  0.32440886970E+04 0.  0.
        3    1    3    3  502    0  0.17917764866E+03  0.13002155498E+04 -0.11501409743E+04  0.17451330541E+04  0.10100000352E+00 0.  1.
       -3    1    3    3    0  502 -0.17917764866E+03 -0.13002155498E+04  0.76912260802E+03  0.15212543187E+04  0.10100000352E+00 0. -1.
</event>
<event>
 5   0  0.3832389E-07  0.3882292E+04  0.7818609E-02  0.8028722E-01
       -2   -1    0    0    0  501  0.00000000000E+00  0.00000000000E+00  0.23032967533E+04  0.23032967533E+04  0.25500000920E-02 0. -1.
        2   -1    0    0  501    0  0.00000000000E+00  0.00000000000E+00 -0.16359365685E+04  0.16359365685E+04  0.25500000920E-02 0.  1.
    10030    2    1    2    0    0  0.00000000000E+00  0.00000000000E+00  0.66736018476E+03  0.39392333218E+04  0.38822917906E+04 0.  0.
        5    1    3    3  502    0 -0.92596862289E+03  0.39643187827E+02 -0.13969253538E+04  0.16764283483E+04  0.46999998093E+01 0.  1.
       -5    1    3    3    0  502  0.92596862289E+03 -0.39643187827E+02  0.20642855386E+04  0.22628049734E+04  0.46999998093E+01 0. -1.
</event>
<event>
 5   0  0.1187925E-07  0.3856336E+04  0.7818609E-02  0.8034172E-01
        1   -1    0    0  501    0  0.00000000000E+00  0.00000000000E+00  0.23017822382E+04  0.23017822382E+04  0.50400001928E-02 0.  1.
       -1   -1    0    0    0  501  0.00000000000E+00  0.00000000000E+00 -0.16151967706E+04  0.16151967706E+04  0.50400001928E-02 0. -1.
    10030    2    1    2    0    0  0.00000000000E+00  0.00000000000E+00  0.68658546759E+03  0.39169790088E+04  0.38563356897E+04 0.  0.
        3    1    3    3  502    0  0.37513904645E+03  0.18908771178E+04  0.30159043928E+03  0.19511797411E+04  0.10100000352E+00 0. -1.
       -3    1    3    3    0  502 -0.37513904645E+03 -0.18908771178E+04  0.38499502831E+03  0.19657992677E+04  0.10100000352E+00 0.  1.
</event>
<event>
 5   0  0.1187925E-07  0.3859493E+04  0.7818609E-02  0.8033507E-01
       -1   -1    0    0    0  501  0.00000000000E+00  0.00000000000E+00  0.20418769038E+04  0.20418769038E+04  0.50400001928E-02 0. -1.
        1   -1    0    0  501    0  0.00000000000E+00  0.00000000000E+00 -0.18237733642E+04  0.18237733642E+04  0.50400001928E-02 0.  1.
    10030    2    1    2    0    0  0.00000000000E+00  0.00000000000E+00  0.21810353965E+03  0.38656502680E+04  0.38594925626E+04 0.  0.
        3    1    3    3  502    0  0.11452094132E+04  0.60987761718E+03 -0.13216758735E+04  0.18521021659E+04  0.10100000352E+00 0.  1.
       -3    1    3    3    0  502 -0.11452094132E+04 -0.60987761718E+03  0.15397794132E+04  0.20135481021E+04  0.10100000352E+00 0. -1.
</event>
<event>
 5   0  0.3610483E-07  0.3883208E+04  0.7818609E-02  0.8028531E-01
        2   -1    0    0  501    0  0.00000000000E+00  0.00000000000E+00  0.16660292629E+04  0.16660292629E+04  0.25500000920E-02 0. -1.
       -2   -1    0    0    0  501  0.00000000000E+00  0.00000000000E+00 -0.22627609411E+04  0.22627609411E+04  0.25500000920E-02 0.  1.
    10030    2    1    2    0    0  0.00000000000E+00  0.00000000000E+00 -0.59673167824E+03  0.39287902040E+04  0.38832079227E+04 0.  0.
        4    1    3    3  502    0  0.38348060986E+03  0.50632634559E+02  0.16266516187E+04  0.16720102103E+04  0.12699999809E+01 0. -1.
       -4    1    3    3    0  502 -0.38348060986E+03 -0.50632634559E+02 -0.22233832970E+04  0.22567799937E+04  0.12699999809E+01 0.  1.
</event>
<event>
 5   0  0.3665303E-07  0.4102010E+04  0.7818609E-02  0.7984278E-01
       -2   -1    0    0    0  501  0.00000000000E+00  0.00000000000E+00  0.23395768949E+04  0.23395768949E+04  0.25500000920E-02 0.  1.
        2   -1    0    0  501    0  0.00000000000E+00  0.00000000000E+00 -0.17980265816E+04  0.17980265816E+04  0.25500000920E-02 0. -1.
    10030    2    1    2    0    0  0.00000000000E+00  0.00000000000E+00  0.54155031338E+03  0.41376034765E+04  0.41020099691E+04 0.  0.
        2    1    3    3  502    0  0.12925788220E+04 -0.58298076763E+03  0.17655225897E+04  0.22644417858E+04  0.25500000920E-02 0.  1.
       -2    1    3    3    0  502 -0.12925788220E+04  0.58298076763E+03 -0.12239722763E+04  0.18731616907E+04  0.25500000920E-02 0. -1.
</event>
<event>
 5   0  0.1187925E-07  0.4060081E+04  0.7818609E-02  0.7992535E-01
       -1   -1    0    0    0  501  0.00000000000E+00  0.00000000000E+00  0.21736085529E+04  0.21736085529E+04  0.50400001928E-02 0. -1.
        1   -1    0    0  501    0  0.00000000000E+00  0.00000000000E+00 -0.18959550936E+04  0.18959550936E+04  0.50400001928E-02 0.  1.
    10030    2    1    2    0    0  0.00000000000E+00  0.00000000000E+00  0.27765345931E+03  0.40695636466E+04  0.40600808896E+04 0.  0.
        2    1    3    3  502    0 -0.11807670889E+04  0.14266655954E+04 -0.69466735299E+03  0.19779151576E+04  0.25500000920E-02 0.  1.
       -2    1    3    3    0  502  0.11807670889E+04 -0.14266655954E+04  0.97232081231E+03  0.20916484890E+04  0.25500000920E-02 0. -1.
</event>
<event>
 5   0  0.3665303E-07  0.3436653E+04  0.7818609E-02  0.8128969E-01
        2   -1    0    0  501    0  0.00000000000E+00  0.00000000000E+00  0.16039832849E+04  0.16039832849E+04  0.25500000920E-02 0.  1.
       -2   -1    0    0    0  501  0.00000000000E+00  0.00000000000E+00 -0.18408213542E+04  0.18408213542E+04  0.25500000920E-02 0. -1.
    10030    2    1    2    0    0  0.00000000000E+00  0.00000000000E+00 -0.23683806923E+03  0.34448046391E+04  0.34366534202E+04 0.  0.
        2    1    3    3  502    0 -0.57500436111E+02 -0.50946619148E+03 -0.17623652726E+04  0.18354273221E+04  0.25500000920E-02 0. -1.
       -2    1    3    3    0  502  0.57500436111E+02  0.50946619148E+03  0.15255272034E+04  0.16093773171E+04  0.25500000920E-02 0.  1.
</event>
<event>
 5   0  0.1187925E-07  0.3915784E+04  0.7818609E-02  0.8021755E-01
       -1   -1    0    0    0  501  0.00000000000E+00  0.00000000000E+00  0.18266797316E+04  0.18266797316E+04  0.50400001928E-02 0. -1.
        1   -1    0    0  501    0  0.00000000000E+00  0.00000000000E+00 -0.20985288850E+04  0.20985288850E+04  0.50400001928E-02 0.  1.
    10030    2    1    2    0    0  0.00000000000E+00  0.00000000000E+00 -0.27184915338E+03  0.39252086166E+04  0.39157835387E+04 0.  0.
        2    1    3    3  502    0  0.13490697504E+04  0.95593087993E+03  0.91519226374E+03  0.18898068468E+04  0.25500000920E-02 0.  1.
       -2    1    3    3    0  502 -0.13490697504E+04 -0.95593087993E+03 -0.11870414171E+04  0.20354017698E+04  0.25500000920E-02 0. -1.
</event>
<event>
 5   0  0.1187925E-07  0.3921273E+04  0.7818609E-02  0.8020619E-01
        1   -1    0    0  501    0  0.00000000000E+00  0.00000000000E+00  0.18705121596E+04  0.18705121596E+04  0.50400001928E-02 0.  1.
       -1   -1    0    0    0  501  0.00000000000E+00  0.00000000000E+00 -0.20551032355E+04  0.20551032355E+04  0.50400001928E-02 0. -1.
    10030    2    1    2    0    0  0.00000000000E+00  0.00000000000E+00 -0.18459107589E+03  0.39256153951E+04  0.39212730541E+04 0.  0.
        1    1    3    3  502    0 -0.14205290062E+04 -0.28153966039E+03  0.12308822748E+04  0.19005889646E+04  0.50400001928E-02 0.  1.
       -1    1    3    3    0  502  0.14205290062E+04  0.28153966039E+03 -0.14154733507E+04  0.20250264305E+04  0.50400001928E-02 0. -1.
</event>
<event>
 5   0  0.3665303E-07  0.3883868E+04  0.7818609E-02  0.8028393E-01
       -2   -1    0    0    0  501  0.00000000000E+00  0.00000000000E+00  0.17210967325E+04  0.17210967325E+04  0.25500000920E-02 0. -1.
        2   -1    0    0  501    0  0.00000000000E+00  0.00000000000E+00 -0.21911077442E+04  0.21911077442E+04  0.25500000920E-02 0.  1.
    10030    2    1    2    0    0  0.00000000000E+00  0.00000000000E+00 -0.47001101173E+03  0.39122044767E+04  0.38838683701E+04 0.  0.
        2    1    3    3  502    0  0.29342289405E+03 -0.31329171006E+03  0.16727127566E+04  0.17269095681E+04  0.25500000920E-02 0. -1.
       -2    1    3    3    0  502 -0.29342289405E+03  0.31329171006E+03 -0.21427237683E+04  0.21852949086E+04  0.25500000920E-02 0.  1.
</event>
<event>
 5   0  0.3610483E-07  0.3892430E+04  0.7818609E-02  0.8026605E-01
       -2   -1    0    0    0  501  0.00000000000E+00  0.00000000000E+00  0.21501236657E+04  0.21501236657E+04  0.25500000920E-02 0.  1.
        2   -1    0    0  501    0  0.00000000000E+00  0.00000000000E+00 -0.17616441150E+04  0.17616441150E+04  0.25500000920E-02 0. -1.
    10030    2    1    2    0    0  0.00000000000E+00  0.00000000000E+00  0.38847955062E+03  0.39117677807E+04  0.38924299363E+04 0.  0.
        4    1    3    3  502    0 -0.14372869768E+04 -0.35776905519E+01 -0.11245082672E+04  0.18249183843E+04  0.12699999809E+01 0. -1.
       -4    1    3    3    0  502  0.14372869768E+04  0.35776905519E+01  0.15129878178E+04  0.20868493964E+04  0.12699999809E+01 0.  1.
</event>
<event>
 5   0  0.3680814E-07  0.3902188E+04  0.7818609E-02  0.8024574E-01
       -2   -1    0    0    0  501  0.00000000000E+00  0.00000000000E+00  0.15192879929E+04  0.15192879929E+04  0.25500000920E-02 0.  1.
        2   -1    0    0  501    0  0.00000000000E+00  0.00000000000E+00 -0.25056255848E+04  0.25056255848E+04  0.25500000920E-02 0. -1.
    10030    2    1    2    0    0  0.00000000000E+00  0.00000000000E+00 -0.98633759191E+03  0.40249135777E+04  0.39021875227E+04 0.  0.
        1    1    3    3  502    0  0.79694312840E+03 -0.46866425869E+03  0.12790068811E+04  0.15781708207E+04  0.50400001928E-02 0.  1.
       -1    1    3    3    0  502 -0.79694312840E+03  0.46866425869E+03 -0.22653444730E+04  0.24467427570E+04  0.50400001928E-02 0. -1.
</event>
<event>
 5   0  0.3680814E-07  0.3861468E+04  0.7818609E-02  0.8033091E-01
        2   -1    0    0  501    0  0.00000000000E+00  0.00000000000E+00  0.24975490495E+04  0.24975490495E+04  0.25500000920E-02 0.  1.
       -2   -1    0    0    0  501  0.00000000000E+00  0.00000000000E+00 -0.14925567371E+04  0.14925567371E+04  0.25500000920E-02 0. -1.
    10030    2    1    2    0    0  0.00000000000E+00  0.00000000000E+00  0.10049923124E+04  0.39901057866E+04  0.38614679385E+04 0.  0.
        1    1    3    3  502    0 -0.10068324673E+04 -0.99755221383E+03  0.18572448809E+04  0.23362749376E+04  0.50400001928E-02 0.  1.
       -1    1    3    3    0  502  0.10068324673E+04  0.99755221383E+03 -0.85225256850E+03  0.16538308490E+04  0.50400001928E-02 0. -1.
</event>
<event>
 5   0  0.1187925E-07  0.3791208E+04  0.7818609E-02  0.8048044E-01
       -1   -1    0    0    0  501  0.00000000000E+00  0.00000000000E+00  0.20074441100E+04  0.20074441100E+04  0.50400001928E-02 0. -1.
        1   -1    0    0  501    0  0.00000000000E+00  0.00000000000E+00 -0.17899946931E+04  0.17899946931E+04  0.50400001928E-02 0.  1.
    10030    2    1    2    0    0  0.00000000000E+00  0.00000000000E+00  0.21744941693E+03  0.37974388031E+04  0.37912078833E+04 0.  0.
        2    1    3    3  502    0 -0.24375014052E+03 -0.10016050284E+04  0.17021527233E+04  0.19899624764E+04  0.25500000920E-02 0. -1.
       -2    1    3    3    0  502  0.24375014052E+03  0.10016050284E+04 -0.14847033063E+04  0.18074763268E+04  0.25500000920E-02 0.  1.
</event>
<event>
 5   0  0.3832389E-07  0.3890885E+04  0.7818609E-02  0.8026928E-01
        2   -1    0    0  501    0  0.00000000000E+00  0.00000000000E+00  0.23133144440E+04  0.23133144440E+04  0.25500000920E-02 0.  1.
       -2   -1    0    0    0  501  0.00000000000E+00  0.00000000000E+00 -0.16360711860E+04  0.16360711860E+04  0.25500000920E-02 0. -1.
    10030    2    1    2    0    0  0.00000000000E+00  0.00000000000E+00  0.67724325797E+03  0.39493856299E+04  0.38908853007E+04 0.  0.
        5    1    3    3  502    0 -0.13658104126E+04  0.12953971953E+04 -0.15991779491E+03  0.18892029451E+04  0.46999998093E+01 0. -1.
       -5    1    3    3    0  502  0.13658104126E+04 -0.12953971953E+04  0.83716105287E+03  0.20601826849E+04  0.46999998093E+01 0.  1.
</event>
<event>
 5   0  0.3680814E-07  0.3749980E+04  0.7818609E-02  0.8056975E-01
       -2   -1    0    0    0  501  0.00000000000E+00  0.00000000000E+00  0.16844619953E+04  0.16844619953E+04  0.25500000920E-02 0. -1.
        2   -1    0    0  501    0  0.00000000000E+00  0.00000000000E+00 -0.20870679869E+04  0.20870679869E+04  0.25500000920E-02 0.  1.
    10030    2    1    2    0    0  0.00000000000E+00  0.00000000000E+00 -0.40260599157E+03  0.37715299822E+04  0.37499795763E+04 0.  0.
        1    1    3    3  502    0  0.12406545218E+04 -0.10988930917E+04  0.68054658403E+03  0.17916286788E+04  0.50400001928E-02 0. -1.
       -1    1    3    3    0  502 -0.12406545218E+04  0.10988930917E+04 -0.10831525756E+04  0.19799013035E+04  0.50400001928E-02 0.  1.
</event>
<event>
 5   0  0.3832389E-07  0.3872105E+04  0.7818609E-02  0.8030856E-01
        2   -1    0    0  501    0  0.00000000000E+00  0.00000000000E+00  0.12934652236E+04  0.12934652236E+04  0.25500000920E-02 0. -1.
       -2   -1    0    0    0  501  0.00000000000E+00  0.00000000000E+00 -0.28978741362E+04  0.28978741362E+04  0.25500000920E-02 0.  1.
    10030    2    1    2    0    0  0.00000000000E+00  0.00000000000E+00 -0.16044089126E+04  0.41913393599E+04  0.38721050697E+04 0.  0.
        5    1    3    3  502    0  0.11953511187E+04 -0.15215392524E+04 -0.73096566555E+03  0.20684000792E+04  0.46999998093E+01 0.  1.
       -5    1    3    3    0  502 -0.11953511187E+04  0.15215392524E+04 -0.87344324706E+03  0.21229392807E+04  0.46999998093E+01 0. -1.
</event>
<event>
 5   0  0.3610483E-07  0.3878908E+04  0.7818609E-02  0.8029430E-01
       -2   -1    0    0    0  501  0.00000000000E+00  0.00000000000E+00  0.20354594942E+04  0.20354594942E+04  0.25500000920E-02 0.  1.
        2   -1    0    0  501    0  0.00000000000E+00  0.00000000000E+00 -0.18479764458E+04  0.18479764458E+04  0.25500000920E-02 0. -1.
    10030    2    1    2    0    0  0.00000000000E+00  0.00000000000E+00  0.18748304841E+03  0.38834359401E+04  0.38789076822E+04 0.  0.
        4    1    3    3  502    0 -0.45492457081E+03 -0.11140242082E+04  0.16165277741E+04  0.20152344674E+04  0.12699999809E+01 0.  1.
       -4    1    3    3    0  502  0.45492457081E+03  0.11140242082E+04 -0.14290447256E+04  0.18682014726E+04  0.12699999809E+01 0. -1.
</event>
<event>
 5   0  0.1187925E-07  0.3848123E+04  0.7818609E-02  0.8035906E-01
        1   -1    0    0  501    0  0.00000000000E+00  0.00000000000E+00  0.16427424569E+04  0.16427424569E+04  0.50400001928E-02 0. -1.
       -1   -1    0    0    0  501  0.00000000000E+00  0.00000000000E+00 -0.22535558060E+04  0.22535558060E+04  0.50400001928E-02 0.  1.
    10030    2    1    2    0    0  0.00000000000E+00  0.00000000000E+00 -0.61081334910E+03  0.38962982630E+04  0.38481225561E+04 0.  0.
        1    1    3    3  502    0 -0.70477955396E+03 -0.17665203363E+04 -0.10724452859E+02  0.19019525052E+04  0.50400001928E-02 0.  1.
       -1    1    3    3    0  502  0.70477955396E+03  0.17665203363E+04 -0.60008889624E+03  0.19943457578E+04  0.50400001928E-02 0. -1.
</event>
<event>
 5   0  0.3810833E-07  0.3575374E+04  0.7818609E-02  0.8096156E-01
        2   -1    0    0  501    0  0.00000000000E+00  0.00000000000E+00  0.20315818254E+04  0.20315818254E+04  0.25500000920E-02 0. -1.
       -2   -1    0    0    0  501  0.00000000000E+00  0.00000000000E+00 -0.15730724245E+04  0.15730724245E+04  0.25500000920E-02 0.  1.
    10030    2    1    2    0    0  0.00000000000E+00  0.00000000000E+00  0.45850940095E+03  0.36046542499E+04  0.35753743008E+04 0.  0.
        3    1    3    3  502    0 -0.11541323310E+04 -0.10170876856E+04  0.11473917241E+04  0.19191134871E+04  0.10100000352E+00 0. -1.
       -3    1    3    3    0  502  0.11541323310E+04  0.10170876856E+04 -0.68888232315E+03  0.16855407628E+04  0.10100000352E+00 0.  1.
</event>
<event>
 5   0  0.3680814E-07  0.3890947E+04  0.7818609E-02  0.8026915E-01
       -2   -1    0    0    0  501  0.00000000000E+00  0.00000000000E+00  0.19011126321E+04  0.19011126321E+04  0.25500000920E-02 0.  1.
        2   -1    0    0  501    0  0.00000000000E+00  0.00000000000E+00 -0.19908691669E+04  0.19908691669E+04  0.25500000920E-02 0. -1.
    10030    2    1    2    0    0  0.00000000000E+00  0.00000000000E+00 -0.89756534787E+02  0.38919817991E+04  0.38909466829E+04 0.  0.
        1    1    3    3  502    0 -0.64341862748E+03 -0.18915706513E+03 -0.18715893333E+04  0.19881183461E+04  0.50400001928E-02 0. -1.
       -1    1    3    3    0  502  0.64341862748E+03  0.18915706513E+03  0.17818327986E+04  0.19038634530E+04  0.50400001928E-02 0.  1.
</event>
<event>
 5   0  0.1187925E-07  0.3870645E+04  0.7818609E-02  0.8031162E-01
        1   -1    0    0  501    0  0.00000000000E+00  0.00000000000E+00  0.15212180755E+04  0.15212180755E+04  0.50400001928E-02 0.  1.
       -1   -1    0    0    0  501  0.00000000000E+00  0.00000000000E+00 -0.24621540018E+04  0.24621540018E+04  0.50400001928E-02 0. -1.
    10030    2    1    2    0    0  0.00000000000E+00  0.00000000000E+00 -0.94093592637E+03  0.39833720773E+04  0.38706449965E+04 0.  0.
        4    1    3    3  502    0  0.55170656397E+03 -0.17479987837E+04 -0.11095128439E+04  0.21426386173E+04  0.12699999809E+01 0. -1.
       -4    1    3    3    0  502 -0.55170656397E+03  0.17479987837E+04  0.16857691757E+03  0.18407334600E+04  0.12699999809E+01 0.  1.
</event>
<event>
 5   0  0.3810833E-07  0.3602941E+04  0.7818609E-02  0.8089818E-01
        2   -1    0    0  501    0  0.00000000000E+00  0.00000000000E+00  0.20062145559E+04  0.20062145559E+04  0.25500000920E-02 0.  1.
       -2   -1    0    0    0  501  0.00000000000E+00  0.00000000000E+00 -0.16176215983E+04  0.16176215983E+04  0.25500000920E-02 0. -1.
    10030    2    1    2    0    0  0.00000000000E+00  0.00000000000E+00  0.38859295762E+03  0.36238361542E+04  0.36029410189E+04 0.  0.
        3    1    3    3  502    0  0.67055057287E+03  0.14047501026E+04  0.11063825121E+04  0.19097233294E+04  0.10100000352E+00 0.  1.
       -3    1    3    3    0  502 -0.67055057287E+03 -0.14047501026E+04 -0.71778955447E+03  0.17141128248E+04  0.10100000352E+00 0. -1.
</event>
<event>
 5   0  0.3680814E-07  0.3786570E+04  0.7818609E-02  0.8049043E-01
       -2   -1    0    0    0  501  0.00000000000E+00  0.00000000000E+00  0.12291959653E+04  0.12291959653E+04  0.25500000920E-02 0. -1.
        2   -1    0    0  501    0  0.00000000000E+00  0.00000000000E+00 -0.29161561753E+04  0.29161561753E+04  0.25500000920E-02 0.  1.
    10030    2    1    2    0    0  0.00000000000E+00  0.00000000000E+00 -0.16869602100E+04  0.41453521406E+04  0.37865696374E+04 0.  0.
        1    1    3    3  502    0  0.12079633668E+03 -0.13466012865E+03  0.12197129768E+04  0.12330550884E+04  0.50400001928E-02 0. -1.
       -1    1    3    3    0  502 -0.12079633668E+03  0.13466012865E+03 -0.29066731868E+04  0.29122970522E+04  0.50400001928E-02 0.  1.
</event>
<event>
 5   0  0.1187925E-07  0.4002584E+04  0.7818609E-02  0.8004025E-01
        1   -1    0    0  501    0  0.00000000000E+00  0.00000000000E+00  0.23204681477E+04  0.23204681477E+04  0.50400001928E-02 0.  1.
       -1   -1    0    0    0  501  0.00000000000E+00  0.00000000000E+00 -0.17260180894E+04  0.17260180894E+04  0.50400001928E-02 0. -1.
    10030    2    1    2    0    0  0.00000000000E+00  0.00000000000E+00  0.59445005837E+03  0.40464862371E+04  0.40025841647E+04 0.  0.
        2    1    3    3  502    0 -0.73378033774E+02  0.14646836064E+04 -0.10795074596E+04  0.18209938929E+04  0.25500000920E-02 0. -1.
       -2    1    3    3    0  502  0.73378033774E+02 -0.14646836064E+04  0.16739575179E+04  0.22254923443E+04  0.25500000920E-02 0.  1.
</event>
<event>
 5   0  0.3832389E-07  0.3876153E+04  0.7818609E-02  0.8030007E-01
        2   -1    0    0  501    0  0.00000000000E+00  0.00000000000E+00  0.23747000829E+04  0.23747000829E+04  0.25500000920E-02 0.  1.
       -2   -1    0    0    0  501  0.00000000000E+00  0.00000000000E+00 -0.15817323644E+04  0.15817323644E+04  0.25500000920E-02 0. -1.
    10030    2    1    2    0    0  0.00000000000E+00  0.00000000000E+00  0.79296771849E+03  0.39564324474E+04  0.38761527199E+04 0.  0.
        5    1    3    3  502    0  0.96185084998E+02 -0.49984809467E+03  0.23052460389E+04  0.23607797606E+04  0.46999998093E+01 0.  1.
       -5    1    3    3    0  502 -0.96185084998E+02  0.49984809467E+03 -0.15122783204E+04  0.15956526867E+04  0.46999998093E+01 0. -1.
</event>
<event>
 5   0  0.1187925E-07  0.3892685E+04  0.7818609E-02  0.8026552E-01
        1   -1    0    0  501    0  0.00000000000E+00  0.00000000000E+00  0.14803171033E+04  0.14803171033E+04  0.50400001928E-02 0. -1.
       -1   -1    0    0    0  501  0.00000000000E+00  0.00000000000E+00 -0.25590799362E+04  0.25590799362E+04  0.50400001928E-02 0.  1.
    10030    2    1    2    0    0  0.00000000000E+00  0.00000000000E+00 -0.10787628329E+04  0.40393970395E+04  0.38926853447E+04 0.  0.
        1    1    3    3  502    0 -0.79735116647E+02  0.15747630929E+04 -0.17234448104E+04  0.23359149176E+04  0.50400001928E-02 0.  1.
       -1    1    3    3    0  502  0.79735116647E+02 -0.15747630929E+04  0.64468197753E+03  0.17034821219E+04  0.50400001928E-02 0. -1.
</event>
<event>
 5   0  0.3680814E-07  0.3849174E+04  0.7818609E-02  0.8035684E-01
        2   -1    0    0  501    0  0.00000000000E+00  0.00000000000E+00  0.25580917692E+04  0.25580917692E+04  0.25500000920E-02 0.  1.
       -2   -1    0    0    0  501  0.00000000000E+00  0.00000000000E+00 -0.14479682564E+04  0.14479682564E+04  0.25500000920E-02 0. -1.
    10030    2    1    2    0    0  0.00000000000E+00  0.00000000000E+00  0.11101235128E+04  0.40060600256E+04  0.38491742901E+04 0.  0.
        1    1    3    3  502    0  0.13243915735E+04 -0.23845467563E+03  0.19870642231E+04  0.23998537245E+04  0.50400001928E-02 0.  1.
       -1    1    3    3    0  502 -0.13243915735E+04  0.23845467563E+03 -0.87694071025E+03  0.16062063011E+04  0.50400001928E-02 0. -1.
</event>
<event>
 5   0  0.3665303E-07  0.3881551E+04  0.7818609E-02  0.8028877E-01
        2   -1    0    0  501    0  0.00000000000E+00  0.00000000000E+00  0.30436143443E+04  0.30436143443E+04  0.25500000920E-02 0. -1.
       -2   -1    0    0    0  501  0.00000000000E+00  0.00000000000E+00 -0.12375451432E+04  0.12375451432E+04  0.25500000920E-02 0.  1.
    10030    2    1    2    0    0  0.00000000000E+00  0.00000000000E+00  0.18060692011E+04  0.42811594875E+04  0.38815513134E+04 0.  0.
        2    1    3    3  502    0  0.60847790831E+03 -0.91545963754E+03 -0.86109983728E+03  0.13963540535E+04  0.25500000920E-02 0.  1.
       -2    1    3    3    0  502 -0.60847790831E+03  0.91545963754E+03  0.26671690384E+04  0.28848054341E+04  0.25500000920E-02 0. -1.
</event>
<event>
 5   0  0.1187925E-07  0.3957803E+04  0.7818609E-02  0.8013114E-01
        3   -1    0    0  501    0  0.00000000000E+00  0.00000000000E+00  0.29286655471E+04  0.29286655489E+04  0.10100000352E+00 0. -1.
       -3   -1    0    0    0  501  0.00000000000E+00  0.00000000000E+00 -0.13371452835E+04  0.13371452873E+04  0.10100000352E+00 0.  1.
    10030    2    1    2    0    0  0.00000000000E+00  0.00000000000E+00  0.15915202637E+04  0.42658108362E+04  0.39578030952E+04 0.  0.
        4    1    3    3  502    0  0.17554467845E+04 -0.65296354476E+03  0.10722199093E+03  0.18760205149E+04  0.12699999809E+01 0.  1.
       -4    1    3    3    0  502 -0.17554467845E+04  0.65296354476E+03  0.14842982728E+04  0.23897903212E+04  0.12699999809E+01 0. -1.
</event>
<event>
 5   0  0.1187925E-07  0.3915699E+04  0.7818609E-02  0.8021772E-01
       -1   -1    0    0    0  501  0.00000000000E+00  0.00000000000E+00  0.14608914292E+04  0.14608914292E+04  0.50400001928E-02 0. -1.
        1   -1    0    0  501    0  0.00000000000E+00  0.00000000000E+00 -0.26238600894E+04  0.26238600894E+04  0.50400001928E-02 0.  1.
    10030    2    1    2    0    0  0.00000000000E+00  0.00000000000E+00 -0.11629686602E+04  0.40847515186E+04  0.39156990262E+04 0.  0.
        3    1    3    3  502    0 -0.54641707321E+03 -0.86308448856E+03 -0.23238294236E+04  0.25384384279E+04  0.10100000352E+00 0.  1.
       -3    1    3    3    0  502  0.54641707321E+03  0.86308448856E+03  0.11608607634E+04  0.15463130907E+04  0.10100000352E+00 0. -1.
</event>
<event>
 5   0  0.3680814E-07  0.4023939E+04  0.7818609E-02  0.7999735E-01
        2   -1    0    0  501    0  0.00000000000E+00  0.00000000000E+00  0.23468653367E+04  0.23468653367E+04  0.25500000920E-02 0.  1.
       -2   -1    0    0    0  501  0.00000000000E+00  0.00000000000E+00 -0.17248631615E+04  0.17248631615E+04  0.25500000920E-02 0. -1.
    10030    2    1    2    0    0  0.00000000000E+00  0.00000000000E+00  0.62200217522E+03  0.40717284982E+04  0.40239391468E+04 0.  0.
        1    1    3    3  502    0 -0.18130784482E+03  0.17175799932E+04  0.13552789580E+04  0.21953894009E+04  0.50400001928E-02 0.  1.
       -1    1    3    3    0  502  0.18130784482E+03 -0.17175799932E+04 -0.73327678279E+03  0.18763390973E+04  0.50400001928E-02 0. -1.
</event>
<event>
 5   0  0.3832389E-07  0.3925278E+04  0.7818609E-02  0.8019792E-01
        2   -1    0    0  501    0  0.00000000000E+00  0.00000000000E+00  0.28693536835E+04  0.28693536835E+04  0.25500000920E-02 0.  1.
       -2   -1    0    0    0  501  0.00000000000E+00  0.00000000000E+00 -0.13424460778E+04  0.13424460778E+04  0.25500000920E-02 0. -1.
    10030    2    1    2    0    0  0.00000000000E+00  0.00000000000E+00  0.15269076057E+04  0.42117997613E+04  0.39252783842E+04 0.  0.
        5    1    3    3  502    0 -0.18054411125E+04 -0.82177816120E+01 -0.62295258058E+02  0.18065403211E+04  0.46999998093E+01 0. -1.
       -5    1    3    3    0  502  0.18054411125E+04  0.82177816120E+01  0.15892028638E+04  0.24052594402E+04  0.46999998093E+01 0.  1.
</event>
<event>
 5   0  0.1187925E-07  0.3919295E+04  0.7818609E-02  0.8021028E-01
       -3   -1    0    0    0  501  0.00000000000E+00  0.00000000000E+00  0.25922832852E+04  0.25922832871E+04  0.10100000352E+00 0.  1.
        3   -1    0    0  501    0  0.00000000000E+00  0.00000000000E+00 -0.14814034511E+04  0.14814034546E+04  0.10100000352E+00 0. -1.
    10030    2    1    2    0    0  0.00000000000E+00  0.00000000000E+00  0.11108798340E+04  0.40736867417E+04  0.39192945365E+04 0.  0.
        2    1    3    3  502    0  0.10499123935E+04  0.40541797547E+02  0.22747659117E+04  0.25056974327E+04  0.25500000920E-02 0.  1.
       -2    1    3    3    0  502 -0.10499123935E+04 -0.40541797547E+02 -0.11638860777E+04  0.15679893090E+04  0.25500000920E-02 0. -1.
</event>
<event>
 5   0  0.3680814E-07  0.3887159E+04  0.7818609E-02  0.8027705E-01
       -2   -1    0    0    0  501  0.00000000000E+00  0.00000000000E+00  0.13430103245E+04  0.13430103245E+04  0.25500000920E-02 0. -1.
        2   -1    0    0  501    0  0.00000000000E+00  0.00000000000E+00 -0.28127116353E+04  0.28127116353E+04  0.25500000920E-02 0.  1.
    10030    2    1    2    0    0  0.00000000000E+00  0.00000000000E+00 -0.14697013108E+04  0.41557219599E+04  0.38871587394E+04 0.  0.
        1    1    3    3  502    0 -0.70796379927E+03 -0.89349855666E+03  0.94805717932E+03  0.14826883783E+04  0.50400001928E-02 0. -1.
       -1    1    3    3    0  502  0.70796379927E+03  0.89349855666E+03 -0.24177584901E+04  0.26730335816E+04  0.50400001928E-02 0.  1.
</event>
<event>
 5   0  0.1187925E-07  0.3879927E+04  0.7818609E-02  0.8029217E-01
        1   -1    0    0  501    0  0.00000000000E+00  0.00000000000E+00  0.15821124901E+04  0.15821124901E+04  0.50400001928E-02 0. -1.
       -1   -1    0    0    0  501  0.00000000000E+00  0.00000000000E+00 -0.23787548185E+04  0.23787548185E+04  0.50400001928E-02 0.  1.
    10030    2    1    2    0    0  0.00000000000E+00  0.00000000000E+00 -0.79664232836E+03  0.39608673086E+04  0.38799266536E+04 0.  0.
        1    1    3    3  502    0 -0.71979001232E+02 -0.86506029514E+03 -0.21694340069E+04  0.23366544890E+04  0.50400001928E-02 0.  1.
       -1    1    3    3    0  502  0.71979001232E+02  0.86506029514E+03  0.13727916785E+04  0.16242128196E+04  0.50400001928E-02 0. -1.
</event>
<event>
 5   0  0.3810833E-07  0.3941224E+04  0.7818609E-02  0.8016510E-01
        2   -1    0    0  501    0  0.00000000000E+00  0.00000000000E+00  0.22782782402E+04  0.22782782402E+04  0.25500000920E-02 0. -1.
       -2   -1    0    0    0  501  0.00000000000E+00  0.00000000000E+00 -0.17044942323E+04  0.17044942323E+04  0.25500000920E-02 0.  1.
    10030    2    1    2    0    0  0.00000000000E+00  0.00000000000E+00  0.57378400787E+03  0.39827724724E+04  0.39412242361E+04 0.  0.
        3    1    3    3  502    0 -0.19390975357E+04  0.35060572345E+03  0.26972815198E+03  0.19889135005E+04  0.10100000352E+00 0. -1.
       -3    1    3    3    0  502  0.19390975357E+04 -0.35060572345E+03  0.30405585589E+03  0.19938589719E+04  0.10100000352E+00 0.  1.
</event>
<event>
 5   0  0.3610483E-07  0.3852981E+04  0.7818609E-02  0.8034880E-01
        2   -1    0    0  501    0  0.00000000000E+00  0.00000000000E+00  0.25127052321E+04  0.25127052321E+04  0.25500000920E-02 0.  1.
       -2   -1    0    0    0  501  0.00000000000E+00  0.00000000000E+00 -0.14770396507E+04  0.14770396507E+04  0.25500000920E-02 0. -1.
    10030    2    1    2    0    0  0.00000000000E+00  0.00000000000E+00  0.10356655814E+04  0.39897448827E+04  0.38529807984E+04 0.  0.
        4    1    3    3  502    0 -0.91857905906E+01  0.17787697185E+04  0.12838599446E+04  0.21937192301E+04  0.12699999809E+01 0. -1.
       -4    1    3    3    0  502  0.91857905906E+01 -0.17787697185E+04 -0.24819436317E+03  0.17960256527E+04  0.12699999809E+01 0.  1.
</event>
<event>
 5   0  0.3665303E-07  0.3886621E+04  0.7818609E-02  0.8027818E-01
       -2   -1    0    0    0  501  0.00000000000E+00  0.00000000000E+00  0.18461987972E+04  0.18461987972E+04  0.25500000920E-02 0.  1.
        2   -1    0    0  501    0  0.00000000000E+00  0.00000000000E+00 -0.20455299945E+04  0.20455299945E+04  0.25500000920E-02 0. -1.
    10030    2    1    2    0    0  0.00000000000E+00  0.00000000000E+00 -0.19933119729E+03  0.38917287917E+04  0.38866206480E+04 0.  0.
        2    1    3    3  502    0 -0.57299856315E+03 -0.15923671556E+04  0.85683565240E+03  0.18968731763E+04  0.25500000920E-02 0.  1.
       -2    1    3    3    0  502  0.57299856315E+03  0.15923671556E+04 -0.10561668497E+04  0.19948556154E+04  0.25500000920E-02 0. -1.
</event>
<event>
 5   0  0.3665303E-07  0.3866793E+04  0.7818609E-02  0.8031971E-01
       -2   -1    0    0    0  501  0.00000000000E+00  0.00000000000E+00  0.13648125658E+04  0.13648125658E+04  0.25500000920E-02 0. -1.
        2   -1    0    0  501    0  0.00000000000E+00  0.00000000000E+00 -0.27388531035E+04  0.27388531035E+04  0.25500000920E-02 0.  1.
    10030    2    1    2    0    0  0.00000000000E+00  0.00000000000E+00 -0.13740405377E+04  0.41036656694E+04  0.38667925373E+04 0.  0.
        2    1    3    3  502    0  0.11205282060E+04  0.15747994129E+04 -0.63454986773E+03  0.20342640404E+04  0.25500000920E-02 0.  1.
       -2    1    3    3    0  502 -0.11205282060E+04 -0.15747994129E+04 -0.73949066996E+03  0.20694016290E+04  0.25500000920E-02 0. -1.
</event>
<event>
 5   0  0.3680814E-07  0.2883122E+04  0.7818609E-02  0.8277917E-01
       -2   -1    0    0    0  501  0.00000000000E+00  0.00000000000E+00  0.10231678856E+04  0.10231678857E+04  0.25500000920E-02 0.  1.
        2   -1    0    0  501    0  0.00000000000E+00  0.00000000000E+00 -0.20310426578E+04  0.20310426578E+04  0.25500000920E-02 0. -1.
    10030    2    1    2    0    0  0.00000000000E+00  0.00000000000E+00 -0.10078747721E+04  0.30542105434E+04  0.28831216567E+04 0.  0.
        1    1    3    3  502    0  0.58556204624E+03 -0.13170577030E+04 -0.47856358672E+03  0.15187320401E+04  0.50400001928E-02 0.  1.
       -1    1    3    3    0  502 -0.58556204624E+03  0.13170577030E+04 -0.52931118538E+03  0.15354785033E+04  0.50400001928E-02 0. -1.
</event>
<event>
 5   0  0.1187925E-07  0.3831524E+04  0.7818609E-02  0.8039424E-01
        3   -1    0    0  501    0  0.00000000000E+00  0.00000000000E+00  0.18929124770E+04  0.18929124796E+04  0.10100000352E+00 0. -1.
       -3   -1    0    0    0  501  0.00000000000E+00  0.00000000000E+00 -0.19388871326E+04  0.19388871352E+04  0.10100000352E+00 0.  1.
    10030    2    1    2    0    0  0.00000000000E+00  0.00000000000E+00 -0.45974655603E+02  0.38317996148E+04  0.38315237986E+04 0.  0.
        4    1    3    3  502    0 -0.43083495255E+03  0.17404226487E+04 -0.69790796324E+03  0.19239976327E+04  0.12699999809E+01 0.  1.
       -4    1    3    3    0  502  0.43083495255E+03 -0.17404226487E+04  0.65193330764E+03  0.19078019821E+04  0.12699999809E+01 0. -1.
</event>
<event>
 5   0  0.1187925E-07  0.2880917E+04  0.7818609E-02  0.8278578E-01
       -1   -1    0    0    0  501  0.00000000000E+00  0.00000000000E+00  0.19318481189E+04  0.19318481189E+04  0.50400001928E-02 0. -1.
        1   -1    0    0  501    0  0.00000000000E+00  0.00000000000E+00 -0.10740596343E+04  0.10740596344E+04  0.50400001928E-02 0.  1.
    10030    2    1    2    0    0  0.00000000000E+00  0.00000000000E+00  0.85778848456E+03  0.30059077533E+04  0.28809165793E+04 0.  0.
        1    1    3    3  502    0  0.69101167828E+03  0.17371694579E+03  0.17351056223E+04  0.18757041977E+04  0.50400001928E-02 0. -1.
       -1    1    3    3    0  502 -0.69101167828E+03 -0.17371694579E+03 -0.87731713774E+03  0.11302035555E+04  0.50400001928E-02 0.  1.
</event>
<event>
 5   0  0.3680814E-07  0.3834518E+04  0.7818609E-02  0.8038788E-01
        2   -1    0    0  501    0  0.00000000000E+00  0.00000000000E+00  0.16457899110E+04  0.16457899110E+04  0.25500000920E-02 0.  1.
       -2   -1    0    0    0  501  0.00000000000E+00  0.00000000000E+00 -0.22335061402E+04  0.22335061402E+04  0.25500000920E-02 0. -1.
    10030    2    1    2    0    0  0.00000000000E+00  0.00000000000E+00 -0.58771622913E+03  0.38792960512E+04  0.38345178949E+04 0.  0.
        1    1    3    3  502    0  0.47031267422E+03  0.16392522835E+04 -0.11801823220E+04  0.20739268004E+04  0.50400001928E-02 0. -1.
       -1    1    3    3    0  502 -0.47031267422E+03 -0.16392522835E+04  0.59246609284E+03  0.18053692508E+04  0.50400001928E-02 0.  1.
</event>
<event>
 5   0  0.1187925E-07  0.3902503E+04  0.7818609E-02  0.8024509E-01
       -1   -1    0    0    0  501  0.00000000000E+00  0.00000000000E+00  0.27966388971E+04  0.27966388971E+04  0.50400001928E-02 0.  1.
        1   -1    0    0  501    0  0.00000000000E+00  0.00000000000E+00 -0.13614139926E+04  0.13614139926E+04  0.50400001928E-02 0. -1.
    10030    2    1    2    0    0  0.00000000000E+00  0.00000000000E+00  0.14352249045E+04  0.41580528897E+04  0.39025034666E+04 0.  0.
        2    1    3    3  502    0 -0.94889668810E+03 -0.20217819003E+03  0.25214298097E+04  0.27016456522E+04  0.25500000920E-02 0.  1.
       -2    1    3    3    0  502  0.94889668810E+03  0.20217819003E+03 -0.10862049051E+04  0.14564072374E+04  0.25500000920E-02 0. -1.
</event>
<event>
 5   0  0.1187925E-07  0.3898172E+04  0.7818609E-02  0.8025409E-01
       -1   -1    0    0    0  501  0.00000000000E+00  0.00000000000E+00  0.18488787229E+04  0.18488787229E+04  0.50400001928E-02 0. -1.
        1   -1    0    0  501    0  0.00000000000E+00  0.00000000000E+00 -0.20547247155E+04  0.20547247155E+04  0.50400001928E-02 0.  1.
    10030    2    1    2    0    0  0.00000000000E+00  0.00000000000E+00 -0.20584599259E+03  0.39036034385E+04  0.38981722938E+04 0.  0.
        3    1    3    3  502    0 -0.59997987094E+03 -0.66106571125E+03 -0.18379514895E+04  0.20432937645E+04  0.10100000352E+00 0.  1.
       -3    1    3    3    0  502  0.59997987094E+03  0.66106571125E+03  0.16321054969E+04  0.18603096740E+04  0.10100000352E+00 0. -1.
</event>
<event>
 5   0  0.1187925E-07  0.3922863E+04  0.7818609E-02  0.8020291E-01
        1   -1    0    0  501    0  0.00000000000E+00  0.00000000000E+00  0.27441953688E+04  0.27441953688E+04  0.50400001928E-02 0. -1.
       -1   -1    0    0    0  501  0.00000000000E+00  0.00000000000E+00 -0.14019456755E+04  0.14019456755E+04  0.50400001928E-02 0.  1.
    10030    2    1    2    0    0  0.00000000000E+00  0.00000000000E+00  0.13422496934E+04  0.41461410443E+04  0.39228626436E+04 0.  0.
        4    1    3    3  502    0 -0.29940375659E+03 -0.10861762181E+04 -0.10258082617E+04  0.15237144052E+04  0.12699999809E+01 0.  1.
       -4    1    3    3    0  502  0.29940375659E+03  0.10861762181E+04  0.23680579550E+04  0.26224266391E+04  0.12699999809E+01 0. -1.
</event>
<event>
 5   0  0.3680814E-07  0.3475113E+04  0.7818609E-02  0.8119713E-01
        2   -1    0    0  501    0  0.00000000000E+00  0.00000000000E+00  0.25987914021E+04  0.25987914021E+04  0.25500000920E-02 0. -1.
       -2   -1    0    0    0  501  0.00000000000E+00  0.00000000000E+00 -0.11617333903E+04  0.11617333903E+04  0.25500000920E-02 0.  1.
    10030    2    1    2    0    0  0.00000000000E+00  0.00000000000E+00  0.14370580119E+04  0.37605247924E+04  0.34751130895E+04 0.  0.
        1    1    3    3  502    0 -0.81057012106E+03 -0.12700604587E+04 -0.21801404320E+03  0.15223690791E+04  0.50400001928E-02 0.  1.
       -1    1    3    3    0  502  0.81057012106E+03  0.12700604587E+04  0.16550720551E+04  0.22381557134E+04  0.50400001928E-02 0. -1.
</event>
<event>
 5   0  0.1187925E-07  0.2904112E+04  0.7818609E-02  0.8271655E-01
        1   -1    0    0  501    0  0.00000000000E+00  0.00000000000E+00  0.13325621098E+04  0.13325621098E+04  0.50400001928E-02 0.  1.
       -1   -1    0    0    0  501  0.00000000000E+00  0.00000000000E+00 -0.15822653582E+04  0.15822653582E+04  0.50400001928E-02 0. -1.
    10030    2    1    2    0    0  0.00000000000E+00  0.00000000000E+00 -0.24970324843E+03  0.29148274680E+04  0.29041121631E+04 0.  0.
        2    1    3    3  502    0 -0.53625626321E+02 -0.49629888304E+03 -0.14934363859E+04  0.15746556855E+04  0.25500000920E-02 0. -1.
       -2    1    3    3    0  502  0.53625626321E+02  0.49629888304E+03  0.12437331375E+04  0.13401717825E+04  0.25500000920E-02 0.  1.
</event>
<event>
 5   0  0.1187925E-07  0.4052822E+04  0.7818609E-02  0.7993975E-01
       -1   -1    0    0    0  501  0.00000000000E+00  0.00000000000E+00  0.16079504913E+04  0.16079504913E+04  0.50400001928E-02 0.  1.
        1   -1    0    0  501    0  0.00000000000E+00  0.00000000000E+00 -0.25537732696E+04  0.25537732696E+04  0.50400001928E-02 0. -1.
    10030    2    1    2    0    0  0.00000000000E+00  0.00000000000E+00 -0.94582277828E+03  0.41617237609E+04  0.40528217249E+04 0.  0.
        5    1    3    3  502    0  0.12673315769E+04 -0.12826383494E+03  0.11454243931E+04  0.17130674439E+04  0.46999998093E+01 0.  1.
       -5    1    3    3    0  502 -0.12673315769E+04  0.12826383494E+03 -0.20912471713E+04  0.24486563170E+04  0.46999998093E+01 0. -1.
</event>
<event>
 5   0  0.1187925E-07  0.3573204E+04  0.7818609E-02  0.8096657E-01
       -1   -1    0    0    0  501  0.00000000000E+00  0.00000000000E+00  0.26662237709E+04  0.26662237709E+04  0.50400001928E-02 0.  1.
        1   -1    0    0  501    0  0.00000000000E+00  0.00000000000E+00 -0.11971790792E+04  0.11971790792E+04  0.50400001928E-02 0. -1.
    10030    2    1    2    0    0  0.00000000000E+00  0.00000000000E+00  0.14690446917E+04  0.38634028501E+04  0.35732043429E+04 0.  0.
        5    1    3    3  502    0  0.23569423082E+03  0.10770473121E+04 -0.78547648097E+03  0.13537274745E+04  0.46999998093E+01 0. -1.
       -5    1    3    3    0  502 -0.23569423082E+03 -0.10770473121E+04  0.22545211727E+04  0.25096753756E+04  0.46999998093E+01 0.  1.
</event>
<event>
 5   0  0.3680814E-07  0.3959347E+04  0.7818609E-02  0.8012798E-01
        2   -1    0    0  501    0  0.00000000000E+00  0.00000000000E+00  0.19658234287E+04  0.19658234288E+04  0.25500000920E-02 0. -1.
       -2   -1    0    0    0  501  0.00000000000E+00  0.00000000000E+00 -0.19936211354E+04  0.19936211354E+04  0.25500000920E-02 0.  1.
    10030    2    1    2    0    0  0.00000000000E+00  0.00000000000E+00 -0.27797706660E+02  0.39594445642E+04  0.39593469846E+04 0.  0.
        1    1    3    3  502    0  0.12072314503E+03 -0.14315167521E+04  0.13482260663E+04  0.19701593375E+04  0.50400001928E-02 0. -1.
       -1    1    3    3    0  502 -0.12072314503E+03  0.14315167521E+04 -0.13760237730E+04  0.19892852267E+04  0.50400001928E-02 0.  1.
</event>
<event>
 5   0  0.1187925E-07  0.3894861E+04  0.7818609E-02  0.8026099E-01
        1   -1    0    0  501    0  0.00000000000E+00  0.00000000000E+00  0.25042491414E+04  0.25042491414E+04  0.50400001928E-02 0. -1.
       -1   -1    0    0    0  501  0.00000000000E+00  0.00000000000E+00 -0.15144204266E+04  0.15144204266E+04  0.50400001928E-02 0.  1.
    10030    2    1    2    0    0  0.00000000000E+00  0.00000000000E+00  0.98982871483E+03  0.40186695680E+04  0.38948612571E+04 0.  0.
        5    1    3    3  502    0 -0.23884223654E+03 -0.18476616907E+04 -0.90178019768E+02  0.18652221054E+04  0.46999998093E+01 0. -1.
       -5    1    3    3    0  502  0.23884223654E+03  0.18476616907E+04  0.10800067346E+04  0.21534474626E+04  0.46999998093E+01 0.  1.
</event>
<event>
 5   0  0.3665303E-07  0.3916204E+04  0.7818609E-02  0.8021667E-01
       -2   -1    0    0    0  501  0.00000000000E+00  0.00000000000E+00  0.18449004102E+04  0.18449004102E+04  0.25500000920E-02 0.  1.
        2   -1    0    0  501    0  0.00000000000E+00  0.00000000000E+00 -0.20782499632E+04  0.20782499632E+04  0.25500000920E-02 0. -1.
    10030    2    1    2    0    0  0.00000000000E+00  0.00000000000E+00 -0.23334955302E+03  0.39231503734E+04  0.39162043919E+04 0.  0.
        2    1    3    3  502    0 -0.89166673193E+03 -0.17426341705E+04 -0.68414682369E+02  0.19587046693E+04  0.25500000920E-02 0.  1.
       -2    1    3    3    0  502  0.89166673193E+03  0.17426341705E+04 -0.16493487065E+03  0.19644457041E+04  0.25500000920E-02 0. -1.
</event>
<event>
 5   0  0.1187925E-07  0.3810071E+04  0.7818609E-02  0.8043997E-01
        1   -1    0    0  501    0  0.00000000000E+00  0.00000000000E+00  0.29289167525E+04  0.29289167525E+04  0.50400001928E-02 0.  1.
       -1   -1    0    0    0  501  0.00000000000E+00  0.00000000000E+00 -0.12390791393E+04  0.12390791393E+04  0.50400001928E-02 0. -1.
    10030    2    1    2    0    0  0.00000000000E+00  0.00000000000E+00  0.16898376133E+04  0.41679958918E+04  0.38100706811E+04 0.  0.
        2    1    3    3  502    0  0.15857826230E+04 -0.10010793078E+04  0.47833670984E+03  0.19353739473E+04  0.25500000920E-02 0. -1.
       -2    1    3    3    0  502 -0.15857826230E+04  0.10010793078E+04  0.12115009034E+04  0.22326219445E+04  0.25500000920E-02 0.  1.
</event>
<event>
 5   0  0.3832389E-07  0.3965001E+04  0.7818609E-02  0.8011644E-01
        2   -1    0    0  501    0  0.00000000000E+00  0.00000000000E+00  0.18380868204E+04  0.18380868204E+04  0.25500000920E-02 0.  1.
       -2   -1    0    0    0  501  0.00000000000E+00  0.00000000000E+00 -0.21382598512E+04  0.21382598512E+04  0.25500000920E-02 0. -1.
    10030    2    1    2    0    0  0.00000000000E+00  0.00000000000E+00 -0.30017303086E+03  0.39763466716E+04  0.39650005050E+04 0.  0.
        5    1    3    3  502    0 -0.11876095096E+04  0.15819893101E+04 -0.28152887334E+03  0.19980958738E+04  0.46999998093E+01 0. -1.
       -5    1    3    3    0  502  0.11876095096E+04 -0.15819893101E+04 -0.18644157520E+02  0.19782507978E+04  0.46999998093E+01 0.  1.
</event>
<event>
 5   0  0.3610483E-07  0.3776323E+04  0.7818609E-02  0.8051255E-01
       -2   -1    0    0    0  501  0.00000000000E+00  0.00000000000E+00  0.27461283735E+04  0.27461283735E+04  0.25500000920E-02 0. -1.
        2   -1    0    0  501    0  0.00000000000E+00  0.00000000000E+00 -0.12982476122E+04  0.12982476122E+04  0.25500000920E-02 0.  1.
    10030    2    1    2    0    0  0.00000000000E+00  0.00000000000E+00  0.14478807614E+04  0.40443759857E+04  0.37763233991E+04 0.  0.
        4    1    3    3  502    0 -0.24126897101E+03  0.16695431126E+04  0.16324264769E+04  0.23474247031E+04  0.12699999809E+01 0. -1.
       -4    1    3    3    0  502  0.24126897101E+03 -0.16695431126E+04 -0.18454571558E+03  0.16969512825E+04  0.12699999809E+01 0.  1.
</event>
<event>
 5   0  0.3610483E-07  0.3963323E+04  0.7818609E-02  0.8011987E-01
       -2   -1    0    0    0  501  0.00000000000E+00  0.00000000000E+00  0.15301214853E+04  0.15301214853E+04  0.25500000920E-02 0.  1.
        2   -1    0    0  501    0  0.00000000000E+00  0.00000000000E+00 -0.25664518207E+04  0.25664518207E+04  0.25500000920E-02 0. -1.
    10030    2    1    2    0    0  0.00000000000E+00  0.00000000000E+00 -0.10363303354E+04  0.40965733059E+04  0.39633233891E+04 0.  0.
        4    1    3    3  502    0 -0.79070150728E+03  0.71982585657E+03 -0.22426780927E+04  0.24845451853E+04  0.12699999809E+01 0. -1.
       -4    1    3    3    0  502  0.79070150728E+03 -0.71982585657E+03  0.12063477573E+04  0.16120281207E+04  0.12699999809E+01 0.  1.
</event>
<event>
 5   0  0.1187925E-07  0.3929106E+04  0.7818609E-02  0.8019003E-01
       -3   -1    0    0    0  501  0.00000000000E+00  0.00000000000E+00  0.23621640827E+04  0.23621640849E+04  0.10100000352E+00 0. -1.
        3   -1    0    0  501    0  0.00000000000E+00  0.00000000000E+00 -0.16338698632E+04  0.16338698663E+04  0.10100000352E+00 0.  1.
    10030    2    1    2    0    0  0.00000000000E+00  0.00000000000E+00  0.72829421949E+03  0.39960339512E+04  0.39291061158E+04 0.  0.
        4    1    3    3  502    0  0.10795651548E+03 -0.15124913806E+04  0.16344962182E+04  0.22295435151E+04  0.12699999809E+01 0. -1.
       -4    1    3    3    0  502 -0.10795651548E+03  0.15124913806E+04 -0.90620199871E+03  0.17664904361E+04  0.12699999809E+01 0.  1.
</event>
<event>
 5   0  0.1187925E-07  0.3897918E+04  0.7818609E-02  0.8025462E-01
        3   -1    0    0  501    0  0.00000000000E+00  0.00000000000E+00  0.34202926739E+04  0.34202926754E+04  0.10100000352E+00 0. -1.
       -3   -1    0    0    0  501  0.00000000000E+00  0.00000000000E+00 -0.11105604550E+04  0.11105604596E+04  0.10100000352E+00 0.  1.
    10030    2    1    2    0    0  0.00000000000E+00  0.00000000000E+00  0.23097322189E+04  0.45308531350E+04  0.38979183173E+04 0.  0.
        5    1    3    3  502    0 -0.12361624971E+03 -0.57638870060E+03  0.33141729946E+04  0.33661951280E+04  0.46999998093E+01 0. -1.
       -5    1    3    3    0  502  0.12361624971E+03  0.57638870060E+03 -0.10044407757E+04  0.11646580070E+04  0.46999998093E+01 0.  1.
</event>
<event>
 5   0  0.1187925E-07  0.3901548E+04  0.7818609E-02  0.8024707E-01
        1   -1    0    0  501    0  0.00000000000E+00  0.00000000000E+00  0.23668525885E+04  0.23668525885E+04  0.50400001928E-02 0.  1.
       -1   -1    0    0    0  501  0.00000000000E+00  0.00000000000E+00 -0.16078397147E+04  0.16078397147E+04  0.50400001928E-02 0. -1.
    10030    2    1    2    0    0  0.00000000000E+00  0.00000000000E+00  0.75901287387E+03  0.39746923032E+04  0.39015482007E+04 0.  0.
        5    1    3    3  502    0 -0.29414757704E+03  0.67421308970E+03  0.22201469678E+04  0.23388374754E+04  0.46999998093E+01 0.  1.
       -5    1    3    3    0  502  0.29414757704E+03 -0.67421308970E+03 -0.14611340940E+04  0.16358548279E+04  0.46999998093E+01 0. -1.
</event>
<event>
 5   0  0.3610483E-07  0.3907446E+04  0.7818609E-02  0.8023482E-01
       -2   -1    0    0    0  501  0.00000000000E+00  0.00000000000E+00  0.15323937277E+04  0.15323937277E+04  0.25500000920E-02 0. -1.
        2   -1    0    0  501    0  0.00000000000E+00  0.00000000000E+00 -0.24908964974E+04  0.24908964974E+04  0.25500000920E-02 0.  1.
    10030    2    1    2    0    0  0.00000000000E+00  0.00000000000E+00 -0.95850276969E+03  0.40232902251E+04  0.39074463113E+04 0.  0.
        4    1    3    3  502    0  0.11399222358E+04 -0.11107340680E+04  0.68742526447E+03  0.17336977766E+04  0.12699999809E+01 0. -1.
       -4    1    3    3    0  502 -0.11399222358E+04  0.11107340680E+04 -0.16459280342E+04  0.22895924485E+04  0.12699999809E+01 0.  1.
</event>
<event>
 5   0  0.3832389E-07  0.3891228E+04  0.7818609E-02  0.8026856E-01
       -2   -1    0    0    0  501  0.00000000000E+00  0.00000000000E+00  0.14096665654E+04  0.14096665654E+04  0.25500000920E-02 0. -1.
        2   -1    0    0  501    0  0.00000000000E+00  0.00000000000E+00 -0.26853250542E+04  0.26853250542E+04  0.25500000920E-02 0.  1.
    10030    2    1    2    0    0  0.00000000000E+00  0.00000000000E+00 -0.12756584888E+04  0.40949916196E+04  0.38912275422E+04 0.  0.
        5    1    3    3  502    0  0.17709515749E+04  0.71436520321E+03 -0.24575622107E+03  0.19253584951E+04  0.46999998093E+01 0.  1.
       -5    1    3    3    0  502 -0.17709515749E+04 -0.71436520321E+03 -0.10299022677E+04  0.21696331246E+04  0.46999998093E+01 0. -1.
</event>
<event>
 5   0  0.1187925E-07  0.3855213E+04  0.7818609E-02  0.8034409E-01
        1   -1    0    0  501    0  0.00000000000E+00  0.00000000000E+00  0.23603830427E+04  0.23603830427E+04  0.50400001928E-02 0.  1.
       -1   -1    0    0    0  501  0.00000000000E+00  0.00000000000E+00 -0.15741796179E+04  0.15741796179E+04  0.50400001928E-02 0. -1.
    10030    2    1    2    0    0  0.00000000000E+00  0.00000000000E+00  0.78620342473E+03  0.39345626606E+04  0.38552130298E+04 0.  0.
        5    1    3    3  502    0 -0.90313132017E+03 -0.12033057319E+04 -0.83671235616E+03  0.17215401601E+04  0.46999998093E+01 0. -1.
       -5    1    3    3    0  502  0.90313132017E+03  0.12033057319E+04  0.16229157809E+04  0.22130225005E+04  0.46999998093E+01 0.  1.
</event>
<event>
 5   0  0.3610483E-07  0.3239533E+04  0.7818609E-02  0.8178454E-01
       -2   -1    0    0    0  501  0.00000000000E+00  0.00000000000E+00  0.17585689984E+04  0.17585689984E+04  0.25500000920E-02 0.  1.
        2   -1    0    0  501    0  0.00000000000E+00  0.00000000000E+00 -0.14919195528E+04  0.14919195528E+04  0.25500000920E-02 0. -1.
    10030    2    1    2    0    0  0.00000000000E+00  0.00000000000E+00  0.26664944561E+03  0.32504885513E+04  0.32395329748E+04 0.  0.
        4    1    3    3  502    0 -0.10745298045E+04 -0.74168229592E+03  0.10951775288E+04  0.17041485737E+04  0.12699999809E+01 0.  1.
       -4    1    3    3    0  502  0.10745298045E+04  0.74168229592E+03 -0.82852808317E+03  0.15463399776E+04  0.12699999809E+01 0. -1.
</event>
<event>
 5   0  0.3680814E-07  0.3025643E+04  0.7818609E-02  0.8236446E-01
        2   -1    0    0  501    0  0.00000000000E+00  0.00000000000E+00  0.20732308531E+04  0.20732308531E+04  0.25500000920E-02 0.  1.
       -2   -1    0    0    0  501  0.00000000000E+00  0.00000000000E+00 -0.11038945335E+04  0.11038945335E+04  0.25500000920E-02 0. -1.
    10030    2    1    2    0    0  0.00000000000E+00  0.00000000000E+00  0.96933631963E+03  0.31771253867E+04  0.30256425470E+04 0.  0.
        1    1    3    3  502    0 -0.15000900266E+04  0.16703799989E+03  0.37729188570E+03  0.15558023488E+04  0.50400001928E-02 0. -1.
       -1    1    3    3    0  502  0.15000900266E+04 -0.16703799989E+03  0.59204443393E+03  0.16213230379E+04  0.50400001928E-02 0.  1.
</event>
<event>
 5   0  0.1187925E-07  0.3566507E+04  0.7818609E-02  0.8098207E-01
       -1   -1    0    0    0  501  0.00000000000E+00  0.00000000000E+00  0.13497442701E+04  0.13497442701E+04  0.50400001928E-02 0.  1.
        1   -1    0    0  501    0  0.00000000000E+00  0.00000000000E+00 -0.23559966468E+04  0.23559966468E+04  0.50400001928E-02 0. -1.
    10030    2    1    2    0    0  0.00000000000E+00  0.00000000000E+00 -0.10062523767E+04  0.37057409168E+04  0.35665069602E+04 0.  0.
        3    1    3    3  502    0  0.12809219515E+04  0.11146560859E+04  0.62910658940E+02  0.16991695021E+04  0.10100000352E+00 0.  1.
       -3    1    3    3    0  502 -0.12809219515E+04 -0.11146560859E+04 -0.10691630356E+04  0.20065714148E+04  0.10100000352E+00 0. -1.
</event>
<event>
 5   0  0.3810833E-07  0.3920117E+04  0.7818609E-02  0.8020858E-01
       -2   -1    0    0    0  501  0.00000000000E+00  0.00000000000E+00  0.18475558513E+04  0.18475558513E+04  0.25500000920E-02 0. -1.
        2   -1    0    0  501    0  0.00000000000E+00  0.00000000000E+00 -0.20794119384E+04  0.20794119384E+04  0.25500000920E-02 0.  1.
    10030    2    1    2    0    0  0.00000000000E+00  0.00000000000E+00 -0.23185608712E+03  0.39269677897E+04  0.39201171891E+04 0.  0.
        3    1    3    3  502    0 -0.10542709499E+04 -0.13042407198E+04 -0.11322445483E+04  0.20234892681E+04  0.10100000352E+00 0.  1.
       -3    1    3    3    0  502  0.10542709499E+04  0.13042407198E+04  0.90038846114E+03  0.19034785216E+04  0.10100000352E+00 0. -1.
</event>
<event>
 5   0  0.1187925E-07  0.3847954E+04  0.7818609E-02  0.8035942E-01
       -1   -1    0    0    0  501  0.00000000000E+00  0.00000000000E+00  0.17212922517E+04  0.17212922517E+04  0.50400001928E-02 0.  1.
        1   -1    0    0  501    0  0.00000000000E+00  0.00000000000E+00 -0.21505278763E+04  0.21505278763E+04  0.50400001928E-02 0. -1.
    10030    2    1    2    0    0  0.00000000000E+00  0.00000000000E+00 -0.42923562464E+03  0.38718201280E+04  0.38479537266E+04 0.  0.
        3    1    3    3  502    0 -0.41410809495E+03  0.29321385539E+03  0.16527558148E+04  0.17288903010E+04  0.10100000352E+00 0.  1.
       -3    1    3    3    0  502  0.41410809495E+03 -0.29321385539E+03 -0.20819914394E+04  0.21429298270E+04  0.10100000352E+00 0. -1.
</event>
<event>
 5   0  0.1187925E-07  0.4023549E+04  0.7818609E-02  0.7999813E-01
        1   -1    0    0  501    0  0.00000000000E+00  0.00000000000E+00  0.23295961084E+04  0.23295961084E+04  0.50400001928E-02 0.  1.
       -1   -1    0    0    0  501  0.00000000000E+00  0.00000000000E+00 -0.17373126151E+04  0.17373126151E+04  0.50400001928E-02 0. -1.
    10030    2    1    2    0    0  0.00000000000E+00  0.00000000000E+00  0.59228349333E+03  0.40669087235E+04  0.40235490340E+04 0.  0.
        5    1    3    3  502    0 -0.87793208556E+02  0.20083936096E+04  0.37353105313E+03  0.20447249390E+04  0.46999998093E+01 0.  1.
       -5    1    3    3    0  502  0.87793208556E+02 -0.20083936096E+04  0.21875244021E+03  0.20221837845E+04  0.46999998093E+01 0. -1.
</event>
<event>
 5   0  0.1187925E-07  0.3387624E+04  0.7818609E-02  0.8140950E-01
        1   -1    0    0  501    0  0.00000000000E+00  0.00000000000E+00  0.14221509417E+04  0.14221509417E+04  0.50400001928E-02 0.  1.
       -1   -1    0    0    0  501  0.00000000000E+00  0.00000000000E+00 -0.20173661168E+04  0.20173661168E+04  0.50400001928E-02 0. -1.
    10030    2    1    2    0    0  0.00000000000E+00  0.00000000000E+00 -0.59521517505E+03  0.34395170585E+04  0.33876240186E+04 0.  0.
        1    1    3    3  502    0 -0.88948438696E+03  0.70929225221E+03 -0.15717092854E+04  0.19402443278E+04  0.50400001928E-02 0. -1.
       -1    1    3    3    0  502  0.88948438696E+03 -0.70929225221E+03  0.97649411032E+03  0.14992727308E+04  0.50400001928E-02 0.  1.
</event>
<event>
 5   0  0.1187925E-07  0.3901055E+04  0.7818609E-02  0.8024810E-01
       -1   -1    0    0    0  501  0.00000000000E+00  0.00000000000E+00  0.16264215479E+04  0.16264215479E+04  0.50400001928E-02 0. -1.
        1   -1    0    0  501    0  0.00000000000E+00  0.00000000000E+00 -0.23392202622E+04  0.23392202622E+04  0.50400001928E-02 0.  1.
    10030    2    1    2    0    0  0.00000000000E+00  0.00000000000E+00 -0.71279871422E+03  0.39656418101E+04  0.39010553648E+04 0.  0.
        1    1    3    3  502    0 -0.13367149221E+04  0.13946876418E+04 -0.82498610259E+02  0.19335890002E+04  0.50400001928E-02 0.  1.
       -1    1    3    3    0  502  0.13367149221E+04 -0.13946876418E+04 -0.63030010396E+03  0.20320528099E+04  0.50400001928E-02 0. -1.
</event>
<event>
 5   0  0.3810833E-07  0.3842238E+04  0.7818609E-02  0.8037151E-01
       -2   -1    0    0    0  501  0.00000000000E+00  0.00000000000E+00  0.15461609427E+04  0.15461609427E+04  0.25500000920E-02 0. -1.
        2   -1    0    0  501    0  0.00000000000E+00  0.00000000000E+00 -0.23870079711E+04  0.23870079711E+04  0.25500000920E-02 0.  1.
    10030    2    1    2    0    0  0.00000000000E+00  0.00000000000E+00 -0.84084702839E+03  0.39331689139E+04  0.38422381472E+04 0.  0.
        3    1    3    3  502    0  0.24647643313E+03 -0.15570015153E+04  0.70360387149E+03  0.17262858306E+04  0.10100000352E+00 0. -1.
       -3    1    3    3    0  502 -0.24647643313E+03  0.15570015153E+04 -0.15444508999E+04  0.22068830832E+04  0.10100000352E+00 0.  1.
</event>
<event>
 5   0  0.1187925E-07  0.3949533E+04  0.7818609E-02  0.8014805E-01
       -1   -1    0    0    0  501  0.00000000000E+00  0.00000000000E+00  0.10891146589E+04  0.10891146590E+04  0.50400001928E-02 0.  1.
        1   -1    0    0  501    0  0.00000000000E+00  0.00000000000E+00 -0.35806169724E+04  0.35806169724E+04  0.50400001928E-02 0. -1.
    10030    2    1    2    0    0  0.00000000000E+00  0.00000000000E+00 -0.24915023134E+04  0.46697316313E+04  0.39495328497E+04 0.  0.
        1    1    3    3  502    0  0.13861621536E+04 -0.14296302119E+03 -0.29001202387E+04  0.32175427488E+04  0.50400001928E-02 0. -1.
       -1    1    3    3    0  502 -0.13861621536E+04  0.14296302119E+03  0.40861792527E+03  0.14521888825E+04  0.50400001928E-02 0.  1.
</event>
<event>
 5   0  0.1187925E-07  0.3876608E+04  0.7818609E-02  0.8029912E-01
        1   -1    0    0  501    0  0.00000000000E+00  0.00000000000E+00  0.24467034981E+04  0.24467034981E+04  0.50400001928E-02 0. -1.
       -1   -1    0    0    0  501  0.00000000000E+00  0.00000000000E+00 -0.15355443313E+04  0.15355443313E+04  0.50400001928E-02 0.  1.
    10030    2    1    2    0    0  0.00000000000E+00  0.00000000000E+00  0.91115916672E+03  0.39822478294E+04  0.38766076340E+04 0.  0.
        2    1    3    3  502    0  0.37188503708E+03  0.80024604285E+02  0.24079827413E+04  0.24378439860E+04  0.25500000920E-02 0. -1.
       -2    1    3    3    0  502 -0.37188503708E+03 -0.80024604285E+02 -0.14968235745E+04  0.15444038434E+04  0.25500000920E-02 0.  1.
</event>
<event>
 5   0  0.1187925E-07  0.3892766E+04  0.7818609E-02  0.8026535E-01
        1   -1    0    0  501    0  0.00000000000E+00  0.00000000000E+00  0.24726578750E+04  0.24726578750E+04  0.50400001928E-02 0.  1.
       -1   -1    0    0    0  501  0.00000000000E+00  0.00000000000E+00 -0.15321195513E+04  0.15321195514E+04  0.50400001928E-02 0. -1.
    10030    2    1    2    0    0  0.00000000000E+00  0.00000000000E+00  0.94053832370E+03  0.40047774264E+04  0.38927663553E+04 0.  0.
        5    1    3    3  502    0  0.17337992910E+04  0.45913873784E+03  0.12480095118E+04  0.21850442087E+04  0.46999998093E+01 0. -1.
       -5    1    3    3    0  502 -0.17337992910E+04 -0.45913873784E+03 -0.30747118814E+03  0.18197332177E+04  0.46999998093E+01 0.  1.
</event>
<event>
 5   0  0.3610483E-07  0.3796625E+04  0.7818609E-02  0.8046880E-01
       -2   -1    0    0    0  501  0.00000000000E+00  0.00000000000E+00  0.33027996606E+04  0.33027996606E+04  0.25500000920E-02 0.  1.
        2   -1    0    0  501    0  0.00000000000E+00  0.00000000000E+00 -0.10910714305E+04  0.10910714305E+04  0.25500000920E-02 0. -1.
    10030    2    1    2    0    0  0.00000000000E+00  0.00000000000E+00  0.22117282300E+04  0.43938710911E+04  0.37966250014E+04 0.  0.
        4    1    3    3  502    0 -0.14705052451E+04  0.53909616507E+03  0.23472526033E+04  0.28218091267E+04  0.12699999809E+01 0.  1.
       -4    1    3    3    0  502  0.14705052451E+04 -0.53909616507E+03 -0.13552437327E+03  0.15720619643E+04  0.12699999809E+01 0. -1.
</event>
<event>
 5   0  0.3810833E-07  0.3889658E+04  0.7818609E-02  0.8027184E-01
        2   -1    0    0  501    0  0.00000000000E+00  0.00000000000E+00  0.17578128408E+04  0.17578128408E+04  0.25500000920E-02 0.  1.
       -2   -1    0    0    0  501  0.00000000000E+00  0.00000000000E+00 -0.21517420466E+04  0.21517420466E+04  0.25500000920E-02 0. -1.
    10030    2    1    2    0    0  0.00000000000E+00  0.00000000000E+00 -0.39392920586E+03  0.39095548874E+04  0.38896579796E+04 0.  0.
        3    1    3    3  502    0 -0.11558644785E+04  0.15419111827E+04  0.66764716543E+02  0.19282039118E+04  0.10100000352E+00 0.  1.
       -3    1    3    3    0  502  0.11558644785E+04 -0.15419111827E+04 -0.46069392241E+03  0.19813509756E+04  0.10100000352E+00 0. -1.
</event>
<event>
 5   0  0.1187925E-07  0.3886771E+04  0.7818609E-02  0.8027786E-01
        1   -1    0    0  501    0  0.00000000000E+00  0.00000000000E+00  0.26762655526E+04  0.26762655526E+04  0.50400001928E-02 0.  1.
       -1   -1    0    0    0  501  0.00000000000E+00  0.00000000000E+00 -0.14112007270E+04  0.14112007270E+04  0.50400001928E-02 0. -1.
    10030    2    1    2    0    0  0.00000000000E+00  0.00000000000E+00  0.12650648256E+04  0.40874662796E+04  0.38867713560E+04 0.  0.
        4    1    3    3  502    0  0.10511719004E+04 -0.90450802440E+03  0.20643212019E+04  0.24868696725E+04  0.12699999809E+01 0.  1.
       -4    1    3    3    0  502 -0.10511719004E+04  0.90450802440E+03 -0.79925637630E+03  0.16005966070E+04  0.12699999809E+01 0. -1.
</event>
<event>
 5   0  0.1187925E-07  0.3861206E+04  0.7818609E-02  0.8033146E-01
        1   -1    0    0  501    0  0.00000000000E+00  0.00000000000E+00  0.24091022928E+04  0.24091022928E+04  0.50400001928E-02 0.  1.
       -1   -1    0    0    0  501  0.00000000000E+00  0.00000000000E+00 -0.15471435141E+04  0.15471435141E+04  0.50400001928E-02 0. -1.
    10030    2    1    2    0    0  0.00000000000E+00  0.00000000000E+00  0.86195877866E+03  0.39562458069E+04  0.38612055046E+04 0.  0.
        2    1    3    3  502    0  0.17478265366E+04  0.42877072126E+03  0.11470996984E+04  0.21341461177E+04  0.25500000920E-02 0.  1.
       -2    1    3    3    0  502 -0.17478265366E+04 -0.42877072126E+03 -0.28514091977E+03  0.18220996893E+04  0.25500000920E-02 0. -1.
</event>
<event>
 5   0  0.1187925E-07  0.3812791E+04  0.7818609E-02  0.8043415E-01
        1   -1    0    0  501    0  0.00000000000E+00  0.00000000000E+00  0.22614152691E+04  0.22614152691E+04  0.50400001928E-02 0.  1.
       -1   -1    0    0    0  501  0.00000000000E+00  0.00000000000E+00 -0.16071106892E+04  0.16071106892E+04  0.50400001928E-02 0. -1.
    10030    2    1    2    0    0  0.00000000000E+00  0.00000000000E+00  0.65430457988E+03  0.38685259583E+04  0.38127914455E+04 0.  0.
        4    1    3    3  502    0  0.95726098523E+03  0.27057687438E+03  0.19772036191E+04  0.22133450257E+04  0.12699999809E+01 0.  1.
       -4    1    3    3    0  502 -0.95726098523E+03 -0.27057687438E+03 -0.13228990392E+04  0.16551809326E+04  0.12699999809E+01 0. -1.
</event>
<event>
 5   0  0.1187925E-07  0.3931158E+04  0.7818609E-02  0.8018580E-01
       -1   -1    0    0    0  501  0.00000000000E+00  0.00000000000E+00  0.15787268115E+04  0.15787268115E+04  0.50400001928E-02 0.  1.
        1   -1    0    0  501    0  0.00000000000E+00  0.00000000000E+00 -0.24472261063E+04  0.24472261063E+04  0.50400001928E-02 0. -1.
    10030    2    1    2    0    0  0.00000000000E+00  0.00000000000E+00 -0.86849929482E+03  0.40259529178E+04  0.39311583371E+04 0.  0.
        3    1    3    3  502    0 -0.22142268243E+03  0.19261739646E+04 -0.76503567975E+03  0.20843353252E+04  0.10100000352E+00 0.  1.
       -3    1    3    3    0  502  0.22142268243E+03 -0.19261739646E+04 -0.10346361507E+03  0.19416175927E+04  0.10100000352E+00 0. -1.
</event>
<event>
 5   0  0.1187925E-07  0.2824364E+04  0.7818609E-02  0.8295744E-01
        1   -1    0    0  501    0  0.00000000000E+00  0.00000000000E+00  0.10676226665E+04  0.10676226665E+04  0.50400001928E-02 0.  1.
       -1   -1    0    0    0  501  0.00000000000E+00  0.00000000000E+00 -0.18679429616E+04  0.18679429616E+04  0.50400001928E-02 0. -1.
    10030    2    1    2    0    0  0.00000000000E+00  0.00000000000E+00 -0.80032029512E+03  0.29355656281E+04  0.28243641731E+04 0.  0.
        1    1    3    3  502    0 -0.61609745403E+03  0.12692873570E+04 -0.46245122526E+03  0.14847651677E+04  0.50400001928E-02 0. -1.
       -1    1    3    3    0  502  0.61609745403E+03 -0.12692873570E+04 -0.33786906985E+03  0.14508004604E+04  0.50400001928E-02 0.  1.
</event>
<event>
 5   0  0.3610483E-07  0.3827293E+04  0.7818609E-02  0.8040323E-01
       -2   -1    0    0    0  501  0.00000000000E+00  0.00000000000E+00  0.12082017054E+04  0.12082017054E+04  0.25500000920E-02 0. -1.
        2   -1    0    0  501    0  0.00000000000E+00  0.00000000000E+00 -0.30309867956E+04  0.30309867956E+04  0.25500000920E-02 0.  1.
    10030    2    1    2    0    0  0.00000000000E+00  0.00000000000E+00 -0.18227850902E+04  0.42391885011E+04  0.38272932554E+04 0.  0.
        4    1    3    3  502    0 -0.12834641636E+04 -0.45351043179E+03 -0.24011688234E+04  0.27601748681E+04  0.12699999809E+01 0.  1.
       -4    1    3    3    0  502  0.12834641636E+04  0.45351043179E+03  0.57838373321E+03  0.14790136330E+04  0.12699999809E+01 0. -1.
</event>
<event>
 5   0  0.3610483E-07  0.3821920E+04  0.7818609E-02  0.8041467E-01
        2   -1    0    0  501    0  0.00000000000E+00  0.00000000000E+00  0.16166293510E+04  0.16166293510E+04  0.25500000920E-02 0. -1.
       -2   -1    0    0    0  501  0.00000000000E+00  0.00000000000E+00 -0.22588773563E+04  0.22588773563E+04  0.25500000920E-02 0.  1.
    10030    2    1    2    0    0  0.00000000000E+00  0.00000000000E+00 -0.64224800525E+03  0.38755067073E+04  0.38219196405E+04 0.  0.
        4    1    3    3  502    0  0.11959940210E+04 -0.11127979469E+04 -0.13265117966E+04  0.21043659682E+04  0.12699999809E+01 0. -1.
       -4    1    3    3    0  502 -0.11959940210E+04  0.11127979469E+04  0.68426379132E+03  0.17711407391E+04  0.12699999809E+01 0.  1.
</event>
<event>
 5   0  0.1187925E-07  0.4105748E+04  0.7818609E-02  0.7983547E-01
        1   -1    0    0  501    0  0.00000000000E+00  0.00000000000E+00  0.29945082151E+04  0.29945082151E+04  0.50400001928E-02 0. -1.
       -1   -1    0    0    0  501  0.00000000000E+00  0.00000000000E+00 -0.14073398210E+04  0.14073398210E+04  0.50400001928E-02 0.  1.
    10030    2    1    2    0    0  0.00000000000E+00  0.00000000000E+00  0.15871683941E+04  0.44018480362E+04  0.41057475108E+04 0.  0.
        1    1    3    3  502    0  0.12886448593E+04 -0.29518494769E+03 -0.89020551146E+03  0.15938022398E+04  0.50400001928E-02 0.  1.
       -1    1    3    3    0  502 -0.12886448593E+04  0.29518494769E+03  0.24773739056E+04  0.28080457964E+04  0.50400001928E-02 0. -1.
</event>
<event>
 5   0  0.1187925E-07  0.3882115E+04  0.7818609E-02  0.8028759E-01
       -1   -1    0    0    0  501  0.00000000000E+00  0.00000000000E+00  0.20015669425E+04  0.20015669425E+04  0.50400001928E-02 0.  1.
        1   -1    0    0  501    0  0.00000000000E+00  0.00000000000E+00 -0.18823775131E+04  0.18823775131E+04  0.50400001928E-02 0. -1.
    10030    2    1    2    0    0  0.00000000000E+00  0.00000000000E+00  0.11918942941E+03  0.38839444556E+04  0.38821151985E+04 0.  0.
        4    1    3    3  502    0  0.26368125725E+03 -0.14714180738E+04 -0.11791745045E+04  0.19039572155E+04  0.12699999809E+01 0. -1.
       -4    1    3    3    0  502 -0.26368125725E+03  0.14714180738E+04  0.12983639339E+04  0.19799872401E+04  0.12699999809E+01 0.  1.
</event>
<event>
 5   0  0.3610483E-07  0.3939439E+04  0.7818609E-02  0.8016876E-01
       -2   -1    0    0    0  501  0.00000000000E+00  0.00000000000E+00  0.20221201168E+04  0.20221201169E+04  0.25500000920E-02 0.  1.
        2   -1    0    0  501    0  0.00000000000E+00  0.00000000000E+00 -0.19186767367E+04  0.19186767367E+04  0.25500000920E-02 0. -1.
    10030    2    1    2    0    0  0.00000000000E+00  0.00000000000E+00  0.10344338016E+03  0.39407968535E+04  0.39394389585E+04 0.  0.
        4    1    3    3  502    0  0.57973308007E+03 -0.34462144979E+03 -0.17995752431E+04  0.19218030742E+04  0.12699999809E+01 0. -1.
       -4    1    3    3    0  502 -0.57973308007E+03  0.34462144979E+03  0.19030186232E+04  0.20189937793E+04  0.12699999809E+01 0.  1.
</event>
<event>
 5   0  0.3610483E-07  0.3879779E+04  0.7818609E-02  0.8029248E-01
       -2   -1    0    0    0  501  0.00000000000E+00  0.00000000000E+00  0.15377822033E+04  0.15377822033E+04  0.25500000920E-02 0. -1.
        2   -1    0    0  501    0  0.00000000000E+00  0.00000000000E+00 -0.24471421153E+04  0.24471421153E+04  0.25500000920E-02 0.  1.
    10030    2    1    2    0    0  0.00000000000E+00  0.00000000000E+00 -0.90935991198E+03  0.39849243185E+04  0.38797791657E+04 0.  0.
        4    1    3    3  502    0  0.18156829016E+04  0.65511148947E+03 -0.65303149301E+03  0.20377259891E+04  0.12699999809E+01 0. -1.
       -4    1    3    3    0  502 -0.18156829016E+04 -0.65511148947E+03 -0.25632841897E+03  0.19471983294E+04  0.12699999809E+01 0.  1.
</event>
<event>
 5   0  0.3832389E-07  0.2819720E+04  0.7818609E-02  0.8297172E-01
       -2   -1    0    0    0  501  0.00000000000E+00  0.00000000000E+00  0.80658191399E+03  0.80658191399E+03  0.25500000920E-02 0.  1.
        2   -1    0    0  501    0  0.00000000000E+00  0.00000000000E+00 -0.24643558397E+04  0.24643558397E+04  0.25500000920E-02 0. -1.
    10030    2    1    2    0    0  0.00000000000E+00  0.00000000000E+00 -0.16577739258E+04  0.32709377537E+04  0.28197197378E+04 0.  0.
        5    1    3    3  502    0 -0.68338274636E+03 -0.50115149040E+03  0.47814365348E+03  0.97304071740E+03  0.46999998093E+01 0.  1.
       -5    1    3    3    0  502  0.68338274636E+03  0.50115149040E+03 -0.21359175792E+04  0.22978970363E+04  0.46999998093E+01 0. -1.
</event>
<event>
 5   0  0.3680814E-07  0.3922513E+04  0.7818609E-02  0.8020363E-01
        2   -1    0    0  501    0  0.00000000000E+00  0.00000000000E+00  0.16496816253E+04  0.16496816253E+04  0.25500000920E-02 0. -1.
       -2   -1    0    0    0  501  0.00000000000E+00  0.00000000000E+00 -0.23316788316E+04  0.23316788316E+04  0.25500000920E-02 0.  1.
    10030    2    1    2    0    0  0.00000000000E+00  0.00000000000E+00 -0.68199720629E+03  0.39813604568E+04  0.39225133394E+04 0.  0.
        1    1    3    3  502    0 -0.15151055874E+04  0.66817717673E+03  0.72573079357E+03  0.18079521192E+04  0.50400001928E-02 0. -1.
       -1    1    3    3    0  502  0.15151055874E+04 -0.66817717673E+03 -0.14077279999E+04  0.21734083376E+04  0.50400001928E-02 0.  1.
</event>
<event>
 5   0  0.1187925E-07  0.3898338E+04  0.7818609E-02  0.8025375E-01
        3   -1    0    0  501    0  0.00000000000E+00  0.00000000000E+00  0.23898034568E+04  0.23898034590E+04  0.10100000352E+00 0. -1.
       -3   -1    0    0    0  501  0.00000000000E+00  0.00000000000E+00 -0.15897788038E+04  0.15897788070E+04  0.10100000352E+00 0.  1.
    10030    2    1    2    0    0  0.00000000000E+00  0.00000000000E+00  0.80002465300E+03  0.39795822660E+04  0.38983375388E+04 0.  0.
        4    1    3    3  502    0  0.17607378282E+04 -0.44865030726E+02 -0.45228080239E+03  0.18184526685E+04  0.12699999809E+01 0.  1.
       -4    1    3    3    0  502 -0.17607378282E+04  0.44865030726E+02  0.12523054554E+04  0.21611295975E+04  0.12699999809E+01 0. -1.
</event>
<event>
 5   0  0.3832389E-07  0.2982293E+04  0.7818609E-02  0.8248805E-01
        2   -1    0    0  501    0  0.00000000000E+00  0.00000000000E+00  0.21334932205E+04  0.21334932205E+04  0.25500000920E-02 0.  1.
       -2   -1    0    0    0  501  0.00000000000E+00  0.00000000000E+00 -0.10421962252E+04  0.10421962252E+04  0.25500000920E-02 0. -1.
    10030    2    1    2    0    0  0.00000000000E+00  0.00000000000E+00  0.10912969954E+04  0.31756894457E+04  0.29822934670E+04 0.  0.
        5    1    3    3  502    0 -0.13457148918E+04 -0.27267961228E+03 -0.73607807252E+02  0.13750428867E+04  0.46999998093E+01 0. -1.
       -5    1    3    3    0  502  0.13457148918E+04  0.27267961228E+03  0.11649048026E+04  0.18006465590E+04  0.46999998093E+01 0.  1.
</event>
<event>
 5   0  0.1187925E-07  0.3911776E+04  0.7818609E-02  0.8022585E-01
        1   -1    0    0  501    0  0.00000000000E+00  0.00000000000E+00  0.32537027058E+04  0.32537027058E+04  0.50400001928E-02 0. -1.
       -1   -1    0    0    0  501  0.00000000000E+00  0.00000000000E+00 -0.11757365148E+04  0.11757365148E+04  0.50400001928E-02 0.  1.
    10030    2    1    2    0    0  0.00000000000E+00  0.00000000000E+00  0.20779661910E+04  0.44294392207E+04  0.39117755966E+04 0.  0.
        2    1    3    3  502    0 -0.10845004957E+04 -0.31239542061E+03  0.28478022139E+04  0.30632841320E+04  0.25500000920E-02 0. -1.
       -2    1    3    3    0  502  0.10845004957E+04  0.31239542061E+03 -0.76983602286E+03  0.13661550886E+04  0.25500000920E-02 0.  1.
</event>
<event>
 5   0  0.3832389E-07  0.3512567E+04  0.7818609E-02  0.8110818E-01
        2   -1    0    0  501    0  0.00000000000E+00  0.00000000000E+00  0.11376439052E+04  0.11376439052E+04  0.25500000920E-02 0.  1.
       -2   -1    0    0    0  501  0.00000000000E+00  0.00000000000E+00 -0.27113332321E+04  0.27113332321E+04  0.25500000920E-02 0. -1.
    10030    2    1    2    0    0  0.00000000000E+00  0.00000000000E+00 -0.15736893269E+04  0.38489771374E+04  0.35125669967E+04 0.  0.
        5    1    3    3  502    0 -0.13788189685E+04 -0.10699064732E+04 -0.57136974638E+03  0.18363896881E+04  0.46999998093E+01 0. -1.
       -5    1    3    3    0  502  0.13788189685E+04  0.10699064732E+04 -0.10023195805E+04  0.20125874493E+04  0.46999998093E+01 0.  1.
</event>
<event>
 5   0  0.1187925E-07  0.3377733E+04  0.7818609E-02  0.8143393E-01
       -1   -1    0    0    0  501  0.00000000000E+00  0.00000000000E+00  0.11715248737E+04  0.11715248738E+04  0.50400001928E-02 0. -1.
        1   -1    0    0  501    0  0.00000000000E+00  0.00000000000E+00 -0.24346642508E+04  0.24346642508E+04  0.50400001928E-02 0.  1.
    10030    2    1    2    0    0  0.00000000000E+00  0.00000000000E+00 -0.12631393771E+04  0.36061891246E+04  0.33777328071E+04 0.  0.
        3    1    3    3  502    0  0.64055010816E+03  0.11069228450E+04 -0.18092099844E+04  0.22155864695E+04  0.10100000352E+00 0.  1.
       -3    1    3    3    0  502 -0.64055010816E+03 -0.11069228450E+04  0.54607060733E+03  0.13906026551E+04  0.10100000352E+00 0. -1.
</event>
<event>
 5   0  0.1187925E-07  0.3924569E+04  0.7818609E-02  0.8019939E-01
        1   -1    0    0  501    0  0.00000000000E+00  0.00000000000E+00  0.22909257802E+04  0.22909257802E+04  0.50400001928E-02 0. -1.
       -1   -1    0    0    0  501  0.00000000000E+00  0.00000000000E+00 -0.16807879334E+04  0.16807879335E+04  0.50400001928E-02 0.  1.
    10030    2    1    2    0    0  0.00000000000E+00  0.00000000000E+00  0.61013784679E+03  0.39717137137E+04  0.39245689740E+04 0.  0.
        4    1    3    3  502    0  0.14181448533E+03 -0.69790307021E+03 -0.15453870610E+04  0.17015883241E+04  0.12699999809E+01 0.  1.
       -4    1    3    3    0  502 -0.14181448533E+03  0.69790307021E+03  0.21555249077E+04  0.22701253896E+04  0.12699999809E+01 0. -1.
</event>
<event>
 5   0  0.1187925E-07  0.3954347E+04  0.7818609E-02  0.8013820E-01
       -1   -1    0    0    0  501  0.00000000000E+00  0.00000000000E+00  0.19082194187E+04  0.19082194187E+04  0.50400001928E-02 0.  1.
        1   -1    0    0  501    0  0.00000000000E+00  0.00000000000E+00 -0.20486188977E+04  0.20486188977E+04  0.50400001928E-02 0. -1.
    10030    2    1    2    0    0  0.00000000000E+00  0.00000000000E+00 -0.14039947909E+03  0.39568383164E+04  0.39543466525E+04 0.  0.
        3    1    3    3  502    0 -0.25775874190E+03 -0.14492984628E+04 -0.13909968945E+04  0.20252846649E+04  0.10100000352E+00 0. -1.
       -3    1    3    3    0  502  0.25775874190E+03  0.14492984628E+04  0.12505974154E+04  0.19315536515E+04  0.10100000352E+00 0.  1.
</event>
<event>
 5   0  0.1187925E-07  0.3309893E+04  0.7818609E-02  0.8160383E-01
        1   -1    0    0  501    0  0.00000000000E+00  0.00000000000E+00  0.16490519733E+04  0.16490519733E+04  0.50400001928E-02 0.  1.
       -1   -1    0    0    0  501  0.00000000000E+00  0.00000000000E+00 -0.16608625639E+04  0.16608625639E+04  0.50400001928E-02 0. -1.
    10030    2    1    2    0    0  0.00000000000E+00  0.00000000000E+00 -0.11810590599E+02  0.33099145372E+04  0.33098934656E+04 0.  0.
        3    1    3    3  502    0  0.40413688466E+03 -0.55713420422E+03 -0.15109476123E+04  0.16603276304E+04  0.10100000352E+00 0. -1.
       -3    1    3    3    0  502 -0.40413688466E+03  0.55713420422E+03  0.14991370217E+04  0.16495869068E+04  0.10100000352E+00 0.  1.
</event>
<event>
 5   0  0.3665303E-07  0.3908952E+04  0.7818609E-02  0.8023170E-01
       -2   -1    0    0    0  501  0.00000000000E+00  0.00000000000E+00  0.29865778235E+04  0.29865778235E+04  0.25500000920E-02 0. -1.
        2   -1    0    0  501    0  0.00000000000E+00  0.00000000000E+00 -0.12790481676E+04  0.12790481676E+04  0.25500000920E-02 0.  1.
    10030    2    1    2    0    0  0.00000000000E+00  0.00000000000E+00  0.17075296559E+04  0.42656259910E+04  0.39089522343E+04 0.  0.
        2    1    3    3  502    0  0.16893095785E+04 -0.18794560164E+03  0.19066251867E+04  0.25542728914E+04  0.25500000920E-02 0. -1.
       -2    1    3    3    0  502 -0.16893095785E+04  0.18794560164E+03 -0.19909553077E+03  0.17113530996E+04  0.25500000920E-02 0.  1.
</event>
<event>
 5   0  0.1187925E-07  0.3880059E+04  0.7818609E-02  0.8029189E-01
       -1   -1    0    0    0  501  0.00000000000E+00  0.00000000000E+00  0.24351331474E+04  0.24351331474E+04  0.50400001928E-02 0.  1.
        1   -1    0    0  501    0  0.00000000000E+00  0.00000000000E+00 -0.15455887767E+04  0.15455887767E+04  0.50400001928E-02 0. -1.
    10030    2    1    2    0    0  0.00000000000E+00  0.00000000000E+00  0.88954437065E+03  0.39807219241E+04  0.38800590008E+04 0.  0.
        5    1    3    3  502    0 -0.27244116298E+03 -0.15018798905E+04  0.16732620626E+04  0.22648830903E+04  0.46999998093E+01 0.  1.
       -5    1    3    3    0  502  0.27244116298E+03  0.15018798905E+04 -0.78371769195E+03  0.17158388338E+04  0.46999998093E+01 0. -1.
</event>
<event>
 5   0  0.1187925E-07  0.3882707E+04  0.7818609E-02  0.8028635E-01
       -1   -1    0    0    0  501  0.00000000000E+00  0.00000000000E+00  0.15617686146E+04  0.15617686146E+04  0.50400001928E-02 0.  1.
        1   -1    0    0  501    0  0.00000000000E+00  0.00000000000E+00 -0.24131961562E+04  0.24131961562E+04  0.50400001928E-02 0. -1.
    10030    2    1    2    0    0  0.00000000000E+00  0.00000000000E+00 -0.85142754161E+03  0.39749647709E+04  0.38827073121E+04 0.  0.
        2    1    3    3  502    0 -0.67307089697E+03 -0.43700326230E+03 -0.22354436440E+04  0.23751220114E+04  0.25500000920E-02 0. -1.
       -2    1    3    3    0  502  0.67307089697E+03  0.43700326230E+03  0.13840161023E+04  0.15998427595E+04  0.25500000920E-02 0.  1.
</event>
<event>
 5   0  0.1187925E-07  0.3741543E+04  0.7818609E-02  0.8058817E-01
        1   -1    0    0  501    0  0.00000000000E+00  0.00000000000E+00  0.16210938634E+04  0.16210938634E+04  0.50400001928E-02 0.  1.
       -1   -1    0    0    0  501  0.00000000000E+00  0.00000000000E+00 -0.21589034912E+04  0.21589034912E+04  0.50400001928E-02 0. -1.
    10030    2    1    2    0    0  0.00000000000E+00  0.00000000000E+00 -0.53780962780E+03  0.37799973545E+04  0.37415425702E+04 0.  0.
        3    1    3    3  502    0 -0.10558890227E+04  0.15438063125E+04 -0.22918621898E+03  0.18843476038E+04  0.10100000352E+00 0. -1.
       -3    1    3    3    0  502  0.10558890227E+04 -0.15438063125E+04 -0.30862340882E+03  0.18956497507E+04  0.10100000352E+00 0.  1.
</event>
<event>
 5   0  0.3680814E-07  0.3849628E+04  0.7818609E-02  0.8035588E-01
        2   -1    0    0  501    0  0.00000000000E+00  0.00000000000E+00  0.21354203928E+04  0.21354203928E+04  0.25500000920E-02 0.  1.
       -2   -1    0    0    0  501  0.00000000000E+00  0.00000000000E+00 -0.17349785390E+04  0.17349785390E+04  0.25500000920E-02 0. -1.
    10030    2    1    2    0    0  0.00000000000E+00  0.00000000000E+00  0.40044185383E+03  0.38703989317E+04  0.38496278018E+04 0.  0.
        1    1    3    3  502    0  0.13961927252E+03 -0.17684953670E+04  0.95113714429E+03  0.20128912717E+04  0.50400001928E-02 0.  1.
       -1    1    3    3    0  502 -0.13961927252E+03  0.17684953670E+04 -0.55069529046E+03  0.18575076601E+04  0.50400001928E-02 0. -1.
</event>
<event>
 5   0  0.3665303E-07  0.3920813E+04  0.7818609E-02  0.8020714E-01
        2   -1    0    0  501    0  0.00000000000E+00  0.00000000000E+00  0.23620774251E+04  0.23620774251E+04  0.25500000920E-02 0.  1.
       -2   -1    0    0    0  501  0.00000000000E+00  0.00000000000E+00 -0.16270395150E+04  0.16270395150E+04  0.25500000920E-02 0. -1.
    10030    2    1    2    0    0  0.00000000000E+00  0.00000000000E+00  0.73503791010E+03  0.39891169401E+04  0.39208128281E+04 0.  0.
        2    1    3    3  502    0 -0.14180997123E+04  0.80794561892E+03 -0.73740689011E+03  0.17909639412E+04  0.25500000920E-02 0. -1.
       -2    1    3    3    0  502  0.14180997123E+04 -0.80794561892E+03  0.14724448002E+04  0.21981529989E+04  0.25500000920E-02 0.  1.
</event>
<event>
 5   0  0.1187925E-07  0.3903898E+04  0.7818609E-02  0.8024219E-01
        1   -1    0    0  501    0  0.00000000000E+00  0.00000000000E+00  0.21184374765E+04  0.21184374765E+04  0.50400001928E-02 0.  1.
       -1   -1    0    0    0  501  0.00000000000E+00  0.00000000000E+00 -0.17985444534E+04  0.17985444534E+04  0.50400001928E-02 0. -1.
    10030    2    1    2    0    0  0.00000000000E+00  0.00000000000E+00  0.31989302314E+03  0.39169819300E+04  0.39038975260E+04 0.  0.
        3    1    3    3  502    0 -0.13764008332E+04 -0.13709575504E+04  0.35058359678E+03  0.19740599603E+04  0.10100000352E+00 0.  1.
       -3    1    3    3    0  502  0.13764008332E+04  0.13709575504E+04 -0.30690573640E+02  0.19429219696E+04  0.10100000352E+00 0. -1.
</event>
<event>
 5   0  0.3680814E-07  0.3912240E+04  0.7818609E-02  0.8022488E-01
        2   -1    0    0  501    0  0.00000000000E+00  0.00000000000E+00  0.23189529003E+04  0.23189529003E+04  0.25500000920E-02 0.  1.
       -2   -1    0    0    0  501  0.00000000000E+00  0.00000000000E+00 -0.16500570144E+04  0.16500570144E+04  0.25500000920E-02 0. -1.
    10030    2    1    2    0    0  0.00000000000E+00  0.00000000000E+00  0.66889588588E+03  0.39690099147E+04  0.39122395117E+04 0.  0.
        1    1    3    3  502    0 -0.23971118209E+03  0.42599050304E+03  0.22559957722E+04  0.23083427570E+04  0.50400001928E-02 0.  1.
       -1    1    3    3    0  502  0.23971118209E+03 -0.42599050304E+03 -0.15870998863E+04  0.16606671577E+04  0.50400001928E-02 0. -1.
</event>
<event>
 5   0  0.1187925E-07  0.3836147E+04  0.7818609E-02  0.8038442E-01
        1   -1    0    0  501    0  0.00000000000E+00  0.00000000000E+00  0.25225799431E+04  0.25225799431E+04  0.50400001928E-02 0. -1.
       -1   -1    0    0    0  501  0.00000000000E+00  0.00000000000E+00 -0.14584296127E+04  0.14584296127E+04  0.50400001928E-02 0.  1.
    10030    2    1    2    0    0  0.00000000000E+00  0.00000000000E+00  0.10641503303E+04  0.39810095558E+04  0.38361466549E+04 0.  0.
        1    1    3    3  502    0  0.11694148782E+04  0.10282154700E+04  0.16942984374E+04  0.23011747881E+04  0.50400001928E-02 0. -1.
       -1    1    3    3    0  502 -0.11694148782E+04 -0.10282154700E+04 -0.63014810710E+03  0.16798347678E+04  0.50400001928E-02 0.  1.
</event>
<event>
 5   0  0.1187925E-07  0.3416926E+04  0.7818609E-02  0.8133765E-01
       -1   -1    0    0    0  501  0.00000000000E+00  0.00000000000E+00  0.10606305029E+04  0.10606305030E+04  0.50400001928E-02 0.  1.
        1   -1    0    0  501    0  0.00000000000E+00  0.00000000000E+00 -0.27519915604E+04  0.27519915604E+04  0.50400001928E-02 0. -1.
    10030    2    1    2    0    0  0.00000000000E+00  0.00000000000E+00 -0.16913610575E+04  0.38126220634E+04  0.34169262168E+04 0.  0.
        3    1    3    3  502    0 -0.99584956213E+03  0.11299873857E+04 -0.17454497260E+04  0.23054679782E+04  0.10100000352E+00 0. -1.
       -3    1    3    3    0  502  0.99584956213E+03 -0.11299873857E+04  0.54088668545E+02  0.15071540852E+04  0.10100000352E+00 0.  1.
</event>
<event>
 5   0  0.3610483E-07  0.3885702E+04  0.7818609E-02  0.8028010E-01
        2   -1    0    0  501    0  0.00000000000E+00  0.00000000000E+00  0.29580325073E+04  0.29580325073E+04  0.25500000920E-02 0. -1.
       -2   -1    0    0    0  501  0.00000000000E+00  0.00000000000E+00 -0.12760743076E+04  0.12760743076E+04  0.25500000920E-02 0.  1.
    10030    2    1    2    0    0  0.00000000000E+00  0.00000000000E+00  0.16819581997E+04  0.42341068149E+04  0.38857016271E+04 0.  0.
        4    1    3    3  502    0 -0.33398678513E+03 -0.12727845349E+04 -0.71656885397E+03  0.14983324666E+04  0.12699999809E+01 0.  1.
       -4    1    3    3    0  502  0.33398678513E+03  0.12727845349E+04  0.23985270536E+04  0.27357743483E+04  0.12699999809E+01 0. -1.
</event>
<event>
 5   0  0.3832389E-07  0.3761708E+04  0.7818609E-02  0.8054422E-01
       -2   -1    0    0    0  501  0.00000000000E+00  0.00000000000E+00  0.22112455914E+04  0.22112455914E+04  0.25500000920E-02 0. -1.
        2   -1    0    0  501    0  0.00000000000E+00  0.00000000000E+00 -0.15998277066E+04  0.15998277066E+04  0.25500000920E-02 0.  1.
    10030    2    1    2    0    0  0.00000000000E+00  0.00000000000E+00  0.61141788474E+03  0.38110732980E+04  0.37617081031E+04 0.  0.
        5    1    3    3  502    0 -0.67299464953E+03 -0.40212663606E+03 -0.14263944479E+04  0.16276519409E+04  0.46999998093E+01 0.  1.
       -5    1    3    3    0  502  0.67299464953E+03  0.40212663606E+03  0.20378123326E+04  0.21834213571E+04  0.46999998093E+01 0. -1.
</event>
<event>
 5   0  0.3680814E-07  0.3119724E+04  0.7818609E-02  0.8210346E-01
        2   -1    0    0  501    0  0.00000000000E+00  0.00000000000E+00  0.19412118822E+04  0.19412118822E+04  0.25500000920E-02 0.  1.
       -2   -1    0    0    0  501  0.00000000000E+00  0.00000000000E+00 -0.12534283376E+04  0.12534283376E+04  0.25500000920E-02 0. -1.
    10030    2    1    2    0    0  0.00000000000E+00  0.00000000000E+00  0.68778354462E+03  0.31946402198E+04  0.31197243355E+04 0.  0.
        1    1    3    3  502    0  0.70325419846E+03  0.13518893893E+04  0.27267703140E+01  0.15238696873E+04  0.50400001928E-02 0.  1.
       -1    1    3    3    0  502 -0.70325419846E+03 -0.13518893893E+04  0.68505677431E+03  0.16707705326E+04  0.50400001928E-02 0. -1.
</event>
<event>
 5   0  0.3832389E-07  0.3867661E+04  0.7818609E-02  0.8031789E-01
       -2   -1    0    0    0  501  0.00000000000E+00  0.00000000000E+00  0.17173395556E+04  0.17173395556E+04  0.25500000920E-02 0. -1.
        2   -1    0    0  501    0  0.00000000000E+00  0.00000000000E+00 -0.21776131145E+04  0.21776131145E+04  0.25500000920E-02 0.  1.
    10030    2    1    2    0    0  0.00000000000E+00  0.00000000000E+00 -0.46027355892E+03  0.38949526701E+04  0.38676613804E+04 0.  0.
        5    1    3    3  502    0  0.16246875369E+04 -0.10054488226E+04 -0.53081032747E+03  0.19830074688E+04  0.46999998093E+01 0.  1.
       -5    1    3    3    0  502 -0.16246875369E+04  0.10054488226E+04  0.70536768544E+02  0.19119452014E+04  0.46999998093E+01 0. -1.
</event>
<event>
 5   0  0.3610483E-07  0.3934623E+04  0.7818609E-02  0.8017867E-01
        2   -1    0    0  501    0  0.00000000000E+00  0.00000000000E+00  0.16303044228E+04  0.16303044228E+04  0.25500000920E-02 0.  1.
       -2   -1    0    0    0  501  0.00000000000E+00  0.00000000000E+00 -0.23739828350E+04  0.23739828350E+04  0.25500000920E-02 0. -1.
    10030    2    1    2    0    0  0.00000000000E+00  0.00000000000E+00 -0.74367841228E+03  0.40042872578E+04  0.39346230902E+04 0.  0.
        4    1    3    3  502    0  0.17027761793E+04  0.29539706903E+03  0.58480765818E+03  0.18244746518E+04  0.12699999809E+01 0.  1.
       -4    1    3    3    0  502 -0.17027761793E+04 -0.29539706903E+03 -0.13284860705E+04  0.21798126060E+04  0.12699999809E+01 0. -1.
</event>
<event>
 5   0  0.1187925E-07  0.3366306E+04  0.7818609E-02  0.8146226E-01
       -1   -1    0    0    0  501  0.00000000000E+00  0.00000000000E+00  0.10115863876E+04  0.10115863877E+04  0.50400001928E-02 0.  1.
        1   -1    0    0  501    0  0.00000000000E+00  0.00000000000E+00 -0.28005564884E+04  0.28005564884E+04  0.50400001928E-02 0. -1.
    10030    2    1    2    0    0  0.00000000000E+00  0.00000000000E+00 -0.17889701007E+04  0.38121428760E+04  0.33663064753E+04 0.  0.
        3    1    3    3  502    0  0.19156551037E+03  0.14722441251E+04  0.35088924112E+01  0.14846590286E+04  0.10100000352E+00 0.  1.
       -3    1    3    3    0  502 -0.19156551037E+03 -0.14722441251E+04 -0.17924789931E+04  0.23274838474E+04  0.10100000352E+00 0. -1.
</event>
<event>
 5   0  0.1187925E-07  0.3886755E+04  0.7818609E-02  0.8027790E-01
        1   -1    0    0  501    0  0.00000000000E+00  0.00000000000E+00  0.12011075404E+04  0.12011075404E+04  0.50400001928E-02 0. -1.
       -1   -1    0    0    0  501  0.00000000000E+00  0.00000000000E+00 -0.31443609056E+04  0.31443609056E+04  0.50400001928E-02 0.  1.
    10030    2    1    2    0    0  0.00000000000E+00  0.00000000000E+00 -0.19432533652E+04  0.43454684460E+04  0.38867547355E+04 0.  0.
        3    1    3    3  502    0 -0.33389775079E+03  0.15330269363E+04 -0.22537259010E+04  0.27460771553E+04  0.10100000352E+00 0.  1.
       -3    1    3    3    0  502  0.33389775079E+03 -0.15330269363E+04  0.31047253584E+03  0.15993912908E+04  0.10100000352E+00 0. -1.
</event>
<event>
 5   0  0.3810833E-07  0.3800534E+04  0.7818609E-02  0.8046040E-01
       -2   -1    0    0    0  501  0.00000000000E+00  0.00000000000E+00  0.30959340073E+04  0.30959340073E+04  0.25500000920E-02 0.  1.
        2   -1    0    0  501    0  0.00000000000E+00  0.00000000000E+00 -0.11663730659E+04  0.11663730659E+04  0.25500000920E-02 0. -1.
    10030    2    1    2    0    0  0.00000000000E+00  0.00000000000E+00  0.19295609414E+04  0.42623070732E+04  0.38005336677E+04 0.  0.
        3    1    3    3  502    0  0.17070795378E+04 -0.17569395483E+02  0.19008048205E+04  0.25548949505E+04  0.10100000352E+00 0.  1.
       -3    1    3    3    0  502 -0.17070795378E+04  0.17569395483E+02  0.28756120972E+02  0.17074121227E+04  0.10100000352E+00 0. -1.
</event>
<event>
 5   0  0.3610483E-07  0.3886525E+04  0.7818609E-02  0.8027837E-01
       -2   -1    0    0    0  501  0.00000000000E+00  0.00000000000E+00  0.16106873227E+04  0.16106873227E+04  0.25500000920E-02 0. -1.
        2   -1    0    0  501    0  0.00000000000E+00  0.00000000000E+00 -0.23445084901E+04  0.23445084901E+04  0.25500000920E-02 0.  1.
    10030    2    1    2    0    0  0.00000000000E+00  0.00000000000E+00 -0.73382116736E+03  0.39551958128E+04  0.38865254935E+04 0.  0.
        4    1    3    3  502    0 -0.20437782772E+03  0.11176619490E+04 -0.19712582844E+04  0.22752580876E+04  0.12699999809E+01 0.  1.
       -4    1    3    3    0  502  0.20437782772E+03 -0.11176619490E+04  0.12374371170E+04  0.16799377251E+04  0.12699999809E+01 0. -1.
</event>
<event>
 5   0  0.1187925E-07  0.3663341E+04  0.7818609E-02  0.8076135E-01
       -1   -1    0    0    0  501  0.00000000000E+00  0.00000000000E+00  0.15275348562E+04  0.15275348562E+04  0.50400001928E-02 0. -1.
        1   -1    0    0  501    0  0.00000000000E+00  0.00000000000E+00 -0.21963600361E+04  0.21963600361E+04  0.50400001928E-02 0.  1.
    10030    2    1    2    0    0  0.00000000000E+00  0.00000000000E+00 -0.66882517985E+03  0.37238948923E+04  0.36633408315E+04 0.  0.
        2    1    3    3  502    0 -0.99370819258E+03 -0.46740386894E+03 -0.18246237454E+04  0.21295948350E+04  0.25500000920E-02 0.  1.
       -2    1    3    3    0  502  0.99370819258E+03  0.46740386894E+03  0.11557985656E+04  0.15943000574E+04  0.25500000920E-02 0. -1.
</event>
<event>
 5   0  0.1187925E-07  0.3736896E+04  0.7818609E-02  0.8059834E-01
       -1   -1    0    0    0  501  0.00000000000E+00  0.00000000000E+00  0.26660398639E+04  0.26660398639E+04  0.50400001928E-02 0.  1.
        1   -1    0    0  501    0  0.00000000000E+00  0.00000000000E+00 -0.13094695569E+04  0.13094695569E+04  0.50400001928E-02 0. -1.
    10030    2    1    2    0    0  0.00000000000E+00  0.00000000000E+00  0.13565703070E+04  0.39755094209E+04  0.37368960593E+04 0.  0.
        1    1    3    3  502    0 -0.95458476863E+03 -0.96497793424E+03 -0.68771396933E+03  0.15216323464E+04  0.50400001928E-02 0.  1.
       -1    1    3    3    0  502  0.95458476863E+03  0.96497793424E+03  0.20442842763E+04  0.24538770745E+04  0.50400001928E-02 0. -1.
</event>
<event>
 5   0  0.1187925E-07  0.2788773E+04  0.7818609E-02  0.8306762E-01
       -1   -1    0    0    0  501  0.00000000000E+00  0.00000000000E+00  0.82543029037E+03  0.82543029038E+03  0.50400001928E-02 0.  1.
        1   -1    0    0  501    0  0.00000000000E+00  0.00000000000E+00 -0.23555158713E+04  0.23555158713E+04  0.50400001928E-02 0. -1.
    10030    2    1    2    0    0  0.00000000000E+00  0.00000000000E+00 -0.15300855809E+04  0.31809461616E+04  0.27887733143E+04 0.  0.
        2    1    3    3  502    0 -0.93906221849E+03  0.14415404198E+03  0.39911965257E+03  0.10304924721E+04  0.25500000920E-02 0.  1.
       -2    1    3    3    0  502  0.93906221849E+03 -0.14415404198E+03 -0.19292052335E+04  0.21504536895E+04  0.25500000920E-02 0. -1.
</event>
<event>
 5   0  0.3610483E-07  0.3901234E+04  0.7818609E-02  0.8024773E-01
        2   -1    0    0  501    0  0.00000000000E+00  0.00000000000E+00  0.24912353089E+04  0.24912353089E+04  0.25500000920E-02 0.  1.
       -2   -1    0    0    0  501  0.00000000000E+00  0.00000000000E+00 -0.15273171105E+04  0.15273171105E+04  0.25500000920E-02 0. -1.
    10030    2    1    2    0    0  0.00000000000E+00  0.00000000000E+00  0.96391819838E+03  0.40185524194E+04  0.39012338118E+04 0.  0.
        4    1    3    3  502    0 -0.17172057661E+04  0.46692430578E+03 -0.34086856162E+03  0.18119069897E+04  0.12699999809E+01 0.  1.
       -4    1    3    3    0  502  0.17172057661E+04 -0.46692430578E+03  0.13047867600E+04  0.22066454297E+04  0.12699999809E+01 0. -1.
</event>
<event>
 5   0  0.3610483E-07  0.3933543E+04  0.7818609E-02  0.8018089E-01
       -2   -1    0    0    0  501  0.00000000000E+00  0.00000000000E+00  0.19432413090E+04  0.19432413090E+04  0.25500000920E-02 0.  1.
        2   -1    0    0  501    0  0.00000000000E+00  0.00000000000E+00 -0.19905864106E+04  0.19905864106E+04  0.25500000920E-02 0. -1.
    10030    2    1    2    0    0  0.00000000000E+00  0.00000000000E+00 -0.47345101615E+02  0.39338277196E+04  0.39335428012E+04 0.  0.
        4    1    3    3  502    0  0.62901447494E+01 -0.17380675591E+04  0.89686667626E+03  0.19558348227E+04  0.12699999809E+01 0.  1.
       -4    1    3    3    0  502 -0.62901447494E+01  0.17380675591E+04 -0.94421177787E+03  0.19779928969E+04  0.12699999809E+01 0. -1.
</event>
<event>
 5   0  0.3832389E-07  0.3875156E+04  0.7818609E-02  0.8030216E-01
        2   -1    0    0  501    0  0.00000000000E+00  0.00000000000E+00  0.23868915075E+04  0.23868915075E+04  0.25500000920E-02 0. -1.
       -2   -1    0    0    0  501  0.00000000000E+00  0.00000000000E+00 -0.15728438769E+04  0.15728438769E+04  0.25500000920E-02 0.  1.
    10030    2    1    2    0    0  0.00000000000E+00  0.00000000000E+00  0.81404763067E+03  0.39597353844E+04  0.38751555800E+04 0.  0.
        5    1    3    3  502    0 -0.17577554293E+04 -0.25285172773E+03 -0.38484034505E+03  0.18170752121E+04  0.46999998093E+01 0.  1.
       -5    1    3    3    0  502  0.17577554293E+04  0.25285172773E+03  0.11988879757E+04  0.21426601723E+04  0.46999998093E+01 0. -1.
</event>
<event>
 5   0  0.1187925E-07  0.3905033E+04  0.7818609E-02  0.8023983E-01
       -1   -1    0    0    0  501  0.00000000000E+00  0.00000000000E+00  0.25324558097E+04  0.25324558097E+04  0.50400001928E-02 0.  1.
        1   -1    0    0  501    0  0.00000000000E+00  0.00000000000E+00 -0.15053848258E+04  0.15053848258E+04  0.50400001928E-02 0. -1.
    10030    2    1    2    0    0  0.00000000000E+00  0.00000000000E+00  0.10270709839E+04  0.40378406356E+04  0.39050329310E+04 0.  0.
        3    1    3    3  502    0  0.16705152868E+04 -0.62771710996E+03  0.13327361892E+04  0.22272933919E+04  0.10100000352E+00 0. -1.
       -3    1    3    3    0  502 -0.16705152868E+04  0.62771710996E+03 -0.30566520529E+03  0.18105472436E+04  0.10100000352E+00 0.  1.
</event>
<event>
 5   0  0.1187925E-07  0.3866897E+04  0.7818609E-02  0.8031949E-01
        1   -1    0    0  501    0  0.00000000000E+00  0.00000000000E+00  0.35556910899E+04  0.35556910899E+04  0.50400001928E-02 0. -1.
       -1   -1    0    0    0  501  0.00000000000E+00  0.00000000000E+00 -0.10513352290E+04  0.10513352290E+04  0.50400001928E-02 0.  1.
    10030    2    1    2    0    0  0.00000000000E+00  0.00000000000E+00  0.25043558609E+04  0.46070263190E+04  0.38668971057E+04 0.  0.
        2    1    3    3  502    0 -0.12447073223E+04 -0.45248595711E+03  0.29303983009E+04  0.32157851392E+04  0.25500000920E-02 0. -1.
       -2    1    3    3    0  502  0.12447073223E+04  0.45248595711E+03 -0.42604244004E+03  0.13912411798E+04  0.25500000920E-02 0.  1.
</event>
<event>
 5   0  0.3680814E-07  0.3758649E+04  0.7818609E-02  0.8055087E-01
        2   -1    0    0  501    0  0.00000000000E+00  0.00000000000E+00  0.18335651279E+04  0.18335651279E+04  0.25500000920E-02 0.  1.
       -2   -1    0    0    0  501  0.00000000000E+00  0.00000000000E+00 -0.19262259985E+04  0.19262259985E+04  0.25500000920E-02 0. -1.
    10030    2    1    2    0    0  0.00000000000E+00  0.00000000000E+00 -0.92660870682E+02  0.37597911264E+04  0.37586491293E+04 0.  0.
        1    1    3    3  502    0 -0.10680555754E+04 -0.52923281562E+03 -0.14997105389E+04  0.19157144322E+04  0.50400001928E-02 0. -1.
       -1    1    3    3    0  502  0.10680555754E+04  0.52923281562E+03  0.14070496682E+04  0.18440766942E+04  0.50400001928E-02 0.  1.
</event>
<event>
 5   0  0.1187925E-07  0.3947337E+04  0.7818609E-02  0.8015255E-01
        1   -1    0    0  501    0  0.00000000000E+00  0.00000000000E+00  0.11917325766E+04  0.11917325767E+04  0.50400001928E-02 0. -1.
       -1   -1    0    0    0  501  0.00000000000E+00  0.00000000000E+00 -0.32686586943E+04  0.32686586943E+04  0.50400001928E-02 0.  1.
    10030    2    1    2    0    0  0.00000000000E+00  0.00000000000E+00 -0.20769261177E+04  0.44603912710E+04  0.39473368481E+04 0.  0.
        4    1    3    3  502    0 -0.16326292289E+04  0.71548401225E+03 -0.19959257859E+04  0.26760263315E+04  0.12699999809E+01 0.  1.
       -4    1    3    3    0  502  0.16326292289E+04 -0.71548401225E+03 -0.81000331732E+02  0.17843649395E+04  0.12699999809E+01 0. -1.
</event>
<event>
 5   0  0.3610483E-07  0.3891663E+04  0.7818609E-02  0.8026765E-01
       -2   -1    0    0    0  501  0.00000000000E+00  0.00000000000E+00  0.24897628761E+04  0.24897628761E+04  0.25500000920E-02 0.  1.
        2   -1    0    0  501    0  0.00000000000E+00  0.00000000000E+00 -0.15207311233E+04  0.15207311233E+04  0.25500000920E-02 0. -1.
    10030    2    1    2    0    0  0.00000000000E+00  0.00000000000E+00  0.96903175278E+03  0.40104939994E+04  0.38916628298E+04 0.  0.
        4    1    3    3  502    0 -0.44288396074E+03 -0.17088328604E+03  0.24291738248E+04  0.24751231049E+04  0.12699999809E+01 0.  1.
       -4    1    3    3    0  502  0.44288396074E+03  0.17088328604E+03 -0.14601420721E+04  0.15353708945E+04  0.12699999809E+01 0. -1.
</event>
<event>
 5   0  0.3665303E-07  0.3793387E+04  0.7818609E-02  0.8047575E-01
        2   -1    0    0  501    0  0.00000000000E+00  0.00000000000E+00  0.23863384065E+04  0.23863384065E+04  0.25500000920E-02 0.  1.
       -2   -1    0    0    0  501  0.00000000000E+00  0.00000000000E+00 -0.15075173793E+04  0.15075173793E+04  0.25500000920E-02 0. -1.
    10030    2    1    2    0    0  0.00000000000E+00  0.00000000000E+00  0.87882102722E+03  0.38938557858E+04  0.37933872045E+04 0.  0.
        2    1    3    3  502    0 -0.82619315318E+03 -0.13044821422E+04  0.15700259781E+04  0.22021013504E+04  0.25500000920E-02 0.  1.
       -2    1    3    3    0  502  0.82619315318E+03  0.13044821422E+04 -0.69120495087E+03  0.16917544354E+04  0.25500000920E-02 0. -1.
</event>
<event>
 5   0  0.1187925E-07  0.3856266E+04  0.7818609E-02  0.8034187E-01
        1   -1    0    0  501    0  0.00000000000E+00  0.00000000000E+00  0.11662428654E+04  0.11662428654E+04  0.50400001928E-02 0.  1.
       -1   -1    0    0    0  501  0.00000000000E+00  0.00000000000E+00 -0.31877558602E+04  0.31877558602E+04  0.50400001928E-02 0. -1.
    10030    2    1    2    0    0  0.00000000000E+00  0.00000000000E+00 -0.20215129948E+04  0.43539987255E+04  0.38562663437E+04 0.  0.
        4    1    3    3  502    0 -0.13771200878E+04 -0.13374148641E+04 -0.80702983382E+03  0.20824113475E+04  0.12699999809E+01 0.  1.
       -4    1    3    3    0  502  0.13771200878E+04  0.13374148641E+04 -0.12144831610E+04  0.22715873780E+04  0.12699999809E+01 0. -1.
</event>
<event>
 5   0  0.3610483E-07  0.3918710E+04  0.7818609E-02  0.8021149E-01
       -2   -1    0    0    0  501  0.00000000000E+00  0.00000000000E+00  0.18365844740E+04  0.18365844740E+04  0.25500000920E-02 0.  1.
        2   -1    0    0  501    0  0.00000000000E+00  0.00000000000E+00 -0.20903326374E+04  0.20903326374E+04  0.25500000920E-02 0. -1.
    10030    2    1    2    0    0  0.00000000000E+00  0.00000000000E+00 -0.25374816334E+03  0.39269171114E+04  0.39187102304E+04 0.  0.
        4    1    3    3  502    0 -0.10247360962E+04  0.14805878147E+04  0.64730229183E+03  0.19134330962E+04  0.12699999809E+01 0.  1.
       -4    1    3    3    0  502  0.10247360962E+04 -0.14805878147E+04 -0.90105045517E+03  0.20134840152E+04  0.12699999809E+01 0. -1.
</event>
<event>
 5   0  0.1187925E-07  0.2922137E+04  0.7818609E-02  0.8266321E-01
       -1   -1    0    0    0  501  0.00000000000E+00  0.00000000000E+00  0.10024243620E+04  0.10024243620E+04  0.50400001928E-02 0. -1.
        1   -1    0    0  501    0  0.00000000000E+00  0.00000000000E+00 -0.21295580303E+04  0.21295580303E+04  0.50400001928E-02 0.  1.
    10030    2    1    2    0    0  0.00000000000E+00  0.00000000000E+00 -0.11271336683E+04  0.31319823923E+04  0.29221367866E+04 0.  0.
        3    1    3    3  502    0 -0.23219574314E+03 -0.65328419191E+03 -0.19420132937E+04  0.20620646793E+04  0.10100000352E+00 0.  1.
       -3    1    3    3    0  502  0.23219574314E+03  0.65328419191E+03  0.81487962538E+03  0.10699177130E+04  0.10100000352E+00 0. -1.
</event>
<event>
 5   0  0.3832389E-07  0.3804290E+04  0.7818609E-02  0.8045235E-01
        2   -1    0    0  501    0  0.00000000000E+00  0.00000000000E+00  0.25194382877E+04  0.25194382877E+04  0.25500000920E-02 0.  1.
       -2   -1    0    0    0  501  0.00000000000E+00  0.00000000000E+00 -0.14360964610E+04  0.14360964610E+04  0.25500000920E-02 0. -1.
    10030    2    1    2    0    0  0.00000000000E+00  0.00000000000E+00  0.10833418267E+04  0.39555347487E+04  0.38042904246E+04 0.  0.
        5    1    3    3  502    0  0.58358742125E+03 -0.76892266666E+01 -0.13406902364E+04  0.14622263171E+04  0.46999998093E+01 0. -1.
       -5    1    3    3    0  502 -0.58358742125E+03  0.76892266666E+01  0.24240320631E+04  0.24933084316E+04  0.46999998093E+01 0.  1.
</event>
<event>
 5   0  0.3832389E-07  0.3652863E+04  0.7818609E-02  0.8078489E-01
       -2   -1    0    0    0  501  0.00000000000E+00  0.00000000000E+00  0.24374427589E+04  0.24374427589E+04  0.25500000920E-02 0. -1.
        2   -1    0    0  501    0  0.00000000000E+00  0.00000000000E+00 -0.13685865883E+04  0.13685865883E+04  0.25500000920E-02 0.  1.
    10030    2    1    2    0    0  0.00000000000E+00  0.00000000000E+00  0.10688561706E+04  0.38060293472E+04  0.36528626964E+04 0.  0.
        5    1    3    3  502    0 -0.87024476799E+03 -0.14478098723E+04 -0.18920751518E+03  0.16997943865E+04  0.46999998093E+01 0.  1.
       -5    1    3    3    0  502  0.87024476799E+03  0.14478098723E+04  0.12580636858E+04  0.21062349608E+04  0.46999998093E+01 0. -1.
</event>
<event>
 5   0  0.3680814E-07  0.3934228E+04  0.7818609E-02  0.8017948E-01
        2   -1    0    0  501    0  0.00000000000E+00  0.00000000000E+00  0.25249737842E+04  0.25249737842E+04  0.25500000920E-02 0. -1.
       -2   -1    0    0    0  501  0.00000000000E+00  0.00000000000E+00 -0.15325060583E+04  0.15325060583E+04  0.25500000920E-02 0.  1.
    10030    2    1    2    0    0  0.00000000000E+00  0.00000000000E+00  0.99246772594E+03  0.40574798425E+04  0.39342280673E+04 0.  0.
        1    1    3    3  502    0  0.82290448319E+03  0.17739368360E+04  0.71625734356E+03  0.20825581069E+04  0.50400001928E-02 0. -1.
       -1    1    3    3    0  502 -0.82290448319E+03 -0.17739368360E+04  0.27621038237E+03  0.19749217356E+04  0.50400001928E-02 0.  1.
</event>
<event>
 5   0  0.1187925E-07  0.3855687E+04  0.7818609E-02  0.8034309E-01
        1   -1    0    0  501    0  0.00000000000E+00  0.00000000000E+00  0.22984030275E+04  0.22984030275E+04  0.50400001928E-02 0. -1.
       -1   -1    0    0    0  501  0.00000000000E+00  0.00000000000E+00 -0.16170269761E+04  0.16170269761E+04  0.50400001928E-02 0.  1.
    10030    2    1    2    0    0  0.00000000000E+00  0.00000000000E+00  0.68137605144E+03  0.39154300036E+04  0.38556865523E+04 0.  0.
        4    1    3    3  502    0 -0.92736112921E+03 -0.11532826449E+04 -0.91397987862E+03  0.17393735523E+04  0.12699999809E+01 0.  1.
       -4    1    3    3    0  502  0.92736112921E+03  0.11532826449E+04  0.15953559301E+04  0.21760564513E+04  0.12699999809E+01 0. -1.
</event>
<event>
 5   0  0.1187925E-07  0.3378186E+04  0.7818609E-02  0.8143281E-01
       -1   -1    0    0    0  501  0.00000000000E+00  0.00000000000E+00  0.11959904032E+04  0.11959904032E+04  0.50400001928E-02 0. -1.
        1   -1    0    0  501    0  0.00000000000E+00  0.00000000000E+00 -0.23854997794E+04  0.23854997794E+04  0.50400001928E-02 0.  1.
    10030    2    1    2    0    0  0.00000000000E+00  0.00000000000E+00 -0.11895093762E+04  0.35814901826E+04  0.33781858107E+04 0.  0.
        3    1    3    3  502    0  0.86096735637E+03  0.29635029144E+03  0.91351759758E+03  0.12898072318E+04  0.10100000352E+00 0. -1.
       -3    1    3    3    0  502 -0.86096735637E+03 -0.29635029144E+03 -0.21030269738E+04  0.22916829507E+04  0.10100000352E+00 0.  1.
</event>
<event>
 5   0  0.1187925E-07  0.3922099E+04  0.7818609E-02  0.8020449E-01
        1   -1    0    0  501    0  0.00000000000E+00  0.00000000000E+00  0.14935203510E+04  0.14935203511E+04  0.50400001928E-02 0.  1.
       -1   -1    0    0    0  501  0.00000000000E+00  0.00000000000E+00 -0.25749328344E+04  0.25749328344E+04  0.50400001928E-02 0. -1.
    10030    2    1    2    0    0  0.00000000000E+00  0.00000000000E+00 -0.10814124834E+04  0.40684531855E+04  0.39220987192E+04 0.  0.
        3    1    3    3  502    0  0.16680019835E+04  0.73071813502E+03  0.21413935446E+03  0.18335853629E+04  0.10100000352E+00 0.  1.
       -3    1    3    3    0  502 -0.16680019835E+04 -0.73071813502E+03 -0.12955518378E+04  0.22348678226E+04  0.10100000352E+00 0. -1.
</event>
<event>
 5   0  0.3610483E-07  0.3905478E+04  0.7818609E-02  0.8023891E-01
       -2   -1    0    0    0  501  0.00000000000E+00  0.00000000000E+00  0.32280832562E+04  0.32280832562E+04  0.25500000920E-02 0.  1.
        2   -1    0    0  501    0  0.00000000000E+00  0.00000000000E+00 -0.11812549682E+04  0.11812549683E+04  0.25500000920E-02 0. -1.
    10030    2    1    2    0    0  0.00000000000E+00  0.00000000000E+00  0.20468282880E+04  0.44093382245E+04  0.39054778885E+04 0.  0.
        4    1    3    3  502    0  0.34095511760E+03  0.16936701415E+04  0.20510144175E+04  0.26816843017E+04  0.12699999809E+01 0.  1.
       -4    1    3    3    0  502 -0.34095511760E+03 -0.16936701415E+04 -0.41861295322E+01  0.17276539228E+04  0.12699999809E+01 0. -1.
</event>
<event>
 5   0  0.1187925E-07  0.4051178E+04  0.7818609E-02  0.7994301E-01
        1   -1    0    0  501    0  0.00000000000E+00  0.00000000000E+00  0.16165588495E+04  0.16165588495E+04  0.50400001928E-02 0. -1.
       -1   -1    0    0    0  501  0.00000000000E+00  0.00000000000E+00 -0.25381134775E+04  0.25381134775E+04  0.50400001928E-02 0.  1.
    10030    2    1    2    0    0  0.00000000000E+00  0.00000000000E+00 -0.92155462809E+03  0.41546723270E+04  0.40511775093E+04 0.  0.
        5    1    3    3  502    0 -0.54834213156E+03  0.40126316665E+03 -0.24177444192E+04  0.25114142209E+04  0.46999998093E+01 0.  1.
       -5    1    3    3    0  502  0.54834213156E+03 -0.40126316665E+03  0.14961897912E+04  0.16432581061E+04  0.46999998093E+01 0. -1.
</event>
<event>
 5   0  0.1187925E-07  0.3822658E+04  0.7818609E-02  0.8041310E-01
       -1   -1    0    0    0  501  0.00000000000E+00  0.00000000000E+00  0.20057715243E+04  0.20057715243E+04  0.50400001928E-02 0. -1.
        1   -1    0    0  501    0  0.00000000000E+00  0.00000000000E+00 -0.18213337262E+04  0.18213337262E+04  0.50400001928E-02 0.  1.
    10030    2    1    2    0    0  0.00000000000E+00  0.00000000000E+00  0.18443779808E+03  0.38271052505E+04  0.38226584070E+04 0.  0.
        4    1    3    3  502    0 -0.38084606284E+03 -0.16991324121E+04 -0.69678608712E+03  0.18755284966E+04  0.12699999809E+01 0.  1.
       -4    1    3    3    0  502  0.38084606284E+03  0.16991324121E+04  0.88122388520E+03  0.19515767539E+04  0.12699999809E+01 0. -1.
</event>
<event>
 5   0  0.1187925E-07  0.4224891E+04  0.7818609E-02  0.7960654E-01
       -1   -1    0    0    0  501  0.00000000000E+00  0.00000000000E+00  0.22093433586E+04  0.22093433586E+04  0.50400001928E-02 0. -1.
        1   -1    0    0  501    0  0.00000000000E+00  0.00000000000E+00 -0.20197976562E+04  0.20197976562E+04  0.50400001928E-02 0.  1.
    10030    2    1    2    0    0  0.00000000000E+00  0.00000000000E+00  0.18954570238E+03  0.42291410147E+04  0.42248912589E+04 0.  0.
        2    1    3    3  502    0  0.39945818441E+03  0.15899231500E+04  0.14284057730E+04  0.21743425481E+04  0.25500000920E-02 0. -1.
       -2    1    3    3    0  502 -0.39945818441E+03 -0.15899231500E+04 -0.12388600706E+04  0.20547984667E+04  0.25500000920E-02 0.  1.
</event>
<event>
 5   0  0.3810833E-07  0.3591916E+04  0.7818609E-02  0.8092346E-01
       -2   -1    0    0    0  501  0.00000000000E+00  0.00000000000E+00  0.17540643447E+04  0.17540643447E+04  0.25500000920E-02 0.  1.
        2   -1    0    0  501    0  0.00000000000E+00  0.00000000000E+00 -0.18388526649E+04  0.18388526649E+04  0.25500000920E-02 0. -1.
    10030    2    1    2    0    0  0.00000000000E+00  0.00000000000E+00 -0.84788320241E+02  0.35929170096E+04  0.35919164214E+04 0.  0.
        3    1    3    3  502    0 -0.22836998530E+03  0.33782806231E+03 -0.17919340556E+04  0.18377454448E+04  0.10100000352E+00 0. -1.
       -3    1    3    3    0  502  0.22836998530E+03 -0.33782806231E+03  0.17071457354E+04  0.17551715648E+04  0.10100000352E+00 0.  1.
</event>
<event>
 5   0  0.3610483E-07  0.2930456E+04  0.7818609E-02  0.8263873E-01
       -2   -1    0    0    0  501  0.00000000000E+00  0.00000000000E+00  0.16117757581E+04  0.16117757581E+04  0.25500000920E-02 0.  1.
        2   -1    0    0  501    0  0.00000000000E+00  0.00000000000E+00 -0.13320044703E+04  0.13320044703E+04  0.25500000920E-02 0. -1.
    10030    2    1    2    0    0  0.00000000000E+00  0.00000000000E+00  0.27977128780E+03  0.29437802283E+04  0.29304556061E+04 0.  0.
        4    1    3    3  502    0  0.69078583712E+03  0.10327234583E+04 -0.64029759441E+03  0.13977429794E+04  0.12699999809E+01 0. -1.
       -4    1    3    3    0  502 -0.69078583712E+03 -0.10327234583E+04  0.92006888221E+03  0.15460372489E+04  0.12699999809E+01 0.  1.
</event>
<event>
 5   0  0.3680814E-07  0.3836664E+04  0.7818609E-02  0.8038332E-01
        2   -1    0    0  501    0  0.00000000000E+00  0.00000000000E+00  0.15354674656E+04  0.15354674656E+04  0.25500000920E-02 0. -1.
       -2   -1    0    0    0  501  0.00000000000E+00  0.00000000000E+00 -0.23966623868E+04  0.23966623868E+04  0.25500000920E-02 0.  1.
    10030    2    1    2    0    0  0.00000000000E+00  0.00000000000E+00 -0.86119492125E+03  0.39321298524E+04  0.38366637178E+04 0.  0.
        1    1    3    3  502    0  0.18342729920E+03 -0.84605913076E+01  0.15264399233E+04  0.15374446316E+04  0.50400001928E-02 0. -1.
       -1    1    3    3    0  502 -0.18342729920E+03  0.84605913076E+01 -0.23876348446E+04  0.23946852208E+04  0.50400001928E-02 0.  1.
</event>
<event>
 5   0  0.3810833E-07  0.3901532E+04  0.7818609E-02  0.8024711E-01
       -2   -1    0    0    0  501  0.00000000000E+00  0.00000000000E+00  0.27316334791E+04  0.27316334791E+04  0.25500000920E-02 0. -1.
        2   -1    0    0  501    0  0.00000000000E+00  0.00000000000E+00 -0.13931184281E+04  0.13931184281E+04  0.25500000920E-02 0.  1.
    10030    2    1    2    0    0  0.00000000000E+00  0.00000000000E+00  0.13385150509E+04  0.41247519072E+04  0.39015324879E+04 0.  0.
        3    1    3    3  502    0  0.36488401176E+03  0.82508032029E+03 -0.11593214293E+04  0.14689874280E+04  0.10100000352E+00 0.  1.
       -3    1    3    3    0  502 -0.36488401176E+03 -0.82508032029E+03  0.24978364802E+04  0.26557644792E+04  0.10100000352E+00 0. -1.
</event>
<event>
 5   0  0.1187925E-07  0.3866843E+04  0.7818609E-02  0.8031961E-01
       -1   -1    0    0    0  501  0.00000000000E+00  0.00000000000E+00  0.14009907696E+04  0.14009907696E+04  0.50400001928E-02 0.  1.
        1   -1    0    0  501    0  0.00000000000E+00  0.00000000000E+00 -0.26681965523E+04  0.26681965523E+04  0.50400001928E-02 0. -1.
    10030    2    1    2    0    0  0.00000000000E+00  0.00000000000E+00 -0.12672057827E+04  0.40691873219E+04  0.38668430231E+04 0.  0.
        5    1    3    3  502    0 -0.17625882306E+04  0.77767178330E+03 -0.80525168527E+03  0.20880476622E+04  0.46999998093E+01 0.  1.
       -5    1    3    3    0  502  0.17625882306E+04 -0.77767178330E+03 -0.46195409744E+03  0.19811396597E+04  0.46999998093E+01 0. -1.
</event>
<event>
 5   0  0.1187925E-07  0.3887669E+04  0.7818609E-02  0.8027599E-01
        1   -1    0    0  501    0  0.00000000000E+00  0.00000000000E+00  0.24452318677E+04  0.24452318677E+04  0.50400001928E-02 0.  1.
       -1   -1    0    0    0  501  0.00000000000E+00  0.00000000000E+00 -0.15452495791E+04  0.15452495791E+04  0.50400001928E-02 0. -1.
    10030    2    1    2    0    0  0.00000000000E+00  0.00000000000E+00  0.89998228866E+03  0.39904814468E+04  0.38876694892E+04 0.  0.
        4    1    3    3  502    0  0.12701032769E+04  0.88657117039E+03  0.16554951393E+04  0.22671207606E+04  0.12699999809E+01 0.  1.
       -4    1    3    3    0  502 -0.12701032769E+04 -0.88657117039E+03 -0.75551285065E+03  0.17233606861E+04  0.12699999809E+01 0. -1.
</event>
<event>
 5   0  0.1187925E-07  0.3905832E+04  0.7818609E-02  0.8023817E-01
       -1   -1    0    0    0  501  0.00000000000E+00  0.00000000000E+00  0.14783317942E+04  0.14783317943E+04  0.50400001928E-02 0. -1.
        1   -1    0    0  501    0  0.00000000000E+00  0.00000000000E+00 -0.25798542182E+04  0.25798542182E+04  0.50400001928E-02 0.  1.
    10030    2    1    2    0    0  0.00000000000E+00  0.00000000000E+00 -0.11015224239E+04  0.40581860124E+04  0.39058318014E+04 0.  0.
        5    1    3    3  502    0 -0.48469205020E+03  0.10983561812E+04  0.10496283476E+04  0.15946957210E+04  0.46999998093E+01 0. -1.
       -5    1    3    3    0  502  0.48469205020E+03 -0.10983561812E+04 -0.21511507715E+04  0.24634902915E+04  0.46999998093E+01 0.  1.
</event>
<event>
 5   0  0.1187925E-07  0.3852366E+04  0.7818609E-02  0.8035010E-01
        1   -1    0    0  501    0  0.00000000000E+00  0.00000000000E+00  0.20559391404E+04  0.20559391404E+04  0.50400001928E-02 0.  1.
       -1   -1    0    0    0  501  0.00000000000E+00  0.00000000000E+00 -0.18046163722E+04  0.18046163723E+04  0.50400001928E-02 0. -1.
    10030    2    1    2    0    0  0.00000000000E+00  0.00000000000E+00  0.25132276819E+03  0.38605555127E+04  0.38523662511E+04 0.  0.
        1    1    3    3  502    0 -0.13982639204E+04 -0.97891793845E+03 -0.76884975207E+03  0.18720449414E+04  0.50400001928E-02 0. -1.
       -1    1    3    3    0  502  0.13982639204E+04  0.97891793845E+03  0.10201725203E+04  0.19885105713E+04  0.50400001928E-02 0.  1.
</event>
<event>
 5   0  0.3610483E-07  0.3213416E+04  0.7818609E-02  0.8185283E-01
       -2   -1    0    0    0  501  0.00000000000E+00  0.00000000000E+00  0.10837181854E+04  0.10837181854E+04  0.25500000920E-02 0.  1.
        2   -1    0    0  501    0  0.00000000000E+00  0.00000000000E+00 -0.23820861977E+04  0.23820861977E+04  0.25500000920E-02 0. -1.
    10030    2    1    2    0    0  0.00000000000E+00  0.00000000000E+00 -0.12983680123E+04  0.34658043832E+04  0.32134157103E+04 0.  0.
        4    1    3    3  502    0 -0.10920171908E+04 -0.11676811253E+04 -0.47686089880E+03  0.16683460927E+04  0.12699999809E+01 0.  1.
       -4    1    3    3    0  502  0.10920171908E+04  0.11676811253E+04 -0.82150711349E+03  0.17974582904E+04  0.12699999809E+01 0. -1.
</event>
<event>
 5   0  0.3680814E-07  0.3736876E+04  0.7818609E-02  0.8059839E-01
        2   -1    0    0  501    0  0.00000000000E+00  0.00000000000E+00  0.30375058955E+04  0.30375058955E+04  0.25500000920E-02 0. -1.
       -2   -1    0    0    0  501  0.00000000000E+00  0.00000000000E+00 -0.11493178307E+04  0.11493178307E+04  0.25500000920E-02 0.  1.
    10030    2    1    2    0    0  0.00000000000E+00  0.00000000000E+00  0.18881880648E+04  0.41868237262E+04  0.37368755326E+04 0.  0.
        1    1    3    3  502    0 -0.94732872635E+03  0.74037535441E+02 -0.85838600889E+03  0.12805232574E+04  0.50400001928E-02 0.  1.
       -1    1    3    3    0  502  0.94732872635E+03 -0.74037535441E+02  0.27465740737E+04  0.29063004688E+04  0.50400001928E-02 0. -1.
</event>
<event>
 5   0  0.3665303E-07  0.3917339E+04  0.7818609E-02  0.8021433E-01
        2   -1    0    0  501    0  0.00000000000E+00  0.00000000000E+00  0.24342456227E+04  0.24342456227E+04  0.25500000920E-02 0.  1.
       -2   -1    0    0    0  501  0.00000000000E+00  0.00000000000E+00 -0.15760058286E+04  0.15760058286E+04  0.25500000920E-02 0. -1.
    10030    2    1    2    0    0  0.00000000000E+00  0.00000000000E+00  0.85823979415E+03  0.40102514513E+04  0.39173385299E+04 0.  0.
        2    1    3    3  502    0  0.79214868018E+03  0.87749240372E+03  0.20278562849E+04  0.23472736446E+04  0.25500000920E-02 0.  1.
       -2    1    3    3    0  502 -0.79214868018E+03 -0.87749240372E+03 -0.11696164908E+04  0.16629778067E+04  0.25500000920E-02 0. -1.
</event>
<event>
 5   0  0.1187925E-07  0.3842603E+04  0.7818609E-02  0.8037074E-01
       -1   -1    0    0    0  501  0.00000000000E+00  0.00000000000E+00  0.21168214938E+04  0.21168214938E+04  0.50400001928E-02 0.  1.
        1   -1    0    0  501    0  0.00000000000E+00  0.00000000000E+00 -0.17438410809E+04  0.17438410809E+04  0.50400001928E-02 0. -1.
    10030    2    1    2    0    0  0.00000000000E+00  0.00000000000E+00  0.37298041286E+03  0.38606625747E+04  0.38426034310E+04 0.  0.
        3    1    3    3  502    0  0.43456923130E+03  0.12617115394E+04  0.15752432150E+04  0.20644993636E+04  0.10100000352E+00 0.  1.
       -3    1    3    3    0  502 -0.43456923130E+03 -0.12617115394E+04 -0.12022628022E+04  0.17961632112E+04  0.10100000352E+00 0. -1.
</event>
<event>
 5   0  0.3810833E-07  0.4477818E+04  0.7818609E-02  0.7914532E-01
        2   -1    0    0  501    0  0.00000000000E+00  0.00000000000E+00  0.26275197141E+04  0.26275197141E+04  0.25500000920E-02 0. -1.
       -2   -1    0    0    0  501  0.00000000000E+00  0.00000000000E+00 -0.19077739156E+04  0.19077739156E+04  0.25500000920E-02 0.  1.
    10030    2    1    2    0    0  0.00000000000E+00  0.00000000000E+00  0.71974579843E+03  0.45352936297E+04  0.44778180282E+04 0.  0.
        3    1    3    3  502    0  0.35557158686E+03  0.20538202858E+02 -0.18788972366E+04  0.19123566109E+04  0.10100000352E+00 0.  1.
       -3    1    3    3    0  502 -0.35557158686E+03 -0.20538202858E+02  0.25986430350E+04  0.26229370189E+04  0.10100000352E+00 0. -1.
</event>
<event>
 5   0  0.3832389E-07  0.3933926E+04  0.7818609E-02  0.8018010E-01
        2   -1    0    0  501    0  0.00000000000E+00  0.00000000000E+00  0.21795066916E+04  0.21795066916E+04  0.25500000920E-02 0.  1.
       -2   -1    0    0    0  501  0.00000000000E+00  0.00000000000E+00 -0.17751463741E+04  0.17751463741E+04  0.25500000920E-02 0. -1.
    10030    2    1    2    0    0  0.00000000000E+00  0.00000000000E+00  0.40436031745E+03  0.39546530657E+04  0.39339259785E+04 0.  0.
        5    1    3    3  502    0 -0.19050340133E+04  0.48695798415E+03  0.25381850603E+03  0.19826065152E+04  0.46999998093E+01 0. -1.
       -5    1    3    3    0  502  0.19050340133E+04 -0.48695798415E+03  0.15054181143E+03  0.19720465505E+04  0.46999998093E+01 0.  1.
</event>
<event>
 5   0  0.3680814E-07  0.3881840E+04  0.7818609E-02  0.8028817E-01
        2   -1    0    0  501    0  0.00000000000E+00  0.00000000000E+00  0.14282169006E+04  0.14282169006E+04  0.25500000920E-02 0. -1.
       -2   -1    0    0    0  501  0.00000000000E+00  0.00000000000E+00 -0.26376738653E+04  0.26376738653E+04  0.25500000920E-02 0.  1.
    10030    2    1    2    0    0  0.00000000000E+00  0.00000000000E+00 -0.12094569647E+04  0.40658907659E+04  0.38818399723E+04 0.  0.
        1    1    3    3  502    0  0.84886158720E+03 -0.66513975316E+02 -0.24316107191E+04  0.25763774553E+04  0.50400001928E-02 0.  1.
       -1    1    3    3    0  502 -0.84886158720E+03  0.66513975316E+02  0.12221537543E+04  0.14895133106E+04  0.50400001928E-02 0. -1.
</event>
<event>
 5   0  0.1187925E-07  0.3836769E+04  0.7818609E-02  0.8038310E-01
       -1   -1    0    0    0  501  0.00000000000E+00  0.00000000000E+00  0.28491700386E+04  0.28491700386E+04  0.50400001928E-02 0.  1.
        1   -1    0    0  501    0  0.00000000000E+00  0.00000000000E+00 -0.12916737667E+04  0.12916737668E+04  0.50400001928E-02 0. -1.
    10030    2    1    2    0    0  0.00000000000E+00  0.00000000000E+00  0.15574962718E+04  0.41408438053E+04  0.38367685340E+04 0.  0.
        3    1    3    3  502    0 -0.10801552962E+04  0.88693361119E+03 -0.63947875031E+03  0.15369839872E+04  0.10100000352E+00 0. -1.
       -3    1    3    3    0  502  0.10801552962E+04 -0.88693361119E+03  0.21969750221E+04  0.26038598181E+04  0.10100000352E+00 0.  1.
</event>
<event>
 5   0  0.1187925E-07  0.3962418E+04  0.7818609E-02  0.8012171E-01
        1   -1    0    0  501    0  0.00000000000E+00  0.00000000000E+00  0.31926765930E+04  0.31926765930E+04  0.50400001928E-02 0. -1.
       -1   -1    0    0    0  501  0.00000000000E+00  0.00000000000E+00 -0.12294350108E+04  0.12294350108E+04  0.50400001928E-02 0.  1.
    10030    2    1    2    0    0  0.00000000000E+00  0.00000000000E+00  0.19632415822E+04  0.44221116038E+04  0.39624176365E+04 0.  0.
        4    1    3    3  502    0  0.43874130484E+02  0.23918139377E+02  0.31919727428E+04  0.31923641115E+04  0.12699999809E+01 0. -1.
       -4    1    3    3    0  502 -0.43874130484E+02 -0.23918139377E+02 -0.12287311606E+04  0.12297474922E+04  0.12699999809E+01 0.  1.
</event>
<event>
 5   0  0.1187925E-07  0.3921185E+04  0.7818609E-02  0.8020637E-01
        1   -1    0    0  501    0  0.00000000000E+00  0.00000000000E+00  0.12846207478E+04  0.12846207479E+04  0.50400001928E-02 0.  1.
       -1   -1    0    0    0  501  0.00000000000E+00  0.00000000000E+00 -0.29922635511E+04  0.29922635511E+04  0.50400001928E-02 0. -1.
    10030    2    1    2    0    0  0.00000000000E+00  0.00000000000E+00 -0.17076428032E+04  0.42768842989E+04  0.39211854538E+04 0.  0.
        3    1    3    3  502    0 -0.54031390299E+03  0.13749970156E+04 -0.22596844928E+04  0.26997647905E+04  0.10100000352E+00 0. -1.
       -3    1    3    3    0  502  0.54031390299E+03 -0.13749970156E+04  0.55204168953E+03  0.15771195085E+04  0.10100000352E+00 0.  1.
</event>
<event>
 5   0  0.3610483E-07  0.3900742E+04  0.7818609E-02  0.8024875E-01
        2   -1    0    0  501    0  0.00000000000E+00  0.00000000000E+00  0.25018206087E+04  0.25018206087E+04  0.25500000920E-02 0.  1.
       -2   -1    0    0    0  501  0.00000000000E+00  0.00000000000E+00 -0.15204713710E+04  0.15204713710E+04  0.25500000920E-02 0. -1.
    10030    2    1    2    0    0  0.00000000000E+00  0.00000000000E+00  0.98134923769E+03  0.40222919798E+04  0.39007417813E+04 0.  0.
        4    1    3    3  502    0  0.11657161084E+04  0.67493005560E+03  0.19451306144E+04  0.23660007070E+04  0.12699999809E+01 0.  1.
       -4    1    3    3    0  502 -0.11657161084E+04 -0.67493005560E+03 -0.96378137671E+03  0.16562912728E+04  0.12699999809E+01 0. -1.
</event>
<event>
 5   0  0.3832389E-07  0.3748157E+04  0.7818609E-02  0.8057373E-01
        2   -1    0    0  501    0  0.00000000000E+00  0.00000000000E+00  0.20870117095E+04  0.20870117095E+04  0.25500000920E-02 0.  1.
       -2   -1    0    0    0  501  0.00000000000E+00  0.00000000000E+00 -0.16828703935E+04  0.16828703935E+04  0.25500000920E-02 0. -1.
    10030    2    1    2    0    0  0.00000000000E+00  0.00000000000E+00  0.40414131607E+03  0.37698821030E+04  0.37481569961E+04 0.  0.
        5    1    3    3  502    0 -0.12032026855E+04 -0.24930026792E+02  0.16470011200E+04  0.20398414125E+04  0.46999998093E+01 0.  1.
       -5    1    3    3    0  502  0.12032026855E+04  0.24930026792E+02 -0.12428598039E+04  0.17300406905E+04  0.46999998093E+01 0. -1.
</event>
<event>
 5   0  0.3665303E-07  0.3906600E+04  0.7818609E-02  0.8023658E-01
       -2   -1    0    0    0  501  0.00000000000E+00  0.00000000000E+00  0.21671465386E+04  0.21671465386E+04  0.25500000920E-02 0. -1.
        2   -1    0    0  501    0  0.00000000000E+00  0.00000000000E+00 -0.17605552132E+04  0.17605552132E+04  0.25500000920E-02 0.  1.
    10030    2    1    2    0    0  0.00000000000E+00  0.00000000000E+00  0.40659132540E+03  0.39277017517E+04  0.39066001260E+04 0.  0.
        2    1    3    3  502    0 -0.35741146949E+03  0.68342805262E+01 -0.17273872083E+04  0.17639887282E+04  0.25500000920E-02 0.  1.
       -2    1    3    3    0  502  0.35741146949E+03 -0.68342805262E+01  0.21339785337E+04  0.21637130235E+04  0.25500000920E-02 0. -1.
</event>
<event>
 5   0  0.3810833E-07  0.3932148E+04  0.7818609E-02  0.8018376E-01
       -2   -1    0    0    0  501  0.00000000000E+00  0.00000000000E+00  0.20989578181E+04  0.20989578181E+04  0.25500000920E-02 0. -1.
        2   -1    0    0  501    0  0.00000000000E+00  0.00000000000E+00 -0.18416032827E+04  0.18416032827E+04  0.25500000920E-02 0.  1.
    10030    2    1    2    0    0  0.00000000000E+00  0.00000000000E+00  0.25735453539E+03  0.39405611009E+04  0.39321483228E+04 0.  0.
        3    1    3    3  502    0 -0.13098409399E+04 -0.14650345028E+04  0.69915514874E+02  0.19664428727E+04  0.10100000352E+00 0.  1.
       -3    1    3    3    0  502  0.13098409399E+04  0.14650345028E+04  0.18743902051E+03  0.19741182282E+04  0.10100000352E+00 0. -1.
</event>
<event>
 5   0  0.3665303E-07  0.3927617E+04  0.7818609E-02  0.8019310E-01
        2   -1    0    0  501    0  0.00000000000E+00  0.00000000000E+00  0.33528875356E+04  0.33528875356E+04  0.25500000920E-02 0. -1.
       -2   -1    0    0    0  501  0.00000000000E+00  0.00000000000E+00 -0.11502158491E+04  0.11502158491E+04  0.25500000920E-02 0.  1.
    10030    2    1    2    0    0  0.00000000000E+00  0.00000000000E+00  0.22026716865E+04  0.45031033847E+04  0.39276172847E+04 0.  0.
        2    1    3    3  502    0 -0.27762341623E+03  0.77362447970E+02  0.33285093430E+04  0.33409630582E+04  0.25500000920E-02 0. -1.
       -2    1    3    3    0  502  0.27762341623E+03 -0.77362447970E+02 -0.11258376565E+04  0.11621403265E+04  0.25500000920E-02 0.  1.
</event>
<event>
 5   0  0.3810833E-07  0.3886993E+04  0.7818609E-02  0.8027740E-01
       -2   -1    0    0    0  501  0.00000000000E+00  0.00000000000E+00  0.14439766808E+04  0.14439766808E+04  0.25500000920E-02 0. -1.
        2   -1    0    0  501    0  0.00000000000E+00  0.00000000000E+00 -0.26158169627E+04  0.26158169627E+04  0.25500000920E-02 0.  1.
    10030    2    1    2    0    0  0.00000000000E+00  0.00000000000E+00 -0.11718402819E+04  0.40597936434E+04  0.38869930256E+04 0.  0.
        3    1    3    3  502    0 -0.58169582059E+03  0.80476847697E+03 -0.23308673024E+04  0.25335675876E+04  0.10100000352E+00 0.  1.
       -3    1    3    3    0  502  0.58169582059E+03 -0.80476847697E+03  0.11590270205E+04  0.15262260559E+04  0.10100000352E+00 0. -1.
</event>
<event>
 5   0  0.3810833E-07  0.2906620E+04  0.7818609E-02  0.8270911E-01
       -2   -1    0    0    0  501  0.00000000000E+00  0.00000000000E+00  0.11290066290E+04  0.11290066290E+04  0.25500000920E-02 0.  1.
        2   -1    0    0  501    0  0.00000000000E+00  0.00000000000E+00 -0.18707683249E+04  0.18707683249E+04  0.25500000920E-02 0. -1.
    10030    2    1    2    0    0  0.00000000000E+00  0.00000000000E+00 -0.74176169592E+03  0.29997749539E+04  0.29066199202E+04 0.  0.
        3    1    3    3  502    0 -0.10626343723E+04 -0.92974320082E+03 -0.72614512807E+03  0.15877345452E+04  0.10100000352E+00 0.  1.
       -3    1    3    3    0  502  0.10626343723E+04  0.92974320082E+03 -0.15616567854E+02  0.14120404088E+04  0.10100000352E+00 0. -1.
</event>
<event>
 5   0  0.3610483E-07  0.3894856E+04  0.7818609E-02  0.8026100E-01
       -2   -1    0    0    0  501  0.00000000000E+00  0.00000000000E+00  0.14499168234E+04  0.14499168234E+04  0.25500000920E-02 0. -1.
        2   -1    0    0  501    0  0.00000000000E+00  0.00000000000E+00 -0.26156504337E+04  0.26156504337E+04  0.25500000920E-02 0.  1.
    10030    2    1    2    0    0  0.00000000000E+00  0.00000000000E+00 -0.11657336103E+04  0.40655672571E+04  0.38948558730E+04 0.  0.
        4    1    3    3  502    0  0.19173366215E+04  0.29155509252E+03 -0.39822434070E+03  0.19798404811E+04  0.12699999809E+01 0.  1.
       -4    1    3    3    0  502 -0.19173366215E+04 -0.29155509252E+03 -0.76750926957E+03  0.20857267760E+04  0.12699999809E+01 0. -1.
</event>
<event>
 5   0  0.1187925E-07  0.3912286E+04  0.7818609E-02  0.8022479E-01
       -1   -1    0    0    0  501  0.00000000000E+00  0.00000000000E+00  0.20209259138E+04  0.20209259138E+04  0.50400001928E-02 0.  1.
        1   -1    0    0  501    0  0.00000000000E+00  0.00000000000E+00 -0.18934365362E+04  0.18934365362E+04  0.50400001928E-02 0. -1.
    10030    2    1    2    0    0  0.00000000000E+00  0.00000000000E+00  0.12748937758E+03  0.39143624500E+04  0.39122857576E+04 0.  0.
        5    1    3    3  502    0  0.27597331251E+03 -0.15388035324E+04  0.12401218682E+04  0.19954954068E+04  0.46999998093E+01 0.  1.
       -5    1    3    3    0  502 -0.27597331251E+03  0.15388035324E+04 -0.11126324906E+04  0.19188670433E+04  0.46999998093E+01 0. -1.
</event>
<event>
 5   0  0.1187925E-07  0.3505282E+04  0.7818609E-02  0.8112539E-01
       -1   -1    0    0    0  501  0.00000000000E+00  0.00000000000E+00  0.18632701625E+04  0.18632701625E+04  0.50400001928E-02 0. -1.
        1   -1    0    0  501    0  0.00000000000E+00  0.00000000000E+00 -0.16485803380E+04  0.16485803380E+04  0.50400001928E-02 0.  1.
    10030    2    1    2    0    0  0.00000000000E+00  0.00000000000E+00  0.21468982446E+03  0.35118505005E+04  0.35052820454E+04 0.  0.
        2    1    3    3  502    0 -0.26573972902E+03 -0.84667107794E+03  0.16215608694E+04  0.18484937574E+04  0.25500000920E-02 0. -1.
       -2    1    3    3    0  502  0.26573972902E+03  0.84667107794E+03 -0.14068710450E+04  0.16633567432E+04  0.25500000920E-02 0.  1.
</event>
<event>
 5   0  0.1187925E-07  0.2816771E+04  0.7818609E-02  0.8298080E-01
        1   -1    0    0  501    0  0.00000000000E+00  0.00000000000E+00  0.24357118450E+04  0.24357118450E+04  0.50400001928E-02 0. -1.
       -1   -1    0    0    0  501  0.00000000000E+00  0.00000000000E+00 -0.81436149266E+03  0.81436149267E+03  0.50400001928E-02 0.  1.
    10030    2    1    2    0    0  0.00000000000E+00  0.00000000000E+00  0.16213503524E+04  0.32500733377E+04  0.28167711542E+04 0.  0.
        2    1    3    3  502    0  0.11428464911E+04 -0.54339291943E+03  0.97373437334E+02  0.12691948445E+04  0.25500000920E-02 0.  1.
       -2    1    3    3    0  502 -0.11428464911E+04  0.54339291943E+03  0.15239769150E+04  0.19808784932E+04  0.25500000920E-02 0. -1.
</event>
<event>
 5   0  0.1187925E-07  0.3929958E+04  0.7818609E-02  0.8018827E-01
        1   -1    0    0  501    0  0.00000000000E+00  0.00000000000E+00  0.23363831843E+04  0.23363831843E+04  0.50400001928E-02 0.  1.
       -1   -1    0    0    0  501  0.00000000000E+00  0.00000000000E+00 -0.16526153561E+04  0.16526153562E+04  0.50400001928E-02 0. -1.
    10030    2    1    2    0    0  0.00000000000E+00  0.00000000000E+00  0.68376782813E+03  0.39889985404E+04  0.39299581312E+04 0.  0.
        3    1    3    3  502    0 -0.16686953254E+04 -0.13729439683E+03 -0.70203613960E+03  0.18155573778E+04  0.10100000352E+00 0. -1.
       -3    1    3    3    0  502  0.16686953254E+04  0.13729439683E+03  0.13858039677E+04  0.21734411627E+04  0.10100000352E+00 0.  1.
</event>
<event>
 5   0  0.3680814E-07  0.3905357E+04  0.7818609E-02  0.8023916E-01
        2   -1    0    0  501    0  0.00000000000E+00  0.00000000000E+00  0.18731695187E+04  0.18731695187E+04  0.25500000920E-02 0. -1.
       -2   -1    0    0    0  501  0.00000000000E+00  0.00000000000E+00 -0.20355619760E+04  0.20355619760E+04  0.25500000920E-02 0.  1.
    10030    2    1    2    0    0  0.00000000000E+00  0.00000000000E+00 -0.16239245725E+03  0.39087314947E+04  0.39053566530E+04 0.  0.
        1    1    3    3  502    0 -0.67801570913E+03  0.15885358120E+04  0.83052527273E+03  0.19164872962E+04  0.50400001928E-02 0. -1.
       -1    1    3    3    0  502  0.67801570913E+03 -0.15885358120E+04 -0.99291772998E+03  0.19922441985E+04  0.50400001928E-02 0.  1.
</event>
<event>
 5   0  0.1187925E-07  0.3914892E+04  0.7818609E-02  0.8021939E-01
       -1   -1    0    0    0  501  0.00000000000E+00  0.00000000000E+00  0.17725425601E+04  0.17725425601E+04  0.50400001928E-02 0. -1.
        1   -1    0    0  501    0  0.00000000000E+00  0.00000000000E+00 -0.21616373782E+04  0.21616373782E+04  0.50400001928E-02 0.  1.
    10030    2    1    2    0    0  0.00000000000E+00  0.00000000000E+00 -0.38909481805E+03  0.39341799383E+04  0.39148916983E+04 0.  0.
        3    1    3    3  502    0 -0.33940109197E+03  0.80392126601E+03  0.15662587893E+04  0.17929442569E+04  0.10100000352E+00 0. -1.
       -3    1    3    3    0  502  0.33940109197E+03 -0.80392126601E+03 -0.19553536073E+04  0.21412356814E+04  0.10100000352E+00 0.  1.
</event>
<event>
 5   0  0.3810833E-07  0.3900963E+04  0.7818609E-02  0.8024829E-01
        2   -1    0    0  501    0  0.00000000000E+00  0.00000000000E+00  0.25714887068E+04  0.25714887068E+04  0.25500000920E-02 0. -1.
       -2   -1    0    0    0  501  0.00000000000E+00  0.00000000000E+00 -0.14794459681E+04  0.14794459681E+04  0.25500000920E-02 0.  1.
    10030    2    1    2    0    0  0.00000000000E+00  0.00000000000E+00  0.10920427387E+04  0.40509346749E+04  0.39009632653E+04 0.  0.
        3    1    3    3  502    0  0.14373326993E+04 -0.11444715855E+04  0.12258958812E+04  0.22087465270E+04  0.10100000352E+00 0. -1.
       -3    1    3    3    0  502 -0.14373326993E+04  0.11444715855E+04 -0.13385314248E+03  0.18421881480E+04  0.10100000352E+00 0.  1.
</event>
<event>
 5   0  0.1187925E-07  0.3902074E+04  0.7818609E-02  0.8024598E-01
        1   -1    0    0  501    0  0.00000000000E+00  0.00000000000E+00  0.17795246857E+04  0.17795246857E+04  0.50400001928E-02 0. -1.
       -1   -1    0    0    0  501  0.00000000000E+00  0.00000000000E+00 -0.21390794554E+04  0.21390794554E+04  0.50400001928E-02 0.  1.
    10030    2    1    2    0    0  0.00000000000E+00  0.00000000000E+00 -0.35955476976E+03  0.39186041411E+04  0.39020736515E+04 0.  0.
        1    1    3    3  502    0  0.92188513227E+02 -0.11462159725E+04 -0.17626000540E+04  0.21045352760E+04  0.50400001928E-02 0.  1.
       -1    1    3    3    0  502 -0.92188513227E+02  0.11462159725E+04  0.14030452842E+04  0.18140688651E+04  0.50400001928E-02 0. -1.
</event>
<event>
 5   0  0.3610483E-07  0.3925812E+04  0.7818609E-02  0.8019682E-01
       -2   -1    0    0    0  501  0.00000000000E+00  0.00000000000E+00  0.17667967731E+04  0.17667967731E+04  0.25500000920E-02 0.  1.
        2   -1    0    0  501    0  0.00000000000E+00  0.00000000000E+00 -0.21807829314E+04  0.21807829315E+04  0.25500000920E-02 0. -1.
    10030    2    1    2    0    0  0.00000000000E+00  0.00000000000E+00 -0.41398615832E+03  0.39475797046E+04  0.39258121433E+04 0.  0.
        4    1    3    3  502    0 -0.10128481083E+04 -0.11773134039E+04 -0.14140951811E+04  0.21003797122E+04  0.12699999809E+01 0. -1.
       -4    1    3    3    0  502  0.10128481083E+04  0.11773134039E+04  0.10001090228E+04  0.18471999924E+04  0.12699999809E+01 0.  1.
</event>
<event>
 5   0  0.3610483E-07  0.3773388E+04  0.7818609E-02  0.8051890E-01
        2   -1    0    0  501    0  0.00000000000E+00  0.00000000000E+00  0.13921223732E+04  0.13921223732E+04  0.25500000920E-02 0.  1.
       -2   -1    0    0    0  501  0.00000000000E+00  0.00000000000E+00 -0.25569697860E+04  0.25569697860E+04  0.25500000920E-02 0. -1.
    10030    2    1    2    0    0  0.00000000000E+00  0.00000000000E+00 -0.11648474127E+04  0.39490921592E+04  0.37733883165E+04 0.  0.
        4    1    3    3  502    0  0.13961307018E+04 -0.93138166107E+03  0.31966372223E+03  0.17084610745E+04  0.12699999809E+01 0. -1.
       -4    1    3    3    0  502 -0.13961307018E+04  0.93138166107E+03 -0.14845111349E+04  0.22406310847E+04  0.12699999809E+01 0.  1.
</event>
<event>
 5   0  0.1187925E-07  0.3609411E+04  0.7818609E-02  0.8088339E-01
        1   -1    0    0  501    0  0.00000000000E+00  0.00000000000E+00  0.18577382019E+04  0.18577382019E+04  0.50400001928E-02 0.  1.
       -1   -1    0    0    0  501  0.00000000000E+00  0.00000000000E+00 -0.17531871038E+04  0.17531871038E+04  0.50400001928E-02 0. -1.
    10030    2    1    2    0    0  0.00000000000E+00  0.00000000000E+00  0.10455109808E+03  0.36109253057E+04  0.36094113968E+04 0.  0.
        5    1    3    3  502    0 -0.15222580059E+04 -0.80601716857E+03  0.59102482663E+03  0.18210616541E+04  0.46999998093E+01 0.  1.
       -5    1    3    3    0  502  0.15222580059E+04  0.80601716857E+03 -0.48647372855E+03  0.17898636515E+04  0.46999998093E+01 0. -1.
</event>
<event>
 5   0  0.1187925E-07  0.3939822E+04  0.7818609E-02  0.8016798E-01
       -1   -1    0    0    0  501  0.00000000000E+00  0.00000000000E+00  0.24645219509E+04  0.24645219509E+04  0.50400001928E-02 0. -1.
        1   -1    0    0  501    0  0.00000000000E+00  0.00000000000E+00 -0.15745647133E+04  0.15745647133E+04  0.50400001928E-02 0.  1.
    10030    2    1    2    0    0  0.00000000000E+00  0.00000000000E+00  0.88995723766E+03  0.40390866642E+04  0.39398219752E+04 0.  0.
        3    1    3    3  502    0 -0.30455211892E+03  0.40552126724E+02 -0.15498502432E+04  0.15800102071E+04  0.10100000352E+00 0.  1.
       -3    1    3    3    0  502  0.30455211892E+03 -0.40552126724E+02  0.24398074808E+04  0.24590764571E+04  0.10100000352E+00 0. -1.
</event>
<event>
 5   0  0.1187925E-07  0.3847256E+04  0.7818609E-02  0.8036089E-01
       -1   -1    0    0    0  501  0.00000000000E+00  0.00000000000E+00  0.16782293201E+04  0.16782293201E+04  0.50400001928E-02 0.  1.
        1   -1    0    0  501    0  0.00000000000E+00  0.00000000000E+00 -0.22049098358E+04  0.22049098358E+04  0.50400001928E-02 0. -1.
    10030    2    1    2    0    0  0.00000000000E+00  0.00000000000E+00 -0.52668051577E+03  0.38831391559E+04  0.38472558192E+04 0.  0.
        2    1    3    3  502    0 -0.84097076014E+01  0.18881346492E+04  0.10781380079E+03  0.18912289635E+04  0.25500000920E-02 0.  1.
       -2    1    3    3    0  502  0.84097076014E+01 -0.18881346492E+04 -0.63449431656E+03  0.19919101924E+04  0.25500000920E-02 0. -1.
</event>
<event>
 5   0  0.3610483E-07  0.3887147E+04  0.7818609E-02  0.8027708E-01
        2   -1    0    0  501    0  0.00000000000E+00  0.00000000000E+00  0.17465614425E+04  0.17465614425E+04  0.25500000920E-02 0. -1.
       -2   -1    0    0    0  501  0.00000000000E+00  0.00000000000E+00 -0.21628088168E+04  0.21628088168E+04  0.25500000920E-02 0.  1.
    10030    2    1    2    0    0  0.00000000000E+00  0.00000000000E+00 -0.41624737423E+03  0.39093702593E+04  0.38871472763E+04 0.  0.
        4    1    3    3  502    0 -0.84379823319E+03 -0.26151725968E+03  0.15329843152E+04  0.17693019129E+04  0.12699999809E+01 0. -1.
       -4    1    3    3    0  502  0.84379823319E+03  0.26151725968E+03 -0.19492316894E+04  0.21400683464E+04  0.12699999809E+01 0.  1.
</event>
<event>
 5   0  0.1187925E-07  0.3913796E+04  0.7818609E-02  0.8022166E-01
       -1   -1    0    0    0  501  0.00000000000E+00  0.00000000000E+00  0.17247491985E+04  0.17247491986E+04  0.50400001928E-02 0. -1.
        1   -1    0    0  501    0  0.00000000000E+00  0.00000000000E+00 -0.22202942034E+04  0.22202942034E+04  0.50400001928E-02 0.  1.
    10030    2    1    2    0    0  0.00000000000E+00  0.00000000000E+00 -0.49554500484E+03  0.39450434019E+04  0.39137964423E+04 0.  0.
        3    1    3    3  502    0 -0.10266595102E+04 -0.11871434116E+03 -0.19227637170E+04  0.21829207879E+04  0.10100000352E+00 0.  1.
       -3    1    3    3    0  502  0.10266595102E+04  0.11871434116E+03  0.14272187121E+04  0.17621226141E+04  0.10100000352E+00 0. -1.
</event>
<event>
 5   0  0.3665303E-07  0.3702182E+04  0.7818609E-02  0.8067478E-01
       -2   -1    0    0    0  501  0.00000000000E+00  0.00000000000E+00  0.17248737261E+04  0.17248737261E+04  0.25500000920E-02 0. -1.
        2   -1    0    0  501    0  0.00000000000E+00  0.00000000000E+00 -0.19865447195E+04  0.19865447195E+04  0.25500000920E-02 0.  1.
    10030    2    1    2    0    0  0.00000000000E+00  0.00000000000E+00 -0.26167099339E+03  0.37114184455E+04  0.37021824873E+04 0.  0.
        2    1    3    3  502    0 -0.49010955328E+03  0.17645263020E+04  0.13961214314E+03  0.18366414988E+04  0.25500000920E-02 0. -1.
       -2    1    3    3    0  502  0.49010955328E+03 -0.17645263020E+04 -0.40128313653E+03  0.18747769468E+04  0.25500000920E-02 0.  1.
</event>
<event>
 5   0  0.3610483E-07  0.3928897E+04  0.7818609E-02  0.8019046E-01
       -2   -1    0    0    0  501  0.00000000000E+00  0.00000000000E+00  0.14525388407E+04  0.14525388407E+04  0.25500000920E-02 0. -1.
        2   -1    0    0  501    0  0.00000000000E+00  0.00000000000E+00 -0.26567670635E+04  0.26567670635E+04  0.25500000920E-02 0.  1.
    10030    2    1    2    0    0  0.00000000000E+00  0.00000000000E+00 -0.12042282228E+04  0.41093059042E+04  0.39288967155E+04 0.  0.
        4    1    3    3  502    0  0.74368551791E+03 -0.64230471769E+03  0.11770029235E+04  0.15332843815E+04  0.12699999809E+01 0. -1.
       -4    1    3    3    0  502 -0.74368551791E+03  0.64230471769E+03 -0.23812311463E+04  0.25760215226E+04  0.12699999809E+01 0.  1.
</event>
<event>
 5   0  0.1187925E-07  0.3946687E+04  0.7818609E-02  0.8015389E-01
        1   -1    0    0  501    0  0.00000000000E+00  0.00000000000E+00  0.15293944686E+04  0.15293944686E+04  0.50400001928E-02 0. -1.
       -1   -1    0    0    0  501  0.00000000000E+00  0.00000000000E+00 -0.25461606823E+04  0.25461606823E+04  0.50400001928E-02 0.  1.
    10030    2    1    2    0    0  0.00000000000E+00  0.00000000000E+00 -0.10167662137E+04  0.40755551509E+04  0.39466867439E+04 0.  0.
        5    1    3    3  502    0 -0.16371076476E+04 -0.26895632211E+03 -0.16117289727E+04  0.23130394126E+04  0.46999998093E+01 0.  1.
       -5    1    3    3    0  502  0.16371076476E+04  0.26895632211E+03  0.59496275892E+03  0.17625157383E+04  0.46999998093E+01 0. -1.
</event>
<event>
 5   0  0.1187925E-07  0.3944931E+04  0.7818609E-02  0.8015749E-01
       -1   -1    0    0    0  501  0.00000000000E+00  0.00000000000E+00  0.19766120192E+04  0.19766120192E+04  0.50400001928E-02 0. -1.
        1   -1    0    0  501    0  0.00000000000E+00  0.00000000000E+00 -0.19683279015E+04  0.19683279015E+04  0.50400001928E-02 0.  1.
    10030    2    1    2    0    0  0.00000000000E+00  0.00000000000E+00  0.82841177755E+01  0.39449399207E+04  0.39449312226E+04 0.  0.
        2    1    3    3  502    0 -0.21104917848E+02  0.10949101678E+04  0.16446781794E+04  0.19759149797E+04  0.25500000920E-02 0. -1.
       -2    1    3    3    0  502  0.21104917848E+02 -0.10949101678E+04 -0.16363940617E+04  0.19690249410E+04  0.25500000920E-02 0.  1.
</event>
<event>
 5   0  0.3665303E-07  0.3870934E+04  0.7818609E-02  0.8031102E-01
       -2   -1    0    0    0  501  0.00000000000E+00  0.00000000000E+00  0.23708533136E+04  0.23708533136E+04  0.25500000920E-02 0. -1.
        2   -1    0    0  501    0  0.00000000000E+00  0.00000000000E+00 -0.15800358013E+04  0.15800358013E+04  0.25500000920E-02 0.  1.
    10030    2    1    2    0    0  0.00000000000E+00  0.00000000000E+00  0.79081751230E+03  0.39508891148E+04  0.38709343136E+04 0.  0.
        2    1    3    3  502    0 -0.36500736010E+03  0.16453420391E+04 -0.57590556111E+03  0.17810244282E+04  0.25500000920E-02 0.  1.
       -2    1    3    3    0  502  0.36500736010E+03 -0.16453420391E+04  0.13667230734E+04  0.21698646866E+04  0.25500000920E-02 0. -1.
</event>
<event>
 5   0  0.3810833E-07  0.3827483E+04  0.7818609E-02  0.8040283E-01
       -2   -1    0    0    0  501  0.00000000000E+00  0.00000000000E+00  0.15660774985E+04  0.15660774985E+04  0.25500000920E-02 0.  1.
        2   -1    0    0  501    0  0.00000000000E+00  0.00000000000E+00 -0.23385858101E+04  0.23385858101E+04  0.25500000920E-02 0. -1.
    10030    2    1    2    0    0  0.00000000000E+00  0.00000000000E+00 -0.77250831166E+03  0.39046633086E+04  0.38274830453E+04 0.  0.
        3    1    3    3  502    0  0.79119565258E+03 -0.12295755775E+04 -0.16458829171E+04  0.22015397449E+04  0.10100000352E+00 0.  1.
       -3    1    3    3    0  502 -0.79119565258E+03  0.12295755775E+04  0.87337460545E+03  0.17031235637E+04  0.10100000352E+00 0. -1.
</event>
<event>
 5   0  0.3832389E-07  0.3914775E+04  0.7818609E-02  0.8021963E-01
        2   -1    0    0  501    0  0.00000000000E+00  0.00000000000E+00  0.17312817421E+04  0.17312817421E+04  0.25500000920E-02 0.  1.
       -2   -1    0    0    0  501  0.00000000000E+00  0.00000000000E+00 -0.22130231207E+04  0.22130231207E+04  0.25500000920E-02 0. -1.
    10030    2    1    2    0    0  0.00000000000E+00  0.00000000000E+00 -0.48174137855E+03  0.39443048629E+04  0.39147753569E+04 0.  0.
        5    1    3    3  502    0 -0.68768817704E+02 -0.25132028856E+03 -0.21954662155E+04  0.22108787916E+04  0.46999998093E+01 0. -1.
       -5    1    3    3    0  502  0.68768817704E+02  0.25132028856E+03  0.17137248369E+04  0.17334260713E+04  0.46999998093E+01 0.  1.
</event>
<event>
 5   0  0.1187925E-07  0.3848534E+04  0.7818609E-02  0.8035819E-01
        1   -1    0    0  501    0  0.00000000000E+00  0.00000000000E+00  0.18912936664E+04  0.18912936665E+04  0.50400001928E-02 0.  1.
       -1   -1    0    0    0  501  0.00000000000E+00  0.00000000000E+00 -0.19578151767E+04  0.19578151767E+04  0.50400001928E-02 0. -1.
    10030    2    1    2    0    0  0.00000000000E+00  0.00000000000E+00 -0.66521510270E+02  0.38491088432E+04  0.38485339774E+04 0.  0.
        2    1    3    3  502    0  0.18178859563E+04 -0.35450665397E+03 -0.55527657479E+03  0.19335760632E+04  0.25500000920E-02 0.  1.
       -2    1    3    3    0  502 -0.18178859563E+04  0.35450665397E+03  0.48875506452E+03  0.19155327799E+04  0.25500000920E-02 0. -1.
</event>
<event>
 5   0  0.3665303E-07  0.3911900E+04  0.7818609E-02  0.8022559E-01
       -2   -1    0    0    0  501  0.00000000000E+00  0.00000000000E+00  0.14780783065E+04  0.14780783065E+04  0.25500000920E-02 0.  1.
        2   -1    0    0  501    0  0.00000000000E+00  0.00000000000E+00 -0.25883204270E+04  0.25883204270E+04  0.25500000920E-02 0. -1.
    10030    2    1    2    0    0  0.00000000000E+00  0.00000000000E+00 -0.11102421205E+04  0.40663987335E+04  0.39118999340E+04 0.  0.
        2    1    3    3  502    0  0.62911937244E+03 -0.10109992107E+04 -0.21681238055E+04  0.24735948384E+04  0.25500000920E-02 0. -1.
       -2    1    3    3    0  502 -0.62911937244E+03  0.10109992107E+04  0.10578816850E+04  0.15928038951E+04  0.25500000920E-02 0.  1.
</event>
<event>
 5   0  0.1187925E-07  0.3895317E+04  0.7818609E-02  0.8026004E-01
       -1   -1    0    0    0  501  0.00000000000E+00  0.00000000000E+00  0.18368653916E+04  0.18368653916E+04  0.50400001928E-02 0. -1.
        1   -1    0    0  501    0  0.00000000000E+00  0.00000000000E+00 -0.20651343030E+04  0.20651343030E+04  0.50400001928E-02 0.  1.
    10030    2    1    2    0    0  0.00000000000E+00  0.00000000000E+00 -0.22826891134E+03  0.39019996946E+04  0.38953170501E+04 0.  0.
        2    1    3    3  502    0  0.11735824528E+04 -0.88302804824E+03 -0.13955238230E+04  0.20259617588E+04  0.25500000920E-02 0.  1.
       -2    1    3    3    0  502 -0.11735824528E+04  0.88302804824E+03  0.11672549117E+04  0.18760379358E+04  0.25500000920E-02 0. -1.
</event>
<event>
 5   0  0.3810833E-07  0.3845386E+04  0.7818609E-02  0.8036485E-01
       -2   -1    0    0    0  501  0.00000000000E+00  0.00000000000E+00  0.21084447878E+04  0.21084447878E+04  0.25500000920E-02 0.  1.
        2   -1    0    0  501    0  0.00000000000E+00  0.00000000000E+00 -0.17533057925E+04  0.17533057925E+04  0.25500000920E-02 0. -1.
    10030    2    1    2    0    0  0.00000000000E+00  0.00000000000E+00  0.35513899529E+03  0.38617505804E+04  0.38453860455E+04 0.  0.
        3    1    3    3  502    0  0.12885070406E+04  0.12958260379E+04 -0.42274771800E+03  0.18756681896E+04  0.10100000352E+00 0. -1.
       -3    1    3    3    0  502 -0.12885070406E+04 -0.12958260379E+04  0.77788671329E+03  0.19860823908E+04  0.10100000352E+00 0.  1.
</event>
<event>
 5   0  0.1187925E-07  0.3860615E+04  0.7818609E-02  0.8033271E-01
       -1   -1    0    0    0  501  0.00000000000E+00  0.00000000000E+00  0.32255818319E+04  0.32255818319E+04  0.50400001928E-02 0.  1.
        1   -1    0    0  501    0  0.00000000000E+00  0.00000000000E+00 -0.11551672187E+04  0.11551672187E+04  0.50400001928E-02 0. -1.
    10030    2    1    2    0    0  0.00000000000E+00  0.00000000000E+00  0.20704146131E+04  0.43807490506E+04  0.38606146627E+04 0.  0.
        1    1    3    3  502    0 -0.16908412855E+03 -0.28301873339E+03  0.31933990544E+04  0.32103717178E+04  0.50400001928E-02 0.  1.
       -1    1    3    3    0  502  0.16908412855E+03  0.28301873339E+03 -0.11229844412E+04  0.11703773328E+04  0.50400001928E-02 0. -1.
</event>
<event>
 5   0  0.1187925E-07  0.3893512E+04  0.7818609E-02  0.8026380E-01
        1   -1    0    0  501    0  0.00000000000E+00  0.00000000000E+00  0.13412865734E+04  0.13412865734E+04  0.50400001928E-02 0. -1.
       -1   -1    0    0    0  501  0.00000000000E+00  0.00000000000E+00 -0.28255403707E+04  0.28255403707E+04  0.50400001928E-02 0.  1.
    10030    2    1    2    0    0  0.00000000000E+00  0.00000000000E+00 -0.14842537973E+04  0.41668269441E+04  0.38935122252E+04 0.  0.
        2    1    3    3  502    0 -0.12913052305E+04  0.14271662033E+04 -0.10552155275E+04  0.21949378988E+04  0.25500000920E-02 0.  1.
       -2    1    3    3    0  502  0.12913052305E+04 -0.14271662033E+04 -0.42903826980E+03  0.19718890453E+04  0.25500000920E-02 0. -1.
</event>
<event>
 5   0  0.1187925E-07  0.3814986E+04  0.7818609E-02  0.8042947E-01
        1   -1    0    0  501    0  0.00000000000E+00  0.00000000000E+00  0.17109310393E+04  0.17109310393E+04  0.50400001928E-02 0. -1.
       -1   -1    0    0    0  501  0.00000000000E+00  0.00000000000E+00 -0.21266368218E+04  0.21266368218E+04  0.50400001928E-02 0.  1.
    10030    2    1    2    0    0  0.00000000000E+00  0.00000000000E+00 -0.41570578244E+03  0.38375678611E+04  0.38149856869E+04 0.  0.
        1    1    3    3  502    0 -0.12982338096E+04 -0.10633678505E+04 -0.11200651906E+04  0.20175996236E+04  0.50400001928E-02 0.  1.
       -1    1    3    3    0  502  0.12982338096E+04  0.10633678505E+04  0.70435940813E+03  0.18199682375E+04  0.50400001928E-02 0. -1.
</event>
<event>
 5   0  0.3832389E-07  0.3871281E+04  0.7818609E-02  0.8031029E-01
       -2   -1    0    0    0  501  0.00000000000E+00  0.00000000000E+00  0.24548340338E+04  0.24548340338E+04  0.25500000920E-02 0.  1.
        2   -1    0    0  501    0  0.00000000000E+00  0.00000000000E+00 -0.15262559386E+04  0.15262559386E+04  0.25500000920E-02 0. -1.
    10030    2    1    2    0    0  0.00000000000E+00  0.00000000000E+00  0.92857809519E+03  0.39810899724E+04  0.38712814532E+04 0.  0.
        5    1    3    3  502    0  0.18654581902E+04 -0.13267625949E+03  0.97759219725E+03  0.21102715094E+04  0.46999998093E+01 0. -1.
       -5    1    3    3    0  502 -0.18654581902E+04  0.13267625949E+03 -0.49014102063E+02  0.18708184630E+04  0.46999998093E+01 0.  1.
</event>
<event>
 5   0  0.1187925E-07  0.3894105E+04  0.7818609E-02  0.8026256E-01
        1   -1    0    0  501    0  0.00000000000E+00  0.00000000000E+00  0.12343753521E+04  0.12343753522E+04  0.50400001928E-02 0. -1.
       -1   -1    0    0    0  501  0.00000000000E+00  0.00000000000E+00 -0.30712004620E+04  0.30712004620E+04  0.50400001928E-02 0.  1.
    10030    2    1    2    0    0  0.00000000000E+00  0.00000000000E+00 -0.18368251098E+04  0.43055758141E+04  0.38941053667E+04 0.  0.
        5    1    3    3  502    0  0.87187237224E+03 -0.16946506603E+04 -0.47754500865E+03  0.19647070059E+04  0.46999998093E+01 0. -1.
       -5    1    3    3    0  502 -0.87187237224E+03  0.16946506603E+04 -0.13592801012E+04  0.23408688082E+04  0.46999998093E+01 0.  1.
</event>
<event>
 5   0  0.1187925E-07  0.3909891E+04  0.7818609E-02  0.8022975E-01
        1   -1    0    0  501    0  0.00000000000E+00  0.00000000000E+00  0.16129206505E+04  0.16129206506E+04  0.50400001928E-02 0.  1.
       -1   -1    0    0    0  501  0.00000000000E+00  0.00000000000E+00 -0.23694983143E+04  0.23694983143E+04  0.50400001928E-02 0. -1.
    10030    2    1    2    0    0  0.00000000000E+00  0.00000000000E+00 -0.75657766371E+03  0.39824189648E+04  0.39098914371E+04 0.  0.
        3    1    3    3  502    0  0.17906965043E+04 -0.46218118998E+03 -0.10237692383E+04  0.21138374786E+04  0.10100000352E+00 0. -1.
       -3    1    3    3    0  502 -0.17906965043E+04  0.46218118998E+03  0.26719157456E+03  0.18685814862E+04  0.10100000352E+00 0.  1.
</event>
<event>
 5   0  0.3680814E-07  0.2882649E+04  0.7818609E-02  0.8278059E-01
       -2   -1    0    0    0  501  0.00000000000E+00  0.00000000000E+00  0.14694913198E+04  0.14694913198E+04  0.25500000920E-02 0.  1.
        2   -1    0    0  501    0  0.00000000000E+00  0.00000000000E+00 -0.14136978935E+04  0.14136978935E+04  0.25500000920E-02 0. -1.
    10030    2    1    2    0    0  0.00000000000E+00  0.00000000000E+00  0.55793426297E+02  0.28831892133E+04  0.28826493254E+04 0.  0.
        1    1    3    3  502    0 -0.88305124267E+03 -0.28103481904E+03  0.11320313249E+04  0.14629610341E+04  0.50400001928E-02 0.  1.
       -1    1    3    3    0  502  0.88305124267E+03  0.28103481904E+03 -0.10762378986E+04  0.14202281792E+04  0.50400001928E-02 0. -1.
</event>
<event>
 5   0  0.1187925E-07  0.3855609E+04  0.7818609E-02  0.8034326E-01
       -1   -1    0    0    0  501  0.00000000000E+00  0.00000000000E+00  0.14015336921E+04  0.14015336921E+04  0.50400001928E-02 0.  1.
        1   -1    0    0  501    0  0.00000000000E+00  0.00000000000E+00 -0.26516882711E+04  0.26516882711E+04  0.50400001928E-02 0. -1.
    10030    2    1    2    0    0  0.00000000000E+00  0.00000000000E+00 -0.12501545790E+04  0.40532219633E+04  0.38556091364E+04 0.  0.
        3    1    3    3  502    0  0.14015423757E+03 -0.60397724988E+03  0.12938556560E+04  0.14347453423E+04  0.10100000352E+00 0.  1.
       -3    1    3    3    0  502 -0.14015423757E+03  0.60397724988E+03 -0.25440102350E+04  0.26184766210E+04  0.10100000352E+00 0. -1.
</event>
<event>
 5   0  0.3810833E-07  0.3652392E+04  0.7818609E-02  0.8078595E-01
        2   -1    0    0  501    0  0.00000000000E+00  0.00000000000E+00  0.27272521942E+04  0.27272521942E+04  0.25500000920E-02 0.  1.
       -2   -1    0    0    0  501  0.00000000000E+00  0.00000000000E+00 -0.12228396590E+04  0.12228396590E+04  0.25500000920E-02 0. -1.
    10030    2    1    2    0    0  0.00000000000E+00  0.00000000000E+00  0.15044125352E+04  0.39500918532E+04  0.36523921713E+04 0.  0.
        3    1    3    3  502    0 -0.43937595111E+03  0.15986493302E+04 -0.75879608164E+02  0.16596652170E+04  0.10100000352E+00 0.  1.
       -3    1    3    3    0  502  0.43937595111E+03 -0.15986493302E+04  0.15802921433E+04  0.22904266362E+04  0.10100000352E+00 0. -1.
</event>
<event>
 5   0  0.1187925E-07  0.3869162E+04  0.7818609E-02  0.8031474E-01
       -1   -1    0    0    0  501  0.00000000000E+00  0.00000000000E+00  0.14325890644E+04  0.14325890644E+04  0.50400001928E-02 0. -1.
        1   -1    0    0  501    0  0.00000000000E+00  0.00000000000E+00 -0.26124759006E+04  0.26124759006E+04  0.50400001928E-02 0.  1.
    10030    2    1    2    0    0  0.00000000000E+00  0.00000000000E+00 -0.11798868362E+04  0.40450649651E+04  0.38691623932E+04 0.  0.
        1    1    3    3  502    0 -0.23900275162E+02 -0.11198005550E+04  0.10591327080E+04  0.15415208721E+04  0.50400001928E-02 0. -1.
       -1    1    3    3    0  502  0.23900275162E+02  0.11198005550E+04 -0.22390195442E+04  0.25035440929E+04  0.50400001928E-02 0.  1.
</event>
<event>
 5   0  0.1187925E-07  0.3114991E+04  0.7818609E-02  0.8211636E-01
       -1   -1    0    0    0  501  0.00000000000E+00  0.00000000000E+00  0.28626506153E+04  0.28626506153E+04  0.50400001928E-02 0.  1.
        1   -1    0    0  501    0  0.00000000000E+00  0.00000000000E+00 -0.84739397192E+03  0.84739397193E+03  0.50400001928E-02 0. -1.
    10030    2    1    2    0    0  0.00000000000E+00  0.00000000000E+00  0.20152566434E+04  0.37100445872E+04  0.31149914126E+04 0.  0.
        1    1    3    3  502    0 -0.13766283748E+01  0.15407177955E+03  0.28535512151E+04  0.28577079182E+04  0.50400001928E-02 0.  1.
       -1    1    3    3    0  502  0.13766283748E+01 -0.15407177955E+03 -0.83829457174E+03  0.85233666904E+03  0.50400001928E-02 0. -1.
</event>
<event>
 5   0  0.3680814E-07  0.3926163E+04  0.7818609E-02  0.8019610E-01
        2   -1    0    0  501    0  0.00000000000E+00  0.00000000000E+00  0.19925330910E+04  0.19925330910E+04  0.25500000920E-02 0.  1.
       -2   -1    0    0    0  501  0.00000000000E+00  0.00000000000E+00 -0.19340651279E+04  0.19340651279E+04  0.25500000920E-02 0. -1.
    10030    2    1    2    0    0  0.00000000000E+00  0.00000000000E+00  0.58467963148E+02  0.39265982189E+04  0.39261628940E+04 0.  0.
        1    1    3    3  502    0  0.16966714421E+04 -0.33908226671E+02  0.10161792612E+04  0.19779949548E+04  0.50400001928E-02 0.  1.
       -1    1    3    3    0  502 -0.16966714421E+04  0.33908226671E+02 -0.95771129807E+03  0.19486032641E+04  0.50400001928E-02 0. -1.
</event>
<event>
 5   0  0.1187925E-07  0.3937675E+04  0.7818609E-02  0.8017239E-01
        1   -1    0    0  501    0  0.00000000000E+00  0.00000000000E+00  0.14734521250E+04  0.14734521250E+04  0.50400001928E-02 0.  1.
       -1   -1    0    0    0  501  0.00000000000E+00  0.00000000000E+00 -0.26307750190E+04  0.26307750190E+04  0.50400001928E-02 0. -1.
    10030    2    1    2    0    0  0.00000000000E+00  0.00000000000E+00 -0.11573228940E+04  0.41042271440E+04  0.39376749699E+04 0.  0.
        3    1    3    3  502    0  0.72179420990E+03 -0.99419678375E+03  0.10248870965E+04  0.15999399042E+04  0.10100000352E+00 0.  1.
       -3    1    3    3    0  502 -0.72179420990E+03  0.99419678375E+03 -0.21822099905E+04  0.25042872398E+04  0.10100000352E+00 0. -1.
</event>
<event>
 5   0  0.1187925E-07  0.3893888E+04  0.7818609E-02  0.8026301E-01
       -1   -1    0    0    0  501  0.00000000000E+00  0.00000000000E+00  0.29800090717E+04  0.29800090717E+04  0.50400001928E-02 0.  1.
        1   -1    0    0  501    0  0.00000000000E+00  0.00000000000E+00 -0.12720068004E+04  0.12720068004E+04  0.50400001928E-02 0. -1.
    10030    2    1    2    0    0  0.00000000000E+00  0.00000000000E+00  0.17080022714E+04  0.42520158721E+04  0.38938884445E+04 0.  0.
        1    1    3    3  502    0  0.73342348886E+03 -0.59624882946E+03 -0.10046517733E+04  0.13794012710E+04  0.50400001928E-02 0. -1.
       -1    1    3    3    0  502 -0.73342348886E+03  0.59624882946E+03  0.27126540447E+04  0.28726146012E+04  0.50400001928E-02 0.  1.
</event>
<event>
 5   0  0.3810833E-07  0.3922717E+04  0.7818609E-02  0.8020321E-01
        2   -1    0    0  501    0  0.00000000000E+00  0.00000000000E+00  0.20790465974E+04  0.20790465974E+04  0.25500000920E-02 0.  1.
       -2   -1    0    0    0  501  0.00000000000E+00  0.00000000000E+00 -0.18503321677E+04  0.18503321677E+04  0.25500000920E-02 0. -1.
    10030    2    1    2    0    0  0.00000000000E+00  0.00000000000E+00  0.22871442968E+03  0.39293787651E+04  0.39227168123E+04 0.  0.
        3    1    3    3  502    0 -0.18663418023E+04  0.30947460240E+03 -0.40413225144E+03  0.19345100515E+04  0.10100000352E+00 0.  1.
       -3    1    3    3    0  502  0.18663418023E+04 -0.30947460240E+03  0.63284668112E+03  0.19948687136E+04  0.10100000352E+00 0. -1.
</event>
<event>
 5   0  0.3832389E-07  0.3898047E+04  0.7818609E-02  0.8025436E-01
       -2   -1    0    0    0  501  0.00000000000E+00  0.00000000000E+00  0.23510398061E+04  0.23510398061E+04  0.25500000920E-02 0. -1.
        2   -1    0    0  501    0  0.00000000000E+00  0.00000000000E+00 -0.16157498845E+04  0.16157498845E+04  0.25500000920E-02 0.  1.
    10030    2    1    2    0    0  0.00000000000E+00  0.00000000000E+00  0.73528992159E+03  0.39667896906E+04  0.38980468418E+04 0.  0.
        5    1    3    3  502    0  0.16396885558E+04 -0.10495663069E+04  0.27381142013E+03  0.19660017234E+04  0.46999998093E+01 0.  1.
       -5    1    3    3    0  502 -0.16396885558E+04  0.10495663069E+04  0.46147850145E+03  0.20007879672E+04  0.46999998093E+01 0. -1.
</event>
<event>
 5   0  0.3665303E-07  0.3907858E+04  0.7818609E-02  0.8023397E-01
       -2   -1    0    0    0  501  0.00000000000E+00  0.00000000000E+00  0.16265665459E+04  0.16265665459E+04  0.25500000920E-02 0. -1.
        2   -1    0    0  501    0  0.00000000000E+00  0.00000000000E+00 -0.23471762856E+04  0.23471762856E+04  0.25500000920E-02 0.  1.
    10030    2    1    2    0    0  0.00000000000E+00  0.00000000000E+00 -0.72060973969E+03  0.39737428316E+04  0.39078579420E+04 0.  0.
        2    1    3    3  502    0 -0.72782339000E+03 -0.38211347580E+03 -0.21627873335E+04  0.23137386727E+04  0.25500000920E-02 0.  1.
       -2    1    3    3    0  502  0.72782339000E+03  0.38211347580E+03  0.14421775938E+04  0.16600041589E+04  0.25500000920E-02 0. -1.
</event>
<event>
 5   0  0.3665303E-07  0.3418322E+04  0.7818609E-02  0.8133424E-01
        2   -1    0    0  501    0  0.00000000000E+00  0.00000000000E+00  0.23393872011E+04  0.23393872011E+04  0.25500000920E-02 0. -1.
       -2   -1    0    0    0  501  0.00000000000E+00  0.00000000000E+00 -0.12487165495E+04  0.12487165495E+04  0.25500000920E-02 0.  1.
    10030    2    1    2    0    0  0.00000000000E+00  0.00000000000E+00  0.10906706516E+04  0.35881037506E+04  0.34183221111E+04 0.  0.
        2    1    3    3  502    0  0.15426058598E+04 -0.40543550794E+03 -0.99352961703E+02  0.15980869190E+04  0.25500000920E-02 0.  1.
       -2    1    3    3    0  502 -0.15426058598E+04  0.40543550794E+03  0.11900236133E+04  0.19900168316E+04  0.25500000920E-02 0. -1.
</event>
<event>
 5   0  0.3810833E-07  0.3603691E+04  0.7818609E-02  0.8089647E-01
       -2   -1    0    0    0  501  0.00000000000E+00  0.00000000000E+00  0.11174047520E+04  0.11174047520E+04  0.25500000920E-02 0.  1.
        2   -1    0    0  501    0  0.00000000000E+00  0.00000000000E+00 -0.29055242272E+04  0.29055242272E+04  0.25500000920E-02 0. -1.
    10030    2    1    2    0    0  0.00000000000E+00  0.00000000000E+00 -0.17881194752E+04  0.40229289792E+04  0.36036906518E+04 0.  0.
        3    1    3    3  502    0 -0.12888581304E+04 -0.11850071112E+04 -0.13693218483E+04  0.22227099379E+04  0.10100000352E+00 0. -1.
       -3    1    3    3    0  502  0.12888581304E+04  0.11850071112E+04 -0.41879762694E+03  0.18002190412E+04  0.10100000352E+00 0.  1.
</event>
<event>
 5   0  0.1187925E-07  0.3929844E+04  0.7818609E-02  0.8018851E-01
       -1   -1    0    0    0  501  0.00000000000E+00  0.00000000000E+00  0.16509001564E+04  0.16509001564E+04  0.50400001928E-02 0.  1.
        1   -1    0    0  501    0  0.00000000000E+00  0.00000000000E+00 -0.23386747408E+04  0.23386747408E+04  0.50400001928E-02 0. -1.
    10030    2    1    2    0    0  0.00000000000E+00  0.00000000000E+00 -0.68777458438E+03  0.39895748972E+04  0.39298440149E+04 0.  0.
        2    1    3    3  502    0 -0.10713947293E+03 -0.14647808524E+03  0.16423738920E+04  0.16523700243E+04  0.25500000920E-02 0.  1.
       -2    1    3    3    0  502  0.10713947293E+03  0.14647808524E+03 -0.23301484764E+04  0.23372048729E+04  0.25500000920E-02 0. -1.
</event>
<event>
 5   0  0.3680814E-07  0.3788264E+04  0.7818609E-02  0.8048678E-01
        2   -1    0    0  501    0  0.00000000000E+00  0.00000000000E+00  0.22462007439E+04  0.22462007439E+04  0.25500000920E-02 0.  1.
       -2   -1    0    0    0  501  0.00000000000E+00  0.00000000000E+00 -0.15972462199E+04  0.15972462199E+04  0.25500000920E-02 0. -1.
    10030    2    1    2    0    0  0.00000000000E+00  0.00000000000E+00  0.64895452397E+03  0.38434469638E+04  0.37882637961E+04 0.  0.
        1    1    3    3  502    0  0.41361643737E+03  0.18340094421E+04  0.90760036635E+02  0.18822610274E+04  0.50400001928E-02 0. -1.
       -1    1    3    3    0  502 -0.41361643737E+03 -0.18340094421E+04  0.55819448733E+03  0.19611859363E+04  0.50400001928E-02 0.  1.
</event>
<event>
 5   0  0.1187925E-07  0.3868120E+04  0.7818609E-02  0.8031692E-01
        1   -1    0    0  501    0  0.00000000000E+00  0.00000000000E+00  0.17607675249E+04  0.17607675249E+04  0.50400001928E-02 0. -1.
       -1   -1    0    0    0  501  0.00000000000E+00  0.00000000000E+00 -0.21244077523E+04  0.21244077523E+04  0.50400001928E-02 0.  1.
    10030    2    1    2    0    0  0.00000000000E+00  0.00000000000E+00 -0.36364022740E+03  0.38851752772E+04  0.38681200498E+04 0.  0.
        3    1    3    3  502    0  0.11933280610E+04 -0.93971156147E+03  0.10207469142E+04  0.18300311344E+04  0.10100000352E+00 0. -1.
       -3    1    3    3    0  502 -0.11933280610E+04  0.93971156147E+03 -0.13843871416E+04  0.20551441428E+04  0.10100000352E+00 0.  1.
</event>
<event>
 5   0  0.1187925E-07  0.3874997E+04  0.7818609E-02  0.8030250E-01
       -1   -1    0    0    0  501  0.00000000000E+00  0.00000000000E+00  0.18938106069E+04  0.18938106069E+04  0.50400001928E-02 0.  1.
        1   -1    0    0  501    0  0.00000000000E+00  0.00000000000E+00 -0.19821941768E+04  0.19821941768E+04  0.50400001928E-02 0. -1.
    10030    2    1    2    0    0  0.00000000000E+00  0.00000000000E+00 -0.88383569915E+02  0.38760047836E+04  0.38749969584E+04 0.  0.
        3    1    3    3  502    0 -0.76463967005E+03  0.88853272752E+03  0.14988487647E+04  0.19028168232E+04  0.10100000352E+00 0.  1.
       -3    1    3    3    0  502  0.76463967005E+03 -0.88853272752E+03 -0.15872323346E+04  0.19731879604E+04  0.10100000352E+00 0. -1.
</event>
<event>
 5   0  0.1187925E-07  0.3940610E+04  0.7818609E-02  0.8016636E-01
        1   -1    0    0  501    0  0.00000000000E+00  0.00000000000E+00  0.19472305086E+04  0.19472305086E+04  0.50400001928E-02 0.  1.
       -1   -1    0    0    0  501  0.00000000000E+00  0.00000000000E+00 -0.19936532951E+04  0.19936532951E+04  0.50400001928E-02 0. -1.
    10030    2    1    2    0    0  0.00000000000E+00  0.00000000000E+00 -0.46422786527E+02  0.39408838037E+04  0.39406103688E+04 0.  0.
        4    1    3    3  502    0 -0.81464336739E+03  0.80184666412E+03  0.15817360990E+04  0.19515359562E+04  0.12699999809E+01 0.  1.
       -4    1    3    3    0  502  0.81464336739E+03 -0.80184666412E+03 -0.16281588855E+04  0.19893478474E+04  0.12699999809E+01 0. -1.
</event>
<event>
 5   0  0.3610483E-07  0.3405944E+04  0.7818609E-02  0.8136449E-01
       -2   -1    0    0    0  501  0.00000000000E+00  0.00000000000E+00  0.24463061435E+04  0.24463061435E+04  0.25500000920E-02 0.  1.
        2   -1    0    0  501    0  0.00000000000E+00  0.00000000000E+00 -0.11855073839E+04  0.11855073840E+04  0.25500000920E-02 0. -1.
    10030    2    1    2    0    0  0.00000000000E+00  0.00000000000E+00  0.12607987595E+04  0.36318135274E+04  0.34059442136E+04 0.  0.
        4    1    3    3  502    0  0.28537826628E+03 -0.96276273162E+03  0.20970240272E+04  0.23250514437E+04  0.12699999809E+01 0.  1.
       -4    1    3    3    0  502 -0.28537826628E+03  0.96276273162E+03 -0.83622526768E+03  0.13067620837E+04  0.12699999809E+01 0. -1.
</event>
<event>
 5   0  0.1187925E-07  0.3831418E+04  0.7818609E-02  0.8039446E-01
       -1   -1    0    0    0  501  0.00000000000E+00  0.00000000000E+00  0.24704152052E+04  0.24704152052E+04  0.50400001928E-02 0.  1.
        1   -1    0    0  501    0  0.00000000000E+00  0.00000000000E+00 -0.14855560583E+04  0.14855560583E+04  0.50400001928E-02 0. -1.
    10030    2    1    2    0    0  0.00000000000E+00  0.00000000000E+00  0.98485914693E+03  0.39559712635E+04  0.38314176356E+04 0.  0.
        3    1    3    3  502    0  0.87084735752E+02 -0.15103016286E+04 -0.72108443337E+03  0.16758751537E+04  0.10100000352E+00 0. -1.
       -3    1    3    3    0  502 -0.87084735752E+02  0.15103016286E+04  0.17059435803E+04  0.22800961098E+04  0.10100000352E+00 0.  1.
</event>
<event>
 5   0  0.3832389E-07  0.3231530E+04  0.7818609E-02  0.8180539E-01
       -2   -1    0    0    0  501  0.00000000000E+00  0.00000000000E+00  0.11939117046E+04  0.11939117046E+04  0.25500000920E-02 0.  1.
        2   -1    0    0  501    0  0.00000000000E+00  0.00000000000E+00 -0.21866746069E+04  0.21866746069E+04  0.25500000920E-02 0. -1.
    10030    2    1    2    0    0  0.00000000000E+00  0.00000000000E+00 -0.99276290231E+03  0.33805863116E+04  0.32315299209E+04 0.  0.
        5    1    3    3  502    0 -0.46201615318E+03  0.13280090758E+04  0.33632883355E+03  0.14457545454E+04  0.46999998093E+01 0.  1.
       -5    1    3    3    0  502  0.46201615318E+03 -0.13280090758E+04 -0.13290917359E+04  0.19348317662E+04  0.46999998093E+01 0. -1.
</event>
<event>
 5   0  0.1187925E-07  0.3875171E+04  0.7818609E-02  0.8030213E-01
       -1   -1    0    0    0  501  0.00000000000E+00  0.00000000000E+00  0.24192096156E+04  0.24192096157E+04  0.50400001928E-02 0. -1.
        1   -1    0    0  501    0  0.00000000000E+00  0.00000000000E+00 -0.15518448338E+04  0.15518448338E+04  0.50400001928E-02 0.  1.
    10030    2    1    2    0    0  0.00000000000E+00  0.00000000000E+00  0.86736478184E+03  0.39710544495E+04  0.38751711931E+04 0.  0.
        3    1    3    3  502    0 -0.99091060035E+03  0.44241039038E+03  0.20785806985E+04  0.23448088412E+04  0.10100000352E+00 0. -1.
       -3    1    3    3    0  502  0.99091060035E+03 -0.44241039038E+03 -0.12112159167E+04  0.16262456083E+04  0.10100000352E+00 0.  1.
</event>
<event>
 5   0  0.3680814E-07  0.3948363E+04  0.7818609E-02  0.8015045E-01
       -2   -1    0    0    0  501  0.00000000000E+00  0.00000000000E+00  0.13253625360E+04  0.13253625360E+04  0.25500000920E-02 0.  1.
        2   -1    0    0  501    0  0.00000000000E+00  0.00000000000E+00 -0.29406230520E+04  0.29406230520E+04  0.25500000920E-02 0. -1.
    10030    2    1    2    0    0  0.00000000000E+00  0.00000000000E+00 -0.16152605160E+04  0.42659855880E+04  0.39483625090E+04 0.  0.
        1    1    3    3  502    0 -0.10153055092E+04  0.43869373304E+03  0.95918325412E+03  0.14640116063E+04  0.50400001928E-02 0.  1.
       -1    1    3    3    0  502  0.10153055092E+04 -0.43869373304E+03 -0.25744437701E+04  0.28019739816E+04  0.50400001928E-02 0. -1.
</event>
<event>
 5   0  0.1187925E-07  0.3746717E+04  0.7818609E-02  0.8057687E-01
       -1   -1    0    0    0  501  0.00000000000E+00  0.00000000000E+00  0.19181485487E+04  0.19181485487E+04  0.50400001928E-02 0. -1.
        1   -1    0    0  501    0  0.00000000000E+00  0.00000000000E+00 -0.18296142993E+04  0.18296142993E+04  0.50400001928E-02 0.  1.
    10030    2    1    2    0    0  0.00000000000E+00  0.00000000000E+00  0.88534249477E+02  0.37477628480E+04  0.37467169698E+04 0.  0.
        3    1    3    3  502    0  0.13130193381E+04 -0.19608812470E+03 -0.12778437399E+04  0.18426489000E+04  0.10100000352E+00 0.  1.
       -3    1    3    3    0  502 -0.13130193381E+04  0.19608812470E+03  0.13663779894E+04  0.19051139480E+04  0.10100000352E+00 0. -1.
</event>
<event>
 5   0  0.3832389E-07  0.3894260E+04  0.7818609E-02  0.8026224E-01
        2   -1    0    0  501    0  0.00000000000E+00  0.00000000000E+00  0.24539760272E+04  0.24539760272E+04  0.25500000920E-02 0. -1.
       -2   -1    0    0    0  501  0.00000000000E+00  0.00000000000E+00 -0.15449679443E+04  0.15449679443E+04  0.25500000920E-02 0.  1.
    10030    2    1    2    0    0  0.00000000000E+00  0.00000000000E+00  0.90900808293E+03  0.39989439714E+04  0.38942595178E+04 0.  0.
        5    1    3    3  502    0 -0.11940357808E+04  0.95425902072E+03  0.16931466871E+04  0.22810303633E+04  0.46999998093E+01 0. -1.
       -5    1    3    3    0  502  0.11940357808E+04 -0.95425902072E+03 -0.78413860413E+03  0.17179136081E+04  0.46999998093E+01 0.  1.
</event>
<event>
 5   0  0.3810833E-07  0.3663532E+04  0.7818609E-02  0.8076092E-01
       -2   -1    0    0    0  501  0.00000000000E+00  0.00000000000E+00  0.15805939117E+04  0.15805939117E+04  0.25500000920E-02 0.  1.
        2   -1    0    0  501    0  0.00000000000E+00  0.00000000000E+00 -0.21228519053E+04  0.21228519053E+04  0.25500000920E-02 0. -1.
    10030    2    1    2    0    0  0.00000000000E+00  0.00000000000E+00 -0.54225799353E+03  0.37034458170E+04  0.36635320645E+04 0.  0.
        3    1    3    3  502    0 -0.90390923615E+03 -0.15926575693E+04 -0.31349919931E+03  0.18579267473E+04  0.10100000352E+00 0. -1.
       -3    1    3    3    0  502  0.90390923615E+03  0.15926575693E+04 -0.22875879422E+03  0.18455190697E+04  0.10100000352E+00 0.  1.
</event>
<event>
 5   0  0.3810833E-07  0.3914485E+04  0.7818609E-02  0.8022023E-01
        2   -1    0    0  501    0  0.00000000000E+00  0.00000000000E+00  0.10560339504E+04  0.10560339504E+04  0.25500000920E-02 0.  1.
       -2   -1    0    0    0  501  0.00000000000E+00  0.00000000000E+00 -0.36275334619E+04  0.36275334619E+04  0.25500000920E-02 0. -1.
    10030    2    1    2    0    0  0.00000000000E+00  0.00000000000E+00 -0.25714995115E+04  0.46835674124E+04  0.39144851473E+04 0.  0.
        3    1    3    3  502    0  0.30922026809E+03  0.11566679981E+04 -0.31382716927E+04  0.33589056640E+04  0.10100000352E+00 0. -1.
       -3    1    3    3    0  502 -0.30922026809E+03 -0.11566679981E+04  0.56677218122E+03  0.13246617484E+04  0.10100000352E+00 0.  1.
</event>
<event>
 5   0  0.1187925E-07  0.3934236E+04  0.7818609E-02  0.8017946E-01
        1   -1    0    0  501    0  0.00000000000E+00  0.00000000000E+00  0.18586176685E+04  0.18586176685E+04  0.50400001928E-02 0.  1.
       -1   -1    0    0    0  501  0.00000000000E+00  0.00000000000E+00 -0.20819520771E+04  0.20819520771E+04  0.50400001928E-02 0. -1.
    10030    2    1    2    0    0  0.00000000000E+00  0.00000000000E+00 -0.22333440860E+03  0.39405697456E+04  0.39342358422E+04 0.  0.
        1    1    3    3  502    0 -0.74815401972E+03  0.59225117394E+03 -0.18346276023E+04  0.20679347982E+04  0.50400001928E-02 0. -1.
       -1    1    3    3    0  502  0.74815401972E+03 -0.59225117394E+03  0.16112931937E+04  0.18726349474E+04  0.50400001928E-02 0.  1.
</event>
<event>
 5   0  0.1187925E-07  0.3784020E+04  0.7818609E-02  0.8049593E-01
        1   -1    0    0  501    0  0.00000000000E+00  0.00000000000E+00  0.28130912324E+04  0.28130912324E+04  0.50400001928E-02 0. -1.
       -1   -1    0    0    0  501  0.00000000000E+00  0.00000000000E+00 -0.12725150531E+04  0.12725150531E+04  0.50400001928E-02 0.  1.
    10030    2    1    2    0    0  0.00000000000E+00  0.00000000000E+00  0.15405761793E+04  0.40856062856E+04  0.37840195238E+04 0.  0.
        4    1    3    3  502    0 -0.13627259061E+03 -0.73631839073E+03 -0.11057088938E+04  0.13354133301E+04  0.12699999809E+01 0.  1.
       -4    1    3    3    0  502  0.13627259061E+03  0.73631839073E+03  0.26462850731E+04  0.27501929555E+04  0.12699999809E+01 0. -1.
</event>
<event>
 5   0  0.1187925E-07  0.3772503E+04  0.7818609E-02  0.8052081E-01
        1   -1    0    0  501    0  0.00000000000E+00  0.00000000000E+00  0.17814665150E+04  0.17814665150E+04  0.50400001928E-02 0. -1.
       -1   -1    0    0    0  501  0.00000000000E+00  0.00000000000E+00 -0.19972001934E+04  0.19972001934E+04  0.50400001928E-02 0.  1.
    10030    2    1    2    0    0  0.00000000000E+00  0.00000000000E+00 -0.21573367834E+03  0.37786667084E+04  0.37725032901E+04 0.  0.
        1    1    3    3  502    0  0.69865024540E+03  0.15651017640E+04  0.68100454015E+03  0.18442946838E+04  0.50400001928E-02 0. -1.
       -1    1    3    3    0  502 -0.69865024540E+03 -0.15651017640E+04 -0.89673821849E+03  0.19343720246E+04  0.50400001928E-02 0.  1.
</event>
<event>
 5   0  0.1187925E-07  0.3397885E+04  0.7818609E-02  0.8138425E-01
       -3   -1    0    0    0  501  0.00000000000E+00  0.00000000000E+00  0.17798291906E+04  0.17798291934E+04  0.10100000352E+00 0.  1.
        3   -1    0    0  501    0  0.00000000000E+00  0.00000000000E+00 -0.16217322142E+04  0.16217322173E+04  0.10100000352E+00 0. -1.
    10030    2    1    2    0    0  0.00000000000E+00  0.00000000000E+00  0.15809697642E+03  0.34015614107E+04  0.33978854273E+04 0.  0.
        5    1    3    3  502    0  0.95201065537E+03 -0.78698011710E+03  0.12468104647E+04  0.17550556736E+04  0.46999998093E+01 0.  1.
       -5    1    3    3    0  502 -0.95201065537E+03  0.78698011710E+03 -0.10887134883E+04  0.16465057371E+04  0.46999998093E+01 0. -1.
</event>
<event>
 5   0  0.1187925E-07  0.3673171E+04  0.7818609E-02  0.8073934E-01
        1   -1    0    0  501    0  0.00000000000E+00  0.00000000000E+00  0.22349626922E+04  0.22349626922E+04  0.50400001928E-02 0. -1.
       -1   -1    0    0    0  501  0.00000000000E+00  0.00000000000E+00 -0.15092184818E+04  0.15092184818E+04  0.50400001928E-02 0.  1.
    10030    2    1    2    0    0  0.00000000000E+00  0.00000000000E+00  0.72574421043E+03  0.37441811740E+04  0.36731713824E+04 0.  0.
        5    1    3    3  502    0 -0.45708639883E+03  0.17268245267E+04 -0.72197603919E+02  0.17877599128E+04  0.46999998093E+01 0.  1.
       -5    1    3    3    0  502  0.45708639883E+03 -0.17268245267E+04  0.79794181435E+03  0.19564212611E+04  0.46999998093E+01 0. -1.
</event>
<event>
 5   0  0.1187925E-07  0.3916754E+04  0.7818609E-02  0.8021554E-01
       -1   -1    0    0    0  501  0.00000000000E+00  0.00000000000E+00  0.17042482995E+04  0.17042482995E+04  0.50400001928E-02 0. -1.
        1   -1    0    0  501    0  0.00000000000E+00  0.00000000000E+00 -0.22503997590E+04  0.22503997590E+04  0.50400001928E-02 0.  1.
    10030    2    1    2    0    0  0.00000000000E+00  0.00000000000E+00 -0.54615145952E+03  0.39546480585E+04  0.39167537387E+04 0.  0.
        4    1    3    3  502    0  0.16443226072E+04 -0.10419292525E+04 -0.48921443865E+03  0.20071735809E+04  0.12699999809E+01 0.  1.
       -4    1    3    3    0  502 -0.16443226072E+04  0.10419292525E+04 -0.56937020872E+02  0.19474744776E+04  0.12699999809E+01 0. -1.
</event>
<event>
 5   0  0.1187925E-07  0.3921563E+04  0.7818609E-02  0.8020559E-01
       -1   -1    0    0    0  501  0.00000000000E+00  0.00000000000E+00  0.19913455787E+04  0.19913455787E+04  0.50400001928E-02 0. -1.
        1   -1    0    0  501    0  0.00000000000E+00  0.00000000000E+00 -0.19306865515E+04  0.19306865515E+04  0.50400001928E-02 0.  1.
    10030    2    1    2    0    0  0.00000000000E+00  0.00000000000E+00  0.60659027249E+02  0.39220321302E+04  0.39215630191E+04 0.  0.
        2    1    3    3  502    0 -0.10801526185E+04  0.46934380774E+03  0.15982066963E+04  0.19852652047E+04  0.25500000920E-02 0. -1.
       -2    1    3    3    0  502  0.10801526185E+04 -0.46934380774E+03 -0.15375476690E+04  0.19367669255E+04  0.25500000920E-02 0.  1.
</event>
<event>
 5   0  0.3665303E-07  0.3954536E+04  0.7818609E-02  0.8013781E-01
       -2   -1    0    0    0  501  0.00000000000E+00  0.00000000000E+00  0.18890353514E+04  0.18890353514E+04  0.25500000920E-02 0.  1.
        2   -1    0    0  501    0  0.00000000000E+00  0.00000000000E+00 -0.20696221102E+04  0.20696221102E+04  0.25500000920E-02 0. -1.
    10030    2    1    2    0    0  0.00000000000E+00  0.00000000000E+00 -0.18058675878E+03  0.39586574615E+04  0.39545362965E+04 0.  0.
        2    1    3    3  502    0 -0.10862954560E+04  0.13397349257E+04 -0.10580800015E+04  0.20234773976E+04  0.25500000920E-02 0. -1.
       -2    1    3    3    0  502  0.10862954560E+04 -0.13397349257E+04  0.87749324275E+03  0.19351800640E+04  0.25500000920E-02 0.  1.
</event>
<event>
 5   0  0.1187925E-07  0.2852734E+04  0.7818609E-02  0.8287081E-01
        1   -1    0    0  501    0  0.00000000000E+00  0.00000000000E+00  0.18388946604E+04  0.18388946604E+04  0.50400001928E-02 0. -1.
       -1   -1    0    0    0  501  0.00000000000E+00  0.00000000000E+00 -0.11063832935E+04  0.11063832935E+04  0.50400001928E-02 0.  1.
    10030    2    1    2    0    0  0.00000000000E+00  0.00000000000E+00  0.73251136690E+03  0.29452779538E+04  0.28527336579E+04 0.  0.
        5    1    3    3  502    0 -0.21658339487E+03 -0.41411685776E+03 -0.10250893185E+04  0.11266016775E+04  0.46999998093E+01 0.  1.
       -5    1    3    3    0  502  0.21658339487E+03  0.41411685776E+03  0.17576006854E+04  0.18186762763E+04  0.46999998093E+01 0. -1.
</event>
<event>
 5   0  0.1187925E-07  0.3639576E+04  0.7818609E-02  0.8081486E-01
       -1   -1    0    0    0  501  0.00000000000E+00  0.00000000000E+00  0.14982672961E+04  0.14982672961E+04  0.50400001928E-02 0. -1.
        1   -1    0    0  501    0  0.00000000000E+00  0.00000000000E+00 -0.22103059317E+04  0.22103059317E+04  0.50400001928E-02 0.  1.
    10030    2    1    2    0    0  0.00000000000E+00  0.00000000000E+00 -0.71203863559E+03  0.37085732278E+04  0.36395763995E+04 0.  0.
        3    1    3    3  502    0 -0.15121117504E+03 -0.85066930704E+03  0.12759439119E+04  0.15409529408E+04  0.10100000352E+00 0. -1.
       -3    1    3    3    0  502  0.15121117504E+03  0.85066930704E+03 -0.19879825475E+04  0.21676202870E+04  0.10100000352E+00 0.  1.
</event>
<event>
 5   0  0.3665303E-07  0.3860952E+04  0.7818609E-02  0.8033200E-01
       -2   -1    0    0    0  501  0.00000000000E+00  0.00000000000E+00  0.17316031846E+04  0.17316031846E+04  0.25500000920E-02 0.  1.
        2   -1    0    0  501    0  0.00000000000E+00  0.00000000000E+00 -0.21521896644E+04  0.21521896644E+04  0.25500000920E-02 0. -1.
    10030    2    1    2    0    0  0.00000000000E+00  0.00000000000E+00 -0.42058647980E+03  0.38837928490E+04  0.38609524612E+04 0.  0.
        2    1    3    3  502    0  0.95106504719E+03  0.46320282288E+02  0.14789469595E+04  0.17589640137E+04  0.25500000920E-02 0.  1.
       -2    1    3    3    0  502 -0.95106504719E+03 -0.46320282288E+02 -0.18995334393E+04  0.21248288353E+04  0.25500000920E-02 0. -1.
</event>
<event>
 5   0  0.1187925E-07  0.2919440E+04  0.7818609E-02  0.8267117E-01
       -1   -1    0    0    0  501  0.00000000000E+00  0.00000000000E+00  0.23714439030E+04  0.23714439030E+04  0.50400001928E-02 0.  1.
        1   -1    0    0  501    0  0.00000000000E+00  0.00000000000E+00 -0.89851676465E+03  0.89851676466E+03  0.50400001928E-02 0. -1.
    10030    2    1    2    0    0  0.00000000000E+00  0.00000000000E+00  0.14729271383E+04  0.32699606676E+04  0.29194397430E+04 0.  0.
        2    1    3    3  502    0 -0.55991254547E+03  0.13418096777E+04  0.59117072992E+03  0.15695343583E+04  0.25500000920E-02 0. -1.
       -2    1    3    3    0  502  0.55991254547E+03 -0.13418096777E+04  0.88175640840E+03  0.17004263094E+04  0.25500000920E-02 0.  1.
</event>
<event>
 5   0  0.1187925E-07  0.3865436E+04  0.7818609E-02  0.8032256E-01
       -1   -1    0    0    0  501  0.00000000000E+00  0.00000000000E+00  0.20378185734E+04  0.20378185734E+04  0.50400001928E-02 0. -1.
        1   -1    0    0  501    0  0.00000000000E+00  0.00000000000E+00 -0.18330383705E+04  0.18330383705E+04  0.50400001928E-02 0.  1.
    10030    2    1    2    0    0  0.00000000000E+00  0.00000000000E+00  0.20478020288E+03  0.38708569439E+04  0.38654363982E+04 0.  0.
        5    1    3    3  502    0  0.15665577140E+04  0.90809972275E+03  0.77908127219E+03  0.19712275101E+04  0.46999998093E+01 0.  1.
       -5    1    3    3    0  502 -0.15665577140E+04 -0.90809972275E+03 -0.57430106932E+03  0.18996294339E+04  0.46999998093E+01 0. -1.
</event>
<event>
 5   0  0.3680814E-07  0.3870725E+04  0.7818609E-02  0.8031146E-01
       -2   -1    0    0    0  501  0.00000000000E+00  0.00000000000E+00  0.18495762543E+04  0.18495762543E+04  0.25500000920E-02 0. -1.
        2   -1    0    0  501    0  0.00000000000E+00  0.00000000000E+00 -0.20251277064E+04  0.20251277064E+04  0.25500000920E-02 0.  1.
    10030    2    1    2    0    0  0.00000000000E+00  0.00000000000E+00 -0.17555145216E+03  0.38747039607E+04  0.38707250575E+04 0.  0.
        1    1    3    3  502    0 -0.57556677133E+03  0.17644198222E+04 -0.63713280534E+03  0.19622417355E+04  0.50400001928E-02 0.  1.
       -1    1    3    3    0  502  0.57556677133E+03 -0.17644198222E+04  0.46158135318E+03  0.19124622252E+04  0.50400001928E-02 0. -1.
</event>
<event>
 5   0  0.3665303E-07  0.3433711E+04  0.7818609E-02  0.8129682E-01
        2   -1    0    0  501    0  0.00000000000E+00  0.00000000000E+00  0.20243990947E+04  0.20243990947E+04  0.25500000920E-02 0. -1.
       -2   -1    0    0    0  501  0.00000000000E+00  0.00000000000E+00 -0.14560334373E+04  0.14560334373E+04  0.25500000920E-02 0.  1.
    10030    2    1    2    0    0  0.00000000000E+00  0.00000000000E+00  0.56836565737E+03  0.34804325320E+04  0.34337109793E+04 0.  0.
        2    1    3    3  502    0 -0.28039453411E+03 -0.12253929769E+03  0.19965350580E+04  0.20198488092E+04  0.25500000920E-02 0. -1.
       -2    1    3    3    0  502  0.28039453411E+03  0.12253929769E+03 -0.14281694007E+04  0.14605837228E+04  0.25500000920E-02 0.  1.
</event>
<event>
 5   0  0.3610483E-07  0.3922451E+04  0.7818609E-02  0.8020376E-01
        2   -1    0    0  501    0  0.00000000000E+00  0.00000000000E+00  0.12694413668E+04  0.12694413668E+04  0.25500000920E-02 0. -1.
       -2   -1    0    0    0  501  0.00000000000E+00  0.00000000000E+00 -0.30299981229E+04  0.30299981229E+04  0.25500000920E-02 0.  1.
    10030    2    1    2    0    0  0.00000000000E+00  0.00000000000E+00 -0.17605567561E+04  0.42994394896E+04  0.39224507433E+04 0.  0.
        4    1    3    3  502    0  0.54403112546E+03 -0.11114972157E+04  0.78747003517E+03  0.14668014846E+04  0.12699999809E+01 0. -1.
       -4    1    3    3    0  502 -0.54403112546E+03  0.11114972157E+04 -0.25480267913E+04  0.28326380051E+04  0.12699999809E+01 0.  1.
</event>
<event>
 5   0  0.3832389E-07  0.3783431E+04  0.7818609E-02  0.8049720E-01
        2   -1    0    0  501    0  0.00000000000E+00  0.00000000000E+00  0.21480016960E+04  0.21480016960E+04  0.25500000920E-02 0.  1.
       -2   -1    0    0    0  501  0.00000000000E+00  0.00000000000E+00 -0.16660073733E+04  0.16660073733E+04  0.25500000920E-02 0. -1.
    10030    2    1    2    0    0  0.00000000000E+00  0.00000000000E+00  0.48199432269E+03  0.38140090693E+04  0.37834305404E+04 0.  0.
        5    1    3    3  502    0 -0.78892516718E+03  0.95196845276E+03 -0.12023279608E+04  0.17246047286E+04  0.46999998093E+01 0. -1.
       -5    1    3    3    0  502  0.78892516718E+03 -0.95196845276E+03  0.16843222835E+04  0.20894043407E+04  0.46999998093E+01 0.  1.
</event>
<event>
 5   0  0.3610483E-07  0.3886640E+04  0.7818609E-02  0.8027814E-01
        2   -1    0    0  501    0  0.00000000000E+00  0.00000000000E+00  0.28983699458E+04  0.28983699458E+04  0.25500000920E-02 0.  1.
       -2   -1    0    0    0  501  0.00000000000E+00  0.00000000000E+00 -0.13029711667E+04  0.13029711667E+04  0.25500000920E-02 0. -1.
    10030    2    1    2    0    0  0.00000000000E+00  0.00000000000E+00  0.15953987791E+04  0.42013411126E+04  0.38866399216E+04 0.  0.
        4    1    3    3  502    0  0.14753043624E+03  0.10240604825E+04  0.25758952695E+04  0.27759148318E+04  0.12699999809E+01 0.  1.
       -4    1    3    3    0  502 -0.14753043624E+03 -0.10240604825E+04 -0.98049649034E+03  0.14254262808E+04  0.12699999809E+01 0. -1.
</event>
<event>
 5   0  0.3680814E-07  0.3887104E+04  0.7818609E-02  0.8027717E-01
       -2   -1    0    0    0  501  0.00000000000E+00  0.00000000000E+00  0.30917728871E+04  0.30917728871E+04  0.25500000920E-02 0. -1.
        2   -1    0    0  501    0  0.00000000000E+00  0.00000000000E+00 -0.12217569048E+04  0.12217569048E+04  0.25500000920E-02 0.  1.
    10030    2    1    2    0    0  0.00000000000E+00  0.00000000000E+00  0.18700159822E+04  0.43135297919E+04  0.38871042553E+04 0.  0.
        1    1    3    3  502    0  0.13830240097E+04 -0.12471691846E+04  0.15520749825E+04  0.24242778590E+04  0.50400001928E-02 0. -1.
       -1    1    3    3    0  502 -0.13830240097E+04  0.12471691846E+04  0.31794099977E+03  0.18892519329E+04  0.50400001928E-02 0.  1.
</event>
<event>
 5   0  0.1187925E-07  0.3876255E+04  0.7818609E-02  0.8029986E-01
        1   -1    0    0  501    0  0.00000000000E+00  0.00000000000E+00  0.27926009646E+04  0.27926009646E+04  0.50400001928E-02 0.  1.
       -1   -1    0    0    0  501  0.00000000000E+00  0.00000000000E+00 -0.13451038802E+04  0.13451038802E+04  0.50400001928E-02 0. -1.
    10030    2    1    2    0    0  0.00000000000E+00  0.00000000000E+00  0.14474970844E+04  0.41377048447E+04  0.38762550965E+04 0.  0.
        2    1    3    3  502    0 -0.50435829496E+03 -0.58498325586E+03  0.26212141381E+04  0.27326445537E+04  0.25500000920E-02 0.  1.
       -2    1    3    3    0  502  0.50435829496E+03  0.58498325586E+03 -0.11737170537E+04  0.14050602910E+04  0.25500000920E-02 0. -1.
</event>
<event>
 5   0  0.3665303E-07  0.3991118E+04  0.7818609E-02  0.8006341E-01
        2   -1    0    0  501    0  0.00000000000E+00  0.00000000000E+00  0.27006944719E+04  0.27006944719E+04  0.25500000920E-02 0.  1.
       -2   -1    0    0    0  501  0.00000000000E+00  0.00000000000E+00 -0.14745305840E+04  0.14745305840E+04  0.25500000920E-02 0. -1.
    10030    2    1    2    0    0  0.00000000000E+00  0.00000000000E+00  0.12261638879E+04  0.41752250558E+04  0.39911184381E+04 0.  0.
        2    1    3    3  502    0 -0.12157910140E+04  0.63862439355E+03 -0.90155534523E+03  0.16427997280E+04  0.25500000920E-02 0. -1.
       -2    1    3    3    0  502  0.12157910140E+04 -0.63862439355E+03  0.21277192331E+04  0.25324253278E+04  0.25500000920E-02 0.  1.
</event>
<event>
 5   0  0.3810833E-07  0.3805736E+04  0.7818609E-02  0.8044925E-01
        2   -1    0    0  501    0  0.00000000000E+00  0.00000000000E+00  0.23513124523E+04  0.23513124523E+04  0.25500000920E-02 0. -1.
       -2   -1    0    0    0  501  0.00000000000E+00  0.00000000000E+00 -0.15399511396E+04  0.15399511396E+04  0.25500000920E-02 0.  1.
    10030    2    1    2    0    0  0.00000000000E+00  0.00000000000E+00  0.81136131265E+03  0.38912635919E+04  0.38057358240E+04 0.  0.
        3    1    3    3  502    0  0.28265005215E+03  0.18481104735E+04  0.76790605870E+03  0.20211588506E+04  0.10100000352E+00 0. -1.
       -3    1    3    3    0  502 -0.28265005215E+03 -0.18481104735E+04  0.43455253952E+02  0.18701047413E+04  0.10100000352E+00 0.  1.
</event>
<event>
 5   0  0.3832389E-07  0.3895293E+04  0.7818609E-02  0.8026009E-01
        2   -1    0    0  501    0  0.00000000000E+00  0.00000000000E+00  0.18948347349E+04  0.18948347349E+04  0.25500000920E-02 0. -1.
       -2   -1    0    0    0  501  0.00000000000E+00  0.00000000000E+00 -0.20019306414E+04  0.20019306414E+04  0.25500000920E-02 0.  1.
    10030    2    1    2    0    0  0.00000000000E+00  0.00000000000E+00 -0.10709590648E+03  0.38967653763E+04  0.38952934247E+04 0.  0.
        5    1    3    3  502    0 -0.10601047701E+04  0.54902675773E+03  0.14858815312E+04  0.19060741116E+04  0.46999998093E+01 0. -1.
       -5    1    3    3    0  502  0.10601047701E+04 -0.54902675773E+03 -0.15929774376E+04  0.19906912647E+04  0.46999998093E+01 0.  1.
</event>
<event>
 5   0  0.3680814E-07  0.3904501E+04  0.7818609E-02  0.8024094E-01
       -2   -1    0    0    0  501  0.00000000000E+00  0.00000000000E+00  0.13451322136E+04  0.13451322136E+04  0.25500000920E-02 0. -1.
        2   -1    0    0  501    0  0.00000000000E+00  0.00000000000E+00 -0.28333877175E+04  0.28333877175E+04  0.25500000920E-02 0.  1.
    10030    2    1    2    0    0  0.00000000000E+00  0.00000000000E+00 -0.14882555039E+04  0.41785199311E+04  0.39045005276E+04 0.  0.
        1    1    3    3  502    0  0.84180660414E+03  0.72204208706E+03  0.97526883829E+03  0.14768657492E+04  0.50400001928E-02 0. -1.
       -1    1    3    3    0  502 -0.84180660414E+03 -0.72204208706E+03 -0.24635243421E+04  0.27016541819E+04  0.50400001928E-02 0.  1.
</event>
<event>
 5   0  0.1187925E-07  0.3762659E+04  0.7818609E-02  0.8054216E-01
       -1   -1    0    0    0  501  0.00000000000E+00  0.00000000000E+00  0.27232580609E+04  0.27232580609E+04  0.50400001928E-02 0.  1.
        1   -1    0    0  501    0  0.00000000000E+00  0.00000000000E+00 -0.12996937125E+04  0.12996937125E+04  0.50400001928E-02 0. -1.
    10030    2    1    2    0    0  0.00000000000E+00  0.00000000000E+00  0.14235643484E+04  0.40229517734E+04  0.37626593677E+04 0.  0.
        1    1    3    3  502    0 -0.73182246641E+03 -0.26138219333E+03 -0.11200774626E+04  0.13632528363E+04  0.50400001928E-02 0. -1.
       -1    1    3    3    0  502  0.73182246641E+03  0.26138219333E+03  0.25436418110E+04  0.26596989371E+04  0.50400001928E-02 0.  1.
</event>
<event>
 5   0  0.3665303E-07  0.3918308E+04  0.7818609E-02  0.8021232E-01
        2   -1    0    0  501    0  0.00000000000E+00  0.00000000000E+00  0.17095237922E+04  0.17095237922E+04  0.25500000920E-02 0.  1.
       -2   -1    0    0    0  501  0.00000000000E+00  0.00000000000E+00 -0.22452358924E+04  0.22452358924E+04  0.25500000920E-02 0. -1.
    10030    2    1    2    0    0  0.00000000000E+00  0.00000000000E+00 -0.53571210021E+03  0.39547596846E+04  0.39183078884E+04 0.  0.
        2    1    3    3  502    0 -0.25211590745E+03  0.11931433451E+04  0.12797482448E+04  0.17677412262E+04  0.25500000920E-02 0.  1.
       -2    1    3    3    0  502  0.25211590745E+03 -0.11931433451E+04 -0.18154603450E+04  0.21870184583E+04  0.25500000920E-02 0. -1.
</event>
<event>
 5   0  0.1187925E-07  0.3913002E+04  0.7818609E-02  0.8022330E-01
       -1   -1    0    0    0  501  0.00000000000E+00  0.00000000000E+00  0.17073357757E+04  0.17073357757E+04  0.50400001928E-02 0.  1.
        1   -1    0    0  501    0  0.00000000000E+00  0.00000000000E+00 -0.22420292480E+04  0.22420292480E+04  0.50400001928E-02 0. -1.
    10030    2    1    2    0    0  0.00000000000E+00  0.00000000000E+00 -0.53469347226E+03  0.39493650237E+04  0.39130022976E+04 0.  0.
        5    1    3    3  502    0 -0.13703071313E+03  0.60874707980E+03 -0.21389044208E+04  0.22280674664E+04  0.46999998093E+01 0. -1.
       -5    1    3    3    0  502  0.13703071313E+03 -0.60874707980E+03  0.16042109485E+04  0.17212975573E+04  0.46999998093E+01 0.  1.
</event>
<event>
 5   0  0.3832389E-07  0.3905528E+04  0.7818609E-02  0.8023880E-01
        2   -1    0    0  501    0  0.00000000000E+00  0.00000000000E+00  0.20312542564E+04  0.20312542564E+04  0.25500000920E-02 0. -1.
       -2   -1    0    0    0  501  0.00000000000E+00  0.00000000000E+00 -0.18773070608E+04  0.18773070608E+04  0.25500000920E-02 0.  1.
    10030    2    1    2    0    0  0.00000000000E+00  0.00000000000E+00  0.15394719557E+03  0.39085613171E+04  0.39055283677E+04 0.  0.
        5    1    3    3  502    0  0.18295758716E+04  0.67943621288E+03  0.11467205620E+02  0.19517005467E+04  0.46999998093E+01 0. -1.
       -5    1    3    3    0  502 -0.18295758716E+04 -0.67943621288E+03  0.14247998995E+03  0.19568607704E+04  0.46999998093E+01 0.  1.
</event>
<event>
 5   0  0.1187925E-07  0.3867207E+04  0.7818609E-02  0.8031884E-01
        1   -1    0    0  501    0  0.00000000000E+00  0.00000000000E+00  0.21103357900E+04  0.21103357900E+04  0.50400001928E-02 0. -1.
       -1   -1    0    0    0  501  0.00000000000E+00  0.00000000000E+00 -0.17716713983E+04  0.17716713984E+04  0.50400001928E-02 0.  1.
    10030    2    1    2    0    0  0.00000000000E+00  0.00000000000E+00  0.33866439161E+03  0.38820071883E+04  0.38672065163E+04 0.  0.
        4    1    3    3  502    0  0.11186199551E+04  0.15500036447E+04  0.46199224250E+03  0.19665351122E+04  0.12699999809E+01 0.  1.
       -4    1    3    3    0  502 -0.11186199551E+04 -0.15500036447E+04 -0.12332785088E+03  0.19154720761E+04  0.12699999809E+01 0. -1.
</event>
<event>
 5   0  0.3610483E-07  0.3753631E+04  0.7818609E-02  0.8056179E-01
       -2   -1    0    0    0  501  0.00000000000E+00  0.00000000000E+00  0.12554103124E+04  0.12554103124E+04  0.25500000920E-02 0.  1.
        2   -1    0    0  501    0  0.00000000000E+00  0.00000000000E+00 -0.28058041810E+04  0.28058041810E+04  0.25500000920E-02 0. -1.
    10030    2    1    2    0    0  0.00000000000E+00  0.00000000000E+00 -0.15503938686E+04  0.40612144934E+04  0.37536305111E+04 0.  0.
        4    1    3    3  502    0  0.87040667652E+03  0.95253860383E+03 -0.22497770980E+04  0.25935373870E+04  0.12699999809E+01 0. -1.
       -4    1    3    3    0  502 -0.87040667652E+03 -0.95253860383E+03  0.69938322935E+03  0.14676771064E+04  0.12699999809E+01 0.  1.
</event>
<event>
 5   0  0.1187925E-07  0.3939619E+04  0.7818609E-02  0.8016839E-01
       -1   -1    0    0    0  501  0.00000000000E+00  0.00000000000E+00  0.22745788375E+04  0.22745788375E+04  0.50400001928E-02 0. -1.
        1   -1    0    0  501    0  0.00000000000E+00  0.00000000000E+00 -0.17058761637E+04  0.17058761637E+04  0.50400001928E-02 0.  1.
    10030    2    1    2    0    0  0.00000000000E+00  0.00000000000E+00  0.56870267380E+03  0.39804550012E+04  0.39396191803E+04 0.  0.
        1    1    3    3  502    0  0.13503246603E+04 -0.37332818346E+03 -0.11147035294E+04  0.17903392358E+04  0.50400001928E-02 0.  1.
       -1    1    3    3    0  502 -0.13503246603E+04  0.37332818346E+03  0.16834062032E+04  0.21901157654E+04  0.50400001928E-02 0. -1.
</event>
<event>
 5   0  0.3680814E-07  0.2979808E+04  0.7818609E-02  0.8249521E-01
       -2   -1    0    0    0  501  0.00000000000E+00  0.00000000000E+00  0.97038457843E+03  0.97038457844E+03  0.25500000920E-02 0.  1.
        2   -1    0    0  501    0  0.00000000000E+00  0.00000000000E+00 -0.22875605849E+04  0.22875605849E+04  0.25500000920E-02 0. -1.
    10030    2    1    2    0    0  0.00000000000E+00  0.00000000000E+00 -0.13171760065E+04  0.32579451634E+04  0.29798077212E+04 0.  0.
        1    1    3    3  502    0 -0.76982293315E+03 -0.71695239493E+03  0.49495923577E+03  0.11625974067E+04  0.50400001928E-02 0.  1.
       -1    1    3    3    0  502  0.76982293315E+03  0.71695239493E+03 -0.18121352423E+04  0.20953477567E+04  0.50400001928E-02 0. -1.
</event>
<event>
 5   0  0.1187925E-07  0.3901820E+04  0.7818609E-02  0.8024651E-01
        1   -1    0    0  501    0  0.00000000000E+00  0.00000000000E+00  0.17653896662E+04  0.17653896662E+04  0.50400001928E-02 0. -1.
       -1   -1    0    0    0  501  0.00000000000E+00  0.00000000000E+00 -0.21559261103E+04  0.21559261103E+04  0.50400001928E-02 0.  1.
    10030    2    1    2    0    0  0.00000000000E+00  0.00000000000E+00 -0.39053644418E+03  0.39213157765E+04  0.39018199222E+04 0.  0.
        4    1    3    3  502    0  0.81202317688E+03 -0.20501823544E+03  0.15755329295E+04  0.17842981089E+04  0.12699999809E+01 0. -1.
       -4    1    3    3    0  502 -0.81202317688E+03  0.20501823544E+03 -0.19660693737E+04  0.21370176676E+04  0.12699999809E+01 0.  1.
</event>
<event>
 5   0  0.3810833E-07  0.3973887E+04  0.7818609E-02  0.8009835E-01
        2   -1    0    0  501    0  0.00000000000E+00  0.00000000000E+00  0.22524489719E+04  0.22524489719E+04  0.25500000920E-02 0. -1.
       -2   -1    0    0    0  501  0.00000000000E+00  0.00000000000E+00 -0.17527343482E+04  0.17527343482E+04  0.25500000920E-02 0.  1.
    10030    2    1    2    0    0  0.00000000000E+00  0.00000000000E+00  0.49971462370E+03  0.40051833201E+04  0.39738871049E+04 0.  0.
        3    1    3    3  502    0  0.15736827403E+04 -0.10988585937E+03 -0.96770981538E+03  0.18506794877E+04  0.10100000352E+00 0. -1.
       -3    1    3    3    0  502 -0.15736827403E+04  0.10988585937E+03  0.14674244391E+04  0.21545038324E+04  0.10100000352E+00 0.  1.
</event>
<event>
 5   0  0.1187925E-07  0.4037280E+04  0.7818609E-02  0.7997068E-01
        1   -1    0    0  501    0  0.00000000000E+00  0.00000000000E+00  0.23008708186E+04  0.23008708186E+04  0.50400001928E-02 0.  1.
       -1   -1    0    0    0  501  0.00000000000E+00  0.00000000000E+00 -0.17710283512E+04  0.17710283512E+04  0.50400001928E-02 0. -1.
    10030    2    1    2    0    0  0.00000000000E+00  0.00000000000E+00  0.52984246742E+03  0.40718991698E+04  0.40372800013E+04 0.  0.
        3    1    3    3  502    0 -0.13239715058E+04  0.10481240223E+03 -0.12683186737E+04  0.18364417921E+04  0.10100000352E+00 0. -1.
       -3    1    3    3    0  502  0.13239715058E+04 -0.10481240223E+03  0.17981611411E+04  0.22354573776E+04  0.10100000352E+00 0.  1.
</event>
<event>
 5   0  0.3680814E-07  0.2906770E+04  0.7818609E-02  0.8270866E-01
        2   -1    0    0  501    0  0.00000000000E+00  0.00000000000E+00  0.19172535153E+04  0.19172535153E+04  0.25500000920E-02 0. -1.
       -2   -1    0    0    0  501  0.00000000000E+00  0.00000000000E+00 -0.11017470893E+04  0.11017470893E+04  0.25500000920E-02 0.  1.
    10030    2    1    2    0    0  0.00000000000E+00  0.00000000000E+00  0.81550642603E+03  0.30190006046E+04  0.29067703590E+04 0.  0.
        1    1    3    3  502    0 -0.99839230192E+03 -0.10549515398E+04  0.46090062188E+03  0.15238567265E+04  0.50400001928E-02 0.  1.
       -1    1    3    3    0  502  0.99839230192E+03  0.10549515398E+04  0.35460580415E+03  0.14951438781E+04  0.50400001928E-02 0. -1.
</event>
<event>
 5   0  0.1187925E-07  0.3903696E+04  0.7818609E-02  0.8024261E-01
       -1   -1    0    0    0  501  0.00000000000E+00  0.00000000000E+00  0.17354495838E+04  0.17354495838E+04  0.50400001928E-02 0. -1.
        1   -1    0    0  501    0  0.00000000000E+00  0.00000000000E+00 -0.21952297441E+04  0.21952297442E+04  0.50400001928E-02 0.  1.
    10030    2    1    2    0    0  0.00000000000E+00  0.00000000000E+00 -0.45978016037E+03  0.39306793279E+04  0.39036959645E+04 0.  0.
        4    1    3    3  502    0  0.58828219554E+03  0.11076607693E+04  0.12760146551E+04  0.17891906925E+04  0.12699999809E+01 0. -1.
       -4    1    3    3    0  502 -0.58828219554E+03 -0.11076607693E+04 -0.17357948154E+04  0.21414886354E+04  0.12699999809E+01 0.  1.
</event>
<event>
 5   0  0.3810833E-07  0.3855209E+04  0.7818609E-02  0.8034410E-01
        2   -1    0    0  501    0  0.00000000000E+00  0.00000000000E+00  0.13484101074E+04  0.13484101074E+04  0.25500000920E-02 0. -1.
       -2   -1    0    0    0  501  0.00000000000E+00  0.00000000000E+00 -0.27555856597E+04  0.27555856597E+04  0.25500000920E-02 0.  1.
    10030    2    1    2    0    0  0.00000000000E+00  0.00000000000E+00 -0.14071755523E+04  0.41039957671E+04  0.38552092318E+04 0.  0.
        3    1    3    3  502    0  0.17388295874E+04  0.15472799818E+03  0.16659220018E+03  0.17536311068E+04  0.10100000352E+00 0. -1.
       -3    1    3    3    0  502 -0.17388295874E+04 -0.15472799818E+03 -0.15737677525E+04  0.23503646603E+04  0.10100000352E+00 0.  1.
</event>
<event>
 5   0  0.1187925E-07  0.3829641E+04  0.7818609E-02  0.8039824E-01
       -1   -1    0    0    0  501  0.00000000000E+00  0.00000000000E+00  0.15759899403E+04  0.15759899403E+04  0.50400001928E-02 0. -1.
        1   -1    0    0  501    0  0.00000000000E+00  0.00000000000E+00 -0.23264981568E+04  0.23264981568E+04  0.50400001928E-02 0.  1.
    10030    2    1    2    0    0  0.00000000000E+00  0.00000000000E+00 -0.75050821650E+03  0.39024880971E+04  0.38296410752E+04 0.  0.
        4    1    3    3  502    0 -0.11513250673E+04  0.13782806672E+04  0.30170865732E+03  0.18210537430E+04  0.12699999809E+01 0. -1.
       -4    1    3    3    0  502  0.11513250673E+04 -0.13782806672E+04 -0.10522168738E+04  0.20814343541E+04  0.12699999809E+01 0.  1.
</event>
<event>
 5   0  0.1187925E-07  0.3863876E+04  0.7818609E-02  0.8032584E-01
       -3   -1    0    0    0  501  0.00000000000E+00  0.00000000000E+00  0.21326956142E+04  0.21326956166E+04  0.10100000352E+00 0. -1.
        3   -1    0    0  501    0  0.00000000000E+00  0.00000000000E+00 -0.17500787628E+04  0.17500787657E+04  0.10100000352E+00 0.  1.
    10030    2    1    2    0    0  0.00000000000E+00  0.00000000000E+00  0.38261685140E+03  0.38827743823E+04  0.38638764536E+04 0.  0.
        5    1    3    3  502    0  0.36925973758E+03 -0.13004638898E+04 -0.11955881862E+04  0.18047194473E+04  0.46999998093E+01 0.  1.
       -5    1    3    3    0  502 -0.36925973758E+03  0.13004638898E+04  0.15782050376E+04  0.20780549351E+04  0.46999998093E+01 0. -1.
</event>
<event>
 5   0  0.1187925E-07  0.3920018E+04  0.7818609E-02  0.8020879E-01
       -1   -1    0    0    0  501  0.00000000000E+00  0.00000000000E+00  0.11620178693E+04  0.11620178693E+04  0.50400001928E-02 0.  1.
        1   -1    0    0  501    0  0.00000000000E+00  0.00000000000E+00 -0.33060031745E+04  0.33060031745E+04  0.50400001928E-02 0. -1.
    10030    2    1    2    0    0  0.00000000000E+00  0.00000000000E+00 -0.21439853052E+04  0.44680210438E+04  0.39200177370E+04 0.  0.
        4    1    3    3  502    0  0.12856589555E+04 -0.87305794024E+03 -0.24333139393E+04  0.28872421888E+04  0.12699999809E+01 0. -1.
       -4    1    3    3    0  502 -0.12856589555E+04  0.87305794024E+03  0.28932863412E+03  0.15807788549E+04  0.12699999809E+01 0.  1.
</event>
<event>
 5   0  0.1187925E-07  0.3973372E+04  0.7818609E-02  0.8009940E-01
        1   -1    0    0  501    0  0.00000000000E+00  0.00000000000E+00  0.30324392980E+04  0.30324392980E+04  0.50400001928E-02 0.  1.
       -1   -1    0    0    0  501  0.00000000000E+00  0.00000000000E+00 -0.13015664646E+04  0.13015664646E+04  0.50400001928E-02 0. -1.
    10030    2    1    2    0    0  0.00000000000E+00  0.00000000000E+00  0.17308728335E+04  0.43340057626E+04  0.39733720169E+04 0.  0.
        5    1    3    3  502    0 -0.15088976364E+04 -0.12733882134E+04  0.11059232048E+04  0.22630461427E+04  0.46999998093E+01 0.  1.
       -5    1    3    3    0  502  0.15088976364E+04  0.12733882134E+04  0.62494962864E+03  0.20709596199E+04  0.46999998093E+01 0. -1.
</event>
<event>
 5   0  0.3665303E-07  0.3823480E+04  0.7818609E-02  0.8041135E-01
        2   -1    0    0  501    0  0.00000000000E+00  0.00000000000E+00  0.25440492790E+04  0.25440492790E+04  0.25500000920E-02 0. -1.
       -2   -1    0    0    0  501  0.00000000000E+00  0.00000000000E+00 -0.14365879694E+04  0.14365879694E+04  0.25500000920E-02 0.  1.
    10030    2    1    2    0    0  0.00000000000E+00  0.00000000000E+00  0.11074613096E+04  0.39806372483E+04  0.38234803975E+04 0.  0.
        2    1    3    3  502    0 -0.15834409873E+04  0.10711871912E+04  0.54871294625E+03  0.19889226371E+04  0.25500000920E-02 0.  1.
       -2    1    3    3    0  502  0.15834409873E+04 -0.10711871912E+04  0.55874836335E+03  0.19917146112E+04  0.25500000920E-02 0. -1.
</event>
<event>
 5   0  0.3610483E-07  0.3856830E+04  0.7818609E-02  0.8034068E-01
       -2   -1    0    0    0  501  0.00000000000E+00  0.00000000000E+00  0.13157803905E+04  0.13157803905E+04  0.25500000920E-02 0.  1.
        2   -1    0    0  501    0  0.00000000000E+00  0.00000000000E+00 -0.28262957672E+04  0.28262957672E+04  0.25500000920E-02 0. -1.
    10030    2    1    2    0    0  0.00000000000E+00  0.00000000000E+00 -0.15105153767E+04  0.41420761577E+04  0.38568300706E+04 0.  0.
        4    1    3    3  502    0  0.61776293643E+03 -0.12102484551E+04  0.71432069687E+03  0.15351182494E+04  0.12699999809E+01 0.  1.
       -4    1    3    3    0  502 -0.61776293643E+03  0.12102484551E+04 -0.22248360736E+04  0.26069579083E+04  0.12699999809E+01 0. -1.
</event>
<event>
 5   0  0.3810833E-07  0.3921934E+04  0.7818609E-02  0.8020483E-01
       -2   -1    0    0    0  501  0.00000000000E+00  0.00000000000E+00  0.20109021055E+04  0.20109021055E+04  0.25500000920E-02 0.  1.
        2   -1    0    0  501    0  0.00000000000E+00  0.00000000000E+00 -0.19122718843E+04  0.19122718843E+04  0.25500000920E-02 0. -1.
    10030    2    1    2    0    0  0.00000000000E+00  0.00000000000E+00  0.98630221235E+02  0.39231739898E+04  0.39219339915E+04 0.  0.
        3    1    3    3  502    0  0.40516180654E+03  0.72407709971E+03  0.18266570566E+04  0.20062701086E+04  0.10100000352E+00 0.  1.
       -3    1    3    3    0  502 -0.40516180654E+03 -0.72407709971E+03 -0.17280268354E+04  0.19169038812E+04  0.10100000352E+00 0. -1.
</event>
<event>
 5   0  0.3832389E-07  0.3887455E+04  0.7818609E-02  0.8027643E-01
       -2   -1    0    0    0  501  0.00000000000E+00  0.00000000000E+00  0.14491136434E+04  0.14491136434E+04  0.25500000920E-02 0.  1.
        2   -1    0    0  501    0  0.00000000000E+00  0.00000000000E+00 -0.26071641718E+04  0.26071641718E+04  0.25500000920E-02 0. -1.
    10030    2    1    2    0    0  0.00000000000E+00  0.00000000000E+00 -0.11580505285E+04  0.40562778152E+04  0.38874552972E+04 0.  0.
        5    1    3    3  502    0  0.52653208258E+03  0.17552396326E+04  0.97155117588E+02  0.18350922071E+04  0.46999998093E+01 0.  1.
       -5    1    3    3    0  502 -0.52653208258E+03 -0.17552396326E+04 -0.12552056461E+04  0.22211856081E+04  0.46999998093E+01 0. -1.
</event>
<event>
 5   0  0.1187925E-07  0.3480186E+04  0.7818609E-02  0.8118502E-01
       -1   -1    0    0    0  501  0.00000000000E+00  0.00000000000E+00  0.21552200717E+04  0.21552200717E+04  0.50400001928E-02 0. -1.
        1   -1    0    0  501    0  0.00000000000E+00  0.00000000000E+00 -0.14049258548E+04  0.14049258548E+04  0.50400001928E-02 0.  1.
    10030    2    1    2    0    0  0.00000000000E+00  0.00000000000E+00  0.75029421690E+03  0.35601459266E+04  0.34801864327E+04 0.  0.
        4    1    3    3  502    0  0.55675527162E+03 -0.20275032868E+03 -0.12985481585E+04  0.14273447590E+04  0.12699999809E+01 0.  1.
       -4    1    3    3    0  502 -0.55675527162E+03  0.20275032868E+03  0.20488423754E+04  0.21328011676E+04  0.12699999809E+01 0. -1.
</event>
<event>
 5   0  0.1187925E-07  0.4137849E+04  0.7818609E-02  0.7977301E-01
       -1   -1    0    0    0  501  0.00000000000E+00  0.00000000000E+00  0.23310404687E+04  0.23310404687E+04  0.50400001928E-02 0. -1.
        1   -1    0    0  501    0  0.00000000000E+00  0.00000000000E+00 -0.18362820457E+04  0.18362820457E+04  0.50400001928E-02 0.  1.
    10030    2    1    2    0    0  0.00000000000E+00  0.00000000000E+00  0.49475842296E+03  0.41673225144E+04  0.41378486006E+04 0.  0.
        1    1    3    3  502    0 -0.16670265243E+04  0.66428396771E+03 -0.78961380059E+03  0.19605459894E+04  0.50400001928E-02 0.  1.
       -1    1    3    3    0  502  0.16670265243E+04 -0.66428396771E+03  0.12843722235E+04  0.22067765250E+04  0.50400001928E-02 0. -1.
</event>
<event>
 5   0  0.3810833E-07  0.3885377E+04  0.7818609E-02  0.8028077E-01
        2   -1    0    0  501    0  0.00000000000E+00  0.00000000000E+00  0.21180496510E+04  0.21180496510E+04  0.25500000920E-02 0. -1.
       -2   -1    0    0    0  501  0.00000000000E+00  0.00000000000E+00 -0.17818463632E+04  0.17818463632E+04  0.25500000920E-02 0.  1.
    10030    2    1    2    0    0  0.00000000000E+00  0.00000000000E+00  0.33620328781E+03  0.38998960143E+04  0.38853772367E+04 0.  0.
        3    1    3    3  502    0 -0.22852048795E+03 -0.14467337714E+04  0.14491068507E+04  0.20603812496E+04  0.10100000352E+00 0. -1.
       -3    1    3    3    0  502  0.22852048795E+03  0.14467337714E+04 -0.11129035629E+04  0.18395147646E+04  0.10100000352E+00 0.  1.
</event>
<event>
 5   0  0.3680814E-07  0.3793886E+04  0.7818609E-02  0.8047468E-01
        2   -1    0    0  501    0  0.00000000000E+00  0.00000000000E+00  0.24572909298E+04  0.24572909298E+04  0.25500000920E-02 0.  1.
       -2   -1    0    0    0  501  0.00000000000E+00  0.00000000000E+00 -0.14643740758E+04  0.14643740758E+04  0.25500000920E-02 0. -1.
    10030    2    1    2    0    0  0.00000000000E+00  0.00000000000E+00  0.99291685396E+03  0.39216650056E+04  0.37938862051E+04 0.  0.
        1    1    3    3  502    0 -0.53947950420E+03 -0.14348843902E+04  0.16514367124E+04  0.22532586544E+04  0.50400001928E-02 0.  1.
       -1    1    3    3    0  502  0.53947950420E+03  0.14348843902E+04 -0.65851985843E+03  0.16684063512E+04  0.50400001928E-02 0. -1.
</event>
<event>
 5   0  0.3810833E-07  0.3878007E+04  0.7818609E-02  0.8029619E-01
       -2   -1    0    0    0  501  0.00000000000E+00  0.00000000000E+00  0.17074812839E+04  0.17074812839E+04  0.25500000920E-02 0.  1.
        2   -1    0    0  501    0  0.00000000000E+00  0.00000000000E+00 -0.22019180968E+04  0.22019180968E+04  0.25500000920E-02 0. -1.
    10030    2    1    2    0    0  0.00000000000E+00  0.00000000000E+00 -0.49443681292E+03  0.39093993807E+04  0.38780066730E+04 0.  0.
        3    1    3    3  502    0  0.16555302991E+04 -0.66037542369E+03  0.52241292768E+03  0.18573614481E+04  0.10100000352E+00 0.  1.
       -3    1    3    3    0  502 -0.16555302991E+04  0.66037542369E+03 -0.10168497406E+04  0.20520379326E+04  0.10100000352E+00 0. -1.
</event>
<event>
 5   0  0.1187925E-07  0.3884281E+04  0.7818609E-02  0.8028306E-01
        1   -1    0    0  501    0  0.00000000000E+00  0.00000000000E+00  0.11813249814E+04  0.11813249814E+04  0.50400001928E-02 0. -1.
       -1   -1    0    0    0  501  0.00000000000E+00  0.00000000000E+00 -0.31929491126E+04  0.31929491126E+04  0.50400001928E-02 0.  1.
    10030    2    1    2    0    0  0.00000000000E+00  0.00000000000E+00 -0.20116241311E+04  0.43742740940E+04  0.38842814270E+04 0.  0.
        3    1    3    3  502    0 -0.10606055753E+04  0.75935421456E+02 -0.28360219447E+04  0.30288068369E+04  0.10100000352E+00 0.  1.
       -3    1    3    3    0  502  0.10606055753E+04 -0.75935421456E+02  0.82439781353E+03  0.13454672571E+04  0.10100000352E+00 0. -1.
</event>
<event>
 5   0  0.3665303E-07  0.3948576E+04  0.7818609E-02  0.8015002E-01
       -2   -1    0    0    0  501  0.00000000000E+00  0.00000000000E+00  0.14627097569E+04  0.14627097569E+04  0.25500000920E-02 0. -1.
        2   -1    0    0  501    0  0.00000000000E+00  0.00000000000E+00 -0.26647886147E+04  0.26647886147E+04  0.25500000920E-02 0.  1.
    10030    2    1    2    0    0  0.00000000000E+00  0.00000000000E+00 -0.12020788579E+04  0.41274983716E+04  0.39485755947E+04 0.  0.
        2    1    3    3  502    0 -0.87442697349E+03 -0.55541941748E+03 -0.23578807813E+04  0.25754058011E+04  0.25500000920E-02 0.  1.
       -2    1    3    3    0  502  0.87442697349E+03  0.55541941748E+03  0.11558019235E+04  0.15520925706E+04  0.25500000920E-02 0. -1.
</event>
<event>
 5   0  0.1187925E-07  0.3206582E+04  0.7818609E-02  0.8187081E-01
       -1   -1    0    0    0  501  0.00000000000E+00  0.00000000000E+00  0.17390571775E+04  0.17390571775E+04  0.50400001928E-02 0.  1.
        1   -1    0    0  501    0  0.00000000000E+00  0.00000000000E+00 -0.14781234969E+04  0.14781234969E+04  0.50400001928E-02 0. -1.
    10030    2    1    2    0    0  0.00000000000E+00  0.00000000000E+00  0.26093368066E+03  0.32171806744E+04  0.32065815296E+04 0.  0.
        1    1    3    3  502    0 -0.69962831865E+03 -0.32594118675E+03 -0.12794624887E+04  0.14942361599E+04  0.50400001928E-02 0. -1.
       -1    1    3    3    0  502  0.69962831865E+03  0.32594118675E+03  0.15403961694E+04  0.17229445145E+04  0.50400001928E-02 0.  1.
</event>
<event>
 5   0  0.3810833E-07  0.3809925E+04  0.7818609E-02  0.8044028E-01
       -2   -1    0    0    0  501  0.00000000000E+00  0.00000000000E+00  0.12588417102E+04  0.12588417102E+04  0.25500000920E-02 0. -1.
        2   -1    0    0  501    0  0.00000000000E+00  0.00000000000E+00 -0.28827146267E+04  0.28827146267E+04  0.25500000920E-02 0.  1.
    10030    2    1    2    0    0  0.00000000000E+00  0.00000000000E+00 -0.16238729165E+04  0.41415563369E+04  0.38099246243E+04 0.  0.
        3    1    3    3  502    0  0.10783952752E+04 -0.13584349147E+04 -0.16682896881E+04  0.24065477932E+04  0.10100000352E+00 0.  1.
       -3    1    3    3    0  502 -0.10783952752E+04  0.13584349147E+04  0.44416771637E+02  0.17350085438E+04  0.10100000352E+00 0. -1.
</event>
<event>
 5   0  0.3665303E-07  0.3851987E+04  0.7818609E-02  0.8035090E-01
       -2   -1    0    0    0  501  0.00000000000E+00  0.00000000000E+00  0.24096929440E+04  0.24096929440E+04  0.25500000920E-02 0. -1.
        2   -1    0    0  501    0  0.00000000000E+00  0.00000000000E+00 -0.15393874103E+04  0.15393874103E+04  0.25500000920E-02 0.  1.
    10030    2    1    2    0    0  0.00000000000E+00  0.00000000000E+00  0.87030553372E+03  0.39490803542E+04  0.38519870096E+04 0.  0.
        2    1    3    3  502    0  0.11814917486E+04 -0.12398461195E+04 -0.46814034628E+03  0.17754707928E+04  0.25500000920E-02 0.  1.
       -2    1    3    3    0  502 -0.11814917486E+04  0.12398461195E+04  0.13384458800E+04  0.21736095615E+04  0.25500000920E-02 0. -1.
</event>
<event>
 5   0  0.1187925E-07  0.3718272E+04  0.7818609E-02  0.8063925E-01
       -1   -1    0    0    0  501  0.00000000000E+00  0.00000000000E+00  0.17445148218E+04  0.17445148218E+04  0.50400001928E-02 0.  1.
        1   -1    0    0  501    0  0.00000000000E+00  0.00000000000E+00 -0.19812883182E+04  0.19812883182E+04  0.50400001928E-02 0. -1.
    10030    2    1    2    0    0  0.00000000000E+00  0.00000000000E+00 -0.23677349644E+03  0.37258031400E+04  0.37182720919E+04 0.  0.
        1    1    3    3  502    0 -0.71115958936E+03  0.16840637091E+04 -0.45755170302E+03  0.18844553852E+04  0.50400001928E-02 0. -1.
       -1    1    3    3    0  502  0.71115958936E+03 -0.16840637091E+04  0.22077820658E+03  0.18413477549E+04  0.50400001928E-02 0.  1.
</event>
<event>
 5   0  0.3832389E-07  0.3815990E+04  0.7818609E-02  0.8042732E-01
       -2   -1    0    0    0  501  0.00000000000E+00  0.00000000000E+00  0.17207448571E+04  0.17207448571E+04  0.25500000920E-02 0. -1.
        2   -1    0    0  501    0  0.00000000000E+00  0.00000000000E+00 -0.21156215534E+04  0.21156215534E+04  0.25500000920E-02 0.  1.
    10030    2    1    2    0    0  0.00000000000E+00  0.00000000000E+00 -0.39487669636E+03  0.38363664105E+04  0.38159899934E+04 0.  0.
        5    1    3    3  502    0  0.18451351692E+04 -0.25775497742E+02 -0.68503812509E+03  0.19683717869E+04  0.46999998093E+01 0.  1.
       -5    1    3    3    0  502 -0.18451351692E+04  0.25775497742E+02  0.29016142874E+03  0.18679946235E+04  0.46999998093E+01 0. -1.
</event>
<event>
 5   0  0.3665303E-07  0.3858570E+04  0.7818609E-02  0.8033701E-01
       -2   -1    0    0    0  501  0.00000000000E+00  0.00000000000E+00  0.29153261905E+04  0.29153261905E+04  0.25500000920E-02 0.  1.
        2   -1    0    0  501    0  0.00000000000E+00  0.00000000000E+00 -0.12767493958E+04  0.12767493958E+04  0.25500000920E-02 0. -1.
    10030    2    1    2    0    0  0.00000000000E+00  0.00000000000E+00  0.16385767946E+04  0.41920755863E+04  0.38585701768E+04 0.  0.
        2    1    3    3  502    0  0.32384212719E+03  0.11391205313E+04  0.24739757912E+04  0.27428134321E+04  0.25500000920E-02 0.  1.
       -2    1    3    3    0  502 -0.32384212719E+03 -0.11391205313E+04 -0.83539899653E+03  0.14492621542E+04  0.25500000920E-02 0. -1.
</event>
<event>
 5   0  0.3832389E-07  0.3986348E+04  0.7818609E-02  0.8007306E-01
       -2   -1    0    0    0  501  0.00000000000E+00  0.00000000000E+00  0.29067692016E+04  0.29067692016E+04  0.25500000920E-02 0.  1.
        2   -1    0    0  501    0  0.00000000000E+00  0.00000000000E+00 -0.13667209149E+04  0.13667209149E+04  0.25500000920E-02 0. -1.
    10030    2    1    2    0    0  0.00000000000E+00  0.00000000000E+00  0.15400482868E+04  0.42734901165E+04  0.39863478336E+04 0.  0.
        5    1    3    3  502    0  0.13141162110E+04 -0.14985869107E+04  0.77804847514E+03  0.21396368067E+04  0.46999998093E+01 0. -1.
       -5    1    3    3    0  502 -0.13141162110E+04  0.14985869107E+04  0.76199981164E+03  0.21338533098E+04  0.46999998093E+01 0.  1.
</event>
<event>
 5   0  0.1187925E-07  0.3882947E+04  0.7818609E-02  0.8028585E-01
        1   -1    0    0  501    0  0.00000000000E+00  0.00000000000E+00  0.22200119224E+04  0.22200119224E+04  0.50400001928E-02 0. -1.
       -1   -1    0    0    0  501  0.00000000000E+00  0.00000000000E+00 -0.16978821969E+04  0.16978821969E+04  0.50400001928E-02 0.  1.
    10030    2    1    2    0    0  0.00000000000E+00  0.00000000000E+00  0.52212972547E+03  0.39178941193E+04  0.38829466749E+04 0.  0.
        1    1    3    3  502    0 -0.12734693898E+04 -0.82123385971E+03  0.14857307209E+04  0.21221557705E+04  0.50400001928E-02 0. -1.
       -1    1    3    3    0  502  0.12734693898E+04  0.82123385971E+03 -0.96360099542E+03  0.17957383489E+04  0.50400001928E-02 0.  1.
</event>
<event>
 5   0  0.3610483E-07  0.3072925E+04  0.7818609E-02  0.8223208E-01
        2   -1    0    0  501    0  0.00000000000E+00  0.00000000000E+00  0.21250021659E+04  0.21250021659E+04  0.25500000920E-02 0.  1.
       -2   -1    0    0    0  501  0.00000000000E+00  0.00000000000E+00 -0.11109242213E+04  0.11109242213E+04  0.25500000920E-02 0. -1.
    10030    2    1    2    0    0  0.00000000000E+00  0.00000000000E+00  0.10140779446E+04  0.32359263872E+04  0.30729245851E+04 0.  0.
        4    1    3    3  502    0 -0.86639842095E+02 -0.84067063089E+03  0.18582560278E+04  0.20414089863E+04  0.12699999809E+01 0.  1.
       -4    1    3    3    0  502  0.86639842095E+02  0.84067063089E+03 -0.84417808316E+03  0.11945174008E+04  0.12699999809E+01 0. -1.
</event>
<event>
 5   0  0.3810833E-07  0.3985550E+04  0.7818609E-02  0.8007468E-01
       -2   -1    0    0    0  501  0.00000000000E+00  0.00000000000E+00  0.18994748327E+04  0.18994748327E+04  0.25500000920E-02 0. -1.
        2   -1    0    0  501    0  0.00000000000E+00  0.00000000000E+00 -0.20906580373E+04  0.20906580373E+04  0.25500000920E-02 0.  1.
    10030    2    1    2    0    0  0.00000000000E+00  0.00000000000E+00 -0.19118320455E+03  0.39901328700E+04  0.39855500628E+04 0.  0.
        3    1    3    3  502    0 -0.42029739929E+03  0.75322866880E+03  0.17029007558E+04  0.19088934820E+04  0.10100000352E+00 0. -1.
       -3    1    3    3    0  502  0.42029739929E+03 -0.75322866880E+03 -0.18940839603E+04  0.20812393880E+04  0.10100000352E+00 0.  1.
</event>
<event>
 5   0  0.3832389E-07  0.3895558E+04  0.7818609E-02  0.8025954E-01
        2   -1    0    0  501    0  0.00000000000E+00  0.00000000000E+00  0.26440487742E+04  0.26440487742E+04  0.25500000920E-02 0. -1.
       -2   -1    0    0    0  501  0.00000000000E+00  0.00000000000E+00 -0.14348610737E+04  0.14348610737E+04  0.25500000920E-02 0.  1.
    10030    2    1    2    0    0  0.00000000000E+00  0.00000000000E+00  0.12091877004E+04  0.40789098479E+04  0.38955578102E+04 0.  0.
        5    1    3    3  502    0 -0.11464352880E+04  0.14650162339E+04  0.12090282816E+04  0.22186387518E+04  0.46999998093E+01 0. -1.
       -5    1    3    3    0  502  0.11464352880E+04 -0.14650162339E+04  0.15941878171E+00  0.18602710961E+04  0.46999998093E+01 0.  1.
</event>
<event>
 5   0  0.3810833E-07  0.3981407E+04  0.7818609E-02  0.8008308E-01
        2   -1    0    0  501    0  0.00000000000E+00  0.00000000000E+00  0.11420954186E+04  0.11420954186E+04  0.25500000920E-02 0.  1.
       -2   -1    0    0    0  501  0.00000000000E+00  0.00000000000E+00 -0.34698512945E+04  0.34698512945E+04  0.25500000920E-02 0. -1.
    10030    2    1    2    0    0  0.00000000000E+00  0.00000000000E+00 -0.23277558759E+04  0.46119467131E+04  0.39814074229E+04 0.  0.
        3    1    3    3  502    0  0.27342070572E+03  0.87015953843E+03  0.88580529358E+03  0.12714509558E+04  0.10100000352E+00 0.  1.
       -3    1    3    3    0  502 -0.27342070572E+03 -0.87015953843E+03 -0.32135611694E+04  0.33404957573E+04  0.10100000352E+00 0. -1.
</event>
<event>
 5   0  0.1187925E-07  0.3624569E+04  0.7818609E-02  0.8084887E-01
       -1   -1    0    0    0  501  0.00000000000E+00  0.00000000000E+00  0.11177121989E+04  0.11177121990E+04  0.50400001928E-02 0. -1.
        1   -1    0    0  501    0  0.00000000000E+00  0.00000000000E+00 -0.29384805811E+04  0.29384805811E+04  0.50400001928E-02 0.  1.
    10030    2    1    2    0    0  0.00000000000E+00  0.00000000000E+00 -0.18207683822E+04  0.40561927801E+04  0.36245692665E+04 0.  0.
        3    1    3    3  502    0 -0.16149835760E+04  0.37120091783E+03 -0.17315297687E+04  0.23966971903E+04  0.10100000352E+00 0.  1.
       -3    1    3    3    0  502  0.16149835760E+04 -0.37120091783E+03 -0.89238613477E+02  0.16594955897E+04  0.10100000352E+00 0. -1.
</event>
<event>
 5   0  0.1187925E-07  0.3782867E+04  0.7818609E-02  0.8049842E-01
       -1   -1    0    0    0  501  0.00000000000E+00  0.00000000000E+00  0.12517144810E+04  0.12517144810E+04  0.50400001928E-02 0.  1.
        1   -1    0    0  501    0  0.00000000000E+00  0.00000000000E+00 -0.28580961485E+04  0.28580961485E+04  0.50400001928E-02 0. -1.
    10030    2    1    2    0    0  0.00000000000E+00  0.00000000000E+00 -0.16063816675E+04  0.41098106296E+04  0.37828668162E+04 0.  0.
        3    1    3    3  502    0 -0.12861756981E+04  0.55688453909E+03  0.57667990978E+03  0.15155619567E+04  0.10100000352E+00 0.  1.
       -3    1    3    3    0  502  0.12861756981E+04 -0.55688453909E+03 -0.21830615773E+04  0.25942486728E+04  0.10100000352E+00 0. -1.
</event>
<event>
 5   0  0.3610483E-07  0.3938498E+04  0.7818609E-02  0.8017070E-01
       -2   -1    0    0    0  501  0.00000000000E+00  0.00000000000E+00  0.18646181408E+04  0.18646181408E+04  0.25500000920E-02 0.  1.
        2   -1    0    0  501    0  0.00000000000E+00  0.00000000000E+00 -0.20797508945E+04  0.20797508945E+04  0.25500000920E-02 0. -1.
    10030    2    1    2    0    0  0.00000000000E+00  0.00000000000E+00 -0.21513275377E+03  0.39443690353E+04  0.39384978082E+04 0.  0.
        4    1    3    3  502    0 -0.13114046094E+04 -0.14024346043E+03  0.13569710647E+04  0.18923060960E+04  0.12699999809E+01 0.  1.
       -4    1    3    3    0  502  0.13114046094E+04  0.14024346043E+03 -0.15721038185E+04  0.20520629393E+04  0.12699999809E+01 0. -1.
</event>
<event>
 5   0  0.1187925E-07  0.3965096E+04  0.7818609E-02  0.8011625E-01
        1   -1    0    0  501    0  0.00000000000E+00  0.00000000000E+00  0.27478420949E+04  0.27478420949E+04  0.50400001928E-02 0. -1.
       -1   -1    0    0    0  501  0.00000000000E+00  0.00000000000E+00 -0.14303936953E+04  0.14303936953E+04  0.50400001928E-02 0.  1.
    10030    2    1    2    0    0  0.00000000000E+00  0.00000000000E+00  0.13174483995E+04  0.41782357902E+04  0.39650957155E+04 0.  0.
        5    1    3    3  502    0  0.15977225414E+04 -0.46857155079E+02 -0.57716403370E+03  0.16994273518E+04  0.46999998093E+01 0.  1.
       -5    1    3    3    0  502 -0.15977225414E+04  0.46857155079E+02  0.18946124332E+04  0.24788084384E+04  0.46999998093E+01 0. -1.
</event>
<event>
 5   0  0.1187925E-07  0.3779030E+04  0.7818609E-02  0.8050670E-01
       -1   -1    0    0    0  501  0.00000000000E+00  0.00000000000E+00  0.17547724823E+04  0.17547724823E+04  0.50400001928E-02 0. -1.
        1   -1    0    0  501    0  0.00000000000E+00  0.00000000000E+00 -0.20346036568E+04  0.20346036568E+04  0.50400001928E-02 0.  1.
    10030    2    1    2    0    0  0.00000000000E+00  0.00000000000E+00 -0.27983117452E+03  0.37893761391E+04  0.37790297746E+04 0.  0.
        5    1    3    3  502    0 -0.14489658228E+04 -0.84468719750E+03 -0.10124968781E+04  0.19591249158E+04  0.46999998093E+01 0.  1.
       -5    1    3    3    0  502  0.14489658228E+04  0.84468719750E+03  0.73266570362E+03  0.18302512234E+04  0.46999998093E+01 0. -1.
</event>
<event>
 5   0  0.1187925E-07  0.3813876E+04  0.7818609E-02  0.8043184E-01
       -1   -1    0    0    0  501  0.00000000000E+00  0.00000000000E+00  0.17670528286E+04  0.17670528286E+04  0.50400001928E-02 0.  1.
        1   -1    0    0  501    0  0.00000000000E+00  0.00000000000E+00 -0.20578970726E+04  0.20578970726E+04  0.50400001928E-02 0. -1.
    10030    2    1    2    0    0  0.00000000000E+00  0.00000000000E+00 -0.29084424400E+03  0.38249499012E+04  0.38138761611E+04 0.  0.
        3    1    3    3  502    0 -0.74616925826E+03  0.14264892480E+04  0.87968693648E+03  0.18345269835E+04  0.10100000352E+00 0.  1.
       -3    1    3    3    0  502  0.74616925826E+03 -0.14264892480E+04 -0.11705311805E+04  0.19904229177E+04  0.10100000352E+00 0. -1.
</event>
<event>
 5   0  0.3680814E-07  0.3989008E+04  0.7818609E-02  0.8006768E-01
       -2   -1    0    0    0  501  0.00000000000E+00  0.00000000000E+00  0.15539171816E+04  0.15539171816E+04  0.25500000920E-02 0. -1.
        2   -1    0    0  501    0  0.00000000000E+00  0.00000000000E+00 -0.25600122138E+04  0.25600122138E+04  0.25500000920E-02 0.  1.
    10030    2    1    2    0    0  0.00000000000E+00  0.00000000000E+00 -0.10060950322E+04  0.41139293954E+04  0.39890083800E+04 0.  0.
        1    1    3    3  502    0 -0.17918419584E+04 -0.26111032596E+03  0.35930237574E+03  0.18460699888E+04  0.50400001928E-02 0. -1.
       -1    1    3    3    0  502  0.17918419584E+04  0.26111032596E+03 -0.13653974080E+04  0.22678594066E+04  0.50400001928E-02 0.  1.
</event>
<event>
 5   0  0.1187925E-07  0.3883823E+04  0.7818609E-02  0.8028402E-01
        1   -1    0    0  501    0  0.00000000000E+00  0.00000000000E+00  0.24524704021E+04  0.24524704021E+04  0.50400001928E-02 0.  1.
       -1   -1    0    0    0  501  0.00000000000E+00  0.00000000000E+00 -0.15376414565E+04  0.15376414565E+04  0.50400001928E-02 0. -1.
    10030    2    1    2    0    0  0.00000000000E+00  0.00000000000E+00  0.91482894558E+03  0.39901118586E+04  0.38838229419E+04 0.  0.
        2    1    3    3  502    0 -0.10899558642E+04 -0.46791574402E+03  0.20370464875E+04  0.23572244954E+04  0.25500000920E-02 0.  1.
       -2    1    3    3    0  502  0.10899558642E+04  0.46791574402E+03 -0.11222175420E+04  0.16328873632E+04  0.25500000920E-02 0. -1.
</event>
<event>
 5   0  0.1187925E-07  0.3828427E+04  0.7818609E-02  0.8040082E-01
       -1   -1    0    0    0  501  0.00000000000E+00  0.00000000000E+00  0.16111252637E+04  0.16111252637E+04  0.50400001928E-02 0. -1.
        1   -1    0    0  501    0  0.00000000000E+00  0.00000000000E+00 -0.22743196868E+04  0.22743196868E+04  0.50400001928E-02 0.  1.
    10030    2    1    2    0    0  0.00000000000E+00  0.00000000000E+00 -0.66319442307E+03  0.38854449505E+04  0.38284273039E+04 0.  0.
        3    1    3    3  502    0  0.43004472032E+03  0.12060199845E+04 -0.17757411473E+04  0.21892188783E+04  0.10100000352E+00 0.  1.
       -3    1    3    3    0  502 -0.43004472032E+03 -0.12060199845E+04  0.11125467242E+04  0.16962260723E+04  0.10100000352E+00 0. -1.
</event>
<event>
 5   0  0.1187925E-07  0.3858297E+04  0.7818609E-02  0.8033759E-01
        1   -1    0    0  501    0  0.00000000000E+00  0.00000000000E+00  0.23854465399E+04  0.23854465399E+04  0.50400001928E-02 0. -1.
       -1   -1    0    0    0  501  0.00000000000E+00  0.00000000000E+00 -0.15601331307E+04  0.15601331308E+04  0.50400001928E-02 0.  1.
    10030    2    1    2    0    0  0.00000000000E+00  0.00000000000E+00  0.82531340916E+03  0.39455796707E+04  0.38582971262E+04 0.  0.
        2    1    3    3  502    0  0.16887744345E+04  0.93050674726E+03  0.34951626359E+03  0.19595824851E+04  0.25500000920E-02 0.  1.
       -2    1    3    3    0  502 -0.16887744345E+04 -0.93050674726E+03  0.47579714557E+03  0.19859971856E+04  0.25500000920E-02 0. -1.
</event>
<event>
 5   0  0.1187925E-07  0.3864036E+04  0.7818609E-02  0.8032551E-01
       -1   -1    0    0    0  501  0.00000000000E+00  0.00000000000E+00  0.30222005155E+04  0.30222005155E+04  0.50400001928E-02 0.  1.
        1   -1    0    0  501    0  0.00000000000E+00  0.00000000000E+00 -0.12350911629E+04  0.12350911629E+04  0.50400001928E-02 0. -1.
    10030    2    1    2    0    0  0.00000000000E+00  0.00000000000E+00  0.17871093526E+04  0.42572916784E+04  0.38640357913E+04 0.  0.
        3    1    3    3  502    0  0.11461764298E+03  0.66341098124E+03 -0.11016719400E+04  0.12910973657E+04  0.10100000352E+00 0. -1.
       -3    1    3    3    0  502 -0.11461764298E+03 -0.66341098124E+03  0.28887812926E+04  0.29661943127E+04  0.10100000352E+00 0.  1.
</event>
<event>
 5   0  0.3832389E-07  0.3900097E+04  0.7818609E-02  0.8025009E-01
        2   -1    0    0  501    0  0.00000000000E+00  0.00000000000E+00  0.28333643240E+04  0.28333643240E+04  0.25500000920E-02 0.  1.
       -2   -1    0    0    0  501  0.00000000000E+00  0.00000000000E+00 -0.13421110974E+04  0.13421110974E+04  0.25500000920E-02 0. -1.
    10030    2    1    2    0    0  0.00000000000E+00  0.00000000000E+00  0.14912532266E+04  0.41754754214E+04  0.39000972820E+04 0.  0.
        5    1    3    3  502    0 -0.10600236684E+04  0.16176889435E+04  0.10124205780E+04  0.21830220366E+04  0.46999998093E+01 0. -1.
       -5    1    3    3    0  502  0.10600236684E+04 -0.16176889435E+04  0.47883264859E+03  0.19924533848E+04  0.46999998093E+01 0.  1.
</event>
<event>
 5   0  0.3680814E-07  0.3877264E+04  0.7818609E-02  0.8029774E-01
        2   -1    0    0  501    0  0.00000000000E+00  0.00000000000E+00  0.19735029282E+04  0.19735029282E+04  0.25500000920E-02 0. -1.
       -2   -1    0    0    0  501  0.00000000000E+00  0.00000000000E+00 -0.19043776929E+04  0.19043776929E+04  0.25500000920E-02 0.  1.
    10030    2    1    2    0    0  0.00000000000E+00  0.00000000000E+00  0.69125235334E+02  0.38778806211E+04  0.38772644756E+04 0.  0.
        1    1    3    3  502    0 -0.72766544886E+03  0.47649919934E+03  0.17673928362E+04  0.19698289088E+04  0.50400001928E-02 0. -1.
       -1    1    3    3    0  502  0.72766544886E+03 -0.47649919934E+03 -0.16982676009E+04  0.19080517123E+04  0.50400001928E-02 0.  1.
</event>
<event>
 5   0  0.1187925E-07  0.3653711E+04  0.7818609E-02  0.8078298E-01
        1   -1    0    0  501    0  0.00000000000E+00  0.00000000000E+00  0.28881858648E+04  0.28881858649E+04  0.50400001928E-02 0. -1.
       -1   -1    0    0    0  501  0.00000000000E+00  0.00000000000E+00 -0.11555356768E+04  0.11555356768E+04  0.50400001928E-02 0.  1.
    10030    2    1    2    0    0  0.00000000000E+00  0.00000000000E+00  0.17326501880E+04  0.40437215417E+04  0.36537114326E+04 0.  0.
        1    1    3    3  502    0 -0.11796602039E+04  0.99356733439E+03 -0.21728228439E+03  0.15575576509E+04  0.50400001928E-02 0.  1.
       -1    1    3    3    0  502  0.11796602039E+04 -0.99356733439E+03  0.19499324724E+04  0.24861638908E+04  0.50400001928E-02 0. -1.
</event>
<event>
 5   0  0.3665303E-07  0.3856740E+04  0.7818609E-02  0.8034087E-01
        2   -1    0    0  501    0  0.00000000000E+00  0.00000000000E+00  0.19207413288E+04  0.19207413288E+04  0.25500000920E-02 0. -1.
       -2   -1    0    0    0  501  0.00000000000E+00  0.00000000000E+00 -0.19360288326E+04  0.19360288326E+04  0.25500000920E-02 0.  1.
    10030    2    1    2    0    0  0.00000000000E+00  0.00000000000E+00 -0.15287503832E+02  0.38567701614E+04  0.38567398629E+04 0.  0.
        2    1    3    3  502    0  0.18128830481E+04  0.41272714883E+03 -0.51923544375E+03  0.19304129329E+04  0.25500000920E-02 0.  1.
       -2    1    3    3    0  502 -0.18128830481E+04 -0.41272714883E+03  0.50394793992E+03  0.19263572285E+04  0.25500000920E-02 0. -1.
</event>
<event>
 5   0  0.3832389E-07  0.3949561E+04  0.7818609E-02  0.8014800E-01
       -2   -1    0    0    0  501  0.00000000000E+00  0.00000000000E+00  0.15589527356E+04  0.15589527356E+04  0.25500000920E-02 0. -1.
        2   -1    0    0  501    0  0.00000000000E+00  0.00000000000E+00 -0.25015247239E+04  0.25015247239E+04  0.25500000920E-02 0.  1.
    10030    2    1    2    0    0  0.00000000000E+00  0.00000000000E+00 -0.94257198833E+03  0.40604774595E+04  0.39495613992E+04 0.  0.
        5    1    3    3  502    0  0.23339252997E+03 -0.19493259425E+04 -0.69032565840E+03  0.20810851275E+04  0.46999998093E+01 0. -1.
       -5    1    3    3    0  502 -0.23339252997E+03  0.19493259425E+04 -0.25224632994E+03  0.19793923321E+04  0.46999998093E+01 0.  1.
</event>
<event>
 5   0  0.1187925E-07  0.3705846E+04  0.7818609E-02  0.8066668E-01
        1   -1    0    0  501    0  0.00000000000E+00  0.00000000000E+00  0.27729560077E+04  0.27729560077E+04  0.50400001928E-02 0.  1.
       -1   -1    0    0    0  501  0.00000000000E+00  0.00000000000E+00 -0.12381455081E+04  0.12381455081E+04  0.50400001928E-02 0. -1.
    10030    2    1    2    0    0  0.00000000000E+00  0.00000000000E+00  0.15348104997E+04  0.40111015158E+04  0.37058456660E+04 0.  0.
        2    1    3    3  502    0 -0.11320925987E+04 -0.11347767225E+04 -0.23865953675E+03  0.16205894719E+04  0.25500000920E-02 0. -1.
       -2    1    3    3    0  502  0.11320925987E+04  0.11347767225E+04  0.17734700364E+04  0.23905120439E+04  0.25500000920E-02 0.  1.
</event>
<event>
 5   0  0.3665303E-07  0.3530151E+04  0.7818609E-02  0.8106681E-01
        2   -1    0    0  501    0  0.00000000000E+00  0.00000000000E+00  0.12554740437E+04  0.12554740437E+04  0.25500000920E-02 0.  1.
       -2   -1    0    0    0  501  0.00000000000E+00  0.00000000000E+00 -0.24815266655E+04  0.24815266655E+04  0.25500000920E-02 0. -1.
    10030    2    1    2    0    0  0.00000000000E+00  0.00000000000E+00 -0.12260526218E+04  0.37370007093E+04  0.35301514514E+04 0.  0.
        2    1    3    3  502    0  0.90812488888E+02 -0.12123849751E+04  0.74154852161E+03  0.14240851259E+04  0.25500000920E-02 0.  1.
       -2    1    3    3    0  502 -0.90812488888E+02  0.12123849751E+04 -0.19676011434E+04  0.23129155833E+04  0.25500000920E-02 0. -1.
</event>
<event>
 5   0  0.3810833E-07  0.3745304E+04  0.7818609E-02  0.8057995E-01
        2   -1    0    0  501    0  0.00000000000E+00  0.00000000000E+00  0.23873364001E+04  0.23873364001E+04  0.25500000920E-02 0. -1.
       -2   -1    0    0    0  501  0.00000000000E+00  0.00000000000E+00 -0.14689279944E+04  0.14689279944E+04  0.25500000920E-02 0.  1.
    10030    2    1    2    0    0  0.00000000000E+00  0.00000000000E+00  0.91840840572E+03  0.38562643945E+04  0.37453038703E+04 0.  0.
        3    1    3    3  502    0 -0.15177982034E+04 -0.51819481898E+03  0.14545863431E+04  0.21651925310E+04  0.10100000352E+00 0. -1.
       -3    1    3    3    0  502  0.15177982034E+04  0.51819481898E+03 -0.53617793736E+03  0.16910718635E+04  0.10100000352E+00 0.  1.
</event>
<event>
 5   0  0.1187925E-07  0.3801632E+04  0.7818609E-02  0.8045805E-01
       -3   -1    0    0    0  501  0.00000000000E+00  0.00000000000E+00  0.11613449881E+04  0.11613449925E+04  0.10100000352E+00 0.  1.
        3   -1    0    0  501    0  0.00000000000E+00  0.00000000000E+00 -0.31111350840E+04  0.31111350856E+04  0.10100000352E+00 0. -1.
    10030    2    1    2    0    0  0.00000000000E+00  0.00000000000E+00 -0.19497900959E+04  0.42724800782E+04  0.38016318339E+04 0.  0.
        5    1    3    3  502    0  0.23546869281E+03 -0.79859797687E+03  0.94550676646E+03  0.12598449783E+04  0.46999998093E+01 0.  1.
       -5    1    3    3    0  502 -0.23546869281E+03  0.79859797687E+03 -0.28952968623E+04  0.30126350999E+04  0.46999998093E+01 0. -1.
</event>
<event>
 5   0  0.1187925E-07  0.4043616E+04  0.7818609E-02  0.7995805E-01
       -1   -1    0    0    0  501  0.00000000000E+00  0.00000000000E+00  0.32902925244E+04  0.32902925244E+04  0.50400001928E-02 0. -1.
        1   -1    0    0  501    0  0.00000000000E+00  0.00000000000E+00 -0.12423541508E+04  0.12423541508E+04  0.50400001928E-02 0.  1.
    10030    2    1    2    0    0  0.00000000000E+00  0.00000000000E+00  0.20479383736E+04  0.45326466753E+04  0.40436164878E+04 0.  0.
        5    1    3    3  502    0  0.18299127950E+04  0.97597163440E+02  0.66513904717E+02  0.18337263245E+04  0.46999998093E+01 0. -1.
       -5    1    3    3    0  502 -0.18299127950E+04 -0.97597163440E+02  0.19814244689E+04  0.26989203507E+04  0.46999998093E+01 0.  1.
</event>
<event>
 5   0  0.3680814E-07  0.2785352E+04  0.7818609E-02  0.8307830E-01
        2   -1    0    0  501    0  0.00000000000E+00  0.00000000000E+00  0.21954800924E+04  0.21954800924E+04  0.25500000920E-02 0.  1.
       -2   -1    0    0    0  501  0.00000000000E+00  0.00000000000E+00 -0.88342720362E+03  0.88342720362E+03  0.25500000920E-02 0. -1.
    10030    2    1    2    0    0  0.00000000000E+00  0.00000000000E+00  0.13120528888E+04  0.30789072960E+04  0.27853522855E+04 0.  0.
        1    1    3    3  502    0 -0.89590890025E+03  0.10612797157E+04  0.76972316699E+03  0.15879046402E+04  0.50400001928E-02 0. -1.
       -1    1    3    3    0  502  0.89590890025E+03 -0.10612797157E+04  0.54232972177E+03  0.14910026558E+04  0.50400001928E-02 0.  1.
</event>
<event>
 5   0  0.1187925E-07  0.3930292E+04  0.7818609E-02  0.8018758E-01
       -1   -1    0    0    0  501  0.00000000000E+00  0.00000000000E+00  0.21783093834E+04  0.21783093834E+04  0.50400001928E-02 0.  1.
        1   -1    0    0  501    0  0.00000000000E+00  0.00000000000E+00 -0.17728418869E+04  0.17728418869E+04  0.50400001928E-02 0. -1.
    10030    2    1    2    0    0  0.00000000000E+00  0.00000000000E+00  0.40546749644E+03  0.39511512703E+04  0.39302916521E+04 0.  0.
        4    1    3    3  502    0 -0.80763918229E+03  0.32249069979E+02  0.20034622501E+04  0.21603665549E+04  0.12699999809E+01 0.  1.
       -4    1    3    3    0  502  0.80763918229E+03 -0.32249069979E+02 -0.15979947536E+04  0.17907847154E+04  0.12699999809E+01 0. -1.
</event>
<event>
 5   0  0.1187925E-07  0.3677934E+04  0.7818609E-02  0.8072870E-01
       -1   -1    0    0    0  501  0.00000000000E+00  0.00000000000E+00  0.25896903907E+04  0.25896903907E+04  0.50400001928E-02 0. -1.
        1   -1    0    0  501    0  0.00000000000E+00  0.00000000000E+00 -0.13058704322E+04  0.13058704322E+04  0.50400001928E-02 0.  1.
    10030    2    1    2    0    0  0.00000000000E+00  0.00000000000E+00  0.12838199585E+04  0.38955608229E+04  0.36779342624E+04 0.  0.
        2    1    3    3  502    0  0.10243412594E+04  0.89433426481E+03 -0.66936379527E+03  0.15156373852E+04  0.25500000920E-02 0.  1.
       -2    1    3    3    0  502 -0.10243412594E+04 -0.89433426481E+03  0.19531837538E+04  0.23799234377E+04  0.25500000920E-02 0. -1.
</event>
<event>
 5   0  0.3610483E-07  0.3856568E+04  0.7818609E-02  0.8034123E-01
        2   -1    0    0  501    0  0.00000000000E+00  0.00000000000E+00  0.14066000978E+04  0.14066000978E+04  0.25500000920E-02 0. -1.
       -2   -1    0    0    0  501  0.00000000000E+00  0.00000000000E+00 -0.26434518368E+04  0.26434518368E+04  0.25500000920E-02 0.  1.
    10030    2    1    2    0    0  0.00000000000E+00  0.00000000000E+00 -0.12368517391E+04  0.40500519346E+04  0.38565682217E+04 0.  0.
        4    1    3    3  502    0  0.51078188247E+03  0.11070435832E+04 -0.21873088616E+04  0.25041496152E+04  0.12699999809E+01 0.  1.
       -4    1    3    3    0  502 -0.51078188247E+03 -0.11070435832E+04  0.95045712250E+03  0.15459023194E+04  0.12699999809E+01 0. -1.
</event>
<event>
 5   0  0.3665303E-07  0.3891899E+04  0.7818609E-02  0.8026716E-01
       -2   -1    0    0    0  501  0.00000000000E+00  0.00000000000E+00  0.26913566492E+04  0.26913566492E+04  0.25500000920E-02 0.  1.
        2   -1    0    0  501    0  0.00000000000E+00  0.00000000000E+00 -0.14069930600E+04  0.14069930600E+04  0.25500000920E-02 0. -1.
    10030    2    1    2    0    0  0.00000000000E+00  0.00000000000E+00  0.12843635892E+04  0.40983497092E+04  0.38918993447E+04 0.  0.
        2    1    3    3  502    0 -0.14767885446E+03 -0.15001447726E+04 -0.65373977510E+03  0.16430517571E+04  0.25500000920E-02 0. -1.
       -2    1    3    3    0  502  0.14767885446E+03  0.15001447726E+04  0.19381033643E+04  0.24552979521E+04  0.25500000920E-02 0.  1.
</event>
<event>
 5   0  0.3810833E-07  0.3796447E+04  0.7818609E-02  0.8046918E-01
       -2   -1    0    0    0  501  0.00000000000E+00  0.00000000000E+00  0.22203044221E+04  0.22203044221E+04  0.25500000920E-02 0. -1.
        2   -1    0    0  501    0  0.00000000000E+00  0.00000000000E+00 -0.16228643047E+04  0.16228643048E+04  0.25500000920E-02 0.  1.
    10030    2    1    2    0    0  0.00000000000E+00  0.00000000000E+00  0.59744011734E+03  0.38431687268E+04  0.37964471772E+04 0.  0.
        3    1    3    3  502    0 -0.47854262837E+03 -0.57254236258E+03 -0.14681668766E+04  0.16469128064E+04  0.10100000352E+00 0.  1.
       -3    1    3    3    0  502  0.47854262837E+03  0.57254236258E+03  0.20656069940E+04  0.21962559204E+04  0.10100000352E+00 0. -1.
</event>
<event>
 5   0  0.1187925E-07  0.3775698E+04  0.7818609E-02  0.8051390E-01
       -4   -1    0    0    0  501  0.00000000000E+00  0.00000000000E+00  0.20661965864E+04  0.20661969767E+04  0.12699999809E+01 0. -1.
        4   -1    0    0  501    0  0.00000000000E+00  0.00000000000E+00 -0.17248947328E+04  0.17248952003E+04  0.12699999809E+01 0.  1.
    10030    2    1    2    0    0  0.00000000000E+00  0.00000000000E+00  0.34130185363E+03  0.37910921770E+04  0.37756976758E+04 0.  0.
        1    1    3    3  502    0 -0.11801783485E+04  0.12970250129E+04  0.87270015046E+03  0.19587496958E+04  0.50400001928E-02 0. -1.
       -1    1    3    3    0  502  0.11801783485E+04 -0.12970250129E+04 -0.53139829683E+03  0.18323424812E+04  0.50400001928E-02 0.  1.
</event>
<event>
 5   0  0.3610483E-07  0.3324662E+04  0.7818609E-02  0.8156648E-01
       -2   -1    0    0    0  501  0.00000000000E+00  0.00000000000E+00  0.10056524823E+04  0.10056524823E+04  0.25500000920E-02 0. -1.
        2   -1    0    0  501    0  0.00000000000E+00  0.00000000000E+00 -0.27478131362E+04  0.27478131362E+04  0.25500000920E-02 0.  1.
    10030    2    1    2    0    0  0.00000000000E+00  0.00000000000E+00 -0.17421606540E+04  0.37534656185E+04  0.33246624498E+04 0.  0.
        4    1    3    3  502    0 -0.10648779099E+04  0.12738359185E+04 -0.77852781667E+03  0.18337748184E+04  0.12699999809E+01 0. -1.
       -4    1    3    3    0  502  0.10648779099E+04 -0.12738359185E+04 -0.96363283730E+03  0.19196908002E+04  0.12699999809E+01 0.  1.
</event>
<event>
 5   0  0.3810833E-07  0.3912167E+04  0.7818609E-02  0.8022504E-01
        2   -1    0    0  501    0  0.00000000000E+00  0.00000000000E+00  0.27915994611E+04  0.27915994611E+04  0.25500000920E-02 0. -1.
       -2   -1    0    0    0  501  0.00000000000E+00  0.00000000000E+00 -0.13706342079E+04  0.13706342079E+04  0.25500000920E-02 0.  1.
    10030    2    1    2    0    0  0.00000000000E+00  0.00000000000E+00  0.14209652532E+04  0.41622336691E+04  0.39121665181E+04 0.  0.
        3    1    3    3  502    0  0.38154600837E+03  0.19060157904E+04  0.47790428776E+03  0.20017157811E+04  0.10100000352E+00 0. -1.
       -3    1    3    3    0  502 -0.38154600837E+03 -0.19060157904E+04  0.94306096544E+03  0.21605178880E+04  0.10100000352E+00 0.  1.
</event>
<event>
 5   0  0.1187925E-07  0.3900600E+04  0.7818609E-02  0.8024904E-01
       -1   -1    0    0    0  501  0.00000000000E+00  0.00000000000E+00  0.19154536170E+04  0.19154536170E+04  0.50400001928E-02 0. -1.
        1   -1    0    0  501    0  0.00000000000E+00  0.00000000000E+00 -0.19857800601E+04  0.19857800601E+04  0.50400001928E-02 0.  1.
    10030    2    1    2    0    0  0.00000000000E+00  0.00000000000E+00 -0.70326443122E+02  0.39012336771E+04  0.39005997481E+04 0.  0.
        3    1    3    3  502    0  0.24997696040E+03  0.12115542020E+04  0.14728342940E+04  0.19234325912E+04  0.10100000352E+00 0. -1.
       -3    1    3    3    0  502 -0.24997696040E+03 -0.12115542020E+04 -0.15431607371E+04  0.19778010860E+04  0.10100000352E+00 0.  1.
</event>
<event>
 5   0  0.3680814E-07  0.3885572E+04  0.7818609E-02  0.8028037E-01
        2   -1    0    0  501    0  0.00000000000E+00  0.00000000000E+00  0.16944280473E+04  0.16944280473E+04  0.25500000920E-02 0. -1.
       -2   -1    0    0    0  501  0.00000000000E+00  0.00000000000E+00 -0.22275467030E+04  0.22275467030E+04  0.25500000920E-02 0.  1.
    10030    2    1    2    0    0  0.00000000000E+00  0.00000000000E+00 -0.53311865576E+03  0.39219747503E+04  0.38855720867E+04 0.  0.
        1    1    3    3  502    0  0.13346357455E+04 -0.45811609710E+03 -0.16144708309E+04  0.21442105763E+04  0.50400001928E-02 0.  1.
       -1    1    3    3    0  502 -0.13346357455E+04  0.45811609710E+03  0.10813521751E+04  0.17777641740E+04  0.50400001928E-02 0. -1.
</event>
<event>
 5   0  0.1187925E-07  0.3937991E+04  0.7818609E-02  0.8017174E-01
       -1   -1    0    0    0  501  0.00000000000E+00  0.00000000000E+00  0.27186866773E+04  0.27186866773E+04  0.50400001928E-02 0.  1.
        1   -1    0    0  501    0  0.00000000000E+00  0.00000000000E+00 -0.14260350599E+04  0.14260350599E+04  0.50400001928E-02 0. -1.
    10030    2    1    2    0    0  0.00000000000E+00  0.00000000000E+00  0.12926516174E+04  0.41447217372E+04  0.39379906139E+04 0.  0.
        2    1    3    3  502    0  0.67131427615E+03 -0.25589278478E+03  0.25758131884E+04  0.26741274383E+04  0.25500000920E-02 0.  1.
       -2    1    3    3    0  502 -0.67131427615E+03  0.25589278478E+03 -0.12831615710E+04  0.14705942989E+04  0.25500000920E-02 0. -1.
</event>
<event>
 5   0  0.1187925E-07  0.3880271E+04  0.7818609E-02  0.8029145E-01
       -1   -1    0    0    0  501  0.00000000000E+00  0.00000000000E+00  0.24944066908E+04  0.24944066908E+04  0.50400001928E-02 0. -1.
        1   -1    0    0  501    0  0.00000000000E+00  0.00000000000E+00 -0.15090266463E+04  0.15090266463E+04  0.50400001928E-02 0.  1.
    10030    2    1    2    0    0  0.00000000000E+00  0.00000000000E+00  0.98538004447E+03  0.40034333371E+04  0.38802712087E+04 0.  0.
        1    1    3    3  502    0  0.82602249782E+03  0.16693874056E+04 -0.67649318726E+02  0.18637982475E+04  0.50400001928E-02 0.  1.
       -1    1    3    3    0  502 -0.82602249782E+03 -0.16693874056E+04  0.10530293632E+04  0.21396350896E+04  0.50400001928E-02 0. -1.
</event>
<event>
 5   0  0.3610483E-07  0.3676429E+04  0.7818609E-02  0.8073206E-01
       -2   -1    0    0    0  501  0.00000000000E+00  0.00000000000E+00  0.14820644691E+04  0.14820644691E+04  0.25500000920E-02 0.  1.
        2   -1    0    0  501    0  0.00000000000E+00  0.00000000000E+00 -0.22799503025E+04  0.22799503025E+04  0.25500000920E-02 0. -1.
    10030    2    1    2    0    0  0.00000000000E+00  0.00000000000E+00 -0.79788583340E+03  0.37620147715E+04  0.36764294279E+04 0.  0.
        4    1    3    3  502    0  0.13488943933E+04  0.20234806144E+03  0.86204753852E+03  0.16135638797E+04  0.12699999809E+01 0.  1.
       -4    1    3    3    0  502 -0.13488943933E+04 -0.20234806144E+03 -0.16599333719E+04  0.21484508918E+04  0.12699999809E+01 0. -1.
</event>
<event>
 5   0  0.3610483E-07  0.3899395E+04  0.7818609E-02  0.8025155E-01
       -2   -1    0    0    0  501  0.00000000000E+00  0.00000000000E+00  0.15473096701E+04  0.15473096701E+04  0.25500000920E-02 0.  1.
        2   -1    0    0  501    0  0.00000000000E+00  0.00000000000E+00 -0.24567284394E+04  0.24567284394E+04  0.25500000920E-02 0. -1.
    10030    2    1    2    0    0  0.00000000000E+00  0.00000000000E+00 -0.90941876932E+03  0.40040381096E+04  0.38993946562E+04 0.  0.
        4    1    3    3  502    0  0.88201596493E+03  0.13826085758E+04  0.62798633426E+03  0.17561113533E+04  0.12699999809E+01 0.  1.
       -4    1    3    3    0  502 -0.88201596493E+03 -0.13826085758E+04 -0.15374051036E+04  0.22479267563E+04  0.12699999809E+01 0. -1.
</event>
<event>
 5   0  0.3610483E-07  0.3898370E+04  0.7818609E-02  0.8025368E-01
       -2   -1    0    0    0  501  0.00000000000E+00  0.00000000000E+00  0.16027960460E+04  0.16027960460E+04  0.25500000920E-02 0. -1.
        2   -1    0    0  501    0  0.00000000000E+00  0.00000000000E+00 -0.23704333480E+04  0.23704333480E+04  0.25500000920E-02 0.  1.
    10030    2    1    2    0    0  0.00000000000E+00  0.00000000000E+00 -0.76763730198E+03  0.39732293940E+04  0.38983695040E+04 0.  0.
        4    1    3    3  502    0 -0.18131197875E+04 -0.60672806262E+03  0.26693118248E+01  0.19119443099E+04  0.12699999809E+01 0.  1.
       -4    1    3    3    0  502  0.18131197875E+04  0.60672806262E+03 -0.77030661380E+03  0.20612850841E+04  0.12699999809E+01 0. -1.
</event>
<event>
 5   0  0.1187925E-07  0.3994324E+04  0.7818609E-02  0.8005693E-01
        1   -1    0    0  501    0  0.00000000000E+00  0.00000000000E+00  0.14076212914E+04  0.14076212914E+04  0.50400001928E-02 0. -1.
       -1   -1    0    0    0  501  0.00000000000E+00  0.00000000000E+00 -0.28336144093E+04  0.28336144093E+04  0.50400001928E-02 0.  1.
    10030    2    1    2    0    0  0.00000000000E+00  0.00000000000E+00 -0.14259931179E+04  0.42412357006E+04  0.39943239598E+04 0.  0.
        1    1    3    3  502    0 -0.12887097103E+04  0.28938780317E+03  0.87765076285E+03  0.15858085886E+04  0.50400001928E-02 0. -1.
       -1    1    3    3    0  502  0.12887097103E+04 -0.28938780317E+03 -0.23036438808E+04  0.26554271121E+04  0.50400001928E-02 0.  1.
</event>
<event>
 5   0  0.3810833E-07  0.3840569E+04  0.7818609E-02  0.8037505E-01
       -2   -1    0    0    0  501  0.00000000000E+00  0.00000000000E+00  0.19708513945E+04  0.19708513945E+04  0.25500000920E-02 0.  1.
        2   -1    0    0  501    0  0.00000000000E+00  0.00000000000E+00 -0.18710149982E+04  0.18710149982E+04  0.25500000920E-02 0. -1.
    10030    2    1    2    0    0  0.00000000000E+00  0.00000000000E+00  0.99836396238E+02  0.38418663927E+04  0.38405689778E+04 0.  0.
        3    1    3    3  502    0 -0.17003464488E+04  0.59244467094E+03 -0.61763307475E+03  0.19035859212E+04  0.10100000352E+00 0. -1.
       -3    1    3    3    0  502  0.17003464488E+04 -0.59244467094E+03  0.71746947099E+03  0.19382804715E+04  0.10100000352E+00 0.  1.
</event>
<event>
 5   0  0.3680814E-07  0.3711407E+04  0.7818609E-02  0.8065439E-01
        2   -1    0    0  501    0  0.00000000000E+00  0.00000000000E+00  0.23203138815E+04  0.23203138815E+04  0.25500000920E-02 0. -1.
       -2   -1    0    0    0  501  0.00000000000E+00  0.00000000000E+00 -0.14841250001E+04  0.14841250002E+04  0.25500000920E-02 0.  1.
    10030    2    1    2    0    0  0.00000000000E+00  0.00000000000E+00  0.83618888138E+03  0.38044388817E+04  0.37114071939E+04 0.  0.
        1    1    3    3  502    0  0.64785233421E+03 -0.17388977446E+04  0.43097225610E+03  0.19050498940E+04  0.50400001928E-02 0. -1.
       -1    1    3    3    0  502 -0.64785233421E+03  0.17388977446E+04  0.40521662529E+03  0.18993889877E+04  0.50400001928E-02 0.  1.
</event>
<event>
 5   0  0.1187925E-07  0.3875908E+04  0.7818609E-02  0.8030059E-01
       -1   -1    0    0    0  501  0.00000000000E+00  0.00000000000E+00  0.17834369071E+04  0.17834369072E+04  0.50400001928E-02 0. -1.
        1   -1    0    0  501    0  0.00000000000E+00  0.00000000000E+00 -0.21058584689E+04  0.21058584689E+04  0.50400001928E-02 0.  1.
    10030    2    1    2    0    0  0.00000000000E+00  0.00000000000E+00 -0.32242156174E+03  0.38892953760E+04  0.38759080044E+04 0.  0.
        2    1    3    3  502    0 -0.10560187150E+04 -0.16249080984E+04 -0.17405577955E+03  0.19457125350E+04  0.25500000920E-02 0.  1.
       -2    1    3    3    0  502  0.10560187150E+04  0.16249080984E+04 -0.14836578219E+03  0.19435828410E+04  0.25500000920E-02 0. -1.
</event>
<event>
 5   0  0.1187925E-07  0.3909594E+04  0.7818609E-02  0.8023037E-01
        1   -1    0    0  501    0  0.00000000000E+00  0.00000000000E+00  0.14732081090E+04  0.14732081090E+04  0.50400001928E-02 0.  1.
       -1   -1    0    0    0  501  0.00000000000E+00  0.00000000000E+00 -0.25938159013E+04  0.25938159013E+04  0.50400001928E-02 0. -1.
    10030    2    1    2    0    0  0.00000000000E+00  0.00000000000E+00 -0.11206077923E+04  0.40670240102E+04  0.39095936458E+04 0.  0.
        1    1    3    3  502    0  0.12060489580E+03  0.10535643173E+04  0.11479814350E+04  0.15628194671E+04  0.50400001928E-02 0.  1.
       -1    1    3    3    0  502 -0.12060489580E+03 -0.10535643173E+04 -0.22685892273E+04  0.25042045431E+04  0.50400001928E-02 0. -1.
</event>
<event>
 5   0  0.1187925E-07  0.3095526E+04  0.7818609E-02  0.8216967E-01
       -1   -1    0    0    0  501  0.00000000000E+00  0.00000000000E+00  0.12699583028E+04  0.12699583029E+04  0.50400001928E-02 0. -1.
        1   -1    0    0  501    0  0.00000000000E+00  0.00000000000E+00 -0.18863380166E+04  0.18863380167E+04  0.50400001928E-02 0.  1.
    10030    2    1    2    0    0  0.00000000000E+00  0.00000000000E+00 -0.61637971380E+03  0.31562963195E+04  0.30955262081E+04 0.  0.
        2    1    3    3  502    0 -0.14757359597E+04 -0.30469725328E+03 -0.66858828579E+03  0.16485288395E+04  0.25500000920E-02 0.  1.
       -2    1    3    3    0  502  0.14757359597E+04  0.30469725328E+03  0.52208571985E+02  0.15077674800E+04  0.25500000920E-02 0. -1.
</event>
<event>
 5   0  0.3810833E-07  0.4032433E+04  0.7818609E-02  0.7998035E-01
       -2   -1    0    0    0  501  0.00000000000E+00  0.00000000000E+00  0.19459048783E+04  0.19459048783E+04  0.25500000920E-02 0.  1.
        2   -1    0    0  501    0  0.00000000000E+00  0.00000000000E+00 -0.20890691911E+04  0.20890691911E+04  0.25500000920E-02 0. -1.
    10030    2    1    2    0    0  0.00000000000E+00  0.00000000000E+00 -0.14316431287E+03  0.40349740694E+04  0.40324334738E+04 0.  0.
        3    1    3    3  502    0 -0.21795258052E+03 -0.54424670955E+03 -0.20018963487E+04  0.20859762245E+04  0.10100000352E+00 0. -1.
       -3    1    3    3    0  502  0.21795258052E+03  0.54424670955E+03  0.18587320358E+04  0.19489978449E+04  0.10100000352E+00 0.  1.
</event>
<event>
 5   0  0.1187925E-07  0.3909977E+04  0.7818609E-02  0.8022957E-01
        1   -1    0    0  501    0  0.00000000000E+00  0.00000000000E+00  0.17181072547E+04  0.17181072547E+04  0.50400001928E-02 0.  1.
       -1   -1    0    0    0  501  0.00000000000E+00  0.00000000000E+00 -0.22245295199E+04  0.22245295199E+04  0.50400001928E-02 0. -1.
    10030    2    1    2    0    0  0.00000000000E+00  0.00000000000E+00 -0.50642226523E+03  0.39426367746E+04  0.39099771388E+04 0.  0.
        2    1    3    3  502    0  0.13620101125E+04  0.10416710514E+04 -0.12001131232E+04  0.20929456836E+04  0.25500000920E-02 0. -1.
       -2    1    3    3    0  502 -0.13620101125E+04 -0.10416710514E+04  0.69369085793E+03  0.18496910911E+04  0.25500000920E-02 0.  1.
</event>
<event>
 5   0  0.3665303E-07  0.3910379E+04  0.7818609E-02  0.8022874E-01
        2   -1    0    0  501    0  0.00000000000E+00  0.00000000000E+00  0.27922180644E+04  0.27922180644E+04  0.25500000920E-02 0. -1.
       -2   -1    0    0    0  501  0.00000000000E+00  0.00000000000E+00 -0.13690786550E+04  0.13690786550E+04  0.25500000920E-02 0.  1.
    10030    2    1    2    0    0  0.00000000000E+00  0.00000000000E+00  0.14231394094E+04  0.41612967194E+04  0.39103790875E+04 0.  0.
        2    1    3    3  502    0  0.49352847037E+03  0.12213033445E+04 -0.82600036592E+03  0.15548082888E+04  0.25500000920E-02 0.  1.
       -2    1    3    3    0  502 -0.49352847037E+03 -0.12213033445E+04  0.22491397753E+04  0.26064884306E+04  0.25500000920E-02 0. -1.
</event>
<event>
 5   0  0.1187925E-07  0.3918859E+04  0.7818609E-02  0.8021118E-01
        1   -1    0    0  501    0  0.00000000000E+00  0.00000000000E+00  0.26672802774E+04  0.26672802774E+04  0.50400001928E-02 0. -1.
       -1   -1    0    0    0  501  0.00000000000E+00  0.00000000000E+00 -0.14394303657E+04  0.14394303657E+04  0.50400001928E-02 0.  1.
    10030    2    1    2    0    0  0.00000000000E+00  0.00000000000E+00  0.12278499116E+04  0.41067106431E+04  0.39188591325E+04 0.  0.
        3    1    3    3  502    0 -0.97424156956E+03  0.64955024196E+03 -0.10324683977E+04  0.15611063882E+04  0.10100000352E+00 0.  1.
       -3    1    3    3    0  502  0.97424156956E+03 -0.64955024196E+03  0.22603183094E+04  0.25456042549E+04  0.10100000352E+00 0. -1.
</event>
<event>
 5   0  0.1187925E-07  0.3908082E+04  0.7818609E-02  0.8023350E-01
        1   -1    0    0  501    0  0.00000000000E+00  0.00000000000E+00  0.21668960881E+04  0.21668960881E+04  0.50400001928E-02 0.  1.
       -1   -1    0    0    0  501  0.00000000000E+00  0.00000000000E+00 -0.17620945519E+04  0.17620945519E+04  0.50400001928E-02 0. -1.
    10030    2    1    2    0    0  0.00000000000E+00  0.00000000000E+00  0.40480153616E+03  0.39289906400E+04  0.39080817757E+04 0.  0.
        1    1    3    3  502    0 -0.16516722222E+04 -0.28903670383E+03 -0.80631792814E+03  0.18605676411E+04  0.50400001928E-02 0. -1.
       -1    1    3    3    0  502  0.16516722222E+04  0.28903670383E+03  0.12111194643E+04  0.20684229989E+04  0.50400001928E-02 0.  1.
</event>
<event>
 5   0  0.3610483E-07  0.3875057E+04  0.7818609E-02  0.8030237E-01
        2   -1    0    0  501    0  0.00000000000E+00  0.00000000000E+00  0.24202785783E+04  0.24202785783E+04  0.25500000920E-02 0. -1.
       -2   -1    0    0    0  501  0.00000000000E+00  0.00000000000E+00 -0.15510678536E+04  0.15510678536E+04  0.25500000920E-02 0.  1.
    10030    2    1    2    0    0  0.00000000000E+00  0.00000000000E+00  0.86921072470E+03  0.39713464319E+04  0.38750567994E+04 0.  0.
        4    1    3    3  502    0 -0.95423690702E+03  0.66462130726E+03  0.20228644610E+04  0.23332963372E+04  0.12699999809E+01 0. -1.
       -4    1    3    3    0  502  0.95423690702E+03 -0.66462130726E+03 -0.11536537363E+04  0.16380500947E+04  0.12699999809E+01 0.  1.
</event>
<event>
 5   0  0.3832389E-07  0.3887655E+04  0.7818609E-02  0.8027602E-01
        2   -1    0    0  501    0  0.00000000000E+00  0.00000000000E+00  0.20606186289E+04  0.20606186289E+04  0.25500000920E-02 0. -1.
       -2   -1    0    0    0  501  0.00000000000E+00  0.00000000000E+00 -0.18336558484E+04  0.18336558484E+04  0.25500000920E-02 0.  1.
    10030    2    1    2    0    0  0.00000000000E+00  0.00000000000E+00  0.22696278048E+03  0.38942744773E+04  0.38876550259E+04 0.  0.
        5    1    3    3  502    0 -0.11661861550E+04  0.20093096186E+03  0.16582095367E+04  0.20371657657E+04  0.46999998093E+01 0. -1.
       -5    1    3    3    0  502  0.11661861550E+04 -0.20093096186E+03 -0.14312467562E+04  0.18571087116E+04  0.46999998093E+01 0.  1.
</event>
<event>
 5   0  0.1187925E-07  0.3752603E+04  0.7818609E-02  0.8056403E-01
       -1   -1    0    0    0  501  0.00000000000E+00  0.00000000000E+00  0.31322352701E+04  0.31322352701E+04  0.50400001928E-02 0.  1.
        1   -1    0    0  501    0  0.00000000000E+00  0.00000000000E+00 -0.11239599115E+04  0.11239599115E+04  0.50400001928E-02 0. -1.
    10030    2    1    2    0    0  0.00000000000E+00  0.00000000000E+00  0.20082753586E+04  0.42561951816E+04  0.37526027645E+04 0.  0.
        2    1    3    3  502    0  0.15794187251E+04 -0.10128089610E+04  0.10185458536E+04  0.21348960529E+04  0.25500000920E-02 0. -1.
       -2    1    3    3    0  502 -0.15794187251E+04  0.10128089610E+04  0.98972950502E+03  0.21212991288E+04  0.25500000920E-02 0.  1.
</event>
<event>
 5   0  0.1187925E-07  0.3870347E+04  0.7818609E-02  0.8031225E-01
       -1   -1    0    0    0  501  0.00000000000E+00  0.00000000000E+00  0.21309955392E+04  0.21309955392E+04  0.50400001928E-02 0. -1.
        1   -1    0    0  501    0  0.00000000000E+00  0.00000000000E+00 -0.17573457755E+04  0.17573457756E+04  0.50400001928E-02 0.  1.
    10030    2    1    2    0    0  0.00000000000E+00  0.00000000000E+00  0.37364976361E+03  0.38883413147E+04  0.38703467589E+04 0.  0.
        2    1    3    3  502    0  0.14835504900E+04  0.23935612507E+03  0.14117897459E+04  0.20618835315E+04  0.25500000920E-02 0. -1.
       -2    1    3    3    0  502 -0.14835504900E+04 -0.23935612507E+03 -0.10381399822E+04  0.18264577832E+04  0.25500000920E-02 0.  1.
</event>
<event>
 5   0  0.1187925E-07  0.3607137E+04  0.7818609E-02  0.8088859E-01
       -1   -1    0    0    0  501  0.00000000000E+00  0.00000000000E+00  0.16649411741E+04  0.16649411741E+04  0.50400001928E-02 0.  1.
        1   -1    0    0  501    0  0.00000000000E+00  0.00000000000E+00 -0.19537379512E+04  0.19537379512E+04  0.50400001928E-02 0. -1.
    10030    2    1    2    0    0  0.00000000000E+00  0.00000000000E+00 -0.28879677710E+03  0.36186791253E+04  0.36071366807E+04 0.  0.
        1    1    3    3  502    0  0.49431380739E+03  0.11969941399E+04 -0.14036910595E+04  0.19098402294E+04  0.50400001928E-02 0. -1.
       -1    1    3    3    0  502 -0.49431380739E+03 -0.11969941399E+04  0.11148942824E+04  0.17088388959E+04  0.50400001928E-02 0.  1.
</event>
<event>
 5   0  0.1187925E-07  0.3924861E+04  0.7818609E-02  0.8019878E-01
       -1   -1    0    0    0  501  0.00000000000E+00  0.00000000000E+00  0.11017828299E+04  0.11017828299E+04  0.50400001928E-02 0.  1.
        1   -1    0    0  501    0  0.00000000000E+00  0.00000000000E+00 -0.34953651894E+04  0.34953651894E+04  0.50400001928E-02 0. -1.
    10030    2    1    2    0    0  0.00000000000E+00  0.00000000000E+00 -0.23935823595E+04  0.45971480194E+04  0.39248609403E+04 0.  0.
        5    1    3    3  502    0  0.16193453694E+04  0.43913424534E+03 -0.46090348027E+01  0.16778443444E+04  0.46999998093E+01 0.  1.
       -5    1    3    3    0  502 -0.16193453694E+04 -0.43913424534E+03 -0.23889733247E+04  0.29193036750E+04  0.46999998093E+01 0. -1.
</event>
<event>
 5   0  0.1187925E-07  0.3606559E+04  0.7818609E-02  0.8088991E-01
       -1   -1    0    0    0  501  0.00000000000E+00  0.00000000000E+00  0.14721698024E+04  0.14721698024E+04  0.50400001928E-02 0. -1.
        1   -1    0    0  501    0  0.00000000000E+00  0.00000000000E+00 -0.22088600044E+04  0.22088600044E+04  0.50400001928E-02 0.  1.
    10030    2    1    2    0    0  0.00000000000E+00  0.00000000000E+00 -0.73669020204E+03  0.36810298068E+04  0.36065590228E+04 0.  0.
        3    1    3    3  502    0  0.16820655048E+04 -0.60211088155E+03 -0.11847347500E+03  0.17905077075E+04  0.10100000352E+00 0. -1.
       -3    1    3    3    0  502 -0.16820655048E+04  0.60211088155E+03 -0.61821672703E+03  0.18905220993E+04  0.10100000352E+00 0.  1.
</event>
<event>
 5   0  0.3680814E-07  0.3608727E+04  0.7818609E-02  0.8088496E-01
        2   -1    0    0  501    0  0.00000000000E+00  0.00000000000E+00  0.19172534290E+04  0.19172534290E+04  0.25500000920E-02 0.  1.
       -2   -1    0    0    0  501  0.00000000000E+00  0.00000000000E+00 -0.16981205958E+04  0.16981205958E+04  0.25500000920E-02 0. -1.
    10030    2    1    2    0    0  0.00000000000E+00  0.00000000000E+00  0.21913283315E+03  0.36153740248E+04  0.36087269418E+04 0.  0.
        1    1    3    3  502    0  0.15599302783E+04  0.89632854400E+03  0.24744332224E+03  0.18160439229E+04  0.50400001928E-02 0. -1.
       -1    1    3    3    0  502 -0.15599302783E+04 -0.89632854400E+03 -0.28310489084E+02  0.17993301020E+04  0.50400001928E-02 0.  1.
</event>
<event>
 5   0  0.1187925E-07  0.3816503E+04  0.7818609E-02  0.8042623E-01
       -1   -1    0    0    0  501  0.00000000000E+00  0.00000000000E+00  0.18211211484E+04  0.18211211484E+04  0.50400001928E-02 0. -1.
        1   -1    0    0  501    0  0.00000000000E+00  0.00000000000E+00 -0.19995504185E+04  0.19995504185E+04  0.50400001928E-02 0.  1.
    10030    2    1    2    0    0  0.00000000000E+00  0.00000000000E+00 -0.17842927004E+03  0.38206715669E+04  0.38165028780E+04 0.  0.
        5    1    3    3  502    0  0.13272986334E+04 -0.89907325627E+03  0.94697491418E+03  0.18619446717E+04  0.46999998093E+01 0. -1.
       -5    1    3    3    0  502 -0.13272986334E+04  0.89907325627E+03 -0.11254041842E+04  0.19587268952E+04  0.46999998093E+01 0.  1.
</event>
<event>
 5   0  0.1187925E-07  0.3931644E+04  0.7818609E-02  0.8018480E-01
       -1   -1    0    0    0  501  0.00000000000E+00  0.00000000000E+00  0.16970982790E+04  0.16970982790E+04  0.50400001928E-02 0.  1.
        1   -1    0    0  501    0  0.00000000000E+00  0.00000000000E+00 -0.22770963971E+04  0.22770963971E+04  0.50400001928E-02 0. -1.
    10030    2    1    2    0    0  0.00000000000E+00  0.00000000000E+00 -0.57999811810E+03  0.39741946761E+04  0.39316441226E+04 0.  0.
        1    1    3    3  502    0  0.12454023413E+04 -0.41078777187E+02  0.12468974037E+04  0.17628010645E+04  0.50400001928E-02 0.  1.
       -1    1    3    3    0  502 -0.12454023413E+04  0.41078777187E+02 -0.18268955218E+04  0.22113936116E+04  0.50400001928E-02 0. -1.
</event>
<event>
 5   0  0.1187925E-07  0.3915079E+04  0.7818609E-02  0.8021900E-01
        1   -1    0    0  501    0  0.00000000000E+00  0.00000000000E+00  0.23268543329E+04  0.23268543329E+04  0.50400001928E-02 0.  1.
       -1   -1    0    0    0  501  0.00000000000E+00  0.00000000000E+00 -0.16468420875E+04  0.16468420875E+04  0.50400001928E-02 0. -1.
    10030    2    1    2    0    0  0.00000000000E+00  0.00000000000E+00  0.68001224536E+03  0.39736964204E+04  0.39150793846E+04 0.  0.
        3    1    3    3  502    0  0.11286989258E+04 -0.95005467578E+03  0.16458917046E+04  0.22103222990E+04  0.10100000352E+00 0.  1.
       -3    1    3    3    0  502 -0.11286989258E+04  0.95005467578E+03 -0.96587945922E+03  0.17633741214E+04  0.10100000352E+00 0. -1.
</event>
<event>
 5   0  0.1187925E-07  0.3917464E+04  0.7818609E-02  0.8021407E-01
        1   -1    0    0  501    0  0.00000000000E+00  0.00000000000E+00  0.23615861975E+04  0.23615861975E+04  0.50400001928E-02 0.  1.
       -1   -1    0    0    0  501  0.00000000000E+00  0.00000000000E+00 -0.16245993418E+04  0.16245993418E+04  0.50400001928E-02 0. -1.
    10030    2    1    2    0    0  0.00000000000E+00  0.00000000000E+00  0.73698685575E+03  0.39861855393E+04  0.39174641706E+04 0.  0.
        4    1    3    3  502    0  0.79948467044E+03 -0.10512047127E+04  0.18403896341E+04  0.22652246477E+04  0.12699999809E+01 0.  1.
       -4    1    3    3    0  502 -0.79948467044E+03  0.10512047127E+04 -0.11034027784E+04  0.17209608916E+04  0.12699999809E+01 0. -1.
</event>
<event>
 5   0  0.1187925E-07  0.4051150E+04  0.7818609E-02  0.7994307E-01
       -1   -1    0    0    0  501  0.00000000000E+00  0.00000000000E+00  0.28203067938E+04  0.28203067938E+04  0.50400001928E-02 0.  1.
        1   -1    0    0  501    0  0.00000000000E+00  0.00000000000E+00 -0.14547903099E+04  0.14547903099E+04  0.50400001928E-02 0. -1.
    10030    2    1    2    0    0  0.00000000000E+00  0.00000000000E+00  0.13655164839E+04  0.42750971037E+04  0.40511504512E+04 0.  0.
        3    1    3    3  502    0  0.27712623677E+03 -0.16568629171E+04  0.18771192514E+04  0.25190415581E+04  0.10100000352E+00 0.  1.
       -3    1    3    3    0  502 -0.27712623677E+03  0.16568629171E+04 -0.51160276754E+03  0.17560555456E+04  0.10100000352E+00 0. -1.
</event>
<event>
 5   0  0.3680814E-07  0.3649109E+04  0.7818609E-02  0.8079334E-01
        2   -1    0    0  501    0  0.00000000000E+00  0.00000000000E+00  0.13932727391E+04  0.13932727391E+04  0.25500000920E-02 0.  1.
       -2   -1    0    0    0  501  0.00000000000E+00  0.00000000000E+00 -0.23893376494E+04  0.23893376494E+04  0.25500000920E-02 0. -1.
    10030    2    1    2    0    0  0.00000000000E+00  0.00000000000E+00 -0.99606491033E+03  0.37826103886E+04  0.36491089386E+04 0.  0.
        1    1    3    3  502    0  0.87827101354E+03 -0.46322193831E+03  0.10886751445E+04  0.14734816279E+04  0.50400001928E-02 0.  1.
       -1    1    3    3    0  502 -0.87827101354E+03  0.46322193831E+03 -0.20847400548E+04  0.23091287607E+04  0.50400001928E-02 0. -1.
</event>
<event>
 5   0  0.3810833E-07  0.4547145E+04  0.7818609E-02  0.7902435E-01
        2   -1    0    0  501    0  0.00000000000E+00  0.00000000000E+00  0.15804968975E+04  0.15804968975E+04  0.25500000920E-02 0.  1.
       -2   -1    0    0    0  501  0.00000000000E+00  0.00000000000E+00 -0.32705742365E+04  0.32705742365E+04  0.25500000920E-02 0. -1.
    10030    2    1    2    0    0  0.00000000000E+00  0.00000000000E+00 -0.16900773390E+04  0.48510711341E+04  0.45471452292E+04 0.  0.
        3    1    3    3  502    0 -0.90836782015E+03 -0.13990912108E+04  0.80306129779E+03  0.18513497161E+04  0.10100000352E+00 0.  1.
       -3    1    3    3    0  502  0.90836782015E+03  0.13990912108E+04 -0.24931386368E+04  0.29997214180E+04  0.10100000352E+00 0. -1.
</event>
<event>
 5   0  0.1187925E-07  0.3899112E+04  0.7818609E-02  0.8025214E-01
        1   -1    0    0  501    0  0.00000000000E+00  0.00000000000E+00  0.13302871182E+04  0.13302871182E+04  0.50400001928E-02 0.  1.
       -1   -1    0    0    0  501  0.00000000000E+00  0.00000000000E+00 -0.28571041530E+04  0.28571041530E+04  0.50400001928E-02 0. -1.
    10030    2    1    2    0    0  0.00000000000E+00  0.00000000000E+00 -0.15268170348E+04  0.41873912712E+04  0.38991121298E+04 0.  0.
        3    1    3    3  502    0  0.46821745583E+03  0.62659569861E+03 -0.26811919765E+04  0.27929626171E+04  0.10100000352E+00 0. -1.
       -3    1    3    3    0  502 -0.46821745583E+03 -0.62659569861E+03  0.11543749416E+04  0.13944286542E+04  0.10100000352E+00 0.  1.
</event>
<event>
 5   0  0.3832389E-07  0.3490307E+04  0.7818609E-02  0.8116091E-01
       -2   -1    0    0    0  501  0.00000000000E+00  0.00000000000E+00  0.16490045679E+04  0.16490045679E+04  0.25500000920E-02 0. -1.
        2   -1    0    0  501    0  0.00000000000E+00  0.00000000000E+00 -0.18469082284E+04  0.18469082284E+04  0.25500000920E-02 0.  1.
    10030    2    1    2    0    0  0.00000000000E+00  0.00000000000E+00 -0.19790366049E+03  0.34959127963E+04  0.34903066370E+04 0.  0.
        5    1    3    3  502    0 -0.84151564379E+03 -0.15274248923E+04 -0.32795495752E+02  0.17442112873E+04  0.46999998093E+01 0.  1.
       -5    1    3    3    0  502  0.84151564379E+03  0.15274248923E+04 -0.16510816474E+03  0.17517015089E+04  0.46999998093E+01 0. -1.
</event>
<event>
 5   0  0.1187925E-07  0.3956980E+04  0.7818609E-02  0.8013282E-01
        1   -1    0    0  501    0  0.00000000000E+00  0.00000000000E+00  0.14627003290E+04  0.14627003291E+04  0.50400001928E-02 0.  1.
       -1   -1    0    0    0  501  0.00000000000E+00  0.00000000000E+00 -0.26761618875E+04  0.26761618875E+04  0.50400001928E-02 0. -1.
    10030    2    1    2    0    0  0.00000000000E+00  0.00000000000E+00 -0.12134615584E+04  0.41388622165E+04  0.39569800977E+04 0.  0.
        4    1    3    3  502    0 -0.78097149723E+03 -0.67588021611E+03  0.11583456383E+04  0.15519332385E+04  0.12699999809E+01 0.  1.
       -4    1    3    3    0  502  0.78097149723E+03  0.67588021611E+03 -0.23718071967E+04  0.25869289780E+04  0.12699999809E+01 0. -1.
</event>
<event>
 5   0  0.1187925E-07  0.3682072E+04  0.7818609E-02  0.8071947E-01
       -1   -1    0    0    0  501  0.00000000000E+00  0.00000000000E+00  0.16199317751E+04  0.16199317751E+04  0.50400001928E-02 0. -1.
        1   -1    0    0  501    0  0.00000000000E+00  0.00000000000E+00 -0.20923182605E+04  0.20923182605E+04  0.50400001928E-02 0.  1.
    10030    2    1    2    0    0  0.00000000000E+00  0.00000000000E+00 -0.47238648538E+03  0.37122500356E+04  0.36820716091E+04 0.  0.
        2    1    3    3  502    0 -0.50108741092E+03 -0.11093127402E+04 -0.16287267760E+04  0.20333259108E+04  0.25500000920E-02 0.  1.
       -2    1    3    3    0  502  0.50108741092E+03  0.11093127402E+04  0.11563402906E+04  0.16789241247E+04  0.25500000920E-02 0. -1.
</event>
<event>
 5   0  0.1187925E-07  0.3882926E+04  0.7818609E-02  0.8028590E-01
       -1   -1    0    0    0  501  0.00000000000E+00  0.00000000000E+00  0.14951080274E+04  0.14951080274E+04  0.50400001928E-02 0. -1.
        1   -1    0    0  501    0  0.00000000000E+00  0.00000000000E+00 -0.25210741970E+04  0.25210741970E+04  0.50400001928E-02 0.  1.
    10030    2    1    2    0    0  0.00000000000E+00  0.00000000000E+00 -0.10259661697E+04  0.40161822244E+04  0.38829258399E+04 0.  0.
        1    1    3    3  502    0  0.15908468645E+04 -0.85133659857E+03 -0.12543164434E+04  0.21974707030E+04  0.50400001928E-02 0.  1.
       -1    1    3    3    0  502 -0.15908468645E+04  0.85133659857E+03  0.22835027372E+03  0.18187115214E+04  0.50400001928E-02 0. -1.
</event>
<event>
 5   0  0.1187925E-07  0.4057185E+04  0.7818609E-02  0.7993109E-01
        1   -1    0    0  501    0  0.00000000000E+00  0.00000000000E+00  0.12586696629E+04  0.12586696629E+04  0.50400001928E-02 0.  1.
       -1   -1    0    0    0  501  0.00000000000E+00  0.00000000000E+00 -0.32694739113E+04  0.32694739113E+04  0.50400001928E-02 0. -1.
    10030    2    1    2    0    0  0.00000000000E+00  0.00000000000E+00 -0.20108042484E+04  0.45281435742E+04  0.40571850467E+04 0.  0.
        5    1    3    3  502    0  0.98243813163E+02 -0.18249210483E+04 -0.19880451393E+04  0.27004322330E+04  0.46999998093E+01 0. -1.
       -5    1    3    3    0  502 -0.98243813163E+02  0.18249210483E+04 -0.22759109148E+02  0.18277113411E+04  0.46999998093E+01 0.  1.
</event>
<event>
 5   0  0.3832389E-07  0.4352790E+04  0.7818609E-02  0.7936928E-01
       -2   -1    0    0    0  501  0.00000000000E+00  0.00000000000E+00  0.22751763598E+04  0.22751763598E+04  0.25500000920E-02 0. -1.
        2   -1    0    0  501    0  0.00000000000E+00  0.00000000000E+00 -0.20819022762E+04  0.20819022762E+04  0.25500000920E-02 0.  1.
    10030    2    1    2    0    0  0.00000000000E+00  0.00000000000E+00  0.19327408355E+03  0.43570786360E+04  0.43527898374E+04 0.  0.
        5    1    3    3  502    0 -0.14172584279E+03  0.60525842078E+03  0.21844171056E+04  0.22711504027E+04  0.46999998093E+01 0. -1.
       -5    1    3    3    0  502  0.14172584279E+03 -0.60525842078E+03 -0.19911430220E+04  0.20859282333E+04  0.46999998093E+01 0.  1.
</event>
<event>
 5   0  0.3610483E-07  0.3886462E+04  0.7818609E-02  0.8027851E-01
       -2   -1    0    0    0  501  0.00000000000E+00  0.00000000000E+00  0.16506777578E+04  0.16506777578E+04  0.25500000920E-02 0. -1.
        2   -1    0    0  501    0  0.00000000000E+00  0.00000000000E+00 -0.22876339112E+04  0.22876339112E+04  0.25500000920E-02 0.  1.
    10030    2    1    2    0    0  0.00000000000E+00  0.00000000000E+00 -0.63695615341E+03  0.39383116691E+04  0.38864618436E+04 0.  0.
        4    1    3    3  502    0  0.39424527220E+03  0.18517882010E+04  0.12507828227E+03  0.18974179997E+04  0.12699999809E+01 0. -1.
       -4    1    3    3    0  502 -0.39424527220E+03 -0.18517882010E+04 -0.76203443568E+03  0.20408936694E+04  0.12699999809E+01 0.  1.
</event>
<event>
 5   0  0.1187925E-07  0.3859460E+04  0.7818609E-02  0.8033514E-01
        1   -1    0    0  501    0  0.00000000000E+00  0.00000000000E+00  0.19991532833E+04  0.19991532833E+04  0.50400001928E-02 0. -1.
       -1   -1    0    0    0  501  0.00000000000E+00  0.00000000000E+00 -0.18627179895E+04  0.18627179895E+04  0.50400001928E-02 0.  1.
    10030    2    1    2    0    0  0.00000000000E+00  0.00000000000E+00  0.13643529376E+03  0.38618712728E+04  0.38594604724E+04 0.  0.
        5    1    3    3  502    0 -0.16604612350E+03 -0.92216984808E+03  0.17562415173E+04  0.19905715011E+04  0.46999998093E+01 0. -1.
       -5    1    3    3    0  502  0.16604612350E+03  0.92216984808E+03 -0.16198062235E+04  0.18712997717E+04  0.46999998093E+01 0.  1.
</event>
<event>
 5   0  0.3680814E-07  0.3934867E+04  0.7818609E-02  0.8017816E-01
       -2   -1    0    0    0  501  0.00000000000E+00  0.00000000000E+00  0.22183110895E+04  0.22183110895E+04  0.25500000920E-02 0. -1.
        2   -1    0    0  501    0  0.00000000000E+00  0.00000000000E+00 -0.17449288126E+04  0.17449288126E+04  0.25500000920E-02 0.  1.
    10030    2    1    2    0    0  0.00000000000E+00  0.00000000000E+00  0.47338227690E+03  0.39632399021E+04  0.39348671822E+04 0.  0.
        1    1    3    3  502    0  0.50782937413E+03  0.10747643151E+04 -0.13423458771E+04  0.17930146291E+04  0.50400001928E-02 0.  1.
       -1    1    3    3    0  502 -0.50782937413E+03 -0.10747643151E+04  0.18157281540E+04  0.21702252730E+04  0.50400001928E-02 0. -1.
</event>
<event>
 5   0  0.3610483E-07  0.3338520E+04  0.7818609E-02  0.8153162E-01
       -2   -1    0    0    0  501  0.00000000000E+00  0.00000000000E+00  0.12682210340E+04  0.12682210340E+04  0.25500000920E-02 0. -1.
        2   -1    0    0  501    0  0.00000000000E+00  0.00000000000E+00 -0.21971165874E+04  0.21971165874E+04  0.25500000920E-02 0.  1.
    10030    2    1    2    0    0  0.00000000000E+00  0.00000000000E+00 -0.92889555340E+03  0.34653376214E+04  0.33385203131E+04 0.  0.
        4    1    3    3  502    0  0.73839398461E+03 -0.77111874478E+03 -0.17963817391E+04  0.20896982463E+04  0.12699999809E+01 0.  1.
       -4    1    3    3    0  502 -0.73839398461E+03  0.77111874478E+03  0.86748618569E+03  0.13756393751E+04  0.12699999809E+01 0. -1.
</event>
<event>
 5   0  0.3610483E-07  0.3137975E+04  0.7818609E-02  0.8205393E-01
       -2   -1    0    0    0  501  0.00000000000E+00  0.00000000000E+00  0.11917821149E+04  0.11917821149E+04  0.25500000920E-02 0.  1.
        2   -1    0    0  501    0  0.00000000000E+00  0.00000000000E+00 -0.20655798067E+04  0.20655798067E+04  0.25500000920E-02 0. -1.
    10030    2    1    2    0    0  0.00000000000E+00  0.00000000000E+00 -0.87379769176E+03  0.32573619216E+04  0.31379745509E+04 0.  0.
        4    1    3    3  502    0 -0.91741692399E+03 -0.62063992540E+03 -0.15904252023E+04  0.19381180734E+04  0.12699999809E+01 0. -1.
       -4    1    3    3    0  502  0.91741692399E+03  0.62063992540E+03  0.71662751050E+03  0.13192438482E+04  0.12699999809E+01 0.  1.
</event>
<event>
 5   0  0.1187925E-07  0.3913797E+04  0.7818609E-02  0.8022166E-01
        1   -1    0    0  501    0  0.00000000000E+00  0.00000000000E+00  0.19961270000E+04  0.19961270000E+04  0.50400001928E-02 0. -1.
       -1   -1    0    0    0  501  0.00000000000E+00  0.00000000000E+00 -0.19184405352E+04  0.19184405352E+04  0.50400001928E-02 0.  1.
    10030    2    1    2    0    0  0.00000000000E+00  0.00000000000E+00  0.77686464723E+02  0.39145675352E+04  0.39137965968E+04 0.  0.
        1    1    3    3  502    0  0.18101266382E+04  0.68357512296E+03  0.33150564620E+03  0.19630917932E+04  0.50400001928E-02 0. -1.
       -1    1    3    3    0  502 -0.18101266382E+04 -0.68357512296E+03 -0.25381918147E+03  0.19514757421E+04  0.50400001928E-02 0.  1.
</event>
<event>
 5   0  0.1187925E-07  0.3958532E+04  0.7818609E-02  0.8012965E-01
       -1   -1    0    0    0  501  0.00000000000E+00  0.00000000000E+00  0.32445149745E+04  0.32445149745E+04  0.50400001928E-02 0. -1.
        1   -1    0    0  501    0  0.00000000000E+00  0.00000000000E+00 -0.12074206446E+04  0.12074206446E+04  0.50400001928E-02 0.  1.
    10030    2    1    2    0    0  0.00000000000E+00  0.00000000000E+00  0.20370943299E+04  0.44519356191E+04  0.39585322340E+04 0.  0.
        3    1    3    3  502    0 -0.16877545079E+04  0.96341573113E+03  0.14405644198E+04  0.24190723444E+04  0.10100000352E+00 0. -1.
       -3    1    3    3    0  502  0.16877545079E+04 -0.96341573113E+03  0.59652991017E+03  0.20328632747E+04  0.10100000352E+00 0.  1.
</event>
<event>
 5   0  0.1187925E-07  0.3904875E+04  0.7818609E-02  0.8024016E-01
       -1   -1    0    0    0  501  0.00000000000E+00  0.00000000000E+00  0.18081209542E+04  0.18081209543E+04  0.50400001928E-02 0.  1.
        1   -1    0    0  501    0  0.00000000000E+00  0.00000000000E+00 -0.21082729583E+04  0.21082729583E+04  0.50400001928E-02 0. -1.
    10030    2    1    2    0    0  0.00000000000E+00  0.00000000000E+00 -0.30015200404E+03  0.39163939125E+04  0.39048751648E+04 0.  0.
        3    1    3    3  502    0  0.39227265894E+03 -0.18812219746E+04 -0.49625870183E+03  0.19847283608E+04  0.10100000352E+00 0. -1.
       -3    1    3    3    0  502 -0.39227265894E+03  0.18812219746E+04  0.19610669779E+03  0.19316655518E+04  0.10100000352E+00 0.  1.
</event>
<event>
 5   0  0.3610483E-07  0.3827621E+04  0.7818609E-02  0.8040253E-01
        2   -1    0    0  501    0  0.00000000000E+00  0.00000000000E+00  0.23173241230E+04  0.23173241230E+04  0.25500000920E-02 0. -1.
       -2   -1    0    0    0  501  0.00000000000E+00  0.00000000000E+00 -0.15805605294E+04  0.15805605294E+04  0.25500000920E-02 0.  1.
    10030    2    1    2    0    0  0.00000000000E+00  0.00000000000E+00  0.73676359355E+03  0.38978846524E+04  0.38276212157E+04 0.  0.
        4    1    3    3  502    0 -0.13390790190E+04  0.69529966718E+03  0.15673193330E+04  0.21755610198E+04  0.12699999809E+01 0. -1.
       -4    1    3    3    0  502  0.13390790190E+04 -0.69529966718E+03 -0.83055573946E+03  0.17223236326E+04  0.12699999809E+01 0.  1.
</event>
<event>
 5   0  0.1187925E-07  0.3746933E+04  0.7818609E-02  0.8057640E-01
       -1   -1    0    0    0  501  0.00000000000E+00  0.00000000000E+00  0.30748322703E+04  0.30748322703E+04  0.50400001928E-02 0.  1.
        1   -1    0    0  501    0  0.00000000000E+00  0.00000000000E+00 -0.11414853362E+04  0.11414853363E+04  0.50400001928E-02 0. -1.
    10030    2    1    2    0    0  0.00000000000E+00  0.00000000000E+00  0.19333469340E+04  0.42163176066E+04  0.37469325844E+04 0.  0.
        4    1    3    3  502    0 -0.18333552763E+04  0.21733971167E+03  0.60826739063E+03  0.19438155650E+04  0.12699999809E+01 0.  1.
       -4    1    3    3    0  502  0.18333552763E+04 -0.21733971167E+03  0.13250795434E+04  0.22725020415E+04  0.12699999809E+01 0. -1.
</event>
<event>
 5   0  0.3680814E-07  0.3881665E+04  0.7818609E-02  0.8028853E-01
        2   -1    0    0  501    0  0.00000000000E+00  0.00000000000E+00  0.20551409439E+04  0.20551409439E+04  0.25500000920E-02 0.  1.
       -2   -1    0    0    0  501  0.00000000000E+00  0.00000000000E+00 -0.18328819333E+04  0.18328819333E+04  0.25500000920E-02 0. -1.
    10030    2    1    2    0    0  0.00000000000E+00  0.00000000000E+00  0.22225901057E+03  0.38880228772E+04  0.38816649554E+04 0.  0.
        1    1    3    3  502    0  0.30644592473E+03 -0.14406309436E+04 -0.11548648048E+04  0.18716408143E+04  0.50400001928E-02 0. -1.
       -1    1    3    3    0  502 -0.30644592473E+03  0.14406309436E+04  0.13771238154E+04  0.20163820629E+04  0.50400001928E-02 0.  1.
</event>
<event>
 5   0  0.1187925E-07  0.3850043E+04  0.7818609E-02  0.8035500E-01
       -1   -1    0    0    0  501  0.00000000000E+00  0.00000000000E+00  0.15710977402E+04  0.15710977402E+04  0.50400001928E-02 0. -1.
        1   -1    0    0  501    0  0.00000000000E+00  0.00000000000E+00 -0.23586745253E+04  0.23586745253E+04  0.50400001928E-02 0.  1.
    10030    2    1    2    0    0  0.00000000000E+00  0.00000000000E+00 -0.78757678510E+03  0.39297722654E+04  0.38500432291E+04 0.  0.
        5    1    3    3  502    0 -0.11874835079E+04  0.13990227505E+04  0.19989594710E+03  0.18459041735E+04  0.46999998093E+01 0. -1.
       -5    1    3    3    0  502  0.11874835079E+04 -0.13990227505E+04 -0.98747273220E+03  0.20838680920E+04  0.46999998093E+01 0.  1.
</event>
<event>
 5   0  0.3810833E-07  0.3882969E+04  0.7818609E-02  0.8028581E-01
        2   -1    0    0  501    0  0.00000000000E+00  0.00000000000E+00  0.26928636853E+04  0.26928636853E+04  0.25500000920E-02 0.  1.
       -2   -1    0    0    0  501  0.00000000000E+00  0.00000000000E+00 -0.13997594067E+04  0.13997594067E+04  0.25500000920E-02 0. -1.
    10030    2    1    2    0    0  0.00000000000E+00  0.00000000000E+00  0.12931042786E+04  0.40926230920E+04  0.38829685934E+04 0.  0.
        3    1    3    3  502    0 -0.64149750284E+03  0.10127410840E+04 -0.96305746681E+03  0.15377396541E+04  0.10100000352E+00 0. -1.
       -3    1    3    3    0  502  0.64149750284E+03 -0.10127410840E+04  0.22561617454E+04  0.25548834378E+04  0.10100000352E+00 0.  1.
</event>
<event>
 5   0  0.3680814E-07  0.3793426E+04  0.7818609E-02  0.8047567E-01
       -2   -1    0    0    0  501  0.00000000000E+00  0.00000000000E+00  0.11497363080E+04  0.11497363081E+04  0.25500000920E-02 0. -1.
        2   -1    0    0  501    0  0.00000000000E+00  0.00000000000E+00 -0.31289961303E+04  0.31289961303E+04  0.25500000920E-02 0.  1.
    10030    2    1    2    0    0  0.00000000000E+00  0.00000000000E+00 -0.19792598223E+04  0.42787324384E+04  0.37934261341E+04 0.  0.
        1    1    3    3  502    0 -0.10222226279E+04  0.23338543491E+03 -0.27723760413E+04  0.29640304953E+04  0.50400001928E-02 0.  1.
       -1    1    3    3    0  502  0.10222226279E+04 -0.23338543491E+03  0.79311621907E+03  0.13147019431E+04  0.50400001928E-02 0. -1.
</event>
<event>
 5   0  0.1187925E-07  0.3654482E+04  0.7818609E-02  0.8078125E-01
       -1   -1    0    0    0  501  0.00000000000E+00  0.00000000000E+00  0.17516713011E+04  0.17516713011E+04  0.50400001928E-02 0. -1.
        1   -1    0    0  501    0  0.00000000000E+00  0.00000000000E+00 -0.19060709166E+04  0.19060709166E+04  0.50400001928E-02 0.  1.
    10030    2    1    2    0    0  0.00000000000E+00  0.00000000000E+00 -0.15439961551E+03  0.36577422177E+04  0.36544820276E+04 0.  0.
        5    1    3    3  502    0 -0.51479983893E+03 -0.31697259555E+03 -0.18030632144E+04  0.19017227836E+04  0.46999998093E+01 0.  1.
       -5    1    3    3    0  502  0.51479983893E+03  0.31697259555E+03  0.16486635989E+04  0.17560194341E+04  0.46999998093E+01 0. -1.
</event>
<event>
 5   0  0.1187925E-07  0.3882198E+04  0.7818609E-02  0.8028742E-01
        1   -1    0    0  501    0  0.00000000000E+00  0.00000000000E+00  0.18576281713E+04  0.18576281713E+04  0.50400001928E-02 0. -1.
       -1   -1    0    0    0  501  0.00000000000E+00  0.00000000000E+00 -0.20283203918E+04  0.20283203919E+04  0.50400001928E-02 0.  1.
    10030    2    1    2    0    0  0.00000000000E+00  0.00000000000E+00 -0.17069222054E+03  0.38859485632E+04  0.38821978828E+04 0.  0.
        2    1    3    3  502    0  0.88641019019E+03  0.12088922450E+04 -0.13197129287E+04  0.19971944571E+04  0.25500000920E-02 0.  1.
       -2    1    3    3    0  502 -0.88641019019E+03 -0.12088922450E+04  0.11490207082E+04  0.18887541061E+04  0.25500000920E-02 0. -1.
</event>
<event>
 5   0  0.3665303E-07  0.3849857E+04  0.7818609E-02  0.8035539E-01
        2   -1    0    0  501    0  0.00000000000E+00  0.00000000000E+00  0.18069978554E+04  0.18069978554E+04  0.25500000920E-02 0.  1.
       -2   -1    0    0    0  501  0.00000000000E+00  0.00000000000E+00 -0.20505561061E+04  0.20505561061E+04  0.25500000920E-02 0. -1.
    10030    2    1    2    0    0  0.00000000000E+00  0.00000000000E+00 -0.24355825076E+03  0.38575539615E+04  0.38498573927E+04 0.  0.
        2    1    3    3  502    0 -0.77608655475E+03  0.14364005841E+04  0.89996210312E+03  0.18642662807E+04  0.25500000920E-02 0.  1.
       -2    1    3    3    0  502  0.77608655475E+03 -0.14364005841E+04 -0.11435203539E+04  0.19932876807E+04  0.25500000920E-02 0. -1.
</event>
<event>
 5   0  0.3665303E-07  0.3884304E+04  0.7818609E-02  0.8028302E-01
       -2   -1    0    0    0  501  0.00000000000E+00  0.00000000000E+00  0.14882159853E+04  0.14882159853E+04  0.25500000920E-02 0.  1.
        2   -1    0    0  501    0  0.00000000000E+00  0.00000000000E+00 -0.25345470808E+04  0.25345470808E+04  0.25500000920E-02 0. -1.
    10030    2    1    2    0    0  0.00000000000E+00  0.00000000000E+00 -0.10463310954E+04  0.40227630661E+04  0.38843035315E+04 0.  0.
        2    1    3    3  502    0  0.18187353698E+04  0.50544891827E+03 -0.99626026028E+03  0.21344346934E+04  0.25500000920E-02 0.  1.
       -2    1    3    3    0  502 -0.18187353698E+04 -0.50544891827E+03 -0.50070835169E+02  0.18883283726E+04  0.25500000920E-02 0. -1.
</event>
<event>
 5   0  0.1187925E-07  0.3739660E+04  0.7818609E-02  0.8059229E-01
       -1   -1    0    0    0  501  0.00000000000E+00  0.00000000000E+00  0.16580413837E+04  0.16580413837E+04  0.50400001928E-02 0.  1.
        1   -1    0    0  501    0  0.00000000000E+00  0.00000000000E+00 -0.21086716160E+04  0.21086716160E+04  0.50400001928E-02 0. -1.
    10030    2    1    2    0    0  0.00000000000E+00  0.00000000000E+00 -0.45063023223E+03  0.37667129997E+04  0.37396603076E+04 0.  0.
        3    1    3    3  502    0  0.56055771783E+03  0.10832651596E+04  0.12021797580E+04  0.17125783315E+04  0.10100000352E+00 0.  1.
       -3    1    3    3    0  502 -0.56055771783E+03 -0.10832651596E+04 -0.16528099902E+04  0.20541346682E+04  0.10100000352E+00 0. -1.
</event>
<event>
 5   0  0.1187925E-07  0.2792009E+04  0.7818609E-02  0.8305754E-01
        1   -1    0    0  501    0  0.00000000000E+00  0.00000000000E+00  0.14286920994E+04  0.14286920994E+04  0.50400001928E-02 0. -1.
       -1   -1    0    0    0  501  0.00000000000E+00  0.00000000000E+00 -0.13640643295E+04  0.13640643295E+04  0.50400001928E-02 0.  1.
    10030    2    1    2    0    0  0.00000000000E+00  0.00000000000E+00  0.64627769901E+02  0.27927564290E+04  0.27920085464E+04 0.  0.
        2    1    3    3  502    0 -0.20258306347E+03 -0.27663200752E+03 -0.13212901786E+04  0.13650541752E+04  0.25500000920E-02 0.  1.
       -2    1    3    3    0  502  0.20258306347E+03  0.27663200752E+03  0.13859179485E+04  0.14277022537E+04  0.25500000920E-02 0. -1.
</event>
<event>
 5   0  0.3680814E-07  0.3852790E+04  0.7818609E-02  0.8034920E-01
        2   -1    0    0  501    0  0.00000000000E+00  0.00000000000E+00  0.22606401020E+04  0.22606401020E+04  0.25500000920E-02 0. -1.
       -2   -1    0    0    0  501  0.00000000000E+00  0.00000000000E+00 -0.16415696078E+04  0.16415696078E+04  0.25500000920E-02 0.  1.
    10030    2    1    2    0    0  0.00000000000E+00  0.00000000000E+00  0.61907049429E+03  0.39022097098E+04  0.38527902022E+04 0.  0.
        1    1    3    3  502    0  0.12759215221E+03 -0.12514302049E+04  0.17872357886E+04  0.21855363367E+04  0.50400001928E-02 0. -1.
       -1    1    3    3    0  502 -0.12759215221E+03  0.12514302049E+04 -0.11681652943E+04  0.17166733731E+04  0.50400001928E-02 0.  1.
</event>
<event>
 5   0  0.1187925E-07  0.3887144E+04  0.7818609E-02  0.8027708E-01
       -1   -1    0    0    0  501  0.00000000000E+00  0.00000000000E+00  0.17795679358E+04  0.17795679358E+04  0.50400001928E-02 0.  1.
        1   -1    0    0  501    0  0.00000000000E+00  0.00000000000E+00 -0.21226911051E+04  0.21226911051E+04  0.50400001928E-02 0. -1.
    10030    2    1    2    0    0  0.00000000000E+00  0.00000000000E+00 -0.34312316932E+03  0.39022590408E+04  0.38871444677E+04 0.  0.
        4    1    3    3  502    0 -0.17305888864E+04  0.50877401848E+03 -0.89803454199E+03  0.20150078281E+04  0.12699999809E+01 0. -1.
       -4    1    3    3    0  502  0.17305888864E+04 -0.50877401848E+03  0.55491137268E+03  0.18872512128E+04  0.12699999809E+01 0.  1.
</event>
<event>
 5   0  0.3680814E-07  0.3009934E+04  0.7818609E-02  0.8240900E-01
       -2   -1    0    0    0  501  0.00000000000E+00  0.00000000000E+00  0.15575564301E+04  0.15575564301E+04  0.25500000920E-02 0. -1.
        2   -1    0    0  501    0  0.00000000000E+00  0.00000000000E+00 -0.14541527564E+04  0.14541527564E+04  0.25500000920E-02 0.  1.
    10030    2    1    2    0    0  0.00000000000E+00  0.00000000000E+00  0.10340367365E+03  0.30117091866E+04  0.30099335382E+04 0.  0.
        1    1    3    3  502    0  0.14539239913E+04 -0.11510193480E+03 -0.31970650845E+03  0.14931027023E+04  0.50400001928E-02 0. -1.
       -1    1    3    3    0  502 -0.14539239913E+04  0.11510193480E+03  0.42311018211E+03  0.15186064843E+04  0.50400001928E-02 0.  1.
</event>
<event>
 5   0  0.1187925E-07  0.3900823E+04  0.7818609E-02  0.8024858E-01
       -1   -1    0    0    0  501  0.00000000000E+00  0.00000000000E+00  0.23516792181E+04  0.23516792181E+04  0.50400001928E-02 0. -1.
        1   -1    0    0  501    0  0.00000000000E+00  0.00000000000E+00 -0.16176119784E+04  0.16176119784E+04  0.50400001928E-02 0.  1.
    10030    2    1    2    0    0  0.00000000000E+00  0.00000000000E+00  0.73406723962E+03  0.39692911965E+04  0.39008227197E+04 0.  0.
        1    1    3    3  502    0 -0.81824194551E+03 -0.29767165897E+03  0.21429397179E+04  0.23130756435E+04  0.50400001928E-02 0. -1.
       -1    1    3    3    0  502  0.81824194551E+03  0.29767165897E+03 -0.14088724783E+04  0.16562155530E+04  0.50400001928E-02 0.  1.
</event>
<event>
 5   0  0.3610483E-07  0.3873891E+04  0.7818609E-02  0.8030481E-01
       -2   -1    0    0    0  501  0.00000000000E+00  0.00000000000E+00  0.20514809278E+04  0.20514809278E+04  0.25500000920E-02 0. -1.
        2   -1    0    0  501    0  0.00000000000E+00  0.00000000000E+00 -0.18288045683E+04  0.18288045683E+04  0.25500000920E-02 0.  1.
    10030    2    1    2    0    0  0.00000000000E+00  0.00000000000E+00  0.22267635951E+03  0.38802854961E+04  0.38738909084E+04 0.  0.
        4    1    3    3  502    0  0.15676246413E+04  0.10505732318E+04 -0.32596574958E+03  0.19150473660E+04  0.12699999809E+01 0. -1.
       -4    1    3    3    0  502 -0.15676246413E+04 -0.10505732318E+04  0.54864210909E+03  0.19652381301E+04  0.12699999809E+01 0.  1.
</event>
<event>
 5   0  0.3810833E-07  0.3790934E+04  0.7818609E-02  0.8048103E-01
       -2   -1    0    0    0  501  0.00000000000E+00  0.00000000000E+00  0.21610550917E+04  0.21610550917E+04  0.25500000920E-02 0.  1.
        2   -1    0    0  501    0  0.00000000000E+00  0.00000000000E+00 -0.16625186548E+04  0.16625186548E+04  0.25500000920E-02 0. -1.
    10030    2    1    2    0    0  0.00000000000E+00  0.00000000000E+00  0.49853643689E+03  0.38235737464E+04  0.37909336074E+04 0.  0.
        3    1    3    3  502    0  0.90035132348E+03 -0.16585097478E+04  0.70236938688E+02  0.18884438904E+04  0.10100000352E+00 0.  1.
       -3    1    3    3    0  502 -0.90035132348E+03  0.16585097478E+04  0.42829949821E+03  0.19351298560E+04  0.10100000352E+00 0. -1.
</event>
<event>
 5   0  0.3665303E-07  0.3884553E+04  0.7818609E-02  0.8028250E-01
       -2   -1    0    0    0  501  0.00000000000E+00  0.00000000000E+00  0.16704036973E+04  0.16704036973E+04  0.25500000920E-02 0. -1.
        2   -1    0    0  501    0  0.00000000000E+00  0.00000000000E+00 -0.22583991156E+04  0.22583991156E+04  0.25500000920E-02 0.  1.
    10030    2    1    2    0    0  0.00000000000E+00  0.00000000000E+00 -0.58799541823E+03  0.39288028129E+04  0.38845531185E+04 0.  0.
        2    1    3    3  502    0  0.18090405498E+04 -0.22018687349E+03  0.38546469703E+03  0.18627111968E+04  0.25500000920E-02 0. -1.
       -2    1    3    3    0  502 -0.18090405498E+04  0.22018687349E+03 -0.97346011526E+03  0.20660916161E+04  0.25500000920E-02 0.  1.
</event>
<event>
 5   0  0.3680814E-07  0.3655742E+04  0.7818609E-02  0.8077841E-01
        2   -1    0    0  501    0  0.00000000000E+00  0.00000000000E+00  0.25323182401E+04  0.25323182401E+04  0.25500000920E-02 0.  1.
       -2   -1    0    0    0  501  0.00000000000E+00  0.00000000000E+00 -0.13193890875E+04  0.13193890876E+04  0.25500000920E-02 0. -1.
    10030    2    1    2    0    0  0.00000000000E+00  0.00000000000E+00  0.12129291525E+04  0.38517073276E+04  0.36557423608E+04 0.  0.
        1    1    3    3  502    0  0.26316086357E+03 -0.94648780543E+03  0.22305271833E+04  0.24372821588E+04  0.50400001928E-02 0.  1.
       -1    1    3    3    0  502 -0.26316086357E+03  0.94648780543E+03 -0.10175980308E+04  0.14144251688E+04  0.50400001928E-02 0. -1.
</event>
<event>
 5   0  0.1187925E-07  0.2979837E+04  0.7818609E-02  0.8249512E-01
        1   -1    0    0  501    0  0.00000000000E+00  0.00000000000E+00  0.11213657790E+04  0.11213657790E+04  0.50400001928E-02 0.  1.
       -1   -1    0    0    0  501  0.00000000000E+00  0.00000000000E+00 -0.19796016296E+04  0.19796016297E+04  0.50400001928E-02 0. -1.
    10030    2    1    2    0    0  0.00000000000E+00  0.00000000000E+00 -0.85823585064E+03  0.31009674087E+04  0.29798372597E+04 0.  0.
        4    1    3    3  502    0  0.69454399200E+03 -0.32997647584E+02  0.94216322557E+03  0.11709625776E+04  0.12699999809E+01 0.  1.
       -4    1    3    3    0  502 -0.69454399200E+03  0.32997647584E+02 -0.18003990762E+04  0.19300048311E+04  0.12699999809E+01 0. -1.
</event>
<event>
 5   0  0.3665303E-07  0.3895647E+04  0.7818609E-02  0.8025935E-01
       -2   -1    0    0    0  501  0.00000000000E+00  0.00000000000E+00  0.15983516087E+04  0.15983516087E+04  0.25500000920E-02 0. -1.
        2   -1    0    0  501    0  0.00000000000E+00  0.00000000000E+00 -0.23737063163E+04  0.23737063163E+04  0.25500000920E-02 0.  1.
    10030    2    1    2    0    0  0.00000000000E+00  0.00000000000E+00 -0.77535470759E+03  0.39720579249E+04  0.38956474733E+04 0.  0.
        2    1    3    3  502    0  0.18264082283E+03 -0.17787879412E+04  0.39985382500E+03  0.18323010918E+04  0.25500000920E-02 0. -1.
       -2    1    3    3    0  502 -0.18264082283E+03  0.17787879412E+04 -0.11752085326E+04  0.21397568331E+04  0.25500000920E-02 0.  1.
</event>
<event>
 5   0  0.1187925E-07  0.3881210E+04  0.7818609E-02  0.8028949E-01
       -1   -1    0    0    0  501  0.00000000000E+00  0.00000000000E+00  0.16214268196E+04  0.16214268196E+04  0.50400001928E-02 0. -1.
        1   -1    0    0  501    0  0.00000000000E+00  0.00000000000E+00 -0.23226128688E+04  0.23226128688E+04  0.50400001928E-02 0.  1.
    10030    2    1    2    0    0  0.00000000000E+00  0.00000000000E+00 -0.70118604922E+03  0.39440396884E+04  0.38812095006E+04 0.  0.
        5    1    3    3  502    0  0.48924691392E+03 -0.16890887527E+04 -0.11845743427E+04  0.21202881457E+04  0.46999998093E+01 0.  1.
       -5    1    3    3    0  502 -0.48924691392E+03  0.16890887527E+04  0.48338829346E+03  0.18237515427E+04  0.46999998093E+01 0. -1.
</event>
<event>
 5   0  0.1187925E-07  0.3909107E+04  0.7818609E-02  0.8023138E-01
       -1   -1    0    0    0  501  0.00000000000E+00  0.00000000000E+00  0.24208378436E+04  0.24208378436E+04  0.50400001928E-02 0. -1.
        1   -1    0    0  501    0  0.00000000000E+00  0.00000000000E+00 -0.15780815561E+04  0.15780815561E+04  0.50400001928E-02 0.  1.
    10030    2    1    2    0    0  0.00000000000E+00  0.00000000000E+00  0.84275628747E+03  0.39989193997E+04  0.39091070854E+04 0.  0.
        4    1    3    3  502    0  0.62216112167E+03 -0.15222086332E+04  0.15020943088E+04  0.22272163141E+04  0.12699999809E+01 0. -1.
       -4    1    3    3    0  502 -0.62216112167E+03  0.15222086332E+04 -0.65933802136E+03  0.17717030856E+04  0.12699999809E+01 0.  1.
</event>
<event>
 5   0  0.1187925E-07  0.3812382E+04  0.7818609E-02  0.8043503E-01
        1   -1    0    0  501    0  0.00000000000E+00  0.00000000000E+00  0.25925881050E+04  0.25925881050E+04  0.50400001928E-02 0.  1.
       -1   -1    0    0    0  501  0.00000000000E+00  0.00000000000E+00 -0.14015198031E+04  0.14015198031E+04  0.50400001928E-02 0. -1.
    10030    2    1    2    0    0  0.00000000000E+00  0.00000000000E+00  0.11910683020E+04  0.39941079081E+04  0.38123817072E+04 0.  0.
        2    1    3    3  502    0 -0.12435273803E+03 -0.11158649169E+04 -0.10183311890E+04  0.15157890773E+04  0.25500000920E-02 0. -1.
       -2    1    3    3    0  502  0.12435273803E+03  0.11158649169E+04  0.22093994910E+04  0.24783188308E+04  0.25500000920E-02 0.  1.
</event>
<event>
 5   0  0.1187925E-07  0.4086750E+04  0.7818609E-02  0.7987271E-01
       -1   -1    0    0    0  501  0.00000000000E+00  0.00000000000E+00  0.21200456476E+04  0.21200456476E+04  0.50400001928E-02 0.  1.
        1   -1    0    0  501    0  0.00000000000E+00  0.00000000000E+00 -0.19694775114E+04  0.19694775114E+04  0.50400001928E-02 0. -1.
    10030    2    1    2    0    0  0.00000000000E+00  0.00000000000E+00  0.15056813625E+03  0.40895231590E+04  0.40867504089E+04 0.  0.
        5    1    3    3  502    0  0.13336156362E+04 -0.12083269847E+04  0.10438123093E+04  0.20804208695E+04  0.46999998093E+01 0.  1.
       -5    1    3    3    0  502 -0.13336156362E+04  0.12083269847E+04 -0.89324417310E+03  0.20091022895E+04  0.46999998093E+01 0. -1.
</event>
<event>
 5   0  0.3680814E-07  0.3921373E+04  0.7818609E-02  0.8020599E-01
       -2   -1    0    0    0  501  0.00000000000E+00  0.00000000000E+00  0.21975430073E+04  0.21975430073E+04  0.25500000920E-02 0. -1.
        2   -1    0    0  501    0  0.00000000000E+00  0.00000000000E+00 -0.17493593595E+04  0.17493593595E+04  0.25500000920E-02 0.  1.
    10030    2    1    2    0    0  0.00000000000E+00  0.00000000000E+00  0.44818364782E+03  0.39469023668E+04  0.39213734470E+04 0.  0.
        1    1    3    3  502    0  0.91610414324E+03  0.32530918239E+03  0.19378862775E+04  0.21680581380E+04  0.50400001928E-02 0. -1.
       -1    1    3    3    0  502 -0.91610414324E+03 -0.32530918239E+03 -0.14897026297E+04  0.17788442288E+04  0.50400001928E-02 0.  1.
</event>
<event>
 5   0  0.3610483E-07  0.3817480E+04  0.7818609E-02  0.8042414E-01
        2   -1    0    0  501    0  0.00000000000E+00  0.00000000000E+00  0.22476623137E+04  0.22476623137E+04  0.25500000920E-02 0. -1.
       -2   -1    0    0    0  501  0.00000000000E+00  0.00000000000E+00 -0.16209231807E+04  0.16209231807E+04  0.25500000920E-02 0.  1.
    10030    2    1    2    0    0  0.00000000000E+00  0.00000000000E+00  0.62673913298E+03  0.38685854944E+04  0.38174797690E+04 0.  0.
        4    1    3    3  502    0  0.13673807158E+04  0.70682525885E+03 -0.83043648658E+03  0.17489878043E+04  0.12699999809E+01 0. -1.
       -4    1    3    3    0  502 -0.13673807158E+04 -0.70682525885E+03  0.14571756196E+04  0.21195976901E+04  0.12699999809E+01 0.  1.
</event>
<event>
 5   0  0.3810833E-07  0.3924857E+04  0.7818609E-02  0.8019879E-01
       -2   -1    0    0    0  501  0.00000000000E+00  0.00000000000E+00  0.14820851449E+04  0.14820851449E+04  0.25500000920E-02 0.  1.
        2   -1    0    0  501    0  0.00000000000E+00  0.00000000000E+00 -0.25984516303E+04  0.25984516303E+04  0.25500000920E-02 0. -1.
    10030    2    1    2    0    0  0.00000000000E+00  0.00000000000E+00 -0.11163664854E+04  0.40805367752E+04  0.39248574807E+04 0.  0.
        3    1    3    3  502    0 -0.14803196502E+04 -0.16159951544E+03  0.77066389213E+03  0.16767180786E+04  0.10100000352E+00 0.  1.
       -3    1    3    3    0  502  0.14803196502E+04  0.16159951544E+03 -0.18870303776E+04  0.24038186966E+04  0.10100000352E+00 0. -1.
</event>
<event>
 5   0  0.1187925E-07  0.3661200E+04  0.7818609E-02  0.8076615E-01
       -1   -1    0    0    0  501  0.00000000000E+00  0.00000000000E+00  0.17171745495E+04  0.17171745495E+04  0.50400001928E-02 0. -1.
        1   -1    0    0  501    0  0.00000000000E+00  0.00000000000E+00 -0.19515174988E+04  0.19515174988E+04  0.50400001928E-02 0.  1.
    10030    2    1    2    0    0  0.00000000000E+00  0.00000000000E+00 -0.23434294929E+03  0.36686920483E+04  0.36611999027E+04 0.  0.
        2    1    3    3  502    0 -0.15624410095E+04 -0.50399772897E+03 -0.92868091247E+03  0.18861823496E+04  0.25500000920E-02 0.  1.
       -2    1    3    3    0  502  0.15624410095E+04  0.50399772897E+03  0.69433796318E+03  0.17825096987E+04  0.25500000920E-02 0. -1.
</event>
<event>
 5   0  0.1187925E-07  0.3881600E+04  0.7818609E-02  0.8028867E-01
        1   -1    0    0  501    0  0.00000000000E+00  0.00000000000E+00  0.13508923365E+04  0.13508923365E+04  0.50400001928E-02 0. -1.
       -1   -1    0    0    0  501  0.00000000000E+00  0.00000000000E+00 -0.27883091333E+04  0.27883091333E+04  0.50400001928E-02 0.  1.
    10030    2    1    2    0    0  0.00000000000E+00  0.00000000000E+00 -0.14374167968E+04  0.41392014698E+04  0.38816004122E+04 0.  0.
        2    1    3    3  502    0  0.15022374209E+04 -0.59906017923E+03 -0.18628113622E+04  0.24669123491E+04  0.25500000920E-02 0.  1.
       -2    1    3    3    0  502 -0.15022374209E+04  0.59906017923E+03  0.42539456536E+03  0.16722891207E+04  0.25500000920E-02 0. -1.
</event>
<event>
 5   0  0.1187925E-07  0.3913520E+04  0.7818609E-02  0.8022223E-01
       -1   -1    0    0    0  501  0.00000000000E+00  0.00000000000E+00  0.20885275850E+04  0.20885275850E+04  0.50400001928E-02 0. -1.
        1   -1    0    0  501    0  0.00000000000E+00  0.00000000000E+00 -0.18333053970E+04  0.18333053970E+04  0.50400001928E-02 0.  1.
    10030    2    1    2    0    0  0.00000000000E+00  0.00000000000E+00  0.25522218793E+03  0.39218329820E+04  0.39135195890E+04 0.  0.
        4    1    3    3  502    0 -0.12069555332E+04 -0.71750886924E+03 -0.12381290192E+04  0.18720378515E+04  0.12699999809E+01 0.  1.
       -4    1    3    3    0  502  0.12069555332E+04  0.71750886924E+03  0.14933512071E+04  0.20497951305E+04  0.12699999809E+01 0. -1.
</event>
<event>
 5   0  0.1187925E-07  0.3908081E+04  0.7818609E-02  0.8023351E-01
        1   -1    0    0  501    0  0.00000000000E+00  0.00000000000E+00  0.16102661225E+04  0.16102661225E+04  0.50400001928E-02 0.  1.
       -1   -1    0    0    0  501  0.00000000000E+00  0.00000000000E+00 -0.23712073223E+04  0.23712073224E+04  0.50400001928E-02 0. -1.
    10030    2    1    2    0    0  0.00000000000E+00  0.00000000000E+00 -0.76094119988E+03  0.39814734448E+04  0.39080812789E+04 0.  0.
        3    1    3    3  502    0  0.99128830787E+03  0.16228223339E+04  0.77493177016E+02  0.19032104559E+04  0.10100000352E+00 0.  1.
       -3    1    3    3    0  502 -0.99128830787E+03 -0.16228223339E+04 -0.83843437690E+03  0.20782629889E+04  0.10100000352E+00 0. -1.
</event>
<event>
 5   0  0.3610483E-07  0.3854141E+04  0.7818609E-02  0.8034635E-01
       -2   -1    0    0    0  501  0.00000000000E+00  0.00000000000E+00  0.18705443790E+04  0.18705443790E+04  0.25500000920E-02 0.  1.
        2   -1    0    0  501    0  0.00000000000E+00  0.00000000000E+00 -0.19853046628E+04  0.19853046628E+04  0.25500000920E-02 0. -1.
    10030    2    1    2    0    0  0.00000000000E+00  0.00000000000E+00 -0.11476028373E+03  0.38558490418E+04  0.38541408784E+04 0.  0.
        4    1    3    3  502    0 -0.24267779870E+03 -0.18952560618E+04 -0.30791239568E+03  0.19353810246E+04  0.12699999809E+01 0.  1.
       -4    1    3    3    0  502  0.24267779870E+03  0.18952560618E+04  0.19315211195E+03  0.19204680172E+04  0.12699999809E+01 0. -1.
</event>
<event>
 5   0  0.3832389E-07  0.3744444E+04  0.7818609E-02  0.8058183E-01
       -2   -1    0    0    0  501  0.00000000000E+00  0.00000000000E+00  0.17329112269E+04  0.17329112269E+04  0.25500000920E-02 0. -1.
        2   -1    0    0  501    0  0.00000000000E+00  0.00000000000E+00 -0.20227322178E+04  0.20227322178E+04  0.25500000920E-02 0.  1.
    10030    2    1    2    0    0  0.00000000000E+00  0.00000000000E+00 -0.28982099086E+03  0.37556434447E+04  0.37444440812E+04 0.  0.
        5    1    3    3  502    0 -0.15214831863E+04  0.10520456781E+04 -0.43470733619E+03  0.19001851892E+04  0.46999998093E+01 0.  1.
       -5    1    3    3    0  502  0.15214831863E+04 -0.10520456781E+04  0.14488634533E+03  0.18554582555E+04  0.46999998093E+01 0. -1.
</event>
<event>
 5   0  0.1187925E-07  0.3999648E+04  0.7818609E-02  0.8004618E-01
        1   -1    0    0  501    0  0.00000000000E+00  0.00000000000E+00  0.23425978066E+04  0.23425978066E+04  0.50400001928E-02 0. -1.
       -1   -1    0    0    0  501  0.00000000000E+00  0.00000000000E+00 -0.17072054295E+04  0.17072054295E+04  0.50400001928E-02 0.  1.
    10030    2    1    2    0    0  0.00000000000E+00  0.00000000000E+00  0.63539237704E+03  0.40498032361E+04  0.39996478318E+04 0.  0.
        5    1    3    3  502    0  0.16143271626E+04 -0.48716734252E+03  0.14063011507E+04  0.21956978899E+04  0.46999998093E+01 0.  1.
       -5    1    3    3    0  502 -0.16143271626E+04  0.48716734252E+03 -0.77090877364E+03  0.18541053462E+04  0.46999998093E+01 0. -1.
</event>
<event>
 5   0  0.3680814E-07  0.3187218E+04  0.7818609E-02  0.8192201E-01
        2   -1    0    0  501    0  0.00000000000E+00  0.00000000000E+00  0.19773214920E+04  0.19773214920E+04  0.25500000920E-02 0.  1.
       -2   -1    0    0    0  501  0.00000000000E+00  0.00000000000E+00 -0.12843586282E+04  0.12843586282E+04  0.25500000920E-02 0. -1.
    10030    2    1    2    0    0  0.00000000000E+00  0.00000000000E+00  0.69296286388E+03  0.32616801202E+04  0.31872181720E+04 0.  0.
        1    1    3    3  502    0  0.40352902386E+03 -0.38753990090E+03 -0.11805482004E+04  0.13064137558E+04  0.50400001928E-02 0. -1.
       -1    1    3    3    0  502 -0.40352902386E+03  0.38753990090E+03  0.18735110643E+04  0.19552663644E+04  0.50400001928E-02 0.  1.
</event>
<event>
 5   0  0.3665303E-07  0.3655108E+04  0.7818609E-02  0.8077984E-01
       -2   -1    0    0    0  501  0.00000000000E+00  0.00000000000E+00  0.15087133146E+04  0.15087133146E+04  0.25500000920E-02 0.  1.
        2   -1    0    0  501    0  0.00000000000E+00  0.00000000000E+00 -0.22137765832E+04  0.22137765832E+04  0.25500000920E-02 0. -1.
    10030    2    1    2    0    0  0.00000000000E+00  0.00000000000E+00 -0.70506326861E+03  0.37224898978E+04  0.36551083194E+04 0.  0.
        2    1    3    3  502    0  0.48022170952E+02  0.35317249704E+03 -0.21780367198E+04  0.22070072257E+04  0.25500000920E-02 0. -1.
       -2    1    3    3    0  502 -0.48022170952E+02 -0.35317249704E+03  0.14729734512E+04  0.15154826721E+04  0.25500000920E-02 0.  1.
</event>
<event>
 5   0  0.3665303E-07  0.3862003E+04  0.7818609E-02  0.8032979E-01
        2   -1    0    0  501    0  0.00000000000E+00  0.00000000000E+00  0.23431836742E+04  0.23431836742E+04  0.25500000920E-02 0. -1.
       -2   -1    0    0    0  501  0.00000000000E+00  0.00000000000E+00 -0.15913249340E+04  0.15913249340E+04  0.25500000920E-02 0.  1.
    10030    2    1    2    0    0  0.00000000000E+00  0.00000000000E+00  0.75185874020E+03  0.39345086083E+04  0.38620029031E+04 0.  0.
        2    1    3    3  502    0  0.35261905116E+03 -0.12233763089E+04 -0.11031456954E+04  0.16846127786E+04  0.25500000920E-02 0.  1.
       -2    1    3    3    0  502 -0.35261905116E+03  0.12233763089E+04  0.18550044356E+04  0.22498958297E+04  0.25500000920E-02 0. -1.
</event>
<event>
 5   0  0.1187925E-07  0.3923645E+04  0.7818609E-02  0.8020129E-01
        1   -1    0    0  501    0  0.00000000000E+00  0.00000000000E+00  0.12054887107E+04  0.12054887107E+04  0.50400001928E-02 0. -1.
       -1   -1    0    0    0  501  0.00000000000E+00  0.00000000000E+00 -0.31926858911E+04  0.31926858911E+04  0.50400001928E-02 0.  1.
    10030    2    1    2    0    0  0.00000000000E+00  0.00000000000E+00 -0.19871971805E+04  0.43981746018E+04  0.39236446314E+04 0.  0.
        4    1    3    3  502    0  0.40391914981E+02  0.15849187472E+04  0.30163237739E+03  0.16138719423E+04  0.12699999809E+01 0. -1.
       -4    1    3    3    0  502 -0.40391914981E+02 -0.15849187472E+04 -0.22888295579E+04  0.27843026595E+04  0.12699999809E+01 0.  1.
</event>
<event>
 5   0  0.1187925E-07  0.3908237E+04  0.7818609E-02  0.8023318E-01
       -1   -1    0    0    0  501  0.00000000000E+00  0.00000000000E+00  0.19219486589E+04  0.19219486589E+04  0.50400001928E-02 0. -1.
        1   -1    0    0  501    0  0.00000000000E+00  0.00000000000E+00 -0.19868269284E+04  0.19868269284E+04  0.50400001928E-02 0.  1.
    10030    2    1    2    0    0  0.00000000000E+00  0.00000000000E+00 -0.64878269428E+02  0.39087755873E+04  0.39082371220E+04 0.  0.
        1    1    3    3  502    0  0.53200739043E+03 -0.18587227848E+04  0.25167234738E+03  0.19496720813E+04  0.50400001928E-02 0.  1.
       -1    1    3    3    0  502 -0.53200739043E+03  0.18587227848E+04 -0.31655061681E+03  0.19591035060E+04  0.50400001928E-02 0. -1.
</event>
<event>
 5   0  0.3832389E-07  0.3804621E+04  0.7818609E-02  0.8045164E-01
        2   -1    0    0  501    0  0.00000000000E+00  0.00000000000E+00  0.26766468040E+04  0.26766468040E+04  0.25500000920E-02 0.  1.
       -2   -1    0    0    0  501  0.00000000000E+00  0.00000000000E+00 -0.13519844693E+04  0.13519844693E+04  0.25500000920E-02 0. -1.
    10030    2    1    2    0    0  0.00000000000E+00  0.00000000000E+00  0.13246623347E+04  0.40286312734E+04  0.38046208268E+04 0.  0.
        5    1    3    3  502    0 -0.27120321479E+03 -0.76484436123E+03  0.24841638157E+04  0.26133560863E+04  0.46999998093E+01 0.  1.
       -5    1    3    3    0  502  0.27120321479E+03  0.76484436123E+03 -0.11595014810E+04  0.14152751871E+04  0.46999998093E+01 0. -1.
</event>
<event>
 5   0  0.1187925E-07  0.3858028E+04  0.7818609E-02  0.8033816E-01
       -1   -1    0    0    0  501  0.00000000000E+00  0.00000000000E+00  0.23146928962E+04  0.23146928962E+04  0.50400001928E-02 0. -1.
        1   -1    0    0  501    0  0.00000000000E+00  0.00000000000E+00 -0.16075980172E+04  0.16075980172E+04  0.50400001928E-02 0.  1.
    10030    2    1    2    0    0  0.00000000000E+00  0.00000000000E+00  0.70709487908E+03  0.39222909134E+04  0.38580283619E+04 0.  0.
        5    1    3    3  502    0  0.10246785880E+04  0.16055306478E+04  0.66421679425E+03  0.20171516823E+04  0.46999998093E+01 0. -1.
       -5    1    3    3    0  502 -0.10246785880E+04 -0.16055306478E+04  0.42878084826E+02  0.19051392311E+04  0.46999998093E+01 0.  1.
</event>
<event>
 5   0  0.3665303E-07  0.3989843E+04  0.7818609E-02  0.8006599E-01
        2   -1    0    0  501    0  0.00000000000E+00  0.00000000000E+00  0.22620951983E+04  0.22620951983E+04  0.25500000920E-02 0. -1.
       -2   -1    0    0    0  501  0.00000000000E+00  0.00000000000E+00 -0.17593033258E+04  0.17593033258E+04  0.25500000920E-02 0.  1.
    10030    2    1    2    0    0  0.00000000000E+00  0.00000000000E+00  0.50279187258E+03  0.40213985241E+04  0.39898429070E+04 0.  0.
        2    1    3    3  502    0  0.57401404347E+03  0.12380641711E+04 -0.12152472659E+04  0.18273261699E+04  0.25500000920E-02 0.  1.
       -2    1    3    3    0  502 -0.57401404347E+03 -0.12380641711E+04  0.17180391385E+04  0.21940723542E+04  0.25500000920E-02 0. -1.
</event>
<event>
 5   0  0.3610483E-07  0.2847438E+04  0.7818609E-02  0.8288690E-01
       -2   -1    0    0    0  501  0.00000000000E+00  0.00000000000E+00  0.13038806553E+04  0.13038806553E+04  0.25500000920E-02 0. -1.
        2   -1    0    0  501    0  0.00000000000E+00  0.00000000000E+00 -0.15545720202E+04  0.15545720202E+04  0.25500000920E-02 0.  1.
    10030    2    1    2    0    0  0.00000000000E+00  0.00000000000E+00 -0.25069136490E+03  0.28584526756E+04  0.28474384169E+04 0.  0.
        4    1    3    3  502    0 -0.36743824336E+03  0.55852226156E+03 -0.13871950594E+04  0.15398927642E+04  0.12699999809E+01 0.  1.
       -4    1    3    3    0  502  0.36743824336E+03 -0.55852226156E+03  0.11365036946E+04  0.13185599114E+04  0.12699999809E+01 0. -1.
</event>
<event>
 5   0  0.1187925E-07  0.3848937E+04  0.7818609E-02  0.8035734E-01
        1   -1    0    0  501    0  0.00000000000E+00  0.00000000000E+00  0.18628070214E+04  0.18628070214E+04  0.50400001928E-02 0.  1.
       -1   -1    0    0    0  501  0.00000000000E+00  0.00000000000E+00 -0.19881707144E+04  0.19881707144E+04  0.50400001928E-02 0. -1.
    10030    2    1    2    0    0  0.00000000000E+00  0.00000000000E+00 -0.12536369298E+03  0.38509777358E+04  0.38489366670E+04 0.  0.
        4    1    3    3  502    0  0.82939026272E+03 -0.18555075532E+03  0.16648661820E+04  0.18692507343E+04  0.12699999809E+01 0.  1.
       -4    1    3    3    0  502 -0.82939026272E+03  0.18555075532E+03 -0.17902298750E+04  0.19817270016E+04  0.12699999809E+01 0. -1.
</event>
<event>
 5   0  0.3832389E-07  0.3892584E+04  0.7818609E-02  0.8026573E-01
        2   -1    0    0  501    0  0.00000000000E+00  0.00000000000E+00  0.15176690887E+04  0.15176690887E+04  0.25500000920E-02 0. -1.
       -2   -1    0    0    0  501  0.00000000000E+00  0.00000000000E+00 -0.24959670474E+04  0.24959670474E+04  0.25500000920E-02 0.  1.
    10030    2    1    2    0    0  0.00000000000E+00  0.00000000000E+00 -0.97829795874E+03  0.40136361361E+04  0.38925837354E+04 0.  0.
        5    1    3    3  502    0 -0.75162790489E+03  0.14542180971E+04 -0.15746633829E+04  0.22714052128E+04  0.46999998093E+01 0.  1.
       -5    1    3    3    0  502  0.75162790489E+03 -0.14542180971E+04  0.59636542414E+03  0.17422309234E+04  0.46999998093E+01 0. -1.
</event>
<event>
 5   0  0.3810833E-07  0.3852091E+04  0.7818609E-02  0.8035068E-01
        2   -1    0    0  501    0  0.00000000000E+00  0.00000000000E+00  0.22358787022E+04  0.22358787022E+04  0.25500000920E-02 0. -1.
       -2   -1    0    0    0  501  0.00000000000E+00  0.00000000000E+00 -0.16591471878E+04  0.16591471878E+04  0.25500000920E-02 0.  1.
    10030    2    1    2    0    0  0.00000000000E+00  0.00000000000E+00  0.57673151435E+03  0.38950258900E+04  0.38520913079E+04 0.  0.
        3    1    3    3  502    0 -0.65353883907E+03 -0.33884728358E+02 -0.15432853163E+04  0.16763027074E+04  0.10100000352E+00 0.  1.
       -3    1    3    3    0  502  0.65353883907E+03  0.33884728358E+02  0.21200168306E+04  0.22187231827E+04  0.10100000352E+00 0. -1.
</event>
<event>
 5   0  0.3610483E-07  0.3931987E+04  0.7818609E-02  0.8018409E-01
       -2   -1    0    0    0  501  0.00000000000E+00  0.00000000000E+00  0.13360804052E+04  0.13360804052E+04  0.25500000920E-02 0.  1.
        2   -1    0    0  501    0  0.00000000000E+00  0.00000000000E+00 -0.28928877157E+04  0.28928877157E+04  0.25500000920E-02 0. -1.
    10030    2    1    2    0    0  0.00000000000E+00  0.00000000000E+00 -0.15568073105E+04  0.42289681210E+04  0.39319870761E+04 0.  0.
        4    1    3    3  502    0  0.10632125318E+04  0.14028431947E+04  0.16336910370E+03  0.17677898613E+04  0.12699999809E+01 0.  1.
       -4    1    3    3    0  502 -0.10632125318E+04 -0.14028431947E+04 -0.17201764142E+04  0.24611782596E+04  0.12699999809E+01 0. -1.
</event>
<event>
 5   0  0.1187925E-07  0.3901269E+04  0.7818609E-02  0.8024765E-01
       -1   -1    0    0    0  501  0.00000000000E+00  0.00000000000E+00  0.18054180617E+04  0.18054180617E+04  0.50400001928E-02 0.  1.
        1   -1    0    0  501    0  0.00000000000E+00  0.00000000000E+00 -0.21075316584E+04  0.21075316584E+04  0.50400001928E-02 0. -1.
    10030    2    1    2    0    0  0.00000000000E+00  0.00000000000E+00 -0.30211359673E+03  0.39129497201E+04  0.39012693943E+04 0.  0.
        2    1    3    3  502    0  0.45499893345E+03 -0.17002042996E+04  0.69244684699E+03  0.18913490756E+04  0.25500000920E-02 0.  1.
       -2    1    3    3    0  502 -0.45499893345E+03  0.17002042996E+04 -0.99456044372E+03  0.20216006445E+04  0.25500000920E-02 0. -1.
</event>
<event>
 5   0  0.3810833E-07  0.3902270E+04  0.7818609E-02  0.8024557E-01
        2   -1    0    0  501    0  0.00000000000E+00  0.00000000000E+00  0.13238822250E+04  0.13238822250E+04  0.25500000920E-02 0. -1.
       -2   -1    0    0    0  501  0.00000000000E+00  0.00000000000E+00 -0.28755782801E+04  0.28755782801E+04  0.25500000920E-02 0.  1.
    10030    2    1    2    0    0  0.00000000000E+00  0.00000000000E+00 -0.15516960550E+04  0.41994605051E+04  0.39022695815E+04 0.  0.
        3    1    3    3  502    0  0.17281157028E+04 -0.15726866725E+03  0.18417319104E+03  0.17450034643E+04  0.10100000352E+00 0. -1.
       -3    1    3    3    0  502 -0.17281157028E+04  0.15726866725E+03 -0.17358692461E+04  0.24544570409E+04  0.10100000352E+00 0.  1.
</event>
<event>
 5   0  0.1187925E-07  0.3898176E+04  0.7818609E-02  0.8025409E-01
        1   -1    0    0  501    0  0.00000000000E+00  0.00000000000E+00  0.19326002135E+04  0.19326002135E+04  0.50400001928E-02 0. -1.
       -1   -1    0    0    0  501  0.00000000000E+00  0.00000000000E+00 -0.19657166111E+04  0.19657166111E+04  0.50400001928E-02 0.  1.
    10030    2    1    2    0    0  0.00000000000E+00  0.00000000000E+00 -0.33116397584E+02  0.38983168246E+04  0.38981761594E+04 0.  0.
        5    1    3    3  502    0 -0.18449506684E+04 -0.29552766389E+03 -0.57132381928E+03  0.19538711742E+04  0.46999998093E+01 0.  1.
       -5    1    3    3    0  502  0.18449506684E+04  0.29552766389E+03  0.53820742170E+03  0.19444456504E+04  0.46999998093E+01 0. -1.
</event>
<event>
 5   0  0.3610483E-07  0.3919455E+04  0.7818609E-02  0.8020995E-01
        2   -1    0    0  501    0  0.00000000000E+00  0.00000000000E+00  0.21238381932E+04  0.21238381932E+04  0.25500000920E-02 0. -1.
       -2   -1    0    0    0  501  0.00000000000E+00  0.00000000000E+00 -0.18082976695E+04  0.18082976696E+04  0.25500000920E-02 0.  1.
    10030    2    1    2    0    0  0.00000000000E+00  0.00000000000E+00  0.31554052360E+03  0.39321358627E+04  0.39194548882E+04 0.  0.
        4    1    3    3  502    0 -0.80263112512E+03 -0.17873100766E+04  0.11478295094E+03  0.19626183459E+04  0.12699999809E+01 0. -1.
       -4    1    3    3    0  502  0.80263112512E+03  0.17873100766E+04  0.20075757266E+03  0.19695175168E+04  0.12699999809E+01 0.  1.
</event>
<event>
 5   0  0.1187925E-07  0.4077324E+04  0.7818609E-02  0.7989127E-01
       -1   -1    0    0    0  501  0.00000000000E+00  0.00000000000E+00  0.31521331683E+04  0.31521331683E+04  0.50400001928E-02 0.  1.
        1   -1    0    0  501    0  0.00000000000E+00  0.00000000000E+00 -0.13185177149E+04  0.13185177149E+04  0.50400001928E-02 0. -1.
    10030    2    1    2    0    0  0.00000000000E+00  0.00000000000E+00  0.18336154535E+04  0.44706508832E+04  0.40773243295E+04 0.  0.
        1    1    3    3  502    0 -0.13757849699E+04 -0.10364308550E+04  0.21124947359E+04  0.27257305828E+04  0.50400001928E-02 0.  1.
       -1    1    3    3    0  502  0.13757849699E+04  0.10364308550E+04 -0.27887928243E+03  0.17449203004E+04  0.50400001928E-02 0. -1.
</event>
<event>
 5   0  0.3832389E-07  0.3830429E+04  0.7818609E-02  0.8039656E-01
        2   -1    0    0  501    0  0.00000000000E+00  0.00000000000E+00  0.21446539026E+04  0.21446539026E+04  0.25500000920E-02 0. -1.
       -2   -1    0    0    0  501  0.00000000000E+00  0.00000000000E+00 -0.17103205981E+04  0.17103205981E+04  0.25500000920E-02 0.  1.
    10030    2    1    2    0    0  0.00000000000E+00  0.00000000000E+00  0.43433330448E+03  0.38549745008E+04  0.38304285638E+04 0.  0.
        5    1    3    3  502    0  0.20492369146E+03 -0.11345577373E+04  0.17562831401E+04  0.21008968410E+04  0.46999998093E+01 0. -1.
       -5    1    3    3    0  502 -0.20492369146E+03  0.11345577373E+04 -0.13219498356E+04  0.17540776597E+04  0.46999998093E+01 0.  1.
</event>
<event>
 5   0  0.1187925E-07  0.3841952E+04  0.7818609E-02  0.8037212E-01
       -1   -1    0    0    0  501  0.00000000000E+00  0.00000000000E+00  0.14966353034E+04  0.14966353034E+04  0.50400001928E-02 0. -1.
        1   -1    0    0  501    0  0.00000000000E+00  0.00000000000E+00 -0.24656299911E+04  0.24656299911E+04  0.50400001928E-02 0.  1.
    10030    2    1    2    0    0  0.00000000000E+00  0.00000000000E+00 -0.96899468773E+03  0.39622652945E+04  0.38419520506E+04 0.  0.
        5    1    3    3  502    0 -0.25385116110E+03  0.15502128205E+04 -0.16248016612E+04  0.22600006038E+04  0.46999998093E+01 0.  1.
       -5    1    3    3    0  502  0.25385116110E+03 -0.15502128205E+04  0.65580697346E+03  0.17022646907E+04  0.46999998093E+01 0. -1.
</event>
<event>
 5   0  0.1187925E-07  0.3934042E+04  0.7818609E-02  0.8017986E-01
        1   -1    0    0  501    0  0.00000000000E+00  0.00000000000E+00  0.18004738112E+04  0.18004738112E+04  0.50400001928E-02 0.  1.
       -1   -1    0    0    0  501  0.00000000000E+00  0.00000000000E+00 -0.21489745916E+04  0.21489745917E+04  0.50400001928E-02 0. -1.
    10030    2    1    2    0    0  0.00000000000E+00  0.00000000000E+00 -0.34850078047E+03  0.39494484028E+04  0.39340424366E+04 0.  0.
        5    1    3    3  502    0  0.59930468915E+03  0.13800145659E+04  0.10978123137E+04  0.18624769203E+04  0.46999998093E+01 0.  1.
       -5    1    3    3    0  502 -0.59930468915E+03 -0.13800145659E+04 -0.14463130942E+04  0.20869714825E+04  0.46999998093E+01 0. -1.
</event>
<event>
 5   0  0.3832389E-07  0.3698486E+04  0.7818609E-02  0.8068297E-01
       -2   -1    0    0    0  501  0.00000000000E+00  0.00000000000E+00  0.22018248029E+04  0.22018248029E+04  0.25500000920E-02 0.  1.
        2   -1    0    0  501    0  0.00000000000E+00  0.00000000000E+00 -0.15531205091E+04  0.15531205092E+04  0.25500000920E-02 0. -1.
    10030    2    1    2    0    0  0.00000000000E+00  0.00000000000E+00  0.64870429376E+03  0.37549453121E+04  0.36984857761E+04 0.  0.
        5    1    3    3  502    0  0.55344122846E+03  0.17439304338E+04  0.51763986961E+02  0.18303803298E+04  0.46999998093E+01 0.  1.
       -5    1    3    3    0  502 -0.55344122846E+03 -0.17439304338E+04  0.59694030680E+03  0.19245649823E+04  0.46999998093E+01 0. -1.
</event>
<event>
 5   0  0.1187925E-07  0.3263873E+04  0.7818609E-02  0.8172149E-01
        1   -1    0    0  501    0  0.00000000000E+00  0.00000000000E+00  0.13852058415E+04  0.13852058415E+04  0.50400001928E-02 0.  1.
       -1   -1    0    0    0  501  0.00000000000E+00  0.00000000000E+00 -0.19226145795E+04  0.19226145795E+04  0.50400001928E-02 0. -1.
    10030    2    1    2    0    0  0.00000000000E+00  0.00000000000E+00 -0.53740873795E+03  0.33078204210E+04  0.32638731265E+04 0.  0.
        4    1    3    3  502    0 -0.63061756475E+03 -0.58176054675E+03 -0.16755933298E+04  0.18824819964E+04  0.12699999809E+01 0. -1.
       -4    1    3    3    0  502  0.63061756475E+03  0.58176054675E+03  0.11381845919E+04  0.14253384247E+04  0.12699999809E+01 0.  1.
</event>
<event>
 5   0  0.1187925E-07  0.3924437E+04  0.7818609E-02  0.8019966E-01
        1   -1    0    0  501    0  0.00000000000E+00  0.00000000000E+00  0.12496027947E+04  0.12496027947E+04  0.50400001928E-02 0.  1.
       -1   -1    0    0    0  501  0.00000000000E+00  0.00000000000E+00 -0.30812197161E+04  0.30812197161E+04  0.50400001928E-02 0. -1.
    10030    2    1    2    0    0  0.00000000000E+00  0.00000000000E+00 -0.18316169213E+04  0.43308225108E+04  0.39244366568E+04 0.  0.
        4    1    3    3  502    0 -0.41819685829E+03 -0.65102028345E+03 -0.29057508021E+04  0.30070093712E+04  0.12699999809E+01 0. -1.
       -4    1    3    3    0  502  0.41819685829E+03  0.65102028345E+03  0.10741338808E+04  0.13238131396E+04  0.12699999809E+01 0.  1.
</event>
<event>
 5   0  0.1187925E-07  0.3900468E+04  0.7818609E-02  0.8024932E-01
       -1   -1    0    0    0  501  0.00000000000E+00  0.00000000000E+00  0.28489645413E+04  0.28489645413E+04  0.50400001928E-02 0. -1.
        1   -1    0    0  501    0  0.00000000000E+00  0.00000000000E+00 -0.13350160884E+04  0.13350160885E+04  0.50400001928E-02 0.  1.
    10030    2    1    2    0    0  0.00000000000E+00  0.00000000000E+00  0.15139484528E+04  0.41839806297E+04  0.39004684324E+04 0.  0.
        5    1    3    3  502    0  0.11067679328E+03  0.19120902935E+04  0.36276694839E+03  0.19493487609E+04  0.46999998093E+01 0.  1.
       -5    1    3    3    0  502 -0.11067679328E+03 -0.19120902935E+04  0.11511815044E+04  0.22346318688E+04  0.46999998093E+01 0. -1.
</event>
<event>
 5   0  0.1187925E-07  0.3053712E+04  0.7818609E-02  0.8228557E-01
        1   -1    0    0  501    0  0.00000000000E+00  0.00000000000E+00  0.18293960571E+04  0.18293960571E+04  0.50400001928E-02 0. -1.
       -1   -1    0    0    0  501  0.00000000000E+00  0.00000000000E+00 -0.12743488616E+04  0.12743488616E+04  0.50400001928E-02 0.  1.
    10030    2    1    2    0    0  0.00000000000E+00  0.00000000000E+00  0.55504719547E+03  0.31037449187E+04  0.30537116975E+04 0.  0.
        4    1    3    3  502    0  0.71468876536E+03  0.13304906076E+04  0.50547911293E+03  0.15926380740E+04  0.12699999809E+01 0. -1.
       -4    1    3    3    0  502 -0.71468876536E+03 -0.13304906076E+04  0.49568082538E+02  0.15111068447E+04  0.12699999809E+01 0.  1.
</event>
<event>
 5   0  0.1187925E-07  0.3554436E+04  0.7818609E-02  0.8101009E-01
        1   -1    0    0  501    0  0.00000000000E+00  0.00000000000E+00  0.20116485230E+04  0.20116485230E+04  0.50400001928E-02 0.  1.
       -1   -1    0    0    0  501  0.00000000000E+00  0.00000000000E+00 -0.15701074545E+04  0.15701074545E+04  0.50400001928E-02 0. -1.
    10030    2    1    2    0    0  0.00000000000E+00  0.00000000000E+00  0.44154106851E+03  0.35817559776E+04  0.35544362940E+04 0.  0.
        4    1    3    3  502    0  0.85522208917E+03 -0.10528766448E+04 -0.93633599285E+03  0.16482356492E+04  0.12699999809E+01 0. -1.
       -4    1    3    3    0  502 -0.85522208917E+03  0.10528766448E+04  0.13778770614E+04  0.19335203283E+04  0.12699999809E+01 0.  1.
</event>
<event>
 5   0  0.1187925E-07  0.3290303E+04  0.7818609E-02  0.8165367E-01
       -1   -1    0    0    0  501  0.00000000000E+00  0.00000000000E+00  0.15544510076E+04  0.15544510076E+04  0.50400001928E-02 0. -1.
        1   -1    0    0  501    0  0.00000000000E+00  0.00000000000E+00 -0.17411438372E+04  0.17411438372E+04  0.50400001928E-02 0.  1.
    10030    2    1    2    0    0  0.00000000000E+00  0.00000000000E+00 -0.18669282957E+03  0.32955948448E+04  0.32903025953E+04 0.  0.
        4    1    3    3  502    0 -0.26885070018E+03 -0.61789975463E+03 -0.15965736180E+04  0.17329540491E+04  0.12699999809E+01 0.  1.
       -4    1    3    3    0  502  0.26885070018E+03  0.61789975463E+03  0.14098807885E+04  0.15626407957E+04  0.12699999809E+01 0. -1.
</event>
<event>
 5   0  0.1187925E-07  0.3984042E+04  0.7818609E-02  0.8007774E-01
        1   -1    0    0  501    0  0.00000000000E+00  0.00000000000E+00  0.18742962043E+04  0.18742962043E+04  0.50400001928E-02 0. -1.
       -1   -1    0    0    0  501  0.00000000000E+00  0.00000000000E+00 -0.21171397923E+04  0.21171397923E+04  0.50400001928E-02 0.  1.
    10030    2    1    2    0    0  0.00000000000E+00  0.00000000000E+00 -0.24284358803E+03  0.39914359966E+04  0.39840417049E+04 0.  0.
        1    1    3    3  502    0  0.81240779199E+03 -0.11904537215E+04  0.12562524300E+04  0.19118987032E+04  0.50400001928E-02 0. -1.
       -1    1    3    3    0  502 -0.81240779199E+03  0.11904537215E+04 -0.14990960180E+04  0.20795372934E+04  0.50400001928E-02 0.  1.
</event>
<event>
 5   0  0.3665303E-07  0.3952435E+04  0.7818609E-02  0.8014211E-01
        2   -1    0    0  501    0  0.00000000000E+00  0.00000000000E+00  0.26013828580E+04  0.26013828580E+04  0.25500000920E-02 0.  1.
       -2   -1    0    0    0  501  0.00000000000E+00  0.00000000000E+00 -0.15012921468E+04  0.15012921468E+04  0.25500000920E-02 0. -1.
    10030    2    1    2    0    0  0.00000000000E+00  0.00000000000E+00  0.11000907112E+04  0.41026750048E+04  0.39524350244E+04 0.  0.
        2    1    3    3  502    0  0.11306849019E+03  0.19728542530E+04  0.57319251871E+03  0.20575441795E+04  0.25500000920E-02 0. -1.
       -2    1    3    3    0  502 -0.11306849019E+03 -0.19728542530E+04  0.52689819245E+03  0.20451308253E+04  0.25500000920E-02 0.  1.
</event>
<event>
 5   0  0.1187925E-07  0.3802855E+04  0.7818609E-02  0.8045542E-01
        1   -1    0    0  501    0  0.00000000000E+00  0.00000000000E+00  0.10910657240E+04  0.10910657240E+04  0.50400001928E-02 0. -1.
       -1   -1    0    0    0  501  0.00000000000E+00  0.00000000000E+00 -0.33136654340E+04  0.33136654340E+04  0.50400001928E-02 0.  1.
    10030    2    1    2    0    0  0.00000000000E+00  0.00000000000E+00 -0.22225997100E+04  0.44047311580E+04  0.38028551252E+04 0.  0.
        1    1    3    3  502    0  0.45099970508E+03  0.13956819783E+04 -0.25128049414E+04  0.29095562535E+04  0.50400001928E-02 0.  1.
       -1    1    3    3    0  502 -0.45099970508E+03 -0.13956819783E+04  0.29020523146E+03  0.14951749045E+04  0.50400001928E-02 0. -1.
</event>
<event>
 5   0  0.1187925E-07  0.3959668E+04  0.7818609E-02  0.8012732E-01
       -1   -1    0    0    0  501  0.00000000000E+00  0.00000000000E+00  0.15173549495E+04  0.15173549495E+04  0.50400001928E-02 0. -1.
        1   -1    0    0  501    0  0.00000000000E+00  0.00000000000E+00 -0.25832740213E+04  0.25832740213E+04  0.50400001928E-02 0.  1.
    10030    2    1    2    0    0  0.00000000000E+00  0.00000000000E+00 -0.10659190718E+04  0.41006289708E+04  0.39596684822E+04 0.  0.
        1    1    3    3  502    0  0.53459170937E+03 -0.91234992547E+03 -0.22663348845E+04  0.25008887402E+04  0.50400001928E-02 0.  1.
       -1    1    3    3    0  502 -0.53459170937E+03  0.91234992547E+03  0.12004158127E+04  0.15997402307E+04  0.50400001928E-02 0. -1.
</event>
<event>
 5   0  0.3832389E-07  0.3630824E+04  0.7818609E-02  0.8083467E-01
        2   -1    0    0  501    0  0.00000000000E+00  0.00000000000E+00  0.22671625052E+04  0.22671625052E+04  0.25500000920E-02 0. -1.
       -2   -1    0    0    0  501  0.00000000000E+00  0.00000000000E+00 -0.14536763730E+04  0.14536763730E+04  0.25500000920E-02 0.  1.
    10030    2    1    2    0    0  0.00000000000E+00  0.00000000000E+00  0.81348613220E+03  0.37208388782E+04  0.36308239106E+04 0.  0.
        5    1    3    3  502    0 -0.90881389534E+03  0.15667267754E+04  0.53276743823E+03  0.18879721180E+04  0.46999998093E+01 0.  1.
       -5    1    3    3    0  502  0.90881389534E+03 -0.15667267754E+04  0.28071869397E+03  0.18328667601E+04  0.46999998093E+01 0. -1.
</event>
<event>
 5   0  0.3832389E-07  0.3973328E+04  0.7818609E-02  0.8009949E-01
       -2   -1    0    0    0  501  0.00000000000E+00  0.00000000000E+00  0.15455889753E+04  0.15455889753E+04  0.25500000920E-02 0.  1.
        2   -1    0    0  501    0  0.00000000000E+00  0.00000000000E+00 -0.25536111298E+04  0.25536111298E+04  0.25500000920E-02 0. -1.
    10030    2    1    2    0    0  0.00000000000E+00  0.00000000000E+00 -0.10080221545E+04  0.40992001051E+04  0.39733276781E+04 0.  0.
        5    1    3    3  502    0  0.37538037334E+03 -0.83758522430E+03 -0.23217445079E+04  0.24965934957E+04  0.46999998093E+01 0. -1.
       -5    1    3    3    0  502 -0.37538037334E+03  0.83758522430E+03  0.13137223534E+04  0.16026066094E+04  0.46999998093E+01 0.  1.
</event>
<event>
 5   0  0.1187925E-07  0.3906381E+04  0.7818609E-02  0.8023703E-01
        1   -1    0    0  501    0  0.00000000000E+00  0.00000000000E+00  0.17391812483E+04  0.17391812483E+04  0.50400001928E-02 0.  1.
       -1   -1    0    0    0  501  0.00000000000E+00  0.00000000000E+00 -0.21935339566E+04  0.21935339566E+04  0.50400001928E-02 0. -1.
    10030    2    1    2    0    0  0.00000000000E+00  0.00000000000E+00 -0.45435270827E+03  0.39327152049E+04  0.39063809977E+04 0.  0.
        3    1    3    3  502    0 -0.12987493025E+03  0.24261650101E+03 -0.21739191361E+04  0.21912678258E+04  0.10100000352E+00 0. -1.
       -3    1    3    3    0  502  0.12987493025E+03 -0.24261650101E+03  0.17195664278E+04  0.17414473790E+04  0.10100000352E+00 0.  1.
</event>
<event>
 5   0  0.1187925E-07  0.3973397E+04  0.7818609E-02  0.8009935E-01
       -1   -1    0    0    0  501  0.00000000000E+00  0.00000000000E+00  0.17448260297E+04  0.17448260298E+04  0.50400001928E-02 0.  1.
        1   -1    0    0  501    0  0.00000000000E+00  0.00000000000E+00 -0.22620996497E+04  0.22620996497E+04  0.50400001928E-02 0. -1.
    10030    2    1    2    0    0  0.00000000000E+00  0.00000000000E+00 -0.51727361997E+03  0.40069256795E+04  0.39733967085E+04 0.  0.
        4    1    3    3  502    0  0.13339675421E+04 -0.11122671031E+04  0.71405477944E+03  0.18778933284E+04  0.12699999809E+01 0.  1.
       -4    1    3    3    0  502 -0.13339675421E+04  0.11122671031E+04 -0.12313283994E+04  0.21290323511E+04  0.12699999809E+01 0. -1.
</event>
<event>
 5   0  0.1187925E-07  0.3887749E+04  0.7818609E-02  0.8027582E-01
       -1   -1    0    0    0  501  0.00000000000E+00  0.00000000000E+00  0.14659760902E+04  0.14659760902E+04  0.50400001928E-02 0. -1.
        1   -1    0    0  501    0  0.00000000000E+00  0.00000000000E+00 -0.25775652222E+04  0.25775652222E+04  0.50400001928E-02 0.  1.
    10030    2    1    2    0    0  0.00000000000E+00  0.00000000000E+00 -0.11115891321E+04  0.40435413124E+04  0.38877494707E+04 0.  0.
        4    1    3    3  502    0  0.17636749228E+04  0.74259382687E+03 -0.91102546072E+03  0.21194253533E+04  0.12699999809E+01 0. -1.
       -4    1    3    3    0  502 -0.17636749228E+04 -0.74259382687E+03 -0.20056367136E+03  0.19241159591E+04  0.12699999809E+01 0.  1.
</event>
<event>
 5   0  0.3610483E-07  0.4117049E+04  0.7818609E-02  0.7981341E-01
       -2   -1    0    0    0  501  0.00000000000E+00  0.00000000000E+00  0.19134833500E+04  0.19134833500E+04  0.25500000920E-02 0.  1.
        2   -1    0    0  501    0  0.00000000000E+00  0.00000000000E+00 -0.22145598641E+04  0.22145598641E+04  0.25500000920E-02 0. -1.
    10030    2    1    2    0    0  0.00000000000E+00  0.00000000000E+00 -0.30107651408E+03  0.41280432141E+04  0.41170491508E+04 0.  0.
        4    1    3    3  502    0 -0.10851571889E+04  0.13089171046E+04 -0.13141076142E+04  0.21488858848E+04  0.12699999809E+01 0. -1.
       -4    1    3    3    0  502  0.10851571889E+04 -0.13089171046E+04  0.10130311001E+04  0.19791573293E+04  0.12699999809E+01 0.  1.
</event>
<event>
 5   0  0.1187925E-07  0.3522733E+04  0.7818609E-02  0.8108424E-01
        1   -1    0    0  501    0  0.00000000000E+00  0.00000000000E+00  0.10474301174E+04  0.10474301174E+04  0.50400001928E-02 0. -1.
       -1   -1    0    0    0  501  0.00000000000E+00  0.00000000000E+00 -0.29619273677E+04  0.29619273677E+04  0.50400001928E-02 0.  1.
    10030    2    1    2    0    0  0.00000000000E+00  0.00000000000E+00 -0.19144972503E+04  0.40093574851E+04  0.35227329904E+04 0.  0.
        3    1    3    3  502    0  0.25337988017E+03 -0.94840296390E+03 -0.26217121840E+04  0.27994721524E+04  0.10100000352E+00 0.  1.
       -3    1    3    3    0  502 -0.25337988017E+03  0.94840296390E+03  0.70721493376E+03  0.12098853327E+04  0.10100000352E+00 0. -1.
</event>
<event>
 5   0  0.3665303E-07  0.3748692E+04  0.7818609E-02  0.8057256E-01
        2   -1    0    0  501    0  0.00000000000E+00  0.00000000000E+00  0.13454316485E+04  0.13454316485E+04  0.25500000920E-02 0. -1.
       -2   -1    0    0    0  501  0.00000000000E+00  0.00000000000E+00 -0.26111865497E+04  0.26111865497E+04  0.25500000920E-02 0.  1.
    10030    2    1    2    0    0  0.00000000000E+00  0.00000000000E+00 -0.12657549012E+04  0.39566181981E+04  0.37486920513E+04 0.  0.
        2    1    3    3  502    0  0.26154850262E+03 -0.54844898812E+03  0.12385953266E+04  0.13796094719E+04  0.25500000920E-02 0. -1.
       -2    1    3    3    0  502 -0.26154850262E+03  0.54844898812E+03 -0.25043502278E+04  0.25770087263E+04  0.25500000920E-02 0.  1.
</event>
<event>
 5   0  0.3832389E-07  0.3886160E+04  0.7818609E-02  0.8027914E-01
        2   -1    0    0  501    0  0.00000000000E+00  0.00000000000E+00  0.13915017607E+04  0.13915017607E+04  0.25500000920E-02 0. -1.
       -2   -1    0    0    0  501  0.00000000000E+00  0.00000000000E+00 -0.27132988804E+04  0.27132988804E+04  0.25500000920E-02 0.  1.
    10030    2    1    2    0    0  0.00000000000E+00  0.00000000000E+00 -0.13217971197E+04  0.41048006410E+04  0.38861601456E+04 0.  0.
        5    1    3    3  502    0  0.12325616381E+04 -0.13838936056E+04 -0.43940332693E+02  0.18537320589E+04  0.46999998093E+01 0.  1.
       -5    1    3    3    0  502 -0.12325616381E+04  0.13838936056E+04 -0.12778567870E+04  0.22510685821E+04  0.46999998093E+01 0. -1.
</event>
<event>
 5   0  0.3810833E-07  0.3889633E+04  0.7818609E-02  0.8027189E-01
        2   -1    0    0  501    0  0.00000000000E+00  0.00000000000E+00  0.15474409335E+04  0.15474409335E+04  0.25500000920E-02 0. -1.
       -2   -1    0    0    0  501  0.00000000000E+00  0.00000000000E+00 -0.24442359465E+04  0.24442359465E+04  0.25500000920E-02 0.  1.
    10030    2    1    2    0    0  0.00000000000E+00  0.00000000000E+00 -0.89679501300E+03  0.39916768800E+04  0.38896327615E+04 0.  0.
        3    1    3    3  502    0  0.23590334885E+03 -0.11033282925E+04 -0.20740413805E+04  0.23610657274E+04  0.10100000352E+00 0.  1.
       -3    1    3    3    0  502 -0.23590334885E+03  0.11033282925E+04  0.11772463675E+04  0.16306111526E+04  0.10100000352E+00 0. -1.
</event>
<event>
 5   0  0.1187925E-07  0.3926848E+04  0.7818609E-02  0.8019468E-01
       -1   -1    0    0    0  501  0.00000000000E+00  0.00000000000E+00  0.26779965896E+04  0.26779965896E+04  0.50400001928E-02 0. -1.
        1   -1    0    0  501    0  0.00000000000E+00  0.00000000000E+00 -0.14395211881E+04  0.14395211881E+04  0.50400001928E-02 0.  1.
    10030    2    1    2    0    0  0.00000000000E+00  0.00000000000E+00  0.12384754015E+04  0.41175177777E+04  0.39268475052E+04 0.  0.
        2    1    3    3  502    0  0.16649139298E+04 -0.12325248145E+03  0.17028087766E+04  0.23846776087E+04  0.25500000920E-02 0. -1.
       -2    1    3    3    0  502 -0.16649139298E+04  0.12325248145E+03 -0.46433337517E+03  0.17328401689E+04  0.25500000920E-02 0.  1.
</event>
<event>
 5   0  0.3810833E-07  0.3933337E+04  0.7818609E-02  0.8018131E-01
       -2   -1    0    0    0  501  0.00000000000E+00  0.00000000000E+00  0.14847946083E+04  0.14847946083E+04  0.25500000920E-02 0. -1.
        2   -1    0    0  501    0  0.00000000000E+00  0.00000000000E+00 -0.26049291393E+04  0.26049291393E+04  0.25500000920E-02 0.  1.
    10030    2    1    2    0    0  0.00000000000E+00  0.00000000000E+00 -0.11201345310E+04  0.40897237476E+04  0.39333368740E+04 0.  0.
        3    1    3    3  502    0  0.80099805266E+03  0.56738129751E+02  0.13065737400E+04  0.15336075260E+04  0.10100000352E+00 0. -1.
       -3    1    3    3    0  502 -0.80099805266E+03 -0.56738129751E+02 -0.24267082710E+04  0.25561162216E+04  0.10100000352E+00 0.  1.
</event>
<event>
 5   0  0.1187925E-07  0.3881371E+04  0.7818609E-02  0.8028915E-01
       -1   -1    0    0    0  501  0.00000000000E+00  0.00000000000E+00  0.20981091865E+04  0.20981091865E+04  0.50400001928E-02 0.  1.
        1   -1    0    0  501    0  0.00000000000E+00  0.00000000000E+00 -0.17950735266E+04  0.17950735266E+04  0.50400001928E-02 0. -1.
    10030    2    1    2    0    0  0.00000000000E+00  0.00000000000E+00  0.30303565983E+03  0.38931827131E+04  0.38813710241E+04 0.  0.
        5    1    3    3  502    0 -0.11844706247E+04 -0.96933796573E+03  0.13483174946E+04  0.20397472660E+04  0.46999998093E+01 0.  1.
       -5    1    3    3    0  502  0.11844706247E+04  0.96933796573E+03 -0.10452818348E+04  0.18534354472E+04  0.46999998093E+01 0. -1.
</event>
<event>
 5   0  0.1187925E-07  0.3844659E+04  0.7818609E-02  0.8036639E-01
        1   -1    0    0  501    0  0.00000000000E+00  0.00000000000E+00  0.28067447649E+04  0.28067447649E+04  0.50400001928E-02 0.  1.
       -1   -1    0    0    0  501  0.00000000000E+00  0.00000000000E+00 -0.13165965985E+04  0.13165965985E+04  0.50400001928E-02 0. -1.
    10030    2    1    2    0    0  0.00000000000E+00  0.00000000000E+00  0.14901481664E+04  0.41233413634E+04  0.38446589499E+04 0.  0.
        3    1    3    3  502    0 -0.48111295475E+03 -0.16345403456E+04  0.16996216853E+04  0.24066378415E+04  0.10100000352E+00 0.  1.
       -3    1    3    3    0  502  0.48111295475E+03  0.16345403456E+04 -0.20947351886E+03  0.17167035219E+04  0.10100000352E+00 0. -1.
</event>
<event>
 5   0  0.1187925E-07  0.3885378E+04  0.7818609E-02  0.8028077E-01
        1   -1    0    0  501    0  0.00000000000E+00  0.00000000000E+00  0.17122880692E+04  0.17122880692E+04  0.50400001928E-02 0. -1.
       -1   -1    0    0    0  501  0.00000000000E+00  0.00000000000E+00 -0.22040919177E+04  0.22040919177E+04  0.50400001928E-02 0.  1.
    10030    2    1    2    0    0  0.00000000000E+00  0.00000000000E+00 -0.49180384853E+03  0.39163799869E+04  0.38853778679E+04 0.  0.
        4    1    3    3  502    0 -0.79868575399E+02 -0.36855281974E+03  0.16750399663E+04  0.17169655419E+04  0.12699999809E+01 0. -1.
       -4    1    3    3    0  502  0.79868575399E+02  0.36855281974E+03 -0.21668438149E+04  0.21994144451E+04  0.12699999809E+01 0.  1.
</event>
<event>
 5   0  0.3610483E-07  0.3894800E+04  0.7818609E-02  0.8026111E-01
       -2   -1    0    0    0  501  0.00000000000E+00  0.00000000000E+00  0.14282703192E+04  0.14282703192E+04  0.25500000920E-02 0. -1.
        2   -1    0    0  501    0  0.00000000000E+00  0.00000000000E+00 -0.26552170112E+04  0.26552170112E+04  0.25500000920E-02 0.  1.
    10030    2    1    2    0    0  0.00000000000E+00  0.00000000000E+00 -0.12269466920E+04  0.40834873304E+04  0.38948004561E+04 0.  0.
        4    1    3    3  502    0 -0.61402472344E+03  0.21068208935E+03 -0.25384361038E+04  0.26201283881E+04  0.12699999809E+01 0.  1.
       -4    1    3    3    0  502  0.61402472344E+03 -0.21068208935E+03  0.13114894119E+04  0.14633589423E+04  0.12699999809E+01 0. -1.
</event>
<event>
 5   0  0.1187925E-07  0.3818210E+04  0.7818609E-02  0.8042258E-01
        1   -1    0    0  501    0  0.00000000000E+00  0.00000000000E+00  0.20236907354E+04  0.20236907354E+04  0.50400001928E-02 0.  1.
       -1   -1    0    0    0  501  0.00000000000E+00  0.00000000000E+00 -0.18010075800E+04  0.18010075800E+04  0.50400001928E-02 0. -1.
    10030    2    1    2    0    0  0.00000000000E+00  0.00000000000E+00  0.22268315547E+03  0.38246983154E+04  0.38182102373E+04 0.  0.
        4    1    3    3  502    0 -0.13132664594E+03 -0.16791377382E+04 -0.78903533625E+03  0.18599270434E+04  0.12699999809E+01 0. -1.
       -4    1    3    3    0  502  0.13132664594E+03  0.16791377382E+04  0.10117184917E+04  0.19647712720E+04  0.12699999809E+01 0.  1.
</event>
<event>
 5   0  0.3832389E-07  0.3869531E+04  0.7818609E-02  0.8031396E-01
       -2   -1    0    0    0  501  0.00000000000E+00  0.00000000000E+00  0.15234577969E+04  0.15234577969E+04  0.25500000920E-02 0.  1.
        2   -1    0    0  501    0  0.00000000000E+00  0.00000000000E+00 -0.24571193591E+04  0.24571193591E+04  0.25500000920E-02 0. -1.
    10030    2    1    2    0    0  0.00000000000E+00  0.00000000000E+00 -0.93366156213E+03  0.39805771560E+04  0.38695310546E+04 0.  0.
        5    1    3    3  502    0 -0.13243986884E+04  0.98562916486E+03  0.57098120269E+03  0.17468652954E+04  0.46999998093E+01 0.  1.
       -5    1    3    3    0  502  0.13243986884E+04 -0.98562916486E+03 -0.15046427648E+04  0.22337118606E+04  0.46999998093E+01 0. -1.
</event>
<event>
 5   0  0.1187925E-07  0.3917010E+04  0.7818609E-02  0.8021501E-01
       -1   -1    0    0    0  501  0.00000000000E+00  0.00000000000E+00  0.17290108644E+04  0.17290108644E+04  0.50400001928E-02 0. -1.
        1   -1    0    0  501    0  0.00000000000E+00  0.00000000000E+00 -0.22184601754E+04  0.22184601754E+04  0.50400001928E-02 0.  1.
    10030    2    1    2    0    0  0.00000000000E+00  0.00000000000E+00 -0.48944931101E+03  0.39474710398E+04  0.39170099543E+04 0.  0.
        3    1    3    3  502    0  0.10764414712E+04  0.14581551803E+04 -0.99265445135E+03  0.20664717856E+04  0.10100000352E+00 0.  1.
       -3    1    3    3    0  502 -0.10764414712E+04 -0.14581551803E+04  0.50320514034E+03  0.18809992542E+04  0.10100000352E+00 0. -1.
</event>
<event>
 5   0  0.3665303E-07  0.3897397E+04  0.7818609E-02  0.8025571E-01
       -2   -1    0    0    0  501  0.00000000000E+00  0.00000000000E+00  0.22946788201E+04  0.22946788201E+04  0.25500000920E-02 0. -1.
        2   -1    0    0  501    0  0.00000000000E+00  0.00000000000E+00 -0.16548831438E+04  0.16548831438E+04  0.25500000920E-02 0.  1.
    10030    2    1    2    0    0  0.00000000000E+00  0.00000000000E+00  0.63979567632E+03  0.39495619639E+04  0.38973967208E+04 0.  0.
        2    1    3    3  502    0 -0.11994391199E+04  0.25079968220E+03  0.18553914759E+04  0.22235179810E+04  0.25500000920E-02 0. -1.
       -2    1    3    3    0  502  0.11994391199E+04 -0.25079968220E+03 -0.12155957995E+04  0.17260439829E+04  0.25500000920E-02 0.  1.
</event>
<event>
 5   0  0.3610483E-07  0.3903511E+04  0.7818609E-02  0.8024299E-01
       -2   -1    0    0    0  501  0.00000000000E+00  0.00000000000E+00  0.17613840335E+04  0.17613840335E+04  0.25500000920E-02 0. -1.
        2   -1    0    0  501    0  0.00000000000E+00  0.00000000000E+00 -0.21627028691E+04  0.21627028691E+04  0.25500000920E-02 0.  1.
    10030    2    1    2    0    0  0.00000000000E+00  0.00000000000E+00 -0.40131883557E+03  0.39240869026E+04  0.39035113950E+04 0.  0.
        4    1    3    3  502    0  0.10363195464E+04  0.16079207431E+04  0.18865619954E+03  0.19222278982E+04  0.12699999809E+01 0. -1.
       -4    1    3    3    0  502 -0.10363195464E+04 -0.16079207431E+04 -0.58997503511E+03  0.20018590043E+04  0.12699999809E+01 0.  1.
</event>
<event>
 5   0  0.3665303E-07  0.3960827E+04  0.7818609E-02  0.8012496E-01
        2   -1    0    0  501    0  0.00000000000E+00  0.00000000000E+00  0.24308746389E+04  0.24308746389E+04  0.25500000920E-02 0.  1.
       -2   -1    0    0    0  501  0.00000000000E+00  0.00000000000E+00 -0.16134268008E+04  0.16134268008E+04  0.25500000920E-02 0. -1.
    10030    2    1    2    0    0  0.00000000000E+00  0.00000000000E+00  0.81744783812E+03  0.40443014396E+04  0.39608273336E+04 0.  0.
        2    1    3    3  502    0  0.15222876466E+04  0.10708363620E+04 -0.28228667189E+03  0.18824813302E+04  0.25500000920E-02 0.  1.
       -2    1    3    3    0  502 -0.15222876466E+04 -0.10708363620E+04  0.10997345100E+04  0.21618201095E+04  0.25500000920E-02 0. -1.
</event>
<event>
 5   0  0.1187925E-07  0.3861051E+04  0.7818609E-02  0.8033179E-01
       -1   -1    0    0    0  501  0.00000000000E+00  0.00000000000E+00  0.12807869390E+04  0.12807869391E+04  0.50400001928E-02 0. -1.
        1   -1    0    0  501    0  0.00000000000E+00  0.00000000000E+00 -0.29098736776E+04  0.29098736776E+04  0.50400001928E-02 0.  1.
    10030    2    1    2    0    0  0.00000000000E+00  0.00000000000E+00 -0.16290867385E+04  0.41906606166E+04  0.38610507381E+04 0.  0.
        4    1    3    3  502    0 -0.98615640498E+03  0.25310396540E+03  0.96571166334E+03  0.14032700032E+04  0.12699999809E+01 0. -1.
       -4    1    3    3    0  502  0.98615640498E+03 -0.25310396540E+03 -0.25947984019E+04  0.27873906134E+04  0.12699999809E+01 0.  1.
</event>
<event>
 5   0  0.3832389E-07  0.2985944E+04  0.7818609E-02  0.8247756E-01
        2   -1    0    0  501    0  0.00000000000E+00  0.00000000000E+00  0.10756988144E+04  0.10756988144E+04  0.25500000920E-02 0.  1.
       -2   -1    0    0    0  501  0.00000000000E+00  0.00000000000E+00 -0.20721089481E+04  0.20721089481E+04  0.25500000920E-02 0. -1.
    10030    2    1    2    0    0  0.00000000000E+00  0.00000000000E+00 -0.99641013370E+03  0.31478077625E+04  0.29859438298E+04 0.  0.
        5    1    3    3  502    0  0.20041330780E+03 -0.11800029977E+03  0.10564769340E+04  0.10817833271E+04  0.46999998093E+01 0.  1.
       -5    1    3    3    0  502 -0.20041330780E+03  0.11800029977E+03 -0.20528870677E+04  0.20660244354E+04  0.46999998093E+01 0. -1.
</event>
<event>
 5   0  0.1187925E-07  0.3871402E+04  0.7818609E-02  0.8031004E-01
       -1   -1    0    0    0  501  0.00000000000E+00  0.00000000000E+00  0.16706976343E+04  0.16706976343E+04  0.50400001928E-02 0.  1.
        1   -1    0    0  501    0  0.00000000000E+00  0.00000000000E+00 -0.22427382072E+04  0.22427382072E+04  0.50400001928E-02 0. -1.
    10030    2    1    2    0    0  0.00000000000E+00  0.00000000000E+00 -0.57204057295E+03  0.39134358415E+04  0.38714015121E+04 0.  0.
        2    1    3    3  502    0  0.68287189417E+03  0.15606831356E+03 -0.21101257542E+04  0.22233537822E+04  0.25500000920E-02 0. -1.
       -2    1    3    3    0  502 -0.68287189417E+03 -0.15606831356E+03  0.15380851812E+04  0.16900820593E+04  0.25500000920E-02 0.  1.
</event>
<event>
 5   0  0.1187925E-07  0.3206583E+04  0.7818609E-02  0.8187081E-01
        1   -1    0    0  501    0  0.00000000000E+00  0.00000000000E+00  0.11527072918E+04  0.11527072918E+04  0.50400001928E-02 0.  1.
       -1   -1    0    0    0  501  0.00000000000E+00  0.00000000000E+00 -0.22300055745E+04  0.22300055745E+04  0.50400001928E-02 0. -1.
    10030    2    1    2    0    0  0.00000000000E+00  0.00000000000E+00 -0.10772982827E+04  0.33827128663E+04  0.32065830327E+04 0.  0.
        1    1    3    3  502    0 -0.12202756090E+04 -0.87341788735E+03  0.56812686943E+02  0.15017186985E+04  0.50400001928E-02 0.  1.
       -1    1    3    3    0  502  0.12202756090E+04  0.87341788735E+03 -0.11341109696E+04  0.18809941678E+04  0.50400001928E-02 0. -1.
</event>
<event>
 5   0  0.1187925E-07  0.3900752E+04  0.7818609E-02  0.8024873E-01
        1   -1    0    0  501    0  0.00000000000E+00  0.00000000000E+00  0.12608093514E+04  0.12608093514E+04  0.50400001928E-02 0. -1.
       -1   -1    0    0    0  501  0.00000000000E+00  0.00000000000E+00 -0.30170826612E+04  0.30170826612E+04  0.50400001928E-02 0.  1.
    10030    2    1    2    0    0  0.00000000000E+00  0.00000000000E+00 -0.17562733099E+04  0.42778920126E+04  0.39007517394E+04 0.  0.
        5    1    3    3  502    0 -0.21064517207E+03  0.28315416630E+03  0.12254954422E+04  0.12753073509E+04  0.46999998093E+01 0. -1.
       -5    1    3    3    0  502  0.21064517207E+03 -0.28315416630E+03 -0.29817687520E+04  0.30025846617E+04  0.46999998093E+01 0.  1.
</event>
<event>
 5   0  0.1187925E-07  0.3937463E+04  0.7818609E-02  0.8017282E-01
        1   -1    0    0  501    0  0.00000000000E+00  0.00000000000E+00  0.24425486774E+04  0.24425486774E+04  0.50400001928E-02 0. -1.
       -1   -1    0    0    0  501  0.00000000000E+00  0.00000000000E+00 -0.15868277671E+04  0.15868277671E+04  0.50400001928E-02 0.  1.
    10030    2    1    2    0    0  0.00000000000E+00  0.00000000000E+00  0.85572091031E+03  0.40293764445E+04  0.39374631751E+04 0.  0.
        4    1    3    3  502    0  0.12906695091E+04 -0.96400386869E+03 -0.73026902451E+03  0.17687356223E+04  0.12699999809E+01 0.  1.
       -4    1    3    3    0  502 -0.12906695091E+04  0.96400386869E+03  0.15859899348E+04  0.22606408222E+04  0.12699999809E+01 0. -1.
</event>
<event>
 5   0  0.3680814E-07  0.3949100E+04  0.7818609E-02  0.8014894E-01
       -2   -1    0    0    0  501  0.00000000000E+00  0.00000000000E+00  0.21382706401E+04  0.21382706401E+04  0.25500000920E-02 0. -1.
        2   -1    0    0  501    0  0.00000000000E+00  0.00000000000E+00 -0.18233652882E+04  0.18233652882E+04  0.25500000920E-02 0.  1.
    10030    2    1    2    0    0  0.00000000000E+00  0.00000000000E+00  0.31490535189E+03  0.39616359283E+04  0.39491003846E+04 0.  0.
        1    1    3    3  502    0 -0.18870513900E+04  0.54880889332E+03 -0.34712975252E+02  0.19655429633E+04  0.50400001928E-02 0. -1.
       -1    1    3    3    0  502  0.18870513900E+04 -0.54880889332E+03  0.34961832715E+03  0.19960929650E+04  0.50400001928E-02 0.  1.
</event>
<event>
 5   0  0.1187925E-07  0.3816219E+04  0.7818609E-02  0.8042683E-01
        1   -1    0    0  501    0  0.00000000000E+00  0.00000000000E+00  0.13225363671E+04  0.13225363671E+04  0.50400001928E-02 0. -1.
       -1   -1    0    0    0  501  0.00000000000E+00  0.00000000000E+00 -0.27529536480E+04  0.27529536480E+04  0.50400001928E-02 0.  1.
    10030    2    1    2    0    0  0.00000000000E+00  0.00000000000E+00 -0.14304172809E+04  0.40754900151E+04  0.38162187130E+04 0.  0.
        1    1    3    3  502    0 -0.92119961848E+03 -0.24833196818E+03 -0.24799291083E+04  0.26571273748E+04  0.50400001928E-02 0.  1.
       -1    1    3    3    0  502  0.92119961848E+03  0.24833196818E+03  0.10495118274E+04  0.14183626403E+04  0.50400001928E-02 0. -1.
</event>
<event>
 5   0  0.3810833E-07  0.2982368E+04  0.7818609E-02  0.8248784E-01
       -2   -1    0    0    0  501  0.00000000000E+00  0.00000000000E+00  0.15251501149E+04  0.15251501149E+04  0.25500000920E-02 0.  1.
        2   -1    0    0  501    0  0.00000000000E+00  0.00000000000E+00 -0.14579743201E+04  0.14579743201E+04  0.25500000920E-02 0. -1.
    10030    2    1    2    0    0  0.00000000000E+00  0.00000000000E+00  0.67175794798E+02  0.29831244350E+04  0.29823679866E+04 0.  0.
        3    1    3    3  502    0 -0.65255314671E+03  0.36765796836E+03 -0.12561699202E+04  0.14625186733E+04  0.10100000352E+00 0. -1.
       -3    1    3    3    0  502  0.65255314671E+03 -0.36765796836E+03  0.13233457150E+04  0.15206057618E+04  0.10100000352E+00 0.  1.
</event>
<event>
 5   0  0.3680814E-07  0.3914316E+04  0.7818609E-02  0.8022058E-01
       -2   -1    0    0    0  501  0.00000000000E+00  0.00000000000E+00  0.25252594156E+04  0.25252594156E+04  0.25500000920E-02 0.  1.
        2   -1    0    0  501    0  0.00000000000E+00  0.00000000000E+00 -0.15168611101E+04  0.15168611101E+04  0.25500000920E-02 0. -1.
    10030    2    1    2    0    0  0.00000000000E+00  0.00000000000E+00  0.10083983055E+04  0.40421205258E+04  0.39143161858E+04 0.  0.
        1    1    3    3  502    0  0.17820926953E+04  0.80450627447E+03  0.41546881265E+03  0.19989244745E+04  0.50400001928E-02 0. -1.
       -1    1    3    3    0  502 -0.17820926953E+04 -0.80450627447E+03  0.59292949285E+03  0.20431960513E+04  0.50400001928E-02 0.  1.
</event>
<event>
 5   0  0.3680814E-07  0.3872291E+04  0.7818609E-02  0.8030817E-01
        2   -1    0    0  501    0  0.00000000000E+00  0.00000000000E+00  0.12648489051E+04  0.12648489051E+04  0.25500000920E-02 0.  1.
       -2   -1    0    0    0  501  0.00000000000E+00  0.00000000000E+00 -0.29637206133E+04  0.29637206133E+04  0.25500000920E-02 0. -1.
    10030    2    1    2    0    0  0.00000000000E+00  0.00000000000E+00 -0.16988717082E+04  0.42285695184E+04  0.38722906774E+04 0.  0.
        1    1    3    3  502    0  0.32200745841E+03  0.33864794429E+03  0.12023430686E+04  0.12899612739E+04  0.50400001928E-02 0.  1.
       -1    1    3    3    0  502 -0.32200745841E+03 -0.33864794429E+03 -0.29012147768E+04  0.29386082445E+04  0.50400001928E-02 0. -1.
</event>
<event>
 5   0  0.3832389E-07  0.3543404E+04  0.7818609E-02  0.8103580E-01
       -2   -1    0    0    0  501  0.00000000000E+00  0.00000000000E+00  0.22500738149E+04  0.22500738149E+04  0.25500000920E-02 0. -1.
        2   -1    0    0  501    0  0.00000000000E+00  0.00000000000E+00 -0.13950336973E+04  0.13950336973E+04  0.25500000920E-02 0.  1.
    10030    2    1    2    0    0  0.00000000000E+00  0.00000000000E+00  0.85504011759E+03  0.36451075122E+04  0.35434044608E+04 0.  0.
        5    1    3    3  502    0  0.12426038725E+04 -0.31180025240E+03 -0.83137884109E+03  0.15272513378E+04  0.46999998093E+01 0.  1.
       -5    1    3    3    0  502 -0.12426038725E+04  0.31180025240E+03  0.16864189587E+04  0.21178561744E+04  0.46999998093E+01 0. -1.
</event>
<event>
 5   0  0.1187925E-07  0.3917940E+04  0.7818609E-02  0.8021308E-01
        1   -1    0    0  501    0  0.00000000000E+00  0.00000000000E+00  0.26311342131E+04  0.26311342131E+04  0.50400001928E-02 0.  1.
       -1   -1    0    0    0  501  0.00000000000E+00  0.00000000000E+00 -0.14585203863E+04  0.14585203863E+04  0.50400001928E-02 0. -1.
    10030    2    1    2    0    0  0.00000000000E+00  0.00000000000E+00  0.11726138268E+04  0.40896545994E+04  0.39179397081E+04 0.  0.
        5    1    3    3  502    0  0.70575706725E+02  0.19062555265E+04  0.10516595325E+04  0.21782563955E+04  0.46999998093E+01 0.  1.
       -5    1    3    3    0  502 -0.70575706725E+02 -0.19062555265E+04  0.12095429433E+03  0.19113982039E+04  0.46999998093E+01 0. -1.
</event>
<event>
 5   0  0.3810833E-07  0.3179343E+04  0.7818609E-02  0.8194294E-01
       -2   -1    0    0    0  501  0.00000000000E+00  0.00000000000E+00  0.20818242043E+04  0.20818242044E+04  0.25500000920E-02 0.  1.
        2   -1    0    0  501    0  0.00000000000E+00  0.00000000000E+00 -0.12138659325E+04  0.12138659325E+04  0.25500000920E-02 0. -1.
    10030    2    1    2    0    0  0.00000000000E+00  0.00000000000E+00  0.86795827182E+03  0.32956901369E+04  0.31793430008E+04 0.  0.
        3    1    3    3  502    0  0.10129429998E+04 -0.69900327537E+03 -0.60902079055E+03  0.13731589250E+04  0.10100000352E+00 0. -1.
       -3    1    3    3    0  502 -0.10129429998E+04  0.69900327537E+03  0.14769790624E+04  0.19225312119E+04  0.10100000352E+00 0.  1.
</event>
<event>
 5   0  0.1187925E-07  0.3942938E+04  0.7818609E-02  0.8016158E-01
       -1   -1    0    0    0  501  0.00000000000E+00  0.00000000000E+00  0.19026881796E+04  0.19026881796E+04  0.50400001928E-02 0. -1.
        1   -1    0    0  501    0  0.00000000000E+00  0.00000000000E+00 -0.20427363186E+04  0.20427363186E+04  0.50400001928E-02 0.  1.
    10030    2    1    2    0    0  0.00000000000E+00  0.00000000000E+00 -0.14004813907E+03  0.39454244982E+04  0.39429381164E+04 0.  0.
        2    1    3    3  502    0 -0.67954088440E+03  0.10627293271E+04 -0.15860771010E+04  0.20265265867E+04  0.25500000920E-02 0.  1.
       -2    1    3    3    0  502  0.67954088440E+03 -0.10627293271E+04  0.14460289619E+04  0.19188979115E+04  0.25500000920E-02 0. -1.
</event>
<event>
 5   0  0.1187925E-07  0.3880587E+04  0.7818609E-02  0.8029079E-01
        1   -1    0    0  501    0  0.00000000000E+00  0.00000000000E+00  0.15338353071E+04  0.15338353071E+04  0.50400001928E-02 0. -1.
       -1   -1    0    0    0  501  0.00000000000E+00  0.00000000000E+00 -0.24544607112E+04  0.24544607112E+04  0.50400001928E-02 0.  1.
    10030    2    1    2    0    0  0.00000000000E+00  0.00000000000E+00 -0.92062540411E+03  0.39882960183E+04  0.38805868107E+04 0.  0.
        1    1    3    3  502    0 -0.45017202275E+03 -0.35502343557E+03 -0.23654190060E+04  0.24339070574E+04  0.50400001928E-02 0.  1.
       -1    1    3    3    0  502  0.45017202275E+03  0.35502343557E+03  0.14447936019E+04  0.15543889610E+04  0.50400001928E-02 0. -1.
</event>
<event>
 5   0  0.1187925E-07  0.3898755E+04  0.7818609E-02  0.8025288E-01
       -1   -1    0    0    0  501  0.00000000000E+00  0.00000000000E+00  0.28961504028E+04  0.28961504028E+04  0.50400001928E-02 0.  1.
        1   -1    0    0  501    0  0.00000000000E+00  0.00000000000E+00 -0.13121113589E+04  0.13121113589E+04  0.50400001928E-02 0. -1.
    10030    2    1    2    0    0  0.00000000000E+00  0.00000000000E+00  0.15840390439E+04  0.42082617617E+04  0.38987545912E+04 0.  0.
        3    1    3    3  502    0 -0.34588069217E+03  0.57546546350E+03 -0.11833685961E+04  0.13605716436E+04  0.10100000352E+00 0. -1.
       -3    1    3    3    0  502  0.34588069217E+03 -0.57546546350E+03  0.27674076400E+04  0.28476901181E+04  0.10100000352E+00 0.  1.
</event>
<event>
 5   0  0.1187925E-07  0.3884582E+04  0.7818609E-02  0.8028244E-01
        1   -1    0    0  501    0  0.00000000000E+00  0.00000000000E+00  0.16953509733E+04  0.16953509733E+04  0.50400001928E-02 0.  1.
       -1   -1    0    0    0  501  0.00000000000E+00  0.00000000000E+00 -0.22251995285E+04  0.22251995285E+04  0.50400001928E-02 0. -1.
    10030    2    1    2    0    0  0.00000000000E+00  0.00000000000E+00 -0.52984855523E+03  0.39205505019E+04  0.38845819268E+04 0.  0.
        3    1    3    3  502    0  0.17858610835E+04 -0.76342018570E+03 -0.24514724942E+03  0.19576024554E+04  0.10100000352E+00 0.  1.
       -3    1    3    3    0  502 -0.17858610835E+04  0.76342018570E+03 -0.28470130581E+03  0.19629480465E+04  0.10100000352E+00 0. -1.
</event>
<event>
 5   0  0.3665303E-07  0.3916689E+04  0.7818609E-02  0.8021567E-01
        2   -1    0    0  501    0  0.00000000000E+00  0.00000000000E+00  0.26272994865E+04  0.26272994865E+04  0.25500000920E-02 0. -1.
       -2   -1    0    0    0  501  0.00000000000E+00  0.00000000000E+00 -0.14597170074E+04  0.14597170074E+04  0.25500000920E-02 0.  1.
    10030    2    1    2    0    0  0.00000000000E+00  0.00000000000E+00  0.11675824791E+04  0.40870164938E+04  0.39166892876E+04 0.  0.
        2    1    3    3  502    0 -0.33896817896E+03  0.75319820905E+03  0.24366522180E+04  0.25728352066E+04  0.25500000920E-02 0. -1.
       -2    1    3    3    0  502  0.33896817896E+03 -0.75319820905E+03 -0.12690697389E+04  0.15141812873E+04  0.25500000920E-02 0.  1.
</event>
<event>
 5   0  0.1187925E-07  0.3858692E+04  0.7818609E-02  0.8033676E-01
        1   -1    0    0  501    0  0.00000000000E+00  0.00000000000E+00  0.22841198015E+04  0.22841198015E+04  0.50400001928E-02 0.  1.
       -1   -1    0    0    0  501  0.00000000000E+00  0.00000000000E+00 -0.16296766249E+04  0.16296766250E+04  0.50400001928E-02 0. -1.
    10030    2    1    2    0    0  0.00000000000E+00  0.00000000000E+00  0.65444317652E+03  0.39137964264E+04  0.38586923428E+04 0.  0.
        5    1    3    3  502    0  0.10264697576E+04  0.15605747283E+04 -0.16270940373E+03  0.18749746894E+04  0.46999998093E+01 0.  1.
       -5    1    3    3    0  502 -0.10264697576E+04 -0.15605747283E+04  0.81715258025E+03  0.20388217370E+04  0.46999998093E+01 0. -1.
</event>
<event>
 5   0  0.3832389E-07  0.3883184E+04  0.7818609E-02  0.8028536E-01
        2   -1    0    0  501    0  0.00000000000E+00  0.00000000000E+00  0.26889969460E+04  0.26889969460E+04  0.25500000920E-02 0.  1.
       -2   -1    0    0    0  501  0.00000000000E+00  0.00000000000E+00 -0.14019279753E+04  0.14019279753E+04  0.25500000920E-02 0. -1.
    10030    2    1    2    0    0  0.00000000000E+00  0.00000000000E+00  0.12870689707E+04  0.40909249213E+04  0.38831842831E+04 0.  0.
        5    1    3    3  502    0 -0.76110175366E+03  0.16708096810E+04 -0.21819942587E+02  0.18361315501E+04  0.46999998093E+01 0. -1.
       -5    1    3    3    0  502  0.76110175366E+03 -0.16708096810E+04  0.13088889133E+04  0.22547933712E+04  0.46999998093E+01 0.  1.
</event>
<event>
 5   0  0.1187925E-07  0.3774917E+04  0.7818609E-02  0.8051559E-01
       -1   -1    0    0    0  501  0.00000000000E+00  0.00000000000E+00  0.16030518903E+04  0.16030518903E+04  0.50400001928E-02 0.  1.
        1   -1    0    0  501    0  0.00000000000E+00  0.00000000000E+00 -0.22223238635E+04  0.22223238635E+04  0.50400001928E-02 0. -1.
    10030    2    1    2    0    0  0.00000000000E+00  0.00000000000E+00 -0.61927197318E+03  0.38253757538E+04  0.37749174667E+04 0.  0.
        2    1    3    3  502    0  0.91956246282E+03  0.40255493724E+02 -0.19794739778E+04  0.21830100450E+04  0.25500000920E-02 0. -1.
       -2    1    3    3    0  502 -0.91956246282E+03 -0.40255493724E+02  0.13602020046E+04  0.16423657087E+04  0.25500000920E-02 0.  1.
</event>
<event>
 5   0  0.3832389E-07  0.3901857E+04  0.7818609E-02  0.8024643E-01
       -2   -1    0    0    0  501  0.00000000000E+00  0.00000000000E+00  0.14823670779E+04  0.14823670779E+04  0.25500000920E-02 0. -1.
        2   -1    0    0  501    0  0.00000000000E+00  0.00000000000E+00 -0.25675971873E+04  0.25675971873E+04  0.25500000920E-02 0.  1.
    10030    2    1    2    0    0  0.00000000000E+00  0.00000000000E+00 -0.10852301094E+04  0.40499642651E+04  0.39018567578E+04 0.  0.
        5    1    3    3  502    0 -0.15507281641E+04 -0.70804434800E+02 -0.17691322637E+04  0.23536401942E+04  0.46999998093E+01 0.  1.
       -5    1    3    3    0  502  0.15507281641E+04  0.70804434800E+02  0.68390215434E+03  0.16963240709E+04  0.46999998093E+01 0. -1.
</event>
<event>
 5   0  0.1187925E-07  0.3862371E+04  0.7818609E-02  0.8032901E-01
        1   -1    0    0  501    0  0.00000000000E+00  0.00000000000E+00  0.12252918605E+04  0.12252918605E+04  0.50400001928E-02 0.  1.
       -1   -1    0    0    0  501  0.00000000000E+00  0.00000000000E+00 -0.30437454247E+04  0.30437454247E+04  0.50400001928E-02 0. -1.
    10030    2    1    2    0    0  0.00000000000E+00  0.00000000000E+00 -0.18184535642E+04  0.42690372851E+04  0.38623705126E+04 0.  0.
        1    1    3    3  502    0  0.64070019660E+03  0.12957567912E+04 -0.23246853338E+04  0.27374521558E+04  0.50400001928E-02 0. -1.
       -1    1    3    3    0  502 -0.64070019660E+03 -0.12957567912E+04  0.50623176961E+03  0.15315851294E+04  0.50400001928E-02 0.  1.
</event>
<event>
 5   0  0.1187925E-07  0.3878199E+04  0.7818609E-02  0.8029579E-01
        1   -1    0    0  501    0  0.00000000000E+00  0.00000000000E+00  0.13960538652E+04  0.13960538653E+04  0.50400001928E-02 0.  1.
       -1   -1    0    0    0  501  0.00000000000E+00  0.00000000000E+00 -0.26933821273E+04  0.26933821273E+04  0.50400001928E-02 0. -1.
    10030    2    1    2    0    0  0.00000000000E+00  0.00000000000E+00 -0.12973282621E+04  0.40894359926E+04  0.38781988239E+04 0.  0.
        2    1    3    3  502    0  0.23739703375E+03 -0.11742825512E+04  0.95911743963E+03  0.15346671055E+04  0.25500000920E-02 0.  1.
       -2    1    3    3    0  502 -0.23739703375E+03  0.11742825512E+04 -0.22564457017E+04  0.25547688871E+04  0.25500000920E-02 0. -1.
</event>
<event>
 5   0  0.3680814E-07  0.3948534E+04  0.7818609E-02  0.8015010E-01
       -2   -1    0    0    0  501  0.00000000000E+00  0.00000000000E+00  0.14744627079E+04  0.14744627079E+04  0.25500000920E-02 0. -1.
        2   -1    0    0  501    0  0.00000000000E+00  0.00000000000E+00 -0.26434917999E+04  0.26434917999E+04  0.25500000920E-02 0.  1.
    10030    2    1    2    0    0  0.00000000000E+00  0.00000000000E+00 -0.11690290920E+04  0.41179545078E+04  0.39485339444E+04 0.  0.
        1    1    3    3  502    0 -0.10605250221E+04 -0.14953397878E+04 -0.13487425972E+04  0.22759307980E+04  0.50400001928E-02 0.  1.
       -1    1    3    3    0  502  0.10605250221E+04  0.14953397878E+04  0.17971350525E+03  0.18420237098E+04  0.50400001928E-02 0. -1.
</event>
<event>
 5   0  0.3680814E-07  0.3847531E+04  0.7818609E-02  0.8036031E-01
       -2   -1    0    0    0  501  0.00000000000E+00  0.00000000000E+00  0.17171104807E+04  0.17171104807E+04  0.25500000920E-02 0.  1.
        2   -1    0    0  501    0  0.00000000000E+00  0.00000000000E+00 -0.21552918780E+04  0.21552918780E+04  0.25500000920E-02 0. -1.
    10030    2    1    2    0    0  0.00000000000E+00  0.00000000000E+00 -0.43818139733E+03  0.38724023587E+04  0.38475312982E+04 0.  0.
        1    1    3    3  502    0  0.76105496658E+03  0.10133900931E+04  0.12375762996E+04  0.17713721349E+04  0.50400001928E-02 0.  1.
       -1    1    3    3    0  502 -0.76105496658E+03 -0.10133900931E+04 -0.16757576969E+04  0.21010302239E+04  0.50400001928E-02 0. -1.
</event>
<event>
 5   0  0.1187925E-07  0.3929254E+04  0.7818609E-02  0.8018972E-01
        1   -1    0    0  501    0  0.00000000000E+00  0.00000000000E+00  0.24651199435E+04  0.24651199435E+04  0.50400001928E-02 0.  1.
       -1   -1    0    0    0  501  0.00000000000E+00  0.00000000000E+00 -0.15657493423E+04  0.15657493423E+04  0.50400001928E-02 0. -1.
    10030    2    1    2    0    0  0.00000000000E+00  0.00000000000E+00  0.89937060112E+03  0.40308692858E+04  0.39292543467E+04 0.  0.
        4    1    3    3  502    0  0.13863910797E+04 -0.31029997335E+03 -0.94238670781E+03  0.17048344844E+04  0.12699999809E+01 0. -1.
       -4    1    3    3    0  502 -0.13863910797E+04  0.31029997335E+03  0.18417573089E+04  0.23260348014E+04  0.12699999809E+01 0.  1.
</event>
<event>
 5   0  0.3832389E-07  0.2864127E+04  0.7818609E-02  0.8283631E-01
       -2   -1    0    0    0  501  0.00000000000E+00  0.00000000000E+00  0.12594849879E+04  0.12594849879E+04  0.25500000920E-02 0.  1.
        2   -1    0    0  501    0  0.00000000000E+00  0.00000000000E+00 -0.16282893155E+04  0.16282893155E+04  0.25500000920E-02 0. -1.
    10030    2    1    2    0    0  0.00000000000E+00  0.00000000000E+00 -0.36880432762E+03  0.28877743034E+04  0.28641270564E+04 0.  0.
        5    1    3    3  502    0 -0.14558123329E+03  0.14242173844E+04 -0.21925350963E+03  0.14483380976E+04  0.46999998093E+01 0. -1.
       -5    1    3    3    0  502  0.14558123329E+03 -0.14242173844E+04 -0.14955081798E+03  0.14394362058E+04  0.46999998093E+01 0.  1.
</event>
<event>
 5   0  0.1187925E-07  0.3852172E+04  0.7818609E-02  0.8035051E-01
        1   -1    0    0  501    0  0.00000000000E+00  0.00000000000E+00  0.15095555383E+04  0.15095555383E+04  0.50400001928E-02 0. -1.
       -1   -1    0    0    0  501  0.00000000000E+00  0.00000000000E+00 -0.24575494235E+04  0.24575494235E+04  0.50400001928E-02 0.  1.
    10030    2    1    2    0    0  0.00000000000E+00  0.00000000000E+00 -0.94799388525E+03  0.39671049618E+04  0.38521720330E+04 0.  0.
        5    1    3    3  502    0 -0.12107956561E+04 -0.96688500502E+03 -0.16521996329E+04  0.22651000973E+04  0.46999998093E+01 0.  1.
       -5    1    3    3    0  502  0.12107956561E+04  0.96688500502E+03  0.70420574767E+03  0.17020048645E+04  0.46999998093E+01 0. -1.
</event>
<event>
 5   0  0.1187925E-07  0.3895140E+04  0.7818609E-02  0.8026041E-01
       -1   -1    0    0    0  501  0.00000000000E+00  0.00000000000E+00  0.17829268214E+04  0.17829268214E+04  0.50400001928E-02 0.  1.
        1   -1    0    0  501    0  0.00000000000E+00  0.00000000000E+00 -0.21274170936E+04  0.21274170936E+04  0.50400001928E-02 0. -1.
    10030    2    1    2    0    0  0.00000000000E+00  0.00000000000E+00 -0.34449027216E+03  0.39103439150E+04  0.38951400470E+04 0.  0.
        2    1    3    3  502    0 -0.99079395510E+03 -0.83241096443E+03 -0.16334153661E+04  0.20838969344E+04  0.25500000920E-02 0. -1.
       -2    1    3    3    0  502  0.99079395510E+03  0.83241096443E+03  0.12889250939E+04  0.18264469806E+04  0.25500000920E-02 0.  1.
</event>
<event>
 5   0  0.3832389E-07  0.3890392E+04  0.7818609E-02  0.8027031E-01
        2   -1    0    0  501    0  0.00000000000E+00  0.00000000000E+00  0.27127810842E+04  0.27127810842E+04  0.25500000920E-02 0.  1.
       -2   -1    0    0    0  501  0.00000000000E+00  0.00000000000E+00 -0.13947999977E+04  0.13947999977E+04  0.25500000920E-02 0. -1.
    10030    2    1    2    0    0  0.00000000000E+00  0.00000000000E+00  0.13179810864E+04  0.41075810819E+04  0.38903917798E+04 0.  0.
        5    1    3    3  502    0 -0.90448608744E+03  0.64042053895E+02  0.24759853944E+04  0.26368015151E+04  0.46999998093E+01 0.  1.
       -5    1    3    3    0  502  0.90448608744E+03 -0.64042053895E+02 -0.11580043079E+04  0.14707795668E+04  0.46999998093E+01 0. -1.
</event>
<event>
 5   0  0.3680814E-07  0.4043339E+04  0.7818609E-02  0.7995860E-01
       -2   -1    0    0    0  501  0.00000000000E+00  0.00000000000E+00  0.27705599047E+04  0.27705599047E+04  0.25500000920E-02 0. -1.
        2   -1    0    0  501    0  0.00000000000E+00  0.00000000000E+00 -0.14752063704E+04  0.14752063704E+04  0.25500000920E-02 0.  1.
    10030    2    1    2    0    0  0.00000000000E+00  0.00000000000E+00  0.12953535342E+04  0.42457662751E+04  0.40433390266E+04 0.  0.
        1    1    3    3  502    0 -0.45970498018E+03 -0.65812063084E+02  0.27137935653E+04  0.27532408924E+04  0.50400001928E-02 0. -1.
       -1    1    3    3    0  502  0.45970498018E+03  0.65812063084E+02 -0.14184400310E+04  0.14925253827E+04  0.50400001928E-02 0.  1.
</event>
<event>
 5   0  0.1187925E-07  0.3830718E+04  0.7818609E-02  0.8039595E-01
       -1   -1    0    0    0  501  0.00000000000E+00  0.00000000000E+00  0.17544087300E+04  0.17544087300E+04  0.50400001928E-02 0.  1.
        1   -1    0    0  501    0  0.00000000000E+00  0.00000000000E+00 -0.20910752067E+04  0.20910752067E+04  0.50400001928E-02 0. -1.
    10030    2    1    2    0    0  0.00000000000E+00  0.00000000000E+00 -0.33666647668E+03  0.38454839367E+04  0.38307182604E+04 0.  0.
        2    1    3    3  502    0 -0.51439586140E+03  0.16831294028E+04  0.59027327757E+03  0.18563270809E+04  0.25500000920E-02 0.  1.
       -2    1    3    3    0  502  0.51439586140E+03 -0.16831294028E+04 -0.92693975424E+03  0.19891568558E+04  0.25500000920E-02 0. -1.
</event>
<event>
 5   0  0.1187925E-07  0.3935317E+04  0.7818609E-02  0.8017724E-01
       -3   -1    0    0    0  501  0.00000000000E+00  0.00000000000E+00  0.30797239634E+04  0.30797239651E+04  0.10100000352E+00 0.  1.
        3   -1    0    0  501    0  0.00000000000E+00  0.00000000000E+00 -0.12571514755E+04  0.12571514795E+04  0.10100000352E+00 0. -1.
    10030    2    1    2    0    0  0.00000000000E+00  0.00000000000E+00  0.18225724880E+04  0.43368754446E+04  0.39353167787E+04 0.  0.
        4    1    3    3  502    0  0.12584655975E+03 -0.60162031225E+03 -0.11486419782E+04  0.13027526103E+04  0.12699999809E+01 0. -1.
       -4    1    3    3    0  502 -0.12584655975E+03  0.60162031225E+03  0.29712144662E+04  0.30341228343E+04  0.12699999809E+01 0.  1.
</event>
<event>
 5   0  0.1187925E-07  0.3104973E+04  0.7818609E-02  0.8214374E-01
        1   -1    0    0  501    0  0.00000000000E+00  0.00000000000E+00  0.23627544793E+04  0.23627544793E+04  0.50400001928E-02 0. -1.
       -1   -1    0    0    0  501  0.00000000000E+00  0.00000000000E+00 -0.10200866357E+04  0.10200866357E+04  0.50400001928E-02 0.  1.
    10030    2    1    2    0    0  0.00000000000E+00  0.00000000000E+00  0.13426678437E+04  0.33828411150E+04  0.31049729582E+04 0.  0.
        3    1    3    3  502    0 -0.68372233727E+03  0.33184360994E+02  0.21894597808E+04  0.22939728809E+04  0.10100000352E+00 0. -1.
       -3    1    3    3    0  502  0.68372233727E+03 -0.33184360994E+02 -0.84679193713E+03  0.10888682341E+04  0.10100000352E+00 0.  1.
</event>
<event>
 5   0  0.1187925E-07  0.2959556E+04  0.7818609E-02  0.8255375E-01
        1   -1    0    0  501    0  0.00000000000E+00  0.00000000000E+00  0.18994872519E+04  0.18994872519E+04  0.50400001928E-02 0. -1.
       -1   -1    0    0    0  501  0.00000000000E+00  0.00000000000E+00 -0.11528075808E+04  0.11528075808E+04  0.50400001928E-02 0.  1.
    10030    2    1    2    0    0  0.00000000000E+00  0.00000000000E+00  0.74667967117E+03  0.30522948327E+04  0.29595562530E+04 0.  0.
        3    1    3    3  502    0  0.11698393268E+04 -0.90264754872E+03  0.29053288723E+03  0.15058904398E+04  0.10100000352E+00 0. -1.
       -3    1    3    3    0  502 -0.11698393268E+04  0.90264754872E+03  0.45614678394E+03  0.15464043929E+04  0.10100000352E+00 0.  1.
</event>
<event>
 5   0  0.1187925E-07  0.3923897E+04  0.7818609E-02  0.8020077E-01
        1   -1    0    0  501    0  0.00000000000E+00  0.00000000000E+00  0.30910669447E+04  0.30910669447E+04  0.50400001928E-02 0. -1.
       -1   -1    0    0    0  501  0.00000000000E+00  0.00000000000E+00 -0.12452795876E+04  0.12452795877E+04  0.50400001928E-02 0.  1.
    10030    2    1    2    0    0  0.00000000000E+00  0.00000000000E+00  0.18457873570E+04  0.43363465323E+04  0.39238973331E+04 0.  0.
        5    1    3    3  502    0 -0.16996916139E+04  0.97885084573E+03  0.97377589742E+03  0.21898315344E+04  0.46999998093E+01 0.  1.
       -5    1    3    3    0  502  0.16996916139E+04 -0.97885084573E+03  0.87201145960E+03  0.21465149979E+04  0.46999998093E+01 0. -1.
</event>
<event>
 5   0  0.1187925E-07  0.3885581E+04  0.7818609E-02  0.8028035E-01
        1   -1    0    0  501    0  0.00000000000E+00  0.00000000000E+00  0.22681625775E+04  0.22681625775E+04  0.50400001928E-02 0.  1.
       -1   -1    0    0    0  501  0.00000000000E+00  0.00000000000E+00 -0.16640932379E+04  0.16640932379E+04  0.50400001928E-02 0. -1.
    10030    2    1    2    0    0  0.00000000000E+00  0.00000000000E+00  0.60406933954E+03  0.39322558154E+04  0.38855805268E+04 0.  0.
        4    1    3    3  502    0 -0.12783163162E+04  0.22289952137E+03  0.17653135245E+04  0.21909153917E+04  0.12699999809E+01 0.  1.
       -4    1    3    3    0  502  0.12783163162E+04 -0.22289952137E+03 -0.11612441850E+04  0.17413404236E+04  0.12699999809E+01 0. -1.
</event>
<event>
 5   0  0.1187925E-07  0.3914869E+04  0.7818609E-02  0.8021944E-01
       -1   -1    0    0    0  501  0.00000000000E+00  0.00000000000E+00  0.14092437602E+04  0.14092437602E+04  0.50400001928E-02 0. -1.
        1   -1    0    0  501    0  0.00000000000E+00  0.00000000000E+00 -0.27188694435E+04  0.27188694435E+04  0.50400001928E-02 0.  1.
    10030    2    1    2    0    0  0.00000000000E+00  0.00000000000E+00 -0.13096256833E+04  0.41281132037E+04  0.39148689879E+04 0.  0.
        5    1    3    3  502    0 -0.15637823675E+04 -0.15771588895E+03  0.57545993947E+03  0.16737579952E+04  0.46999998093E+01 0. -1.
       -5    1    3    3    0  502  0.15637823675E+04  0.15771588895E+03 -0.18850856227E+04  0.24543552085E+04  0.46999998093E+01 0.  1.
</event>
<event>
 5   0  0.3610483E-07  0.3884189E+04  0.7818609E-02  0.8028326E-01
       -2   -1    0    0    0  501  0.00000000000E+00  0.00000000000E+00  0.25703275148E+04  0.25703275148E+04  0.25500000920E-02 0.  1.
        2   -1    0    0  501    0  0.00000000000E+00  0.00000000000E+00 -0.14674127823E+04  0.14674127823E+04  0.25500000920E-02 0. -1.
    10030    2    1    2    0    0  0.00000000000E+00  0.00000000000E+00  0.11029147325E+04  0.40377402971E+04  0.38841892075E+04 0.  0.
        4    1    3    3  502    0  0.11689322312E+04  0.35582617846E+03 -0.10177596583E+04  0.15902361980E+04  0.12699999809E+01 0. -1.
       -4    1    3    3    0  502 -0.11689322312E+04 -0.35582617846E+03  0.21206743908E+04  0.24475040991E+04  0.12699999809E+01 0.  1.
</event>
<event>
 5   0  0.1187925E-07  0.3867008E+04  0.7818609E-02  0.8031926E-01
       -1   -1    0    0    0  501  0.00000000000E+00  0.00000000000E+00  0.14079581198E+04  0.14079581198E+04  0.50400001928E-02 0.  1.
        1   -1    0    0  501    0  0.00000000000E+00  0.00000000000E+00 -0.26552194349E+04  0.26552194349E+04  0.50400001928E-02 0. -1.
    10030    2    1    2    0    0  0.00000000000E+00  0.00000000000E+00 -0.12472613151E+04  0.40631775547E+04  0.38670080234E+04 0.  0.
        5    1    3    3  502    0 -0.19728903329E+03  0.18972643390E+04 -0.29155916048E+03  0.19296537951E+04  0.46999998093E+01 0. -1.
       -5    1    3    3    0  502  0.19728903329E+03 -0.18972643390E+04 -0.95570215460E+03  0.21335237597E+04  0.46999998093E+01 0.  1.
</event>
<event>
 5   0  0.3810833E-07  0.2964252E+04  0.7818609E-02  0.8254013E-01
       -2   -1    0    0    0  501  0.00000000000E+00  0.00000000000E+00  0.12370459204E+04  0.12370459204E+04  0.25500000920E-02 0. -1.
        2   -1    0    0  501    0  0.00000000000E+00  0.00000000000E+00 -0.17757610004E+04  0.17757610004E+04  0.25500000920E-02 0.  1.
    10030    2    1    2    0    0  0.00000000000E+00  0.00000000000E+00 -0.53871508000E+03  0.30128069207E+04  0.29642522842E+04 0.  0.
        3    1    3    3  502    0  0.80277242368E+03 -0.52758688422E+03 -0.14165199242E+04  0.17115256908E+04  0.10100000352E+00 0.  1.
       -3    1    3    3    0  502 -0.80277242368E+03  0.52758688422E+03  0.87780484418E+03  0.13012812299E+04  0.10100000352E+00 0. -1.
</event>
<event>
 5   0  0.3810833E-07  0.3716229E+04  0.7818609E-02  0.8064375E-01
        2   -1    0    0  501    0  0.00000000000E+00  0.00000000000E+00  0.23460928005E+04  0.23460928005E+04  0.25500000920E-02 0.  1.
       -2   -1    0    0    0  501  0.00000000000E+00  0.00000000000E+00 -0.14716337481E+04  0.14716337481E+04  0.25500000920E-02 0. -1.
    10030    2    1    2    0    0  0.00000000000E+00  0.00000000000E+00  0.87445905240E+03  0.38177265486E+04  0.37162289173E+04 0.  0.
        3    1    3    3  502    0  0.11488284726E+04  0.14549698001E+04  0.30791321285E+03  0.18792430751E+04  0.10100000352E+00 0.  1.
       -3    1    3    3    0  502 -0.11488284726E+04 -0.14549698001E+04  0.56654583954E+03  0.19384834735E+04  0.10100000352E+00 0. -1.
</event>
<event>
 5   0  0.3832389E-07  0.2829067E+04  0.7818609E-02  0.8294301E-01
        2   -1    0    0  501    0  0.00000000000E+00  0.00000000000E+00  0.26674294547E+04  0.26674294547E+04  0.25500000920E-02 0. -1.
       -2   -1    0    0    0  501  0.00000000000E+00  0.00000000000E+00 -0.75012474977E+03  0.75012474977E+03  0.25500000920E-02 0.  1.
    10030    2    1    2    0    0  0.00000000000E+00  0.00000000000E+00  0.19173047049E+04  0.34175542044E+04  0.28290668795E+04 0.  0.
        5    1    3    3  502    0  0.10611180523E+04 -0.78959193315E+03  0.15644157714E+04  0.20486204474E+04  0.46999998093E+01 0. -1.
       -5    1    3    3    0  502 -0.10611180523E+04  0.78959193315E+03  0.35288893356E+03  0.13689337571E+04  0.46999998093E+01 0.  1.
</event>
<event>
 5   0  0.3832389E-07  0.3883164E+04  0.7818609E-02  0.8028540E-01
        2   -1    0    0  501    0  0.00000000000E+00  0.00000000000E+00  0.16500761046E+04  0.16500761046E+04  0.25500000920E-02 0.  1.
       -2   -1    0    0    0  501  0.00000000000E+00  0.00000000000E+00 -0.22845854491E+04  0.22845854491E+04  0.25500000920E-02 0. -1.
    10030    2    1    2    0    0  0.00000000000E+00  0.00000000000E+00 -0.63450934447E+03  0.39346615537E+04  0.38831635858E+04 0.  0.
        5    1    3    3  502    0 -0.36084975795E+03 -0.14916997953E+04  0.88777610114E+03  0.17730057312E+04  0.46999998093E+01 0.  1.
       -5    1    3    3    0  502  0.36084975795E+03  0.14916997953E+04 -0.15222854456E+04  0.21616558225E+04  0.46999998093E+01 0. -1.
</event>
<event>
 5   0  0.1187925E-07  0.3658988E+04  0.7818609E-02  0.8077112E-01
       -1   -1    0    0    0  501  0.00000000000E+00  0.00000000000E+00  0.12810590355E+04  0.12810590355E+04  0.50400001928E-02 0.  1.
        1   -1    0    0  501    0  0.00000000000E+00  0.00000000000E+00 -0.26127199385E+04  0.26127199385E+04  0.50400001928E-02 0. -1.
    10030    2    1    2    0    0  0.00000000000E+00  0.00000000000E+00 -0.13316609031E+04  0.38937789740E+04  0.36589881030E+04 0.  0.
        5    1    3    3  502    0  0.10278714763E+03  0.12304862165E+04  0.77074342727E+03  0.14555854655E+04  0.46999998093E+01 0.  1.
       -5    1    3    3    0  502 -0.10278714763E+03 -0.12304862165E+04 -0.21024043303E+04  0.24381935085E+04  0.46999998093E+01 0. -1.
</event>
<event>
 5   0  0.1187925E-07  0.3919667E+04  0.7818609E-02  0.8020951E-01
        1   -1    0    0  501    0  0.00000000000E+00  0.00000000000E+00  0.18523963989E+04  0.18523963989E+04  0.50400001928E-02 0. -1.
       -1   -1    0    0    0  501  0.00000000000E+00  0.00000000000E+00 -0.20735018438E+04  0.20735018438E+04  0.50400001928E-02 0.  1.
    10030    2    1    2    0    0  0.00000000000E+00  0.00000000000E+00 -0.22110544490E+03  0.39258982427E+04  0.39196670005E+04 0.  0.
        2    1    3    3  502    0  0.56237446711E+03  0.11417103313E+04 -0.16032843214E+04  0.20470193300E+04  0.25500000920E-02 0.  1.
       -2    1    3    3    0  502 -0.56237446711E+03 -0.11417103313E+04  0.13821788765E+04  0.18788789127E+04  0.25500000920E-02 0. -1.
</event>
<event>
 5   0  0.3832389E-07  0.3903234E+04  0.7818609E-02  0.8024357E-01
        2   -1    0    0  501    0  0.00000000000E+00  0.00000000000E+00  0.31905939771E+04  0.31905939771E+04  0.25500000920E-02 0.  1.
       -2   -1    0    0    0  501  0.00000000000E+00  0.00000000000E+00 -0.11937619602E+04  0.11937619602E+04  0.25500000920E-02 0. -1.
    10030    2    1    2    0    0  0.00000000000E+00  0.00000000000E+00  0.19968320168E+04  0.43843559373E+04  0.39032344128E+04 0.  0.
        5    1    3    3  502    0  0.80799358396E+03 -0.88365033291E+03 -0.73268242168E+03  0.14037582283E+04  0.46999998093E+01 0. -1.
       -5    1    3    3    0  502 -0.80799358396E+03  0.88365033291E+03  0.27295144385E+04  0.29805977089E+04  0.46999998093E+01 0.  1.
</event>
<event>
 5   0  0.3680814E-07  0.3287762E+04  0.7818609E-02  0.8166016E-01
       -2   -1    0    0    0  501  0.00000000000E+00  0.00000000000E+00  0.81562938732E+03  0.81562938733E+03  0.25500000920E-02 0. -1.
        2   -1    0    0  501    0  0.00000000000E+00  0.00000000000E+00 -0.33132022893E+04  0.33132022893E+04  0.25500000920E-02 0.  1.
    10030    2    1    2    0    0  0.00000000000E+00  0.00000000000E+00 -0.24975729020E+04  0.41288316767E+04  0.32877622501E+04 0.  0.
        1    1    3    3  502    0 -0.74927819313E+03  0.23441933054E+03 -0.30625526937E+04  0.31615817616E+04  0.50400001928E-02 0.  1.
       -1    1    3    3    0  502  0.74927819313E+03 -0.23441933054E+03  0.56497979169E+03  0.96724991511E+03  0.50400001928E-02 0. -1.
</event>
<event>
 5   0  0.1187925E-07  0.3932175E+04  0.7818609E-02  0.8018370E-01
        1   -1    0    0  501    0  0.00000000000E+00  0.00000000000E+00  0.16281099435E+04  0.16281099435E+04  0.50400001928E-02 0. -1.
       -1   -1    0    0    0  501  0.00000000000E+00  0.00000000000E+00 -0.23742256956E+04  0.23742256956E+04  0.50400001928E-02 0.  1.
    10030    2    1    2    0    0  0.00000000000E+00  0.00000000000E+00 -0.74611575219E+03  0.40023356391E+04  0.39321752062E+04 0.  0.
        2    1    3    3  502    0  0.33498138745E+03 -0.30121546802E+02  0.15986114866E+04  0.16336090483E+04  0.25500000920E-02 0. -1.
       -2    1    3    3    0  502 -0.33498138745E+03  0.30121546802E+02 -0.23447272388E+04  0.23687265908E+04  0.25500000920E-02 0.  1.
</event>
<event>
 5   0  0.3680814E-07  0.3837385E+04  0.7818609E-02  0.8038179E-01
       -2   -1    0    0    0  501  0.00000000000E+00  0.00000000000E+00  0.15299719859E+04  0.15299719859E+04  0.25500000920E-02 0. -1.
        2   -1    0    0  501    0  0.00000000000E+00  0.00000000000E+00 -0.24061752684E+04  0.24061752684E+04  0.25500000920E-02 0.  1.
    10030    2    1    2    0    0  0.00000000000E+00  0.00000000000E+00 -0.87620328245E+03  0.39361472543E+04  0.38373849188E+04 0.  0.
        1    1    3    3  502    0  0.96835680749E+02  0.73693547943E+03 -0.22525051456E+04  0.23719676391E+04  0.50400001928E-02 0.  1.
       -1    1    3    3    0  502 -0.96835680749E+02 -0.73693547943E+03  0.13763018632E+04  0.15641796152E+04  0.50400001928E-02 0. -1.
</event>
<event>
 5   0  0.1187925E-07  0.3821453E+04  0.7818609E-02  0.8041567E-01
       -1   -1    0    0    0  501  0.00000000000E+00  0.00000000000E+00  0.18010464557E+04  0.18010464557E+04  0.50400001928E-02 0.  1.
        1   -1    0    0  501    0  0.00000000000E+00  0.00000000000E+00 -0.20270858914E+04  0.20270858914E+04  0.50400001928E-02 0. -1.
    10030    2    1    2    0    0  0.00000000000E+00  0.00000000000E+00 -0.22603943562E+03  0.38281323471E+04  0.38214530536E+04 0.  0.
        4    1    3    3  502    0 -0.18758135743E+03  0.17468199930E+04 -0.86553666587E+03  0.19584999838E+04  0.12699999809E+01 0. -1.
       -4    1    3    3    0  502  0.18758135743E+03 -0.17468199930E+04  0.63949723025E+03  0.18696323633E+04  0.12699999809E+01 0.  1.
</event>
<event>
 5   0  0.3810833E-07  0.3920718E+04  0.7818609E-02  0.8020734E-01
       -2   -1    0    0    0  501  0.00000000000E+00  0.00000000000E+00  0.20120479850E+04  0.20120479850E+04  0.25500000920E-02 0. -1.
        2   -1    0    0  501    0  0.00000000000E+00  0.00000000000E+00 -0.19099974798E+04  0.19099974798E+04  0.25500000920E-02 0.  1.
    10030    2    1    2    0    0  0.00000000000E+00  0.00000000000E+00  0.10205050518E+03  0.39220454649E+04  0.39207175776E+04 0.  0.
        3    1    3    3  502    0  0.53328405220E+02 -0.72322152298E+03  0.18729364942E+04  0.20084283437E+04  0.10100000352E+00 0. -1.
       -3    1    3    3    0  502 -0.53328405220E+02  0.72322152298E+03 -0.17708859891E+04  0.19136171212E+04  0.10100000352E+00 0.  1.
</event>
<event>
 5   0  0.1187925E-07  0.3098888E+04  0.7818609E-02  0.8216043E-01
       -1   -1    0    0    0  501  0.00000000000E+00  0.00000000000E+00  0.22098147730E+04  0.22098147730E+04  0.50400001928E-02 0. -1.
        1   -1    0    0  501    0  0.00000000000E+00  0.00000000000E+00 -0.10864153259E+04  0.10864153259E+04  0.50400001928E-02 0.  1.
    10030    2    1    2    0    0  0.00000000000E+00  0.00000000000E+00  0.11233994471E+04  0.32962300989E+04  0.30988879533E+04 0.  0.
        4    1    3    3  502    0  0.90954847947E+03  0.53229043499E+03  0.17698863363E+04  0.20598812587E+04  0.12699999809E+01 0. -1.
       -4    1    3    3    0  502 -0.90954847947E+03 -0.53229043499E+03 -0.64648688925E+03  0.12363488402E+04  0.12699999809E+01 0.  1.
</event>
<event>
 5   0  0.3810833E-07  0.3901281E+04  0.7818609E-02  0.8024763E-01
        2   -1    0    0  501    0  0.00000000000E+00  0.00000000000E+00  0.13714358899E+04  0.13714358899E+04  0.25500000920E-02 0. -1.
       -2   -1    0    0    0  501  0.00000000000E+00  0.00000000000E+00 -0.27744636592E+04  0.27744636592E+04  0.25500000920E-02 0.  1.
    10030    2    1    2    0    0  0.00000000000E+00  0.00000000000E+00 -0.14030277694E+04  0.41458995491E+04  0.39012813472E+04 0.  0.
        3    1    3    3  502    0  0.10362234146E+04  0.18186439489E+03  0.10440903581E+04  0.14822139890E+04  0.10100000352E+00 0. -1.
       -3    1    3    3    0  502 -0.10362234146E+04 -0.18186439489E+03 -0.24471181275E+04  0.26636855601E+04  0.10100000352E+00 0.  1.
</event>
<event>
 5   0  0.3610483E-07  0.4034042E+04  0.7818609E-02  0.7997714E-01
        2   -1    0    0  501    0  0.00000000000E+00  0.00000000000E+00  0.23608112420E+04  0.23608112420E+04  0.25500000920E-02 0. -1.
       -2   -1    0    0    0  501  0.00000000000E+00  0.00000000000E+00 -0.17232945351E+04  0.17232945351E+04  0.25500000920E-02 0.  1.
    10030    2    1    2    0    0  0.00000000000E+00  0.00000000000E+00  0.63751670687E+03  0.40841057771E+04  0.40340417012E+04 0.  0.
        4    1    3    3  502    0  0.96090974055E+03 -0.87470709812E+01  0.21141669298E+04  0.23223108019E+04  0.12699999809E+01 0. -1.
       -4    1    3    3    0  502 -0.96090974055E+03  0.87470709812E+01 -0.14766502230E+04  0.17617949752E+04  0.12699999809E+01 0.  1.
</event>
<event>
 5   0  0.3665303E-07  0.3868556E+04  0.7818609E-02  0.8031601E-01
       -2   -1    0    0    0  501  0.00000000000E+00  0.00000000000E+00  0.28267397429E+04  0.28267397429E+04  0.25500000920E-02 0. -1.
        2   -1    0    0  501    0  0.00000000000E+00  0.00000000000E+00 -0.13235854762E+04  0.13235854762E+04  0.25500000920E-02 0.  1.
    10030    2    1    2    0    0  0.00000000000E+00  0.00000000000E+00  0.15031542668E+04  0.41503252191E+04  0.38685561486E+04 0.  0.
        2    1    3    3  502    0  0.13084539427E+04  0.21902403375E+03  0.22617276199E+04  0.26221050845E+04  0.25500000920E-02 0. -1.
       -2    1    3    3    0  502 -0.13084539427E+04 -0.21902403375E+03 -0.75857335319E+03  0.15282201346E+04  0.25500000920E-02 0.  1.
</event>
<event>
 5   0  0.3665303E-07  0.3946954E+04  0.7818609E-02  0.8015334E-01
       -2   -1    0    0    0  501  0.00000000000E+00  0.00000000000E+00  0.15994383666E+04  0.15994383666E+04  0.25500000920E-02 0.  1.
        2   -1    0    0  501    0  0.00000000000E+00  0.00000000000E+00 -0.24349863791E+04  0.24349863791E+04  0.25500000920E-02 0. -1.
    10030    2    1    2    0    0  0.00000000000E+00  0.00000000000E+00 -0.83554801252E+03  0.40344247457E+04  0.39469535780E+04 0.  0.
        2    1    3    3  502    0 -0.18222061642E+04  0.26471775901E+03  0.30796067966E+03  0.18669093649E+04  0.25500000920E-02 0.  1.
       -2    1    3    3    0  502  0.18222061642E+04 -0.26471775901E+03 -0.11435086922E+04  0.21675153807E+04  0.25500000920E-02 0. -1.
</event>
<event>
 5   0  0.1187925E-07  0.3861942E+04  0.7818609E-02  0.8032991E-01
        1   -1    0    0  501    0  0.00000000000E+00  0.00000000000E+00  0.17547641309E+04  0.17547641309E+04  0.50400001928E-02 0. -1.
       -1   -1    0    0    0  501  0.00000000000E+00  0.00000000000E+00 -0.21248716971E+04  0.21248716971E+04  0.50400001928E-02 0.  1.
    10030    2    1    2    0    0  0.00000000000E+00  0.00000000000E+00 -0.37010756614E+03  0.38796358280E+04  0.38619418105E+04 0.  0.
        4    1    3    3  502    0 -0.18956622488E+04  0.35970414897E+03 -0.10904612750E+03  0.19325669735E+04  0.12699999809E+01 0. -1.
       -4    1    3    3    0  502  0.18956622488E+04 -0.35970414897E+03 -0.26106143864E+03  0.19470688545E+04  0.12699999809E+01 0.  1.
</event>
<event>
 5   0  0.3665303E-07  0.3237053E+04  0.7818609E-02  0.8179100E-01
        2   -1    0    0  501    0  0.00000000000E+00  0.00000000000E+00  0.20173016999E+04  0.20173016999E+04  0.25500000920E-02 0. -1.
       -2   -1    0    0    0  501  0.00000000000E+00  0.00000000000E+00 -0.12985803176E+04  0.12985803176E+04  0.25500000920E-02 0.  1.
    10030    2    1    2    0    0  0.00000000000E+00  0.00000000000E+00  0.71872138229E+03  0.33158820176E+04  0.32370531551E+04 0.  0.
        2    1    3    3  502    0 -0.17487712312E+03 -0.11685943219E+04 -0.77366416566E+03  0.14123565197E+04  0.25500000920E-02 0.  1.
       -2    1    3    3    0  502  0.17487712312E+03  0.11685943219E+04  0.14923855480E+04  0.19035254979E+04  0.25500000920E-02 0. -1.
</event>
<event>
 5   0  0.3832389E-07  0.3347615E+04  0.7818609E-02  0.8150884E-01
        2   -1    0    0  501    0  0.00000000000E+00  0.00000000000E+00  0.29827148295E+04  0.29827148295E+04  0.25500000920E-02 0. -1.
       -2   -1    0    0    0  501  0.00000000000E+00  0.00000000000E+00 -0.93928909010E+03  0.93928909010E+03  0.25500000920E-02 0.  1.
    10030    2    1    2    0    0  0.00000000000E+00  0.00000000000E+00  0.20434257394E+04  0.39220039196E+04  0.33476149708E+04 0.  0.
        5    1    3    3  502    0 -0.32877919424E+03  0.30429672930E+03 -0.86773877206E+03  0.97656793136E+03  0.46999998093E+01 0.  1.
       -5    1    3    3    0  502  0.32877919424E+03 -0.30429672930E+03  0.29111645115E+04  0.29454359882E+04  0.46999998093E+01 0. -1.
</event>
<event>
 5   0  0.3832389E-07  0.3909838E+04  0.7818609E-02  0.8022986E-01
        2   -1    0    0  501    0  0.00000000000E+00  0.00000000000E+00  0.19083665859E+04  0.19083665859E+04  0.25500000920E-02 0. -1.
       -2   -1    0    0    0  501  0.00000000000E+00  0.00000000000E+00 -0.20026069054E+04  0.20026069054E+04  0.25500000920E-02 0.  1.
    10030    2    1    2    0    0  0.00000000000E+00  0.00000000000E+00 -0.94240319550E+02  0.39109734913E+04  0.39098379010E+04 0.  0.
        5    1    3    3  502    0 -0.12721500044E+04  0.94883955000E+03 -0.11889524196E+04  0.19830007744E+04  0.46999998093E+01 0.  1.
       -5    1    3    3    0  502  0.12721500044E+04 -0.94883955000E+03  0.10947121000E+04  0.19279727169E+04  0.46999998093E+01 0. -1.
</event>
<event>
 5   0  0.3810833E-07  0.3941179E+04  0.7818609E-02  0.8016519E-01
       -2   -1    0    0    0  501  0.00000000000E+00  0.00000000000E+00  0.25678825017E+04  0.25678825017E+04  0.25500000920E-02 0.  1.
        2   -1    0    0  501    0  0.00000000000E+00  0.00000000000E+00 -0.15122275794E+04  0.15122275794E+04  0.25500000920E-02 0. -1.
    10030    2    1    2    0    0  0.00000000000E+00  0.00000000000E+00  0.10556549223E+04  0.40801100811E+04  0.39411788793E+04 0.  0.
        3    1    3    3  502    0  0.35726209319E+03 -0.68296804971E+02 -0.14771742819E+04  0.15212969881E+04  0.10100000352E+00 0. -1.
       -3    1    3    3    0  502 -0.35726209319E+03  0.68296804971E+02  0.25328292042E+04  0.25588130930E+04  0.10100000352E+00 0.  1.
</event>
<event>
 5   0  0.1187925E-07  0.3916478E+04  0.7818609E-02  0.8021611E-01
       -1   -1    0    0    0  501  0.00000000000E+00  0.00000000000E+00  0.25907006979E+04  0.25907006979E+04  0.50400001928E-02 0.  1.
        1   -1    0    0  501    0  0.00000000000E+00  0.00000000000E+00 -0.14801787672E+04  0.14801787672E+04  0.50400001928E-02 0. -1.
    10030    2    1    2    0    0  0.00000000000E+00  0.00000000000E+00  0.11105219307E+04  0.40708794652E+04  0.39164780941E+04 0.  0.
        5    1    3    3  502    0 -0.14359491534E+04  0.72767162803E+03 -0.60369491584E+03  0.17192805503E+04  0.46999998093E+01 0. -1.
       -5    1    3    3    0  502  0.14359491534E+04 -0.72767162803E+03  0.17142168465E+04  0.23515989148E+04  0.46999998093E+01 0.  1.
</event>
<event>
 5   0  0.1187925E-07  0.3909495E+04  0.7818609E-02  0.8023057E-01
        1   -1    0    0  501    0  0.00000000000E+00  0.00000000000E+00  0.20272414739E+04  0.20272414739E+04  0.50400001928E-02 0.  1.
       -1   -1    0    0    0  501  0.00000000000E+00  0.00000000000E+00 -0.18848458457E+04  0.18848458457E+04  0.50400001928E-02 0. -1.
    10030    2    1    2    0    0  0.00000000000E+00  0.00000000000E+00  0.14239562827E+03  0.39120873196E+04  0.39094949394E+04 0.  0.
        1    1    3    3  502    0 -0.60651696141E+03  0.32904302385E+03 -0.17589232225E+04  0.18894292891E+04  0.50400001928E-02 0. -1.
       -1    1    3    3    0  502  0.60651696141E+03 -0.32904302385E+03  0.19013188508E+04  0.20226580305E+04  0.50400001928E-02 0.  1.
</event>
<event>
 5   0  0.3810833E-07  0.3289651E+04  0.7818609E-02  0.8165534E-01
        2   -1    0    0  501    0  0.00000000000E+00  0.00000000000E+00  0.19345114978E+04  0.19345114978E+04  0.25500000920E-02 0.  1.
       -2   -1    0    0    0  501  0.00000000000E+00  0.00000000000E+00 -0.13985193053E+04  0.13985193053E+04  0.25500000920E-02 0. -1.
    10030    2    1    2    0    0  0.00000000000E+00  0.00000000000E+00  0.53599219247E+03  0.33330308031E+04  0.32896514563E+04 0.  0.
        3    1    3    3  502    0 -0.15010308754E+04  0.22838410646E+03 -0.37295849867E+03  0.15634420491E+04  0.10100000352E+00 0.  1.
       -3    1    3    3    0  502  0.15010308754E+04 -0.22838410646E+03  0.90895069113E+03  0.17695887540E+04  0.10100000352E+00 0. -1.
</event>
<event>
 5   0  0.1187925E-07  0.3800387E+04  0.7818609E-02  0.8046072E-01
        1   -1    0    0  501    0  0.00000000000E+00  0.00000000000E+00  0.17616737530E+04  0.17616737530E+04  0.50400001928E-02 0.  1.
       -1   -1    0    0    0  501  0.00000000000E+00  0.00000000000E+00 -0.20496054595E+04  0.20496054595E+04  0.50400001928E-02 0. -1.
    10030    2    1    2    0    0  0.00000000000E+00  0.00000000000E+00 -0.28793170643E+03  0.38112792125E+04  0.38003874234E+04 0.  0.
        2    1    3    3  502    0 -0.57756802758E+03 -0.34510775250E+03 -0.19261498074E+04  0.20402787231E+04  0.25500000920E-02 0. -1.
       -2    1    3    3    0  502  0.57756802758E+03  0.34510775250E+03  0.16382181009E+04  0.17710004894E+04  0.25500000920E-02 0.  1.
</event>
<event>
 5   0  0.3610483E-07  0.3650101E+04  0.7818609E-02  0.8079111E-01
       -2   -1    0    0    0  501  0.00000000000E+00  0.00000000000E+00  0.20779377026E+04  0.20779377026E+04  0.25500000920E-02 0. -1.
        2   -1    0    0  501    0  0.00000000000E+00  0.00000000000E+00 -0.16029400635E+04  0.16029400635E+04  0.25500000920E-02 0.  1.
    10030    2    1    2    0    0  0.00000000000E+00  0.00000000000E+00  0.47499763914E+03  0.36808777661E+04  0.36501011454E+04 0.  0.
        4    1    3    3  502    0 -0.81094632113E+03 -0.15906819953E+04  0.61871379847E+03  0.18896326424E+04  0.12699999809E+01 0. -1.
       -4    1    3    3    0  502  0.81094632113E+03  0.15906819953E+04 -0.14371615933E+03  0.17912451237E+04  0.12699999809E+01 0.  1.
</event>
<event>
 5   0  0.1187925E-07  0.3125434E+04  0.7818609E-02  0.8208792E-01
       -1   -1    0    0    0  501  0.00000000000E+00  0.00000000000E+00  0.93693050433E+03  0.93693050435E+03  0.50400001928E-02 0. -1.
        1   -1    0    0  501    0  0.00000000000E+00  0.00000000000E+00 -0.26064726161E+04  0.26064726161E+04  0.50400001928E-02 0.  1.
    10030    2    1    2    0    0  0.00000000000E+00  0.00000000000E+00 -0.16695421118E+04  0.35434031204E+04  0.31254335397E+04 0.  0.
        4    1    3    3  502    0  0.57447899605E+03 -0.27839602894E+03  0.78235789398E+03  0.10097603443E+04  0.12699999809E+01 0. -1.
       -4    1    3    3    0  502 -0.57447899605E+03  0.27839602894E+03 -0.24519000057E+04  0.25336427761E+04  0.12699999809E+01 0.  1.
</event>
<event>
 5   0  0.3610483E-07  0.3867377E+04  0.7818609E-02  0.8031849E-01
       -2   -1    0    0    0  501  0.00000000000E+00  0.00000000000E+00  0.21384206555E+04  0.21384206555E+04  0.25500000920E-02 0.  1.
        2   -1    0    0  501    0  0.00000000000E+00  0.00000000000E+00 -0.17485569548E+04  0.17485569548E+04  0.25500000920E-02 0. -1.
    10030    2    1    2    0    0  0.00000000000E+00  0.00000000000E+00  0.38986370065E+03  0.38869776103E+04  0.38673765317E+04 0.  0.
        4    1    3    3  502    0  0.10615503158E+04 -0.15966381301E+04  0.44721461881E+03  0.19687927569E+04  0.12699999809E+01 0.  1.
       -4    1    3    3    0  502 -0.10615503158E+04  0.15966381301E+04 -0.57350918163E+02  0.19181848535E+04  0.12699999809E+01 0. -1.
</event>
<event>
 5   0  0.3680814E-07  0.3930261E+04  0.7818609E-02  0.8018765E-01
       -2   -1    0    0    0  501  0.00000000000E+00  0.00000000000E+00  0.13805424516E+04  0.13805424516E+04  0.25500000920E-02 0. -1.
        2   -1    0    0  501    0  0.00000000000E+00  0.00000000000E+00 -0.27972611987E+04  0.27972611987E+04  0.25500000920E-02 0.  1.
    10030    2    1    2    0    0  0.00000000000E+00  0.00000000000E+00 -0.14167187471E+04  0.41778036503E+04  0.39302609750E+04 0.  0.
        1    1    3    3  502    0 -0.12489736019E+04  0.10247834804E+04 -0.18975819884E+04  0.24921744808E+04  0.50400001928E-02 0.  1.
       -1    1    3    3    0  502  0.12489736019E+04 -0.10247834804E+04  0.48086324130E+03  0.16856291695E+04  0.50400001928E-02 0. -1.
</event>
<event>
 5   0  0.3665303E-07  0.3991833E+04  0.7818609E-02  0.8006196E-01
       -2   -1    0    0    0  501  0.00000000000E+00  0.00000000000E+00  0.29876726467E+04  0.29876726467E+04  0.25500000920E-02 0. -1.
        2   -1    0    0  501    0  0.00000000000E+00  0.00000000000E+00 -0.13333729215E+04  0.13333729215E+04  0.25500000920E-02 0.  1.
    10030    2    1    2    0    0  0.00000000000E+00  0.00000000000E+00  0.16542997252E+04  0.43210455682E+04  0.39918325644E+04 0.  0.
        2    1    3    3  502    0 -0.16891475128E+03 -0.18632724412E+04  0.15797327161E+04  0.24486469402E+04  0.25500000920E-02 0. -1.
       -2    1    3    3    0  502  0.16891475128E+03  0.18632724412E+04  0.74567009068E+02  0.18723986280E+04  0.25500000920E-02 0.  1.
</event>
<event>
 5   0  0.1187925E-07  0.3900916E+04  0.7818609E-02  0.8024839E-01
        1   -1    0    0  501    0  0.00000000000E+00  0.00000000000E+00  0.15220720719E+04  0.15220720719E+04  0.50400001928E-02 0. -1.
       -1   -1    0    0    0  501  0.00000000000E+00  0.00000000000E+00 -0.24994131975E+04  0.24994131975E+04  0.50400001928E-02 0.  1.
    10030    2    1    2    0    0  0.00000000000E+00  0.00000000000E+00 -0.97734112562E+03  0.40214852694E+04  0.39009163149E+04 0.  0.
        3    1    3    3  502    0 -0.27512225489E+03  0.17382851272E+03 -0.24712268257E+04  0.24925630666E+04  0.10100000352E+00 0.  1.
       -3    1    3    3    0  502  0.27512225489E+03 -0.17382851272E+03  0.14938857001E+04  0.15289222028E+04  0.10100000352E+00 0. -1.
</event>
<event>
 5   0  0.1187925E-07  0.3867954E+04  0.7818609E-02  0.8031727E-01
       -1   -1    0    0    0  501  0.00000000000E+00  0.00000000000E+00  0.11628617295E+04  0.11628617295E+04  0.50400001928E-02 0.  1.
        1   -1    0    0  501    0  0.00000000000E+00  0.00000000000E+00 -0.32164328337E+04  0.32164328337E+04  0.50400001928E-02 0. -1.
    10030    2    1    2    0    0  0.00000000000E+00  0.00000000000E+00 -0.20535711042E+04  0.43792945633E+04  0.38679537991E+04 0.  0.
        1    1    3    3  502    0 -0.11532322904E+04  0.53486714728E+01 -0.27845384756E+04  0.30139057461E+04  0.50400001928E-02 0. -1.
       -1    1    3    3    0  502  0.11532322904E+04 -0.53486714728E+01  0.73096737142E+03  0.13653888172E+04  0.50400001928E-02 0.  1.
</event>
<event>
 5   0  0.1187925E-07  0.3893198E+04  0.7818609E-02  0.8026445E-01
       -1   -1    0    0    0  501  0.00000000000E+00  0.00000000000E+00  0.18549807884E+04  0.18549807884E+04  0.50400001928E-02 0.  1.
        1   -1    0    0  501    0  0.00000000000E+00  0.00000000000E+00 -0.20427421094E+04  0.20427421094E+04  0.50400001928E-02 0. -1.
    10030    2    1    2    0    0  0.00000000000E+00  0.00000000000E+00 -0.18776132094E+03  0.38977228978E+04  0.38931978468E+04 0.  0.
        2    1    3    3  502    0 -0.11734405218E+04 -0.15120876959E+04  0.26132109879E+03  0.19317506503E+04  0.25500000920E-02 0.  1.
       -2    1    3    3    0  502  0.11734405218E+04  0.15120876959E+04 -0.44908241974E+03  0.19659722475E+04  0.25500000920E-02 0. -1.
</event>
<event>
 5   0  0.3665303E-07  0.3695139E+04  0.7818609E-02  0.8069040E-01
        2   -1    0    0  501    0  0.00000000000E+00  0.00000000000E+00  0.16485860403E+04  0.16485860403E+04  0.25500000920E-02 0. -1.
       -2   -1    0    0    0  501  0.00000000000E+00  0.00000000000E+00 -0.20705699646E+04  0.20705699646E+04  0.25500000920E-02 0.  1.
    10030    2    1    2    0    0  0.00000000000E+00  0.00000000000E+00 -0.42198392435E+03  0.37191560049E+04  0.36951388278E+04 0.  0.
        2    1    3    3  502    0 -0.44479478863E+03 -0.16660570724E+04 -0.87857077704E+03  0.19353230177E+04  0.25500000920E-02 0.  1.
       -2    1    3    3    0  502  0.44479478863E+03  0.16660570724E+04  0.45658685269E+03  0.17838329873E+04  0.25500000920E-02 0. -1.
</event>
<event>
 5   0  0.3832389E-07  0.3888433E+04  0.7818609E-02  0.8027439E-01
       -2   -1    0    0    0  501  0.00000000000E+00  0.00000000000E+00  0.20016838737E+04  0.20016838737E+04  0.25500000920E-02 0. -1.
        2   -1    0    0  501    0  0.00000000000E+00  0.00000000000E+00 -0.18883988295E+04  0.18883988295E+04  0.25500000920E-02 0.  1.
    10030    2    1    2    0    0  0.00000000000E+00  0.00000000000E+00  0.11328504413E+03  0.38900827032E+04  0.38884328381E+04 0.  0.
        5    1    3    3  502    0  0.16974133967E+04  0.48797606116E+03 -0.75648922795E+03  0.19213617352E+04  0.46999998093E+01 0.  1.
       -5    1    3    3    0  502 -0.16974133967E+04 -0.48797606116E+03  0.86977427208E+03  0.19687209680E+04  0.46999998093E+01 0. -1.
</event>
<event>
 5   0  0.1187925E-07  0.3861546E+04  0.7818609E-02  0.8033075E-01
       -1   -1    0    0    0  501  0.00000000000E+00  0.00000000000E+00  0.14735038196E+04  0.14735038196E+04  0.50400001928E-02 0.  1.
        1   -1    0    0  501    0  0.00000000000E+00  0.00000000000E+00 -0.25299460421E+04  0.25299460421E+04  0.50400001928E-02 0. -1.
    10030    2    1    2    0    0  0.00000000000E+00  0.00000000000E+00 -0.10564422225E+04  0.40034498617E+04  0.38615464034E+04 0.  0.
        1    1    3    3  502    0  0.45598645778E+03  0.56268237943E+03  0.13273403130E+04  0.15120738792E+04  0.50400001928E-02 0.  1.
       -1    1    3    3    0  502 -0.45598645778E+03 -0.56268237943E+03 -0.23837825355E+04  0.24913759825E+04  0.50400001928E-02 0. -1.
</event>
<event>
 5   0  0.3680814E-07  0.3800897E+04  0.7818609E-02  0.8045962E-01
       -2   -1    0    0    0  501  0.00000000000E+00  0.00000000000E+00  0.14017359000E+04  0.14017359000E+04  0.25500000920E-02 0.  1.
        2   -1    0    0  501    0  0.00000000000E+00  0.00000000000E+00 -0.25765940818E+04  0.25765940818E+04  0.25500000920E-02 0. -1.
    10030    2    1    2    0    0  0.00000000000E+00  0.00000000000E+00 -0.11748581818E+04  0.39783299819E+04  0.38008969596E+04 0.  0.
        1    1    3    3  502    0  0.60170175030E+03 -0.84562132183E+03 -0.22537860966E+04  0.24812642313E+04  0.50400001928E-02 0. -1.
       -1    1    3    3    0  502 -0.60170175030E+03  0.84562132183E+03  0.10789279148E+04  0.14970657506E+04  0.50400001928E-02 0.  1.
</event>
<event>
 5   0  0.1187925E-07  0.3927370E+04  0.7818609E-02  0.8019361E-01
       -1   -1    0    0    0  501  0.00000000000E+00  0.00000000000E+00  0.33769122969E+04  0.33769122969E+04  0.50400001928E-02 0. -1.
        1   -1    0    0  501    0  0.00000000000E+00  0.00000000000E+00 -0.11418887359E+04  0.11418887359E+04  0.50400001928E-02 0.  1.
    10030    2    1    2    0    0  0.00000000000E+00  0.00000000000E+00  0.22350235610E+04  0.45188010329E+04  0.39273696613E+04 0.  0.
        1    1    3    3  502    0  0.37154719293E+02  0.18303186266E+04  0.30017705148E+03  0.18551423154E+04  0.50400001928E-02 0. -1.
       -1    1    3    3    0  502 -0.37154719293E+02 -0.18303186266E+04  0.19348465095E+04  0.26636587175E+04  0.50400001928E-02 0.  1.
</event>
<event>
 5   0  0.3832389E-07  0.3503071E+04  0.7818609E-02  0.8113063E-01
       -2   -1    0    0    0  501  0.00000000000E+00  0.00000000000E+00  0.13608038986E+04  0.13608038986E+04  0.25500000920E-02 0. -1.
        2   -1    0    0  501    0  0.00000000000E+00  0.00000000000E+00 -0.22544583832E+04  0.22544583832E+04  0.25500000920E-02 0.  1.
    10030    2    1    2    0    0  0.00000000000E+00  0.00000000000E+00 -0.89365448453E+03  0.36152622818E+04  0.35030705143E+04 0.  0.
        5    1    3    3  502    0 -0.11881548322E+04 -0.11689206244E+04 -0.10023666804E+04  0.19449545967E+04  0.46999998093E+01 0. -1.
       -5    1    3    3    0  502  0.11881548322E+04  0.11689206244E+04  0.10871219585E+03  0.16703076851E+04  0.46999998093E+01 0.  1.
</event>
<event>
 5   0  0.3610483E-07  0.3939932E+04  0.7818609E-02  0.8016775E-01
       -2   -1    0    0    0  501  0.00000000000E+00  0.00000000000E+00  0.21787217508E+04  0.21787217508E+04  0.25500000920E-02 0. -1.
        2   -1    0    0  501    0  0.00000000000E+00  0.00000000000E+00 -0.17812122787E+04  0.17812122787E+04  0.25500000920E-02 0.  1.
    10030    2    1    2    0    0  0.00000000000E+00  0.00000000000E+00  0.39750947209E+03  0.39599340294E+04  0.39399319457E+04 0.  0.
        4    1    3    3  502    0  0.12545692833E+04 -0.35942928776E+03 -0.12844167171E+04  0.18310820341E+04  0.12699999809E+01 0.  1.
       -4    1    3    3    0  502 -0.12545692833E+04  0.35942928776E+03  0.16819261892E+04  0.21288519954E+04  0.12699999809E+01 0. -1.
</event>
<event>
 5   0  0.3832389E-07  0.3844820E+04  0.7818609E-02  0.8036604E-01
        2   -1    0    0  501    0  0.00000000000E+00  0.00000000000E+00  0.20700614256E+04  0.20700614256E+04  0.25500000920E-02 0. -1.
       -2   -1    0    0    0  501  0.00000000000E+00  0.00000000000E+00 -0.17852900809E+04  0.17852900809E+04  0.25500000920E-02 0.  1.
    10030    2    1    2    0    0  0.00000000000E+00  0.00000000000E+00  0.28477134475E+03  0.38553515065E+04  0.38448199594E+04 0.  0.
        5    1    3    3  502    0 -0.37044391266E+03  0.10290874577E+04 -0.14428901759E+04  0.18105810774E+04  0.46999998093E+01 0.  1.
       -5    1    3    3    0  502  0.37044391266E+03 -0.10290874577E+04  0.17276615207E+04  0.20447704292E+04  0.46999998093E+01 0. -1.
</event>
<event>
 5   0  0.3832389E-07  0.3900091E+04  0.7818609E-02  0.8025010E-01
        2   -1    0    0  501    0  0.00000000000E+00  0.00000000000E+00  0.27836941899E+04  0.27836941899E+04  0.25500000920E-02 0. -1.
       -2   -1    0    0    0  501  0.00000000000E+00  0.00000000000E+00 -0.13660543365E+04  0.13660543365E+04  0.25500000920E-02 0.  1.
    10030    2    1    2    0    0  0.00000000000E+00  0.00000000000E+00  0.14176398535E+04  0.41497485264E+04  0.39000910346E+04 0.  0.
        5    1    3    3  502    0  0.17143007005E+04  0.84964552107E+03  0.30796640192E+03  0.19379344153E+04  0.46999998093E+01 0. -1.
       -5    1    3    3    0  502 -0.17143007005E+04 -0.84964552107E+03  0.11096734515E+04  0.22118141111E+04  0.46999998093E+01 0.  1.
</event>
<event>
 5   0  0.3832389E-07  0.2999828E+04  0.7818609E-02  0.8243780E-01
        2   -1    0    0  501    0  0.00000000000E+00  0.00000000000E+00  0.17075135629E+04  0.17075135629E+04  0.25500000920E-02 0.  1.
       -2   -1    0    0    0  501  0.00000000000E+00  0.00000000000E+00 -0.13175546360E+04  0.13175546360E+04  0.25500000920E-02 0. -1.
    10030    2    1    2    0    0  0.00000000000E+00  0.00000000000E+00  0.38995892688E+03  0.30250681989E+04  0.29998282690E+04 0.  0.
        5    1    3    3  502    0 -0.89798206240E+02  0.11732636663E+04 -0.74295865194E+03  0.13916253077E+04  0.46999998093E+01 0. -1.
       -5    1    3    3    0  502  0.89798206240E+02 -0.11732636663E+04  0.11329175788E+04  0.16334428912E+04  0.46999998093E+01 0.  1.
</event>
<event>
 5   0  0.3680814E-07  0.2916548E+04  0.7818609E-02  0.8267971E-01
        2   -1    0    0  501    0  0.00000000000E+00  0.00000000000E+00  0.20323500106E+04  0.20323500106E+04  0.25500000920E-02 0. -1.
       -2   -1    0    0    0  501  0.00000000000E+00  0.00000000000E+00 -0.10463563659E+04  0.10463563659E+04  0.25500000920E-02 0.  1.
    10030    2    1    2    0    0  0.00000000000E+00  0.00000000000E+00  0.98599364462E+03  0.30787063765E+04  0.29165475284E+04 0.  0.
        1    1    3    3  502    0 -0.21943520217E+03  0.30425433218E+03  0.19805459766E+04  0.20157591305E+04  0.50400001928E-02 0. -1.
       -1    1    3    3    0  502  0.21943520217E+03 -0.30425433218E+03 -0.99455233202E+03  0.10629472460E+04  0.50400001928E-02 0.  1.
</event>
<event>
 5   0  0.1187925E-07  0.3330081E+04  0.7818609E-02  0.8155283E-01
       -1   -1    0    0    0  501  0.00000000000E+00  0.00000000000E+00  0.18555047432E+04  0.18555047432E+04  0.50400001928E-02 0. -1.
        1   -1    0    0  501    0  0.00000000000E+00  0.00000000000E+00 -0.14941273852E+04  0.14941273852E+04  0.50400001928E-02 0.  1.
    10030    2    1    2    0    0  0.00000000000E+00  0.00000000000E+00  0.36137735805E+03  0.33496321284E+04  0.33300813504E+04 0.  0.
        2    1    3    3  502    0  0.89686070945E+03  0.81692975266E+03 -0.96645725308E+03  0.15510554390E+04  0.25500000920E-02 0.  1.
       -2    1    3    3    0  502 -0.89686070945E+03 -0.81692975266E+03  0.13278346111E+04  0.17985766893E+04  0.25500000920E-02 0. -1.
</event>
<event>
 5   0  0.3610483E-07  0.3593785E+04  0.7818609E-02  0.8091917E-01
       -2   -1    0    0    0  501  0.00000000000E+00  0.00000000000E+00  0.15032106748E+04  0.15032106748E+04  0.25500000920E-02 0. -1.
        2   -1    0    0  501    0  0.00000000000E+00  0.00000000000E+00 -0.21479507842E+04  0.21479507842E+04  0.25500000920E-02 0.  1.
    10030    2    1    2    0    0  0.00000000000E+00  0.00000000000E+00 -0.64474010946E+03  0.36511614590E+04  0.35937849394E+04 0.  0.
        4    1    3    3  502    0 -0.14044493137E+03  0.13396454723E+03  0.14925292741E+04  0.15050968492E+04  0.12699999809E+01 0. -1.
       -4    1    3    3    0  502  0.14044493137E+03 -0.13396454723E+03 -0.21372693835E+04  0.21460646098E+04  0.12699999809E+01 0.  1.
</event>
<event>
 5   0  0.1187925E-07  0.4046525E+04  0.7818609E-02  0.7995226E-01
        1   -1    0    0  501    0  0.00000000000E+00  0.00000000000E+00  0.25429270482E+04  0.25429270482E+04  0.50400001928E-02 0. -1.
       -1   -1    0    0    0  501  0.00000000000E+00  0.00000000000E+00 -0.16097950954E+04  0.16097950954E+04  0.50400001928E-02 0.  1.
    10030    2    1    2    0    0  0.00000000000E+00  0.00000000000E+00  0.93313195281E+03  0.41527221436E+04  0.40465251712E+04 0.  0.
        3    1    3    3  502    0 -0.23519956183E+03  0.17491256200E+04 -0.54875826146E+03  0.18482139779E+04  0.10100000352E+00 0.  1.
       -3    1    3    3    0  502  0.23519956183E+03 -0.17491256200E+04  0.14818902143E+04  0.23045081657E+04  0.10100000352E+00 0. -1.
</event>
<event>
 5   0  0.3810833E-07  0.2868562E+04  0.7818609E-02  0.8282293E-01
       -2   -1    0    0    0  501  0.00000000000E+00  0.00000000000E+00  0.14530177178E+04  0.14530177178E+04  0.25500000920E-02 0.  1.
        2   -1    0    0  501    0  0.00000000000E+00  0.00000000000E+00 -0.14157857834E+04  0.14157857834E+04  0.25500000920E-02 0. -1.
    10030    2    1    2    0    0  0.00000000000E+00  0.00000000000E+00  0.37231934385E+02  0.28688035012E+04  0.28685618890E+04 0.  0.
        3    1    3    3  502    0  0.70305083607E+03 -0.79886827409E+03 -0.94307348150E+03  0.14219207429E+04  0.10100000352E+00 0. -1.
       -3    1    3    3    0  502 -0.70305083607E+03  0.79886827409E+03  0.98030541589E+03  0.14468827582E+04  0.10100000352E+00 0.  1.
</event>
<event>
 5   0  0.1187925E-07  0.3947770E+04  0.7818609E-02  0.8015167E-01
        1   -1    0    0  501    0  0.00000000000E+00  0.00000000000E+00  0.17659806356E+04  0.17659806356E+04  0.50400001928E-02 0. -1.
       -1   -1    0    0    0  501  0.00000000000E+00  0.00000000000E+00 -0.22062659524E+04  0.22062659524E+04  0.50400001928E-02 0.  1.
    10030    2    1    2    0    0  0.00000000000E+00  0.00000000000E+00 -0.44028531680E+03  0.39722465879E+04  0.39477704841E+04 0.  0.
        4    1    3    3  502    0  0.22823988118E+03  0.33407224732E+03 -0.21640948847E+04  0.22015916952E+04  0.12699999809E+01 0.  1.
       -4    1    3    3    0  502 -0.22823988118E+03 -0.33407224732E+03  0.17238095679E+04  0.17706548927E+04  0.12699999809E+01 0. -1.
</event>
<event>
 5   0  0.3680814E-07  0.3861295E+04  0.7818609E-02  0.8033127E-01
        2   -1    0    0  501    0  0.00000000000E+00  0.00000000000E+00  0.18309427680E+04  0.18309427680E+04  0.25500000920E-02 0. -1.
       -2   -1    0    0    0  501  0.00000000000E+00  0.00000000000E+00 -0.20357821808E+04  0.20357821808E+04  0.25500000920E-02 0.  1.
    10030    2    1    2    0    0  0.00000000000E+00  0.00000000000E+00 -0.20483941280E+03  0.38667249488E+04  0.38612954620E+04 0.  0.
        1    1    3    3  502    0  0.87355042353E+03  0.71699645332E+03 -0.16699406560E+04  0.20164017583E+04  0.50400001928E-02 0.  1.
       -1    1    3    3    0  502 -0.87355042353E+03 -0.71699645332E+03  0.14651012432E+04  0.18503231905E+04  0.50400001928E-02 0. -1.
</event>
<event>
 5   0  0.1187925E-07  0.3873655E+04  0.7818609E-02  0.8030531E-01
        1   -1    0    0  501    0  0.00000000000E+00  0.00000000000E+00  0.22386128257E+04  0.22386128257E+04  0.50400001928E-02 0.  1.
       -1   -1    0    0    0  501  0.00000000000E+00  0.00000000000E+00 -0.16757251472E+04  0.16757251472E+04  0.50400001928E-02 0. -1.
    10030    2    1    2    0    0  0.00000000000E+00  0.00000000000E+00  0.56288767846E+03  0.39143379729E+04  0.38736545054E+04 0.  0.
        5    1    3    3  502    0 -0.12912788038E+04 -0.11137745419E+04  0.12094478836E+04  0.20906173615E+04  0.46999998093E+01 0.  1.
       -5    1    3    3    0  502  0.12912788038E+04  0.11137745419E+04 -0.64656020513E+03  0.18237206113E+04  0.46999998093E+01 0. -1.
</event>
<event>
 5   0  0.1187925E-07  0.3885695E+04  0.7818609E-02  0.8028011E-01
        1   -1    0    0  501    0  0.00000000000E+00  0.00000000000E+00  0.24782941623E+04  0.24782941623E+04  0.50400001928E-02 0. -1.
       -1   -1    0    0    0  501  0.00000000000E+00  0.00000000000E+00 -0.15230867469E+04  0.15230867469E+04  0.50400001928E-02 0.  1.
    10030    2    1    2    0    0  0.00000000000E+00  0.00000000000E+00  0.95520741538E+03  0.40013809093E+04  0.38856953013E+04 0.  0.
        4    1    3    3  502    0 -0.22051732826E+03  0.95127213365E+03 -0.12520177826E+04  0.15877961787E+04  0.12699999809E+01 0.  1.
       -4    1    3    3    0  502  0.22051732826E+03 -0.95127213365E+03  0.22072251979E+04  0.24135847306E+04  0.12699999809E+01 0. -1.
</event>
<event>
 5   0  0.3810833E-07  0.3711272E+04  0.7818609E-02  0.8065468E-01
       -2   -1    0    0    0  501  0.00000000000E+00  0.00000000000E+00  0.20684345621E+04  0.20684345621E+04  0.25500000920E-02 0.  1.
        2   -1    0    0  501    0  0.00000000000E+00  0.00000000000E+00 -0.16647297410E+04  0.16647297410E+04  0.25500000920E-02 0. -1.
    10030    2    1    2    0    0  0.00000000000E+00  0.00000000000E+00  0.40370482118E+03  0.37331643031E+04  0.37112717674E+04 0.  0.
        3    1    3    3  502    0  0.10770314237E+04 -0.70843910075E+03  0.15444550250E+04  0.20117713541E+04  0.10100000352E+00 0.  1.
       -3    1    3    3    0  502 -0.10770314237E+04  0.70843910075E+03 -0.11407502038E+04  0.17213929489E+04  0.10100000352E+00 0. -1.
</event>
<event>
 5   0  0.1187925E-07  0.2819131E+04  0.7818609E-02  0.8297354E-01
       -1   -1    0    0    0  501  0.00000000000E+00  0.00000000000E+00  0.14835442269E+04  0.14835442269E+04  0.50400001928E-02 0. -1.
        1   -1    0    0  501    0  0.00000000000E+00  0.00000000000E+00 -0.13392754917E+04  0.13392754917E+04  0.50400001928E-02 0.  1.
    10030    2    1    2    0    0  0.00000000000E+00  0.00000000000E+00  0.14426873524E+03  0.28228197186E+04  0.28191306631E+04 0.  0.
        5    1    3    3  502    0  0.24080798240E+03  0.10736401724E+04 -0.81001828020E+03  0.13663247814E+04  0.46999998093E+01 0.  1.
       -5    1    3    3    0  502 -0.24080798240E+03 -0.10736401724E+04  0.95428701544E+03  0.14564949371E+04  0.46999998093E+01 0. -1.
</event>
<event>
 5   0  0.1187925E-07  0.3994854E+04  0.7818609E-02  0.8005585E-01
        1   -1    0    0  501    0  0.00000000000E+00  0.00000000000E+00  0.14322170149E+04  0.14322170149E+04  0.50400001928E-02 0.  1.
       -1   -1    0    0    0  501  0.00000000000E+00  0.00000000000E+00 -0.27856913930E+04  0.27856913930E+04  0.50400001928E-02 0. -1.
    10030    2    1    2    0    0  0.00000000000E+00  0.00000000000E+00 -0.13534743782E+04  0.42179084079E+04  0.39948539955E+04 0.  0.
        3    1    3    3  502    0 -0.14140678651E+04 -0.13245595787E+04 -0.11892999981E+04  0.22734292380E+04  0.10100000352E+00 0. -1.
       -3    1    3    3    0  502  0.14140678651E+04  0.13245595787E+04 -0.16417438007E+03  0.19444791699E+04  0.10100000352E+00 0.  1.
</event>
<event>
 5   0  0.1187925E-07  0.3914729E+04  0.7818609E-02  0.8021973E-01
        1   -1    0    0  501    0  0.00000000000E+00  0.00000000000E+00  0.26857870913E+04  0.26857870913E+04  0.50400001928E-02 0. -1.
       -1   -1    0    0    0  501  0.00000000000E+00  0.00000000000E+00 -0.14264998348E+04  0.14264998348E+04  0.50400001928E-02 0.  1.
    10030    2    1    2    0    0  0.00000000000E+00  0.00000000000E+00  0.12592872565E+04  0.41122869262E+04  0.39147285179E+04 0.  0.
        2    1    3    3  502    0 -0.77042053841E+03  0.97944630747E+02 -0.12577284627E+04  0.14781819383E+04  0.25500000920E-02 0.  1.
       -2    1    3    3    0  502  0.77042053841E+03 -0.97944630747E+02  0.25170157192E+04  0.26341049879E+04  0.25500000920E-02 0. -1.
</event>
<event>
 5   0  0.3665303E-07  0.3840327E+04  0.7818609E-02  0.8037556E-01
       -2   -1    0    0    0  501  0.00000000000E+00  0.00000000000E+00  0.18861200042E+04  0.18861200042E+04  0.25500000920E-02 0. -1.
        2   -1    0    0  501    0  0.00000000000E+00  0.00000000000E+00 -0.19548211703E+04  0.19548211703E+04  0.25500000920E-02 0.  1.
    10030    2    1    2    0    0  0.00000000000E+00  0.00000000000E+00 -0.68701166082E+02  0.38409411744E+04  0.38403267120E+04 0.  0.
        2    1    3    3  502    0 -0.11361748736E+04 -0.81492863720E+03 -0.13506254739E+04  0.19440141969E+04  0.25500000920E-02 0.  1.
       -2    1    3    3    0  502  0.11361748736E+04  0.81492863720E+03  0.12819243078E+04  0.18969269775E+04  0.25500000920E-02 0. -1.
</event>
<event>
 5   0  0.1187925E-07  0.3932731E+04  0.7818609E-02  0.8018256E-01
        1   -1    0    0  501    0  0.00000000000E+00  0.00000000000E+00  0.28733253533E+04  0.28733253533E+04  0.50400001928E-02 0. -1.
       -1   -1    0    0    0  501  0.00000000000E+00  0.00000000000E+00 -0.13456857247E+04  0.13456857247E+04  0.50400001928E-02 0.  1.
    10030    2    1    2    0    0  0.00000000000E+00  0.00000000000E+00  0.15276396286E+04  0.42190110780E+04  0.39327308122E+04 0.  0.
        2    1    3    3  502    0  0.95427991681E+02  0.12216140414E+04  0.24136733063E+04  0.27068923505E+04  0.25500000920E-02 0. -1.
       -2    1    3    3    0  502 -0.95427991681E+02 -0.12216140414E+04 -0.88603367773E+03  0.15121187274E+04  0.25500000920E-02 0.  1.
</event>
<event>
 5   0  0.1187925E-07  0.3582637E+04  0.7818609E-02  0.8094481E-01
        1   -1    0    0  501    0  0.00000000000E+00  0.00000000000E+00  0.10509098485E+04  0.10509098485E+04  0.50400001928E-02 0. -1.
       -1   -1    0    0    0  501  0.00000000000E+00  0.00000000000E+00 -0.30533744493E+04  0.30533744493E+04  0.50400001928E-02 0.  1.
    10030    2    1    2    0    0  0.00000000000E+00  0.00000000000E+00 -0.20024646009E+04  0.41042842978E+04  0.35826366156E+04 0.  0.
        2    1    3    3  502    0  0.53644668737E+02 -0.27939438078E+03  0.10248630401E+04  0.10636179866E+04  0.25500000920E-02 0. -1.
       -2    1    3    3    0  502 -0.53644668737E+02  0.27939438078E+03 -0.30273276409E+04  0.30406663112E+04  0.25500000920E-02 0.  1.
</event>
<event>
 5   0  0.1187925E-07  0.3539579E+04  0.7818609E-02  0.8104474E-01
       -1   -1    0    0    0  501  0.00000000000E+00  0.00000000000E+00  0.18612142059E+04  0.18612142059E+04  0.50400001928E-02 0. -1.
        1   -1    0    0  501    0  0.00000000000E+00  0.00000000000E+00 -0.16828555590E+04  0.16828555590E+04  0.50400001928E-02 0.  1.
    10030    2    1    2    0    0  0.00000000000E+00  0.00000000000E+00  0.17835864692E+03  0.35440697649E+04  0.35395788862E+04 0.  0.
        3    1    3    3  502    0  0.15242771915E+04  0.78392136515E+03 -0.35206222178E+03  0.17498289863E+04  0.10100000352E+00 0.  1.
       -3    1    3    3    0  502 -0.15242771915E+04 -0.78392136515E+03  0.53042086870E+03  0.17942407785E+04  0.10100000352E+00 0. -1.
</event>
<event>
 5   0  0.3680814E-07  0.3829050E+04  0.7818609E-02  0.8039949E-01
       -2   -1    0    0    0  501  0.00000000000E+00  0.00000000000E+00  0.21242310576E+04  0.21242310576E+04  0.25500000920E-02 0. -1.
        2   -1    0    0  501    0  0.00000000000E+00  0.00000000000E+00 -0.17255214391E+04  0.17255214391E+04  0.25500000920E-02 0.  1.
    10030    2    1    2    0    0  0.00000000000E+00  0.00000000000E+00  0.39870961850E+03  0.38497524967E+04  0.38290501336E+04 0.  0.
        1    1    3    3  502    0  0.18470785866E+04  0.27572665770E+03  0.62315695555E+03  0.19687684186E+04  0.50400001928E-02 0. -1.
       -1    1    3    3    0  502 -0.18470785866E+04 -0.27572665770E+03 -0.22444733706E+03  0.18809840781E+04  0.50400001928E-02 0.  1.
</event>
<event>
 5   0  0.3610483E-07  0.3925625E+04  0.7818609E-02  0.8019721E-01
       -2   -1    0    0    0  501  0.00000000000E+00  0.00000000000E+00  0.15060780795E+04  0.15060780795E+04  0.25500000920E-02 0.  1.
        2   -1    0    0  501    0  0.00000000000E+00  0.00000000000E+00 -0.25580559159E+04  0.25580559159E+04  0.25500000920E-02 0. -1.
    10030    2    1    2    0    0  0.00000000000E+00  0.00000000000E+00 -0.10519778363E+04  0.40641339954E+04  0.39256245063E+04 0.  0.
        4    1    3    3  502    0 -0.35158100723E+03  0.46420141602E+03 -0.24665691368E+04  0.25343750865E+04  0.12699999809E+01 0. -1.
       -4    1    3    3    0  502  0.35158100723E+03 -0.46420141602E+03  0.14145913005E+04  0.15297589090E+04  0.12699999809E+01 0.  1.
</event>
<event>
 5   0  0.1187925E-07  0.3192060E+04  0.7818609E-02  0.8190917E-01
        1   -1    0    0  501    0  0.00000000000E+00  0.00000000000E+00  0.12831190998E+04  0.12831190998E+04  0.50400001928E-02 0. -1.
       -1   -1    0    0    0  501  0.00000000000E+00  0.00000000000E+00 -0.19852497344E+04  0.19852497344E+04  0.50400001928E-02 0.  1.
    10030    2    1    2    0    0  0.00000000000E+00  0.00000000000E+00 -0.70213063460E+03  0.32683688343E+04  0.31920600572E+04 0.  0.
        1    1    3    3  502    0  0.42702760285E+03 -0.10334006722E+04 -0.15171687710E+04  0.18846937689E+04  0.50400001928E-02 0.  1.
       -1    1    3    3    0  502 -0.42702760285E+03  0.10334006722E+04  0.81503813639E+03  0.13836750654E+04  0.50400001928E-02 0. -1.
</event>
<event>
 5   0  0.3680814E-07  0.3536519E+04  0.7818609E-02  0.8105190E-01
       -2   -1    0    0    0  501  0.00000000000E+00  0.00000000000E+00  0.18508248574E+04  0.18508248574E+04  0.25500000920E-02 0.  1.
        2   -1    0    0  501    0  0.00000000000E+00  0.00000000000E+00 -0.16893769499E+04  0.16893769499E+04  0.25500000920E-02 0. -1.
    10030    2    1    2    0    0  0.00000000000E+00  0.00000000000E+00  0.16144790755E+03  0.35402018073E+04  0.35365185437E+04 0.  0.
        1    1    3    3  502    0  0.15115514625E+04  0.60265991951E+03 -0.61191722931E+03  0.17385135886E+04  0.50400001928E-02 0. -1.
       -1    1    3    3    0  502 -0.15115514625E+04 -0.60265991951E+03  0.77336513686E+03  0.18016882187E+04  0.50400001928E-02 0.  1.
</event>
<event>
 5   0  0.3610483E-07  0.3907993E+04  0.7818609E-02  0.8023369E-01
        2   -1    0    0  501    0  0.00000000000E+00  0.00000000000E+00  0.11609006862E+04  0.11609006862E+04  0.25500000920E-02 0.  1.
       -2   -1    0    0    0  501  0.00000000000E+00  0.00000000000E+00 -0.32889131835E+04  0.32889131835E+04  0.25500000920E-02 0. -1.
    10030    2    1    2    0    0  0.00000000000E+00  0.00000000000E+00 -0.21280124973E+04  0.44498138696E+04  0.39079926159E+04 0.  0.
        4    1    3    3  502    0  0.50429056516E+03  0.60560642548E+03  0.97191789108E+03  0.12512769943E+04  0.12699999809E+01 0.  1.
       -4    1    3    3    0  502 -0.50429056516E+03 -0.60560642548E+03 -0.30999303884E+04  0.31985368753E+04  0.12699999809E+01 0. -1.
</event>
<event>
 5   0  0.3832389E-07  0.3767105E+04  0.7818609E-02  0.8053251E-01
       -2   -1    0    0    0  501  0.00000000000E+00  0.00000000000E+00  0.22914928815E+04  0.22914928815E+04  0.25500000920E-02 0.  1.
        2   -1    0    0  501    0  0.00000000000E+00  0.00000000000E+00 -0.15482349205E+04  0.15482349205E+04  0.25500000920E-02 0. -1.
    10030    2    1    2    0    0  0.00000000000E+00  0.00000000000E+00  0.74325796097E+03  0.38397278020E+04  0.37671046172E+04 0.  0.
        5    1    3    3  502    0 -0.15353219643E+04 -0.55857248375E+03 -0.58374006957E+03  0.17349326536E+04  0.46999998093E+01 0. -1.
       -5    1    3    3    0  502  0.15353219643E+04  0.55857248375E+03  0.13269980305E+04  0.21047951484E+04  0.46999998093E+01 0.  1.
</event>
<event>
 5   0  0.3680814E-07  0.2971424E+04  0.7818609E-02  0.8251938E-01
       -2   -1    0    0    0  501  0.00000000000E+00  0.00000000000E+00  0.10557607587E+04  0.10557607587E+04  0.25500000920E-02 0. -1.
        2   -1    0    0  501    0  0.00000000000E+00  0.00000000000E+00 -0.20907583328E+04  0.20907583328E+04  0.25500000920E-02 0.  1.
    10030    2    1    2    0    0  0.00000000000E+00  0.00000000000E+00 -0.10349975741E+04  0.31465190915E+04  0.29714243075E+04 0.  0.
        1    1    3    3  502    0  0.14852547290E+03 -0.41255681985E+03 -0.20206808796E+04  0.20677074655E+04  0.50400001928E-02 0.  1.
       -1    1    3    3    0  502 -0.14852547290E+03  0.41255681985E+03  0.98568330551E+03  0.10788116261E+04  0.50400001928E-02 0. -1.
</event>
<event>
 5   0  0.3832389E-07  0.3878311E+04  0.7818609E-02  0.8029555E-01
        2   -1    0    0  501    0  0.00000000000E+00  0.00000000000E+00  0.16954171734E+04  0.16954171734E+04  0.25500000920E-02 0.  1.
       -2   -1    0    0    0  501  0.00000000000E+00  0.00000000000E+00 -0.22179343832E+04  0.22179343832E+04  0.25500000920E-02 0. -1.
    10030    2    1    2    0    0  0.00000000000E+00  0.00000000000E+00 -0.52251720983E+03  0.39133515566E+04  0.38783109946E+04 0.  0.
        5    1    3    3  502    0  0.15760948942E+04  0.30672560956E+03 -0.13583475411E+04  0.21031609181E+04  0.46999998093E+01 0. -1.
       -5    1    3    3    0  502 -0.15760948942E+04 -0.30672560956E+03  0.83583033125E+03  0.18101906385E+04  0.46999998093E+01 0.  1.
</event>
<event>
 5   0  0.3680814E-07  0.3644893E+04  0.7818609E-02  0.8080285E-01
        2   -1    0    0  501    0  0.00000000000E+00  0.00000000000E+00  0.24746805696E+04  0.24746805696E+04  0.25500000920E-02 0. -1.
       -2   -1    0    0    0  501  0.00000000000E+00  0.00000000000E+00 -0.13421168212E+04  0.13421168212E+04  0.25500000920E-02 0.  1.
    10030    2    1    2    0    0  0.00000000000E+00  0.00000000000E+00  0.11325637485E+04  0.38167973908E+04  0.36448925469E+04 0.  0.
        1    1    3    3  502    0 -0.51218205453E+03 -0.14416925343E+04  0.16031863560E+04  0.22160808452E+04  0.50400001928E-02 0. -1.
       -1    1    3    3    0  502  0.51218205453E+03  0.14416925343E+04 -0.47062260753E+03  0.16007165456E+04  0.50400001928E-02 0.  1.
</event>
<event>
 5   0  0.1187925E-07  0.4122920E+04  0.7818609E-02  0.7980199E-01
        1   -1    0    0  501    0  0.00000000000E+00  0.00000000000E+00  0.21227735399E+04  0.21227735399E+04  0.50400001928E-02 0.  1.
       -1   -1    0    0    0  501  0.00000000000E+00  0.00000000000E+00 -0.20019177220E+04  0.20019177220E+04  0.50400001928E-02 0. -1.
    10030    2    1    2    0    0  0.00000000000E+00  0.00000000000E+00  0.12085581785E+03  0.41246912619E+04  0.41229203094E+04 0.  0.
        4    1    3    3  502    0  0.46226962034E+03 -0.38001557386E+03  0.20339666451E+04  0.21201714470E+04  0.12699999809E+01 0.  1.
       -4    1    3    3    0  502 -0.46226962034E+03  0.38001557386E+03 -0.19131108273E+04  0.20045198150E+04  0.12699999809E+01 0. -1.
</event>
<event>
 5   0  0.1187925E-07  0.4079357E+04  0.7818609E-02  0.7988726E-01
        1   -1    0    0  501    0  0.00000000000E+00  0.00000000000E+00  0.13187607096E+04  0.13187607096E+04  0.50400001928E-02 0. -1.
       -1   -1    0    0    0  501  0.00000000000E+00  0.00000000000E+00 -0.31546960100E+04  0.31546960100E+04  0.50400001928E-02 0.  1.
    10030    2    1    2    0    0  0.00000000000E+00  0.00000000000E+00 -0.18359353003E+04  0.44734567196E+04  0.40793573752E+04 0.  0.
        3    1    3    3  502    0 -0.16012094393E+04 -0.73353610495E+03 -0.20461116913E+04  0.26997259026E+04  0.10100000352E+00 0. -1.
       -3    1    3    3    0  502  0.16012094393E+04  0.73353610495E+03  0.21017639094E+03  0.17737308170E+04  0.10100000352E+00 0.  1.
</event>
<event>
 5   0  0.3680814E-07  0.3823946E+04  0.7818609E-02  0.8041036E-01
        2   -1    0    0  501    0  0.00000000000E+00  0.00000000000E+00  0.20921860911E+04  0.20921860911E+04  0.25500000920E-02 0.  1.
       -2   -1    0    0    0  501  0.00000000000E+00  0.00000000000E+00 -0.17472826571E+04  0.17472826571E+04  0.25500000920E-02 0. -1.
    10030    2    1    2    0    0  0.00000000000E+00  0.00000000000E+00  0.34490343397E+03  0.38394687481E+04  0.38239458533E+04 0.  0.
        1    1    3    3  502    0 -0.10147589754E+04 -0.10283605565E+04 -0.10849815563E+04  0.18067778474E+04  0.50400001928E-02 0. -1.
       -1    1    3    3    0  502  0.10147589754E+04  0.10283605565E+04  0.14298849903E+04  0.20326909007E+04  0.50400001928E-02 0.  1.
</event>
<event>
 5   0  0.1187925E-07  0.3477004E+04  0.7818609E-02  0.8119261E-01
        1   -1    0    0  501    0  0.00000000000E+00  0.00000000000E+00  0.19115422689E+04  0.19115422689E+04  0.50400001928E-02 0. -1.
       -1   -1    0    0    0  501  0.00000000000E+00  0.00000000000E+00 -0.15811261402E+04  0.15811261402E+04  0.50400001928E-02 0.  1.
    10030    2    1    2    0    0  0.00000000000E+00  0.00000000000E+00  0.33041612873E+03  0.34926684091E+04  0.34770041412E+04 0.  0.
        2    1    3    3  502    0 -0.66022275638E+03 -0.84310744262E+03  0.15409272968E+04  0.18764810636E+04  0.25500000920E-02 0. -1.
       -2    1    3    3    0  502  0.66022275638E+03  0.84310744262E+03 -0.12105111681E+04  0.16161873455E+04  0.25500000920E-02 0.  1.
</event>
<event>
 5   0  0.3665303E-07  0.3922780E+04  0.7818609E-02  0.8020308E-01
        2   -1    0    0  501    0  0.00000000000E+00  0.00000000000E+00  0.17145392996E+04  0.17145392996E+04  0.25500000920E-02 0.  1.
       -2   -1    0    0    0  501  0.00000000000E+00  0.00000000000E+00 -0.22437811458E+04  0.22437811458E+04  0.25500000920E-02 0. -1.
    10030    2    1    2    0    0  0.00000000000E+00  0.00000000000E+00 -0.52924184618E+03  0.39583204454E+04  0.39227801133E+04 0.  0.
        2    1    3    3  502    0 -0.53313520034E+03 -0.15945026821E+04 -0.12839108739E+04  0.21154429979E+04  0.25500000920E-02 0. -1.
       -2    1    3    3    0  502  0.53313520034E+03  0.15945026821E+04  0.75466902773E+03  0.18428774475E+04  0.25500000920E-02 0.  1.
</event>
<event>
 5   0  0.1187925E-07  0.3946172E+04  0.7818609E-02  0.8015494E-01
       -1   -1    0    0    0  501  0.00000000000E+00  0.00000000000E+00  0.13463012963E+04  0.13463012963E+04  0.50400001928E-02 0.  1.
        1   -1    0    0  501    0  0.00000000000E+00  0.00000000000E+00 -0.28916766949E+04  0.28916766949E+04  0.50400001928E-02 0. -1.
    10030    2    1    2    0    0  0.00000000000E+00  0.00000000000E+00 -0.15453753987E+04  0.42379779912E+04  0.39461718578E+04 0.  0.
        4    1    3    3  502    0  0.77908234486E+03 -0.15874817540E+04  0.16724500505E+03  0.17762432615E+04  0.12699999809E+01 0. -1.
       -4    1    3    3    0  502 -0.77908234486E+03  0.15874817540E+04 -0.17126204037E+04  0.24617347297E+04  0.12699999809E+01 0.  1.
</event>
<event>
 5   0  0.3832389E-07  0.3922058E+04  0.7818609E-02  0.8020457E-01
        2   -1    0    0  501    0  0.00000000000E+00  0.00000000000E+00  0.20012696320E+04  0.20012696320E+04  0.25500000920E-02 0.  1.
       -2   -1    0    0    0  501  0.00000000000E+00  0.00000000000E+00 -0.19215975869E+04  0.19215975869E+04  0.25500000920E-02 0. -1.
    10030    2    1    2    0    0  0.00000000000E+00  0.00000000000E+00  0.79672045096E+02  0.39228672190E+04  0.39220580800E+04 0.  0.
        5    1    3    3  502    0  0.19271463579E+04  0.31603624339E+03  0.21831278032E+03  0.19650584093E+04  0.46999998093E+01 0.  1.
       -5    1    3    3    0  502 -0.19271463579E+04 -0.31603624339E+03 -0.13864073523E+03  0.19578088097E+04  0.46999998093E+01 0. -1.
</event>
<event>
 5   0  0.1187925E-07  0.3529639E+04  0.7818609E-02  0.8106802E-01
       -1   -1    0    0    0  501  0.00000000000E+00  0.00000000000E+00  0.19009055476E+04  0.19009055476E+04  0.50400001928E-02 0. -1.
        1   -1    0    0  501    0  0.00000000000E+00  0.00000000000E+00 -0.16384754505E+04  0.16384754505E+04  0.50400001928E-02 0.  1.
    10030    2    1    2    0    0  0.00000000000E+00  0.00000000000E+00  0.26243009716E+03  0.35393809981E+04  0.35296385500E+04 0.  0.
        1    1    3    3  502    0 -0.52366388258E+03 -0.16014112488E+04 -0.39544432133E+03  0.17306409393E+04  0.50400001928E-02 0.  1.
       -1    1    3    3    0  502  0.52366388258E+03  0.16014112488E+04  0.65787441849E+03  0.18087400588E+04  0.50400001928E-02 0. -1.
</event>
<event>
 5   0  0.3680814E-07  0.3587931E+04  0.7818609E-02  0.8093262E-01
        2   -1    0    0  501    0  0.00000000000E+00  0.00000000000E+00  0.27521460022E+04  0.27521460022E+04  0.25500000920E-02 0.  1.
       -2   -1    0    0    0  501  0.00000000000E+00  0.00000000000E+00 -0.11693825272E+04  0.11693825272E+04  0.25500000920E-02 0. -1.
    10030    2    1    2    0    0  0.00000000000E+00  0.00000000000E+00  0.15827634750E+04  0.39215285294E+04  0.35879305719E+04 0.  0.
        1    1    3    3  502    0 -0.97470798569E+03  0.47745216210E+03 -0.76981578909E+03  0.13306511840E+04  0.50400001928E-02 0. -1.
       -1    1    3    3    0  502  0.97470798569E+03 -0.47745216210E+03  0.23525792641E+04  0.25908773453E+04  0.50400001928E-02 0.  1.
</event>
<event>
 5   0  0.1187925E-07  0.3857871E+04  0.7818609E-02  0.8033849E-01
       -1   -1    0    0    0  501  0.00000000000E+00  0.00000000000E+00  0.18080780261E+04  0.18080780261E+04  0.50400001928E-02 0. -1.
        1   -1    0    0  501    0  0.00000000000E+00  0.00000000000E+00 -0.20578718266E+04  0.20578718266E+04  0.50400001928E-02 0.  1.
    10030    2    1    2    0    0  0.00000000000E+00  0.00000000000E+00 -0.24979380053E+03  0.38659498528E+04  0.38578713459E+04 0.  0.
        2    1    3    3  502    0  0.12597034600E+04  0.49228767482E+03 -0.15031288386E+04  0.20220277613E+04  0.25500000920E-02 0.  1.
       -2    1    3    3    0  502 -0.12597034600E+04 -0.49228767482E+03  0.12533350381E+04  0.18439220915E+04  0.25500000920E-02 0. -1.
</event>
<event>
 5   0  0.1187925E-07  0.3416466E+04  0.7818609E-02  0.8133877E-01
       -1   -1    0    0    0  501  0.00000000000E+00  0.00000000000E+00  0.18759548511E+04  0.18759548511E+04  0.50400001928E-02 0. -1.
        1   -1    0    0  501    0  0.00000000000E+00  0.00000000000E+00 -0.15555061755E+04  0.15555061755E+04  0.50400001928E-02 0.  1.
    10030    2    1    2    0    0  0.00000000000E+00  0.00000000000E+00  0.32044867561E+03  0.34314610266E+04  0.34164656333E+04 0.  0.
        2    1    3    3  502    0  0.98303981971E+03 -0.92028158198E+03 -0.89547126549E+03  0.16171438602E+04  0.25500000920E-02 0.  1.
       -2    1    3    3    0  502 -0.98303981971E+03  0.92028158198E+03  0.12159199411E+04  0.18143171664E+04  0.25500000920E-02 0. -1.
</event>
<event>
 5   0  0.1187925E-07  0.3903914E+04  0.7818609E-02  0.8024216E-01
       -1   -1    0    0    0  501  0.00000000000E+00  0.00000000000E+00  0.17264195726E+04  0.17264195726E+04  0.50400001928E-02 0. -1.
        1   -1    0    0  501    0  0.00000000000E+00  0.00000000000E+00 -0.22069579139E+04  0.22069579139E+04  0.50400001928E-02 0.  1.
    10030    2    1    2    0    0  0.00000000000E+00  0.00000000000E+00 -0.48053834125E+03  0.39333774865E+04  0.39039135946E+04 0.  0.
        5    1    3    3  502    0  0.49414696600E+03 -0.13199004609E+04  0.11204027328E+04  0.18004562823E+04  0.46999998093E+01 0. -1.
       -5    1    3    3    0  502 -0.49414696600E+03  0.13199004609E+04 -0.16009410741E+04  0.21329212042E+04  0.46999998093E+01 0.  1.
</event>
<event>
 5   0  0.1187925E-07  0.3883697E+04  0.7818609E-02  0.8028428E-01
       -1   -1    0    0    0  501  0.00000000000E+00  0.00000000000E+00  0.20898099107E+04  0.20898099107E+04  0.50400001928E-02 0.  1.
        1   -1    0    0  501    0  0.00000000000E+00  0.00000000000E+00 -0.18043632890E+04  0.18043632890E+04  0.50400001928E-02 0. -1.
    10030    2    1    2    0    0  0.00000000000E+00  0.00000000000E+00  0.28544662168E+03  0.38941731998E+04  0.38836973538E+04 0.  0.
        5    1    3    3  502    0 -0.11960220080E+03 -0.18895111342E+04 -0.28994634248E+03  0.19153715003E+04  0.46999998093E+01 0.  1.
       -5    1    3    3    0  502  0.11960220080E+03  0.18895111342E+04  0.57539296416E+03  0.19788016995E+04  0.46999998093E+01 0. -1.
</event>
<event>
 5   0  0.1187925E-07  0.3506890E+04  0.7818609E-02  0.8112159E-01
        1   -1    0    0  501    0  0.00000000000E+00  0.00000000000E+00  0.18446610605E+04  0.18446610605E+04  0.50400001928E-02 0. -1.
       -1   -1    0    0    0  501  0.00000000000E+00  0.00000000000E+00 -0.16667394875E+04  0.16667394875E+04  0.50400001928E-02 0.  1.
    10030    2    1    2    0    0  0.00000000000E+00  0.00000000000E+00  0.17792157293E+03  0.35114005480E+04  0.35068900357E+04 0.  0.
        4    1    3    3  502    0 -0.53315801463E+03 -0.10983828564E+04 -0.11711750636E+04  0.16918495827E+04  0.12699999809E+01 0.  1.
       -4    1    3    3    0  502  0.53315801463E+03  0.10983828564E+04  0.13490966365E+04  0.18195509653E+04  0.12699999809E+01 0. -1.
</event>
<event>
 5   0  0.3610483E-07  0.3888722E+04  0.7818609E-02  0.8027379E-01
       -2   -1    0    0    0  501  0.00000000000E+00  0.00000000000E+00  0.21392896980E+04  0.21392896980E+04  0.25500000920E-02 0.  1.
        2   -1    0    0  501    0  0.00000000000E+00  0.00000000000E+00 -0.17671940240E+04  0.17671940240E+04  0.25500000920E-02 0. -1.
    10030    2    1    2    0    0  0.00000000000E+00  0.00000000000E+00  0.37209567402E+03  0.39064837219E+04  0.38887221396E+04 0.  0.
        4    1    3    3  502    0 -0.22766571188E+03  0.18027398108E+04  0.88118809008E+03  0.20194545216E+04  0.12699999809E+01 0.  1.
       -4    1    3    3    0  502  0.22766571188E+03 -0.18027398108E+04 -0.50909241606E+03  0.18870292003E+04  0.12699999809E+01 0. -1.
</event>
<event>
 5   0  0.3680814E-07  0.3726484E+04  0.7818609E-02  0.8062118E-01
       -2   -1    0    0    0  501  0.00000000000E+00  0.00000000000E+00  0.20953386921E+04  0.20953386921E+04  0.25500000920E-02 0. -1.
        2   -1    0    0  501    0  0.00000000000E+00  0.00000000000E+00 -0.16568545856E+04  0.16568545856E+04  0.25500000920E-02 0.  1.
    10030    2    1    2    0    0  0.00000000000E+00  0.00000000000E+00  0.43848410651E+03  0.37521932777E+04  0.37264844132E+04 0.  0.
        1    1    3    3  502    0 -0.13501459793E+04  0.11025242391E+04  0.88197561856E+03  0.19535441779E+04  0.50400001928E-02 0. -1.
       -1    1    3    3    0  502  0.13501459793E+04 -0.11025242391E+04 -0.44349151205E+03  0.17986490999E+04  0.50400001928E-02 0.  1.
</event>
<event>
 5   0  0.3832389E-07  0.3905879E+04  0.7818609E-02  0.8023808E-01
        2   -1    0    0  501    0  0.00000000000E+00  0.00000000000E+00  0.24146311880E+04  0.24146311880E+04  0.25500000920E-02 0. -1.
       -2   -1    0    0    0  501  0.00000000000E+00  0.00000000000E+00 -0.15795259947E+04  0.15795259947E+04  0.25500000920E-02 0.  1.
    10030    2    1    2    0    0  0.00000000000E+00  0.00000000000E+00  0.83510519335E+03  0.39941571827E+04  0.39058790197E+04 0.  0.
        5    1    3    3  502    0  0.15739925312E+04  0.38281647611E+03  0.15330553990E+04  0.22303098191E+04  0.46999998093E+01 0. -1.
       -5    1    3    3    0  502 -0.15739925312E+04 -0.38281647611E+03 -0.69795020560E+03  0.17638473636E+04  0.46999998093E+01 0.  1.
</event>
<event>
 5   0  0.3665303E-07  0.3891008E+04  0.7818609E-02  0.8026902E-01
       -2   -1    0    0    0  501  0.00000000000E+00  0.00000000000E+00  0.19852988465E+04  0.19852988465E+04  0.25500000920E-02 0. -1.
        2   -1    0    0  501    0  0.00000000000E+00  0.00000000000E+00 -0.19065070237E+04  0.19065070237E+04  0.25500000920E-02 0.  1.
    10030    2    1    2    0    0  0.00000000000E+00  0.00000000000E+00  0.78791822767E+02  0.38918058701E+04  0.38910081958E+04 0.  0.
        2    1    3    3  502    0 -0.19067090769E+04 -0.31225762469E+03 -0.18855839448E+03  0.19412878705E+04  0.25500000920E-02 0. -1.
       -2    1    3    3    0  502  0.19067090769E+04  0.31225762469E+03  0.26735021725E+03  0.19505179996E+04  0.25500000920E-02 0.  1.
</event>
<event>
 5   0  0.1187925E-07  0.3883799E+04  0.7818609E-02  0.8028407E-01
        1   -1    0    0  501    0  0.00000000000E+00  0.00000000000E+00  0.23952139000E+04  0.23952139000E+04  0.50400001928E-02 0.  1.
       -1   -1    0    0    0  501  0.00000000000E+00  0.00000000000E+00 -0.15743786860E+04  0.15743786860E+04  0.50400001928E-02 0. -1.
    10030    2    1    2    0    0  0.00000000000E+00  0.00000000000E+00  0.82083521397E+03  0.39695925861E+04  0.38837990230E+04 0.  0.
        2    1    3    3  502    0  0.86942902275E+03 -0.16159652239E+04  0.10598457208E+04  0.21190855061E+04  0.25500000920E-02 0.  1.
       -2    1    3    3    0  502 -0.86942902275E+03  0.16159652239E+04 -0.23901050678E+03  0.18505070799E+04  0.25500000920E-02 0. -1.
</event>
<event>
 5   0  0.1187925E-07  0.3963948E+04  0.7818609E-02  0.8011859E-01
       -1   -1    0    0    0  501  0.00000000000E+00  0.00000000000E+00  0.13638236328E+04  0.13638236328E+04  0.50400001928E-02 0. -1.
        1   -1    0    0  501    0  0.00000000000E+00  0.00000000000E+00 -0.28802990825E+04  0.28802990825E+04  0.50400001928E-02 0.  1.
    10030    2    1    2    0    0  0.00000000000E+00  0.00000000000E+00 -0.15164754497E+04  0.42441227154E+04  0.39639475064E+04 0.  0.
        1    1    3    3  502    0 -0.12477357159E+04 -0.14970594081E+04 -0.37191822151E+03  0.19840248112E+04  0.50400001928E-02 0. -1.
       -1    1    3    3    0  502  0.12477357159E+04  0.14970594081E+04 -0.11445572282E+04  0.22600979042E+04  0.50400001928E-02 0.  1.
</event>
<event>
 5   0  0.3832389E-07  0.3970855E+04  0.7818609E-02  0.8010452E-01
        2   -1    0    0  501    0  0.00000000000E+00  0.00000000000E+00  0.21917564936E+04  0.21917564936E+04  0.25500000920E-02 0. -1.
       -2   -1    0    0    0  501  0.00000000000E+00  0.00000000000E+00 -0.17985216170E+04  0.17985216170E+04  0.25500000920E-02 0.  1.
    10030    2    1    2    0    0  0.00000000000E+00  0.00000000000E+00  0.39323487657E+03  0.39902781107E+04  0.39708545343E+04 0.  0.
        5    1    3    3  502    0  0.50682183584E+03  0.19195468824E+04  0.17726874582E+03  0.19932322758E+04  0.46999998093E+01 0. -1.
       -5    1    3    3    0  502 -0.50682183584E+03 -0.19195468824E+04  0.21596613075E+03  0.19970458349E+04  0.46999998093E+01 0.  1.
</event>
<event>
 5   0  0.3680814E-07  0.3820760E+04  0.7818609E-02  0.8041714E-01
       -2   -1    0    0    0  501  0.00000000000E+00  0.00000000000E+00  0.28274589537E+04  0.28274589537E+04  0.25500000920E-02 0. -1.
        2   -1    0    0  501    0  0.00000000000E+00  0.00000000000E+00 -0.12907533130E+04  0.12907533130E+04  0.25500000920E-02 0.  1.
    10030    2    1    2    0    0  0.00000000000E+00  0.00000000000E+00  0.15367056407E+04  0.41182122668E+04  0.38207601401E+04 0.  0.
        1    1    3    3  502    0  0.19836368643E+03  0.19823415214E+03 -0.12684464384E+04  0.12990770948E+04  0.50400001928E-02 0.  1.
       -1    1    3    3    0  502 -0.19836368643E+03 -0.19823415214E+03  0.28051520791E+04  0.28191351720E+04  0.50400001928E-02 0. -1.
</event>
<event>
 5   0  0.1187925E-07  0.3859374E+04  0.7818609E-02  0.8033532E-01
        3   -1    0    0  501    0  0.00000000000E+00  0.00000000000E+00  0.25462068306E+04  0.25462068326E+04  0.10100000352E+00 0.  1.
       -3   -1    0    0    0  501  0.00000000000E+00  0.00000000000E+00 -0.14624468211E+04  0.14624468246E+04  0.10100000352E+00 0. -1.
    10030    2    1    2    0    0  0.00000000000E+00  0.00000000000E+00  0.10837600096E+04  0.40086536572E+04  0.38593740924E+04 0.  0.
        2    1    3    3  502    0 -0.15725633894E+04  0.33729275246E+03  0.16494117330E+04  0.23037536933E+04  0.25500000920E-02 0.  1.
       -2    1    3    3    0  502  0.15725633894E+04 -0.33729275246E+03 -0.56565172346E+03  0.17048999639E+04  0.25500000920E-02 0. -1.
</event>
<event>
 5   0  0.1187925E-07  0.3921088E+04  0.7818609E-02  0.8020657E-01
       -1   -1    0    0    0  501  0.00000000000E+00  0.00000000000E+00  0.14910808678E+04  0.14910808679E+04  0.50400001928E-02 0. -1.
        1   -1    0    0  501    0  0.00000000000E+00  0.00000000000E+00 -0.25778170220E+04  0.25778170220E+04  0.50400001928E-02 0.  1.
    10030    2    1    2    0    0  0.00000000000E+00  0.00000000000E+00 -0.10867361542E+04  0.40688978899E+04  0.39210884419E+04 0.  0.
        3    1    3    3  502    0 -0.44308998841E+03 -0.54804192909E+03 -0.24418286124E+04  0.25414967394E+04  0.10100000352E+00 0.  1.
       -3    1    3    3    0  502  0.44308998841E+03  0.54804192909E+03  0.13550924582E+04  0.15274011505E+04  0.10100000352E+00 0. -1.
</event>
<event>
 5   0  0.3832389E-07  0.3425212E+04  0.7818609E-02  0.8131746E-01
       -2   -1    0    0    0  501  0.00000000000E+00  0.00000000000E+00  0.14459356966E+04  0.14459356966E+04  0.25500000920E-02 0. -1.
        2   -1    0    0  501    0  0.00000000000E+00  0.00000000000E+00 -0.20284580753E+04  0.20284580753E+04  0.25500000920E-02 0.  1.
    10030    2    1    2    0    0  0.00000000000E+00  0.00000000000E+00 -0.58252237869E+03  0.34743937718E+04  0.34252123671E+04 0.  0.
        5    1    3    3  502    0 -0.11361212915E+03 -0.16366941268E+04 -0.78956064747E+03  0.18207425646E+04  0.46999998093E+01 0. -1.
       -5    1    3    3    0  502  0.11361212915E+03  0.16366941268E+04  0.20703826878E+03  0.16536512072E+04  0.46999998093E+01 0.  1.
</event>
<event>
 5   0  0.1187925E-07  0.3200868E+04  0.7818609E-02  0.8188588E-01
       -1   -1    0    0    0  501  0.00000000000E+00  0.00000000000E+00  0.10493648748E+04  0.10493648748E+04  0.50400001928E-02 0.  1.
        1   -1    0    0  501    0  0.00000000000E+00  0.00000000000E+00 -0.24408946653E+04  0.24408946653E+04  0.50400001928E-02 0. -1.
    10030    2    1    2    0    0  0.00000000000E+00  0.00000000000E+00 -0.13915297905E+04  0.34902595401E+04  0.32008680853E+04 0.  0.
        3    1    3    3  502    0 -0.10206835349E+04  0.64005373493E+03 -0.18445448579E+04  0.22031362657E+04  0.10100000352E+00 0. -1.
       -3    1    3    3    0  502  0.10206835349E+04 -0.64005373493E+03  0.45301506745E+03  0.12871232744E+04  0.10100000352E+00 0.  1.
</event>
<event>
 5   0  0.3810833E-07  0.2842462E+04  0.7818609E-02  0.8290205E-01
       -2   -1    0    0    0  501  0.00000000000E+00  0.00000000000E+00  0.12362974589E+04  0.12362974589E+04  0.25500000920E-02 0. -1.
        2   -1    0    0  501    0  0.00000000000E+00  0.00000000000E+00 -0.16338285842E+04  0.16338285842E+04  0.25500000920E-02 0.  1.
    10030    2    1    2    0    0  0.00000000000E+00  0.00000000000E+00 -0.39753112531E+03  0.28701260431E+04  0.28424624022E+04 0.  0.
        3    1    3    3  502    0  0.14010842940E+04  0.43901432082E+02  0.37894622573E+02  0.14022840466E+04  0.10100000352E+00 0. -1.
       -3    1    3    3    0  502 -0.14010842940E+04 -0.43901432082E+02 -0.43542574788E+03  0.14678419965E+04  0.10100000352E+00 0.  1.
</event>
<event>
 5   0  0.1187925E-07  0.3936288E+04  0.7818609E-02  0.8017524E-01
        1   -1    0    0  501    0  0.00000000000E+00  0.00000000000E+00  0.23197877438E+04  0.23197877438E+04  0.50400001928E-02 0. -1.
       -1   -1    0    0    0  501  0.00000000000E+00  0.00000000000E+00 -0.16698037530E+04  0.16698037530E+04  0.50400001928E-02 0.  1.
    10030    2    1    2    0    0  0.00000000000E+00  0.00000000000E+00  0.64998399079E+03  0.39895914968E+04  0.39362877337E+04 0.  0.
        2    1    3    3  502    0 -0.12921561112E+04  0.14805903840E+04  0.43497401233E+03  0.20127140115E+04  0.25500000920E-02 0. -1.
       -2    1    3    3    0  502  0.12921561112E+04 -0.14805903840E+04  0.21500997845E+03  0.19768774852E+04  0.25500000920E-02 0.  1.
</event>
<event>
 5   0  0.3680814E-07  0.3894036E+04  0.7818609E-02  0.8026271E-01
        2   -1    0    0  501    0  0.00000000000E+00  0.00000000000E+00  0.12616736485E+04  0.12616736485E+04  0.25500000920E-02 0.  1.
       -2   -1    0    0    0  501  0.00000000000E+00  0.00000000000E+00 -0.30046430881E+04  0.30046430881E+04  0.25500000920E-02 0. -1.
    10030    2    1    2    0    0  0.00000000000E+00  0.00000000000E+00 -0.17429694396E+04  0.42663167366E+04  0.38940359563E+04 0.  0.
        1    1    3    3  502    0 -0.93025499800E+03  0.78144411932E+01  0.10024264544E+04  0.13675870076E+04  0.50400001928E-02 0.  1.
       -1    1    3    3    0  502  0.93025499800E+03 -0.78144411932E+01 -0.27453958940E+04  0.28987297290E+04  0.50400001928E-02 0. -1.
</event>
<event>
 5   0  0.1187925E-07  0.4102331E+04  0.7818609E-02  0.7984215E-01
       -1   -1    0    0    0  501  0.00000000000E+00  0.00000000000E+00  0.18908993495E+04  0.18908993495E+04  0.50400001928E-02 0.  1.
        1   -1    0    0  501    0  0.00000000000E+00  0.00000000000E+00 -0.22250152394E+04  0.22250152394E+04  0.50400001928E-02 0. -1.
    10030    2    1    2    0    0  0.00000000000E+00  0.00000000000E+00 -0.33411588988E+03  0.41159145889E+04  0.41023309807E+04 0.  0.
        2    1    3    3  502    0  0.11545442070E+04  0.51982916783E+03 -0.17861190883E+04  0.21893871487E+04  0.25500000920E-02 0. -1.
       -2    1    3    3    0  502 -0.11545442070E+04 -0.51982916783E+03  0.14520031984E+04  0.19265274402E+04  0.25500000920E-02 0.  1.
</event>
<event>
 5   0  0.3610483E-07  0.3295759E+04  0.7818609E-02  0.8163975E-01
       -2   -1    0    0    0  501  0.00000000000E+00  0.00000000000E+00  0.28169382586E+04  0.28169382586E+04  0.25500000920E-02 0. -1.
        2   -1    0    0  501    0  0.00000000000E+00  0.00000000000E+00 -0.96399203706E+03  0.96399203707E+03  0.25500000920E-02 0.  1.
    10030    2    1    2    0    0  0.00000000000E+00  0.00000000000E+00  0.18529462215E+04  0.37809302957E+04  0.32957585168E+04 0.  0.
        4    1    3    3  502    0  0.91946104506E+03  0.87134029755E+03  0.21356040266E+04  0.24830321582E+04  0.12699999809E+01 0. -1.
       -4    1    3    3    0  502 -0.91946104506E+03 -0.87134029755E+03 -0.28265780505E+03  0.12978981374E+04  0.12699999809E+01 0.  1.
</event>
<event>
 5   0  0.1187925E-07  0.3901820E+04  0.7818609E-02  0.8024651E-01
       -1   -1    0    0    0  501  0.00000000000E+00  0.00000000000E+00  0.13356427916E+04  0.13356427916E+04  0.50400001928E-02 0. -1.
        1   -1    0    0  501    0  0.00000000000E+00  0.00000000000E+00 -0.28496014393E+04  0.28496014393E+04  0.50400001928E-02 0.  1.
    10030    2    1    2    0    0  0.00000000000E+00  0.00000000000E+00 -0.15139586478E+04  0.41852442309E+04  0.39018198940E+04 0.  0.
        4    1    3    3  502    0  0.11669258149E+04  0.28371615834E+03  0.89217910062E+03  0.14960601180E+04  0.12699999809E+01 0. -1.
       -4    1    3    3    0  502 -0.11669258149E+04 -0.28371615834E+03 -0.24061377484E+04  0.26891841129E+04  0.12699999809E+01 0.  1.
</event>
<event>
 5   0  0.1187925E-07  0.3879177E+04  0.7818609E-02  0.8029374E-01
        4   -1    0    0  501    0  0.00000000000E+00  0.00000000000E+00  0.21057632514E+04  0.21057636344E+04  0.12699999809E+01 0.  1.
       -4   -1    0    0    0  501  0.00000000000E+00  0.00000000000E+00 -0.17865268574E+04  0.17865273088E+04  0.12699999809E+01 0. -1.
    10030    2    1    2    0    0  0.00000000000E+00  0.00000000000E+00  0.31923639396E+03  0.38922909432E+04  0.38791773498E+04 0.  0.
        5    1    3    3  502    0  0.16024345870E+03 -0.17392496633E+04 -0.68662770171E+03  0.18767384070E+04  0.46999998093E+01 0. -1.
       -5    1    3    3    0  502 -0.16024345870E+03  0.17392496633E+04  0.10058640957E+04  0.20155525362E+04  0.46999998093E+01 0.  1.
</event>
<event>
 5   0  0.1187925E-07  0.3920471E+04  0.7818609E-02  0.8020785E-01
       -1   -1    0    0    0  501  0.00000000000E+00  0.00000000000E+00  0.13709377246E+04  0.13709377246E+04  0.50400001928E-02 0. -1.
        1   -1    0    0  501    0  0.00000000000E+00  0.00000000000E+00 -0.28028423878E+04  0.28028423878E+04  0.50400001928E-02 0.  1.
    10030    2    1    2    0    0  0.00000000000E+00  0.00000000000E+00 -0.14319046632E+04  0.41737801124E+04  0.39204705664E+04 0.  0.
        5    1    3    3  502    0  0.83033541202E+03  0.97228171842E+03 -0.22977922878E+04  0.26295741336E+04  0.46999998093E+01 0.  1.
       -5    1    3    3    0  502 -0.83033541202E+03 -0.97228171842E+03  0.86588762456E+03  0.15442059787E+04  0.46999998093E+01 0. -1.
</event>
<event>
 5   0  0.1187925E-07  0.3857345E+04  0.7818609E-02  0.8033960E-01
       -1   -1    0    0    0  501  0.00000000000E+00  0.00000000000E+00  0.14531815988E+04  0.14531815988E+04  0.50400001928E-02 0. -1.
        1   -1    0    0  501    0  0.00000000000E+00  0.00000000000E+00 -0.25597468194E+04  0.25597468194E+04  0.50400001928E-02 0.  1.
    10030    2    1    2    0    0  0.00000000000E+00  0.00000000000E+00 -0.11065652205E+04  0.40129284182E+04  0.38573446699E+04 0.  0.
        2    1    3    3  502    0 -0.48374259611E+03 -0.39150459127E+02  0.13886172491E+04  0.14709852216E+04  0.25500000920E-02 0. -1.
       -2    1    3    3    0  502  0.48374259611E+03  0.39150459127E+02 -0.24951824696E+04  0.25419431966E+04  0.25500000920E-02 0.  1.
</event>
<event>
 5   0  0.1187925E-07  0.3899600E+04  0.7818609E-02  0.8025112E-01
       -1   -1    0    0    0  501  0.00000000000E+00  0.00000000000E+00  0.18491768233E+04  0.18491768233E+04  0.50400001928E-02 0.  1.
        1   -1    0    0  501    0  0.00000000000E+00  0.00000000000E+00 -0.20558989961E+04  0.20558989961E+04  0.50400001928E-02 0. -1.
    10030    2    1    2    0    0  0.00000000000E+00  0.00000000000E+00 -0.20672217280E+03  0.39050758195E+04  0.38996003768E+04 0.  0.
        3    1    3    3  502    0 -0.17543116033E+04  0.24018747989E+02 -0.95516383612E+03  0.19976296118E+04  0.10100000352E+00 0. -1.
       -3    1    3    3    0  502  0.17543116033E+04 -0.24018747989E+02  0.74844166332E+03  0.19074462077E+04  0.10100000352E+00 0.  1.
</event>
<event>
 5   0  0.1187925E-07  0.3800555E+04  0.7818609E-02  0.8046036E-01
       -1   -1    0    0    0  501  0.00000000000E+00  0.00000000000E+00  0.15335243979E+04  0.15335243979E+04  0.50400001928E-02 0.  1.
        1   -1    0    0  501    0  0.00000000000E+00  0.00000000000E+00 -0.23547423636E+04  0.23547423636E+04  0.50400001928E-02 0. -1.
    10030    2    1    2    0    0  0.00000000000E+00  0.00000000000E+00 -0.82121796565E+03  0.38882667615E+04  0.38005551518E+04 0.  0.
        5    1    3    3  502    0 -0.77698459994E+03 -0.11710685448E+04 -0.17191606154E+04  0.22205048788E+04  0.46999998093E+01 0. -1.
       -5    1    3    3    0  502  0.77698459994E+03  0.11710685448E+04  0.89794264976E+03  0.16677618827E+04  0.46999998093E+01 0.  1.
</event>
<event>
 5   0  0.1187925E-07  0.3049127E+04  0.7818609E-02  0.8229840E-01
        1   -1    0    0  501    0  0.00000000000E+00  0.00000000000E+00  0.14360312937E+04  0.14360312937E+04  0.50400001928E-02 0.  1.
       -1   -1    0    0    0  501  0.00000000000E+00  0.00000000000E+00 -0.16185536930E+04  0.16185536930E+04  0.50400001928E-02 0. -1.
    10030    2    1    2    0    0  0.00000000000E+00  0.00000000000E+00 -0.18252239928E+03  0.30545849867E+04  0.30491269267E+04 0.  0.
        5    1    3    3  502    0 -0.84033349646E+03  0.81308101219E+03  0.88875909987E+03  0.14687327685E+04  0.46999998093E+01 0.  1.
       -5    1    3    3    0  502  0.84033349646E+03 -0.81308101219E+03 -0.10712814992E+04  0.15858522182E+04  0.46999998093E+01 0. -1.
</event>
<event>
 5   0  0.1187925E-07  0.3924287E+04  0.7818609E-02  0.8019997E-01
        1   -1    0    0  501    0  0.00000000000E+00  0.00000000000E+00  0.17336210934E+04  0.17336210934E+04  0.50400001928E-02 0. -1.
       -1   -1    0    0    0  501  0.00000000000E+00  0.00000000000E+00 -0.22207891936E+04  0.22207891936E+04  0.50400001928E-02 0.  1.
    10030    2    1    2    0    0  0.00000000000E+00  0.00000000000E+00 -0.48716810020E+03  0.39544102870E+04  0.39242869366E+04 0.  0.
        5    1    3    3  502    0  0.95975393163E+02 -0.62272726329E+03 -0.21160687571E+04  0.22078880396E+04  0.46999998093E+01 0.  1.
       -5    1    3    3    0  502 -0.95975393163E+02  0.62272726329E+03  0.16289006569E+04  0.17465222474E+04  0.46999998093E+01 0. -1.
</event>
<event>
 5   0  0.3610483E-07  0.3891258E+04  0.7818609E-02  0.8026850E-01
        2   -1    0    0  501    0  0.00000000000E+00  0.00000000000E+00  0.25631519972E+04  0.25631519972E+04  0.25500000920E-02 0. -1.
       -2   -1    0    0    0  501  0.00000000000E+00  0.00000000000E+00 -0.14768819188E+04  0.14768819188E+04  0.25500000920E-02 0.  1.
    10030    2    1    2    0    0  0.00000000000E+00  0.00000000000E+00  0.10862700784E+04  0.40400339160E+04  0.38912583259E+04 0.  0.
        4    1    3    3  502    0 -0.73667986950E+03 -0.45298182776E+03 -0.12663663248E+04  0.15334846096E+04  0.12699999809E+01 0.  1.
       -4    1    3    3    0  502  0.73667986950E+03  0.45298182776E+03  0.23526364032E+04  0.25065493064E+04  0.12699999809E+01 0. -1.
</event>
<event>
 5   0  0.1187925E-07  0.3844419E+04  0.7818609E-02  0.8036689E-01
        1   -1    0    0  501    0  0.00000000000E+00  0.00000000000E+00  0.25190323733E+04  0.25190323733E+04  0.50400001928E-02 0.  1.
       -1   -1    0    0    0  501  0.00000000000E+00  0.00000000000E+00 -0.14667891179E+04  0.14667891179E+04  0.50400001928E-02 0. -1.
    10030    2    1    2    0    0  0.00000000000E+00  0.00000000000E+00  0.10522432554E+04  0.39858214912E+04  0.38444189536E+04 0.  0.
        4    1    3    3  502    0 -0.40700323266E+03  0.12000945570E+04 -0.97238027558E+03  0.15973113630E+04  0.12699999809E+01 0. -1.
       -4    1    3    3    0  502  0.40700323266E+03 -0.12000945570E+04  0.20246235310E+04  0.23885101282E+04  0.12699999809E+01 0.  1.
</event>
<event>
 5   0  0.3810833E-07  0.3925558E+04  0.7818609E-02  0.8019735E-01
       -2   -1    0    0    0  501  0.00000000000E+00  0.00000000000E+00  0.17397414041E+04  0.17397414041E+04  0.25500000920E-02 0.  1.
        2   -1    0    0  501    0  0.00000000000E+00  0.00000000000E+00 -0.22144101785E+04  0.22144101785E+04  0.25500000920E-02 0. -1.
    10030    2    1    2    0    0  0.00000000000E+00  0.00000000000E+00 -0.47466877440E+03  0.39541515826E+04  0.39255578320E+04 0.  0.
        3    1    3    3  502    0 -0.13895362679E+04  0.10897530319E+04 -0.11003883137E+04  0.20806794951E+04  0.10100000352E+00 0. -1.
       -3    1    3    3    0  502  0.13895362679E+04 -0.10897530319E+04  0.62571953931E+03  0.18734720874E+04  0.10100000352E+00 0.  1.
</event>
<event>
 5   0  0.3680814E-07  0.3899673E+04  0.7818609E-02  0.8025097E-01
        2   -1    0    0  501    0  0.00000000000E+00  0.00000000000E+00  0.30563761316E+04  0.30563761316E+04  0.25500000920E-02 0.  1.
       -2   -1    0    0    0  501  0.00000000000E+00  0.00000000000E+00 -0.12439115835E+04  0.12439115835E+04  0.25500000920E-02 0. -1.
    10030    2    1    2    0    0  0.00000000000E+00  0.00000000000E+00  0.18124645480E+04  0.43002877151E+04  0.38996726394E+04 0.  0.
        1    1    3    3  502    0  0.73875503278E+03  0.56838444031E+03 -0.98231773049E+03  0.13541669004E+04  0.50400001928E-02 0. -1.
       -1    1    3    3    0  502 -0.73875503278E+03 -0.56838444031E+03  0.27947822785E+04  0.29461208147E+04  0.50400001928E-02 0.  1.
</event>
<event>
 5   0  0.1187925E-07  0.3766596E+04  0.7818609E-02  0.8053362E-01
        1   -1    0    0  501    0  0.00000000000E+00  0.00000000000E+00  0.15407333663E+04  0.15407333663E+04  0.50400001928E-02 0. -1.
       -1   -1    0    0    0  501  0.00000000000E+00  0.00000000000E+00 -0.23020278726E+04  0.23020278726E+04  0.50400001928E-02 0.  1.
    10030    2    1    2    0    0  0.00000000000E+00  0.00000000000E+00 -0.76129450633E+03  0.38427612389E+04  0.37665958920E+04 0.  0.
        4    1    3    3  502    0 -0.64468255763E+03  0.42691000530E+03  0.13713260048E+04  0.15742948825E+04  0.12699999809E+01 0. -1.
       -4    1    3    3    0  502  0.64468255763E+03 -0.42691000530E+03 -0.21326205111E+04  0.22684663564E+04  0.12699999809E+01 0.  1.
</event>
<event>
 5   0  0.3680814E-07  0.3947578E+04  0.7818609E-02  0.8015206E-01
        2   -1    0    0  501    0  0.00000000000E+00  0.00000000000E+00  0.17693168850E+04  0.17693168850E+04  0.25500000920E-02 0. -1.
       -2   -1    0    0    0  501  0.00000000000E+00  0.00000000000E+00 -0.22018907525E+04  0.22018907525E+04  0.25500000920E-02 0.  1.
    10030    2    1    2    0    0  0.00000000000E+00  0.00000000000E+00 -0.43257386748E+03  0.39712076375E+04  0.39475777319E+04 0.  0.
        1    1    3    3  502    0 -0.10924758576E+04  0.76651226037E+03  0.12466524921E+04  0.18262494301E+04  0.50400001928E-02 0. -1.
       -1    1    3    3    0  502  0.10924758576E+04 -0.76651226037E+03 -0.16792263596E+04  0.21449582074E+04  0.50400001928E-02 0.  1.
</event>
<event>
 5   0  0.3680814E-07  0.3976076E+04  0.7818609E-02  0.8009390E-01
       -2   -1    0    0    0  501  0.00000000000E+00  0.00000000000E+00  0.20913866222E+04  0.20913866222E+04  0.25500000920E-02 0.  1.
        2   -1    0    0  501    0  0.00000000000E+00  0.00000000000E+00 -0.18897962645E+04  0.18897962645E+04  0.25500000920E-02 0. -1.
    10030    2    1    2    0    0  0.00000000000E+00  0.00000000000E+00  0.20159035769E+03  0.39811828867E+04  0.39760757670E+04 0.  0.
        1    1    3    3  502    0  0.18993460105E+04  0.19594994767E+02 -0.48681071696E+03  0.19608375521E+04  0.50400001928E-02 0. -1.
       -1    1    3    3    0  502 -0.18993460105E+04 -0.19594994767E+02  0.68840107465E+03  0.20203453346E+04  0.50400001928E-02 0.  1.
</event>
<event>
 5   0  0.1187925E-07  0.3870583E+04  0.7818609E-02  0.8031175E-01
       -1   -1    0    0    0  501  0.00000000000E+00  0.00000000000E+00  0.22697971617E+04  0.22697971617E+04  0.50400001928E-02 0.  1.
        1   -1    0    0  501    0  0.00000000000E+00  0.00000000000E+00 -0.16500831971E+04  0.16500831971E+04  0.50400001928E-02 0. -1.
    10030    2    1    2    0    0  0.00000000000E+00  0.00000000000E+00  0.61971396460E+03  0.39198803588E+04  0.38705834998E+04 0.  0.
        2    1    3    3  502    0  0.69426551297E+03  0.25974320764E+03  0.21203289638E+04  0.22461669687E+04  0.25500000920E-02 0.  1.
       -2    1    3    3    0  502 -0.69426551297E+03 -0.25974320764E+03 -0.15006149992E+04  0.16737133901E+04  0.25500000920E-02 0. -1.
</event>
<event>
 5   0  0.3680814E-07  0.3914856E+04  0.7818609E-02  0.8021947E-01
        2   -1    0    0  501    0  0.00000000000E+00  0.00000000000E+00  0.21367175282E+04  0.21367175282E+04  0.25500000920E-02 0. -1.
       -2   -1    0    0    0  501  0.00000000000E+00  0.00000000000E+00 -0.17931822380E+04  0.17931822380E+04  0.25500000920E-02 0.  1.
    10030    2    1    2    0    0  0.00000000000E+00  0.00000000000E+00  0.34353529023E+03  0.39298997662E+04  0.39148557670E+04 0.  0.
        1    1    3    3  502    0 -0.62718114325E+03 -0.16977782491E+04 -0.57656113957E+03  0.18995341317E+04  0.50400001928E-02 0.  1.
       -1    1    3    3    0  502  0.62718114325E+03  0.16977782491E+04  0.92009642980E+03  0.20303656345E+04  0.50400001928E-02 0. -1.
</event>
<event>
 5   0  0.1187925E-07  0.3707694E+04  0.7818609E-02  0.8066259E-01
        1   -1    0    0  501    0  0.00000000000E+00  0.00000000000E+00  0.19176215126E+04  0.19176215126E+04  0.50400001928E-02 0.  1.
       -1   -1    0    0    0  501  0.00000000000E+00  0.00000000000E+00 -0.17921930984E+04  0.17921930984E+04  0.50400001928E-02 0. -1.
    10030    2    1    2    0    0  0.00000000000E+00  0.00000000000E+00  0.12542841420E+03  0.37098146110E+04  0.37076936444E+04 0.  0.
        4    1    3    3  502    0  0.13100913573E+04 -0.12309808582E+04  0.51584542606E+03  0.18702276210E+04  0.12699999809E+01 0. -1.
       -4    1    3    3    0  502 -0.13100913573E+04  0.12309808582E+04 -0.39041701186E+03  0.18395869900E+04  0.12699999809E+01 0.  1.
</event>
<event>
 5   0  0.1187925E-07  0.3033602E+04  0.7818609E-02  0.8234200E-01
       -1   -1    0    0    0  501  0.00000000000E+00  0.00000000000E+00  0.17942986727E+04  0.17942986727E+04  0.50400001928E-02 0. -1.
        1   -1    0    0  501    0  0.00000000000E+00  0.00000000000E+00 -0.12822197471E+04  0.12822197471E+04  0.50400001928E-02 0.  1.
    10030    2    1    2    0    0  0.00000000000E+00  0.00000000000E+00  0.51207892555E+03  0.30765184198E+04  0.30336019451E+04 0.  0.
        2    1    3    3  502    0  0.32755304565E+03 -0.76938354639E+03  0.15394236641E+04  0.17518753543E+04  0.25500000920E-02 0. -1.
       -2    1    3    3    0  502 -0.32755304565E+03  0.76938354639E+03 -0.10273447386E+04  0.13246430655E+04  0.25500000920E-02 0.  1.
</event>
<event>
 5   0  0.1187925E-07  0.3876507E+04  0.7818609E-02  0.8029933E-01
        1   -1    0    0  501    0  0.00000000000E+00  0.00000000000E+00  0.15700405641E+04  0.15700405641E+04  0.50400001928E-02 0. -1.
       -1   -1    0    0    0  501  0.00000000000E+00  0.00000000000E+00 -0.23928217213E+04  0.23928217213E+04  0.50400001928E-02 0.  1.
    10030    2    1    2    0    0  0.00000000000E+00  0.00000000000E+00 -0.82278115725E+03  0.39628622854E+04  0.38765072759E+04 0.  0.
        1    1    3    3  502    0  0.31060391832E+03  0.12940861079E+04  0.10291466476E+04  0.16823425545E+04  0.50400001928E-02 0. -1.
       -1    1    3    3    0  502 -0.31060391832E+03 -0.12940861079E+04 -0.18519278048E+04  0.22805197309E+04  0.50400001928E-02 0.  1.
</event>
<event>
 5   0  0.3680814E-07  0.3893931E+04  0.7818609E-02  0.8026293E-01
        2   -1    0    0  501    0  0.00000000000E+00  0.00000000000E+00  0.26744880298E+04  0.26744880298E+04  0.25500000920E-02 0.  1.
       -2   -1    0    0    0  501  0.00000000000E+00  0.00000000000E+00 -0.14173456964E+04  0.14173456964E+04  0.25500000920E-02 0. -1.
    10030    2    1    2    0    0  0.00000000000E+00  0.00000000000E+00  0.12571423334E+04  0.40918337262E+04  0.38939307129E+04 0.  0.
        1    1    3    3  502    0  0.11293829385E+03 -0.17404586127E+02 -0.14138188060E+04  0.14184292701E+04  0.50400001928E-02 0. -1.
       -1    1    3    3    0  502 -0.11293829385E+03  0.17404586127E+02  0.26709611394E+04  0.26734044562E+04  0.50400001928E-02 0.  1.
</event>
<event>
 5   0  0.1187925E-07  0.3442129E+04  0.7818609E-02  0.8127643E-01
        1   -1    0    0  501    0  0.00000000000E+00  0.00000000000E+00  0.17520459558E+04  0.17520459558E+04  0.50400001928E-02 0. -1.
       -1   -1    0    0    0  501  0.00000000000E+00  0.00000000000E+00 -0.16906306674E+04  0.16906306674E+04  0.50400001928E-02 0.  1.
    10030    2    1    2    0    0  0.00000000000E+00  0.00000000000E+00  0.61415288455E+02  0.34426766232E+04  0.34421287737E+04 0.  0.
        1    1    3    3  502    0 -0.31624874786E+03 -0.11155640503E+04  0.13027458307E+04  0.17440307108E+04  0.50400001928E-02 0. -1.
       -1    1    3    3    0  502  0.31624874786E+03  0.11155640503E+04 -0.12413305422E+04  0.16986459125E+04  0.50400001928E-02 0.  1.
</event>
<event>
 5   0  0.1187925E-07  0.3896462E+04  0.7818609E-02  0.8025765E-01
        1   -1    0    0  501    0  0.00000000000E+00  0.00000000000E+00  0.12176084996E+04  0.12176084996E+04  0.50400001928E-02 0.  1.
       -1   -1    0    0    0  501  0.00000000000E+00  0.00000000000E+00 -0.31172612112E+04  0.31172612112E+04  0.50400001928E-02 0. -1.
    10030    2    1    2    0    0  0.00000000000E+00  0.00000000000E+00 -0.18996527116E+04  0.43348697107E+04  0.38964618546E+04 0.  0.
        4    1    3    3  502    0 -0.12088264886E+04  0.71860910929E+03 -0.24498412934E+04  0.28247804352E+04  0.12699999809E+01 0. -1.
       -4    1    3    3    0  502  0.12088264886E+04 -0.71860910929E+03  0.55018858182E+03  0.15100892755E+04  0.12699999809E+01 0.  1.
</event>
<event>
 5   0  0.3665303E-07  0.3903874E+04  0.7818609E-02  0.8024224E-01
       -2   -1    0    0    0  501  0.00000000000E+00  0.00000000000E+00  0.32348943627E+04  0.32348943627E+04  0.25500000920E-02 0. -1.
        2   -1    0    0  501    0  0.00000000000E+00  0.00000000000E+00 -0.11777997953E+04  0.11777997953E+04  0.25500000920E-02 0.  1.
    10030    2    1    2    0    0  0.00000000000E+00  0.00000000000E+00  0.20570945674E+04  0.44126941579E+04  0.39038739314E+04 0.  0.
        2    1    3    3  502    0  0.13452793597E+04  0.83420064175E+03 -0.26241002931E+03  0.16045330442E+04  0.25500000920E-02 0.  1.
       -2    1    3    3    0  502 -0.13452793597E+04 -0.83420064175E+03  0.23195045967E+04  0.28081611137E+04  0.25500000920E-02 0. -1.
</event>
<event>
 5   0  0.3665303E-07  0.3893748E+04  0.7818609E-02  0.8026331E-01
       -2   -1    0    0    0  501  0.00000000000E+00  0.00000000000E+00  0.23528316089E+04  0.23528316089E+04  0.25500000920E-02 0.  1.
        2   -1    0    0  501    0  0.00000000000E+00  0.00000000000E+00 -0.16109602725E+04  0.16109602725E+04  0.25500000920E-02 0. -1.
    10030    2    1    2    0    0  0.00000000000E+00  0.00000000000E+00  0.74187133639E+03  0.39637918813E+04  0.38937479372E+04 0.  0.
        2    1    3    3  502    0 -0.88606708565E+03  0.14668165710E+04  0.13114893165E+04  0.21579318711E+04  0.25500000920E-02 0.  1.
       -2    1    3    3    0  502  0.88606708565E+03 -0.14668165710E+04 -0.56961798010E+03  0.18058600102E+04  0.25500000920E-02 0. -1.
</event>
<event>
 5   0  0.3832389E-07  0.3838934E+04  0.7818609E-02  0.8037851E-01
        2   -1    0    0  501    0  0.00000000000E+00  0.00000000000E+00  0.19748129510E+04  0.19748129510E+04  0.25500000920E-02 0. -1.
       -2   -1    0    0    0  501  0.00000000000E+00  0.00000000000E+00 -0.18656719423E+04  0.18656719423E+04  0.25500000920E-02 0.  1.
    10030    2    1    2    0    0  0.00000000000E+00  0.00000000000E+00  0.10914100867E+03  0.38404848933E+04  0.38389337655E+04 0.  0.
        5    1    3    3  502    0  0.18815753514E+03  0.63497831214E+03 -0.17477484810E+04  0.18690231560E+04  0.46999998093E+01 0.  1.
       -5    1    3    3    0  502 -0.18815753514E+03 -0.63497831214E+03  0.18568894896E+04  0.19714617373E+04  0.46999998093E+01 0. -1.
</event>
<event>
 5   0  0.3680814E-07  0.3814114E+04  0.7818609E-02  0.8043133E-01
        2   -1    0    0  501    0  0.00000000000E+00  0.00000000000E+00  0.17964576667E+04  0.17964576667E+04  0.25500000920E-02 0.  1.
       -2   -1    0    0    0  501  0.00000000000E+00  0.00000000000E+00 -0.20244653173E+04  0.20244653173E+04  0.25500000920E-02 0. -1.
    10030    2    1    2    0    0  0.00000000000E+00  0.00000000000E+00 -0.22800765067E+03  0.38209229840E+04  0.38141139156E+04 0.  0.
        1    1    3    3  502    0  0.17276829484E+04 -0.96807218081E+02  0.68905450363E+03  0.18625402322E+04  0.50400001928E-02 0. -1.
       -1    1    3    3    0  502 -0.17276829484E+04  0.96807218081E+02 -0.91706215430E+03  0.19583827518E+04  0.50400001928E-02 0.  1.
</event>
<event>
 5   0  0.1187925E-07  0.3875202E+04  0.7818609E-02  0.8030207E-01
       -1   -1    0    0    0  501  0.00000000000E+00  0.00000000000E+00  0.15206387069E+04  0.15206387069E+04  0.50400001928E-02 0. -1.
        1   -1    0    0  501    0  0.00000000000E+00  0.00000000000E+00 -0.24688955880E+04  0.24688955880E+04  0.50400001928E-02 0.  1.
    10030    2    1    2    0    0  0.00000000000E+00  0.00000000000E+00 -0.94825688106E+03  0.39895342949E+04  0.38752022886E+04 0.  0.
        3    1    3    3  502    0 -0.35587446380E+03 -0.24305932150E+03 -0.24189294040E+04  0.24570193202E+04  0.10100000352E+00 0.  1.
       -3    1    3    3    0  502  0.35587446380E+03  0.24305932150E+03  0.14706725230E+04  0.15325149747E+04  0.10100000352E+00 0. -1.
</event>
<event>
 5   0  0.3610483E-07  0.3895317E+04  0.7818609E-02  0.8026004E-01
        2   -1    0    0  501    0  0.00000000000E+00  0.00000000000E+00  0.28786083457E+04  0.28786083457E+04  0.25500000920E-02 0.  1.
       -2   -1    0    0    0  501  0.00000000000E+00  0.00000000000E+00 -0.13177805338E+04  0.13177805338E+04  0.25500000920E-02 0. -1.
    10030    2    1    2    0    0  0.00000000000E+00  0.00000000000E+00  0.15608278120E+04  0.41963888795E+04  0.38953172104E+04 0.  0.
        4    1    3    3  502    0  0.18063527503E+04  0.58225434838E+03  0.12517726412E+04  0.22735141836E+04  0.12699999809E+01 0.  1.
       -4    1    3    3    0  502 -0.18063527503E+04 -0.58225434838E+03  0.30905517077E+03  0.19228746959E+04  0.12699999809E+01 0. -1.
</event>
<event>
 5   0  0.3832389E-07  0.3902680E+04  0.7818609E-02  0.8024472E-01
       -2   -1    0    0    0  501  0.00000000000E+00  0.00000000000E+00  0.23623738069E+04  0.23623738069E+04  0.25500000920E-02 0. -1.
        2   -1    0    0  501    0  0.00000000000E+00  0.00000000000E+00 -0.16118229023E+04  0.16118229023E+04  0.25500000920E-02 0.  1.
    10030    2    1    2    0    0  0.00000000000E+00  0.00000000000E+00  0.75055090466E+03  0.39741967092E+04  0.39026802102E+04 0.  0.
        5    1    3    3  502    0 -0.87428281610E+03 -0.72215237795E+02  0.21502368007E+04  0.23223104599E+04  0.46999998093E+01 0. -1.
       -5    1    3    3    0  502  0.87428281610E+03  0.72215237795E+02 -0.13996858960E+04  0.16518862493E+04  0.46999998093E+01 0.  1.
</event>
<event>
 5   0  0.3680814E-07  0.3943841E+04  0.7818609E-02  0.8015972E-01
        2   -1    0    0  501    0  0.00000000000E+00  0.00000000000E+00  0.13566901327E+04  0.13566901327E+04  0.25500000920E-02 0. -1.
       -2   -1    0    0    0  501  0.00000000000E+00  0.00000000000E+00 -0.28661445511E+04  0.28661445511E+04  0.25500000920E-02 0.  1.
    10030    2    1    2    0    0  0.00000000000E+00  0.00000000000E+00 -0.15094544184E+04  0.42228346838E+04  0.39438407835E+04 0.  0.
        1    1    3    3  502    0  0.42067837773E+03  0.19155554423E+04 -0.53490657356E+03  0.20328423432E+04  0.50400001928E-02 0. -1.
       -1    1    3    3    0  502 -0.42067837773E+03 -0.19155554423E+04 -0.97454784486E+03  0.21899923406E+04  0.50400001928E-02 0.  1.
</event>
<event>
 5   0  0.1187925E-07  0.3854361E+04  0.7818609E-02  0.8034589E-01
       -1   -1    0    0    0  501  0.00000000000E+00  0.00000000000E+00  0.14306931910E+04  0.14306931910E+04  0.50400001928E-02 0. -1.
        1   -1    0    0  501    0  0.00000000000E+00  0.00000000000E+00 -0.25959617782E+04  0.25959617782E+04  0.50400001928E-02 0.  1.
    10030    2    1    2    0    0  0.00000000000E+00  0.00000000000E+00 -0.11652685872E+04  0.40266549692E+04  0.38543610834E+04 0.  0.
        1    1    3    3  502    0  0.94749794842E+03 -0.65388259870E+03  0.10319983791E+04  0.15460709782E+04  0.50400001928E-02 0. -1.
       -1    1    3    3    0  502 -0.94749794842E+03  0.65388259870E+03 -0.21972669663E+04  0.24805839910E+04  0.50400001928E-02 0.  1.
</event>
<event>
 5   0  0.1187925E-07  0.3671900E+04  0.7818609E-02  0.8074218E-01
        1   -1    0    0  501    0  0.00000000000E+00  0.00000000000E+00  0.24771885509E+04  0.24771885509E+04  0.50400001928E-02 0. -1.
       -1   -1    0    0    0  501  0.00000000000E+00  0.00000000000E+00 -0.13607007184E+04  0.13607007184E+04  0.50400001928E-02 0.  1.
    10030    2    1    2    0    0  0.00000000000E+00  0.00000000000E+00  0.11164878325E+04  0.38378892693E+04  0.36718999119E+04 0.  0.
        2    1    3    3  502    0 -0.52273333595E+03  0.17494480926E+04  0.35748429580E+03  0.18605412629E+04  0.25500000920E-02 0.  1.
       -2    1    3    3    0  502  0.52273333595E+03 -0.17494480926E+04  0.75900353673E+03  0.19773480063E+04  0.25500000920E-02 0. -1.
</event>
<event>
 5   0  0.1187925E-07  0.3814866E+04  0.7818609E-02  0.8042972E-01
       -1   -1    0    0    0  501  0.00000000000E+00  0.00000000000E+00  0.18516974326E+04  0.18516974326E+04  0.50400001928E-02 0.  1.
        1   -1    0    0  501    0  0.00000000000E+00  0.00000000000E+00 -0.19648459337E+04  0.19648459337E+04  0.50400001928E-02 0. -1.
    10030    2    1    2    0    0  0.00000000000E+00  0.00000000000E+00 -0.11314850112E+03  0.38165433662E+04  0.38148657490E+04 0.  0.
        2    1    3    3  502    0  0.22199366169E+03 -0.16723469436E+04  0.83391530944E+03  0.18818714698E+04  0.25500000920E-02 0. -1.
       -2    1    3    3    0  502 -0.22199366169E+03  0.16723469436E+04 -0.94706381056E+03  0.19346718964E+04  0.25500000920E-02 0.  1.
</event>
<event>
 5   0  0.3665303E-07  0.3701196E+04  0.7818609E-02  0.8067697E-01
        2   -1    0    0  501    0  0.00000000000E+00  0.00000000000E+00  0.20242131273E+04  0.20242131273E+04  0.25500000920E-02 0.  1.
       -2   -1    0    0    0  501  0.00000000000E+00  0.00000000000E+00 -0.16918740125E+04  0.16918740125E+04  0.25500000920E-02 0. -1.
    10030    2    1    2    0    0  0.00000000000E+00  0.00000000000E+00  0.33233911481E+03  0.37160871399E+04  0.37011963395E+04 0.  0.
        2    1    3    3  502    0  0.84725247833E+02 -0.73492487519E+03  0.18692903188E+04  0.20103579869E+04  0.25500000920E-02 0.  1.
       -2    1    3    3    0  502 -0.84725247833E+02  0.73492487519E+03 -0.15369512040E+04  0.17057291529E+04  0.25500000920E-02 0. -1.
</event>
<event>
 5   0  0.3610483E-07  0.3313554E+04  0.7818609E-02  0.8159455E-01
        2   -1    0    0  501    0  0.00000000000E+00  0.00000000000E+00  0.17800657325E+04  0.17800657325E+04  0.25500000920E-02 0. -1.
       -2   -1    0    0    0  501  0.00000000000E+00  0.00000000000E+00 -0.15420275172E+04  0.15420275172E+04  0.25500000920E-02 0.  1.
    10030    2    1    2    0    0  0.00000000000E+00  0.00000000000E+00  0.23803821528E+03  0.33220932497E+04  0.33135541897E+04 0.  0.
        4    1    3    3  502    0  0.22655945851E+03 -0.46664424801E+03 -0.14585104689E+04  0.15480117710E+04  0.12699999809E+01 0.  1.
       -4    1    3    3    0  502 -0.22655945851E+03  0.46664424801E+03  0.16965486842E+04  0.17740814787E+04  0.12699999809E+01 0. -1.
</event>
<event>
 5   0  0.3832389E-07  0.3607651E+04  0.7818609E-02  0.8088741E-01
       -2   -1    0    0    0  501  0.00000000000E+00  0.00000000000E+00  0.12250312708E+04  0.12250312708E+04  0.25500000920E-02 0. -1.
        2   -1    0    0  501    0  0.00000000000E+00  0.00000000000E+00 -0.26560845048E+04  0.26560845048E+04  0.25500000920E-02 0.  1.
    10030    2    1    2    0    0  0.00000000000E+00  0.00000000000E+00 -0.14310532341E+04  0.38811157756E+04  0.36076510786E+04 0.  0.
        5    1    3    3  502    0  0.91296924221E+03  0.36493322302E+03 -0.23424695188E+04  0.25404477225E+04  0.46999998093E+01 0.  1.
       -5    1    3    3    0  502 -0.91296924221E+03 -0.36493322302E+03  0.91141628470E+03  0.13406680531E+04  0.46999998093E+01 0. -1.
</event>
<event>
 5   0  0.1187925E-07  0.3913042E+04  0.7818609E-02  0.8022322E-01
        1   -1    0    0  501    0  0.00000000000E+00  0.00000000000E+00  0.21406656820E+04  0.21406656820E+04  0.50400001928E-02 0.  1.
       -1   -1    0    0    0  501  0.00000000000E+00  0.00000000000E+00 -0.17882168236E+04  0.17882168236E+04  0.50400001928E-02 0. -1.
    10030    2    1    2    0    0  0.00000000000E+00  0.00000000000E+00  0.35244885833E+03  0.39288825056E+04  0.39130419810E+04 0.  0.
        1    1    3    3  502    0  0.37648290128E+03 -0.19154113294E+04  0.43650335447E+02  0.19525484085E+04  0.50400001928E-02 0.  1.
       -1    1    3    3    0  502 -0.37648290128E+03  0.19154113294E+04  0.30879852288E+03  0.19763340971E+04  0.50400001928E-02 0. -1.
</event>
<event>
 5   0  0.1187925E-07  0.3946450E+04  0.7818609E-02  0.8015437E-01
        1   -1    0    0  501    0  0.00000000000E+00  0.00000000000E+00  0.15100414804E+04  0.15100414804E+04  0.50400001928E-02 0. -1.
       -1   -1    0    0    0  501  0.00000000000E+00  0.00000000000E+00 -0.25784835734E+04  0.25784835734E+04  0.50400001928E-02 0.  1.
    10030    2    1    2    0    0  0.00000000000E+00  0.00000000000E+00 -0.10684420930E+04  0.40885250538E+04  0.39464501275E+04 0.  0.
        4    1    3    3  502    0 -0.55615687080E+03 -0.18607904008E+04 -0.89573060164E+03  0.21387347438E+04  0.12699999809E+01 0.  1.
       -4    1    3    3    0  502  0.55615687080E+03  0.18607904008E+04 -0.17271149138E+03  0.19497903100E+04  0.12699999809E+01 0. -1.
</event>
<event>
 5   0  0.3665303E-07  0.2902556E+04  0.7818609E-02  0.8272117E-01
        2   -1    0    0  501    0  0.00000000000E+00  0.00000000000E+00  0.10595707367E+04  0.10595707367E+04  0.25500000920E-02 0. -1.
       -2   -1    0    0    0  501  0.00000000000E+00  0.00000000000E+00 -0.19877932514E+04  0.19877932514E+04  0.25500000920E-02 0.  1.
    10030    2    1    2    0    0  0.00000000000E+00  0.00000000000E+00 -0.92822251472E+03  0.30473639881E+04  0.29025558116E+04 0.  0.
        2    1    3    3  502    0 -0.10329115583E+04 -0.98081152434E+03 -0.17219272794E+03  0.14347640465E+04  0.25500000920E-02 0. -1.
       -2    1    3    3    0  502  0.10329115583E+04  0.98081152434E+03 -0.75602978678E+03  0.16125999417E+04  0.25500000920E-02 0.  1.
</event>
<event>
 5   0  0.3680814E-07  0.4044346E+04  0.7818609E-02  0.7995660E-01
        2   -1    0    0  501    0  0.00000000000E+00  0.00000000000E+00  0.28316397395E+04  0.28316397395E+04  0.25500000920E-02 0.  1.
       -2   -1    0    0    0  501  0.00000000000E+00  0.00000000000E+00 -0.14441041716E+04  0.14441041716E+04  0.25500000920E-02 0. -1.
    10030    2    1    2    0    0  0.00000000000E+00  0.00000000000E+00  0.13875355678E+04  0.42757439111E+04  0.40443455640E+04 0.  0.
        1    1    3    3  502    0 -0.15487353845E+04 -0.12317596552E+04  0.11339676737E+04  0.22807226540E+04  0.50400001928E-02 0.  1.
       -1    1    3    3    0  502  0.15487353845E+04  0.12317596552E+04  0.25356789417E+03  0.19950212571E+04  0.50400001928E-02 0. -1.
</event>
<event>
 5   0  0.3610483E-07  0.2919040E+04  0.7818609E-02  0.8267235E-01
        2   -1    0    0  501    0  0.00000000000E+00  0.00000000000E+00  0.24869740120E+04  0.24869740120E+04  0.25500000920E-02 0.  1.
       -2   -1    0    0    0  501  0.00000000000E+00  0.00000000000E+00 -0.85654214654E+03  0.85654214655E+03  0.25500000920E-02 0. -1.
    10030    2    1    2    0    0  0.00000000000E+00  0.00000000000E+00  0.16304318654E+04  0.33435161585E+04  0.29190396082E+04 0.  0.
        4    1    3    3  502    0 -0.26495102940E+03  0.52611025390E+03 -0.71433563534E+03  0.92588771461E+03  0.12699999809E+01 0. -1.
       -4    1    3    3    0  502  0.26495102940E+03 -0.52611025390E+03  0.23447675008E+04  0.24176284439E+04  0.12699999809E+01 0.  1.
</event>
<event>
 5   0  0.1187925E-07  0.3812743E+04  0.7818609E-02  0.8043426E-01
        1   -1    0    0  501    0  0.00000000000E+00  0.00000000000E+00  0.15455365925E+04  0.15455365925E+04  0.50400001928E-02 0. -1.
       -1   -1    0    0    0  501  0.00000000000E+00  0.00000000000E+00 -0.23514505465E+04  0.23514505465E+04  0.50400001928E-02 0.  1.
    10030    2    1    2    0    0  0.00000000000E+00  0.00000000000E+00 -0.80591395395E+03  0.38969871390E+04  0.38127432985E+04 0.  0.
        2    1    3    3  502    0  0.92932845302E+03 -0.15828076828E+04 -0.92943165716E+03  0.20573708319E+04  0.25500000920E-02 0. -1.
       -2    1    3    3    0  502 -0.92932845302E+03  0.15828076828E+04  0.12351770321E+03  0.18396163071E+04  0.25500000920E-02 0.  1.
</event>
<event>
 5   0  0.3832389E-07  0.3880889E+04  0.7818609E-02  0.8029016E-01
        2   -1    0    0  501    0  0.00000000000E+00  0.00000000000E+00  0.27980585175E+04  0.27980585175E+04  0.25500000920E-02 0.  1.
       -2   -1    0    0    0  501  0.00000000000E+00  0.00000000000E+00 -0.13456920330E+04  0.13456920330E+04  0.25500000920E-02 0. -1.
    10030    2    1    2    0    0  0.00000000000E+00  0.00000000000E+00  0.14523664845E+04  0.41437505505E+04  0.38808891017E+04 0.  0.
        5    1    3    3  502    0  0.56794555344E+03 -0.42040093660E+03  0.26557984708E+04  0.27481969920E+04  0.46999998093E+01 0.  1.
       -5    1    3    3    0  502 -0.56794555344E+03  0.42040093660E+03 -0.12034319863E+04  0.13955535585E+04  0.46999998093E+01 0. -1.
</event>
<event>
 5   0  0.1187925E-07  0.3976302E+04  0.7818609E-02  0.8009344E-01
        1   -1    0    0  501    0  0.00000000000E+00  0.00000000000E+00  0.21211994709E+04  0.21211994709E+04  0.50400001928E-02 0.  1.
       -1   -1    0    0    0  501  0.00000000000E+00  0.00000000000E+00 -0.18634475152E+04  0.18634475152E+04  0.50400001928E-02 0. -1.
    10030    2    1    2    0    0  0.00000000000E+00  0.00000000000E+00  0.25775195569E+03  0.39846469860E+04  0.39763017407E+04 0.  0.
        4    1    3    3  502    0  0.51105038356E+03  0.12626163926E+04 -0.13223933112E+04  0.18984462942E+04  0.12699999809E+01 0. -1.
       -4    1    3    3    0  502 -0.51105038356E+03 -0.12626163926E+04  0.15801452669E+04  0.20862006919E+04  0.12699999809E+01 0.  1.
</event>
<event>
 5   0  0.1187925E-07  0.3807215E+04  0.7818609E-02  0.8044608E-01
        1   -1    0    0  501    0  0.00000000000E+00  0.00000000000E+00  0.18972039579E+04  0.18972039579E+04  0.50400001928E-02 0. -1.
       -1   -1    0    0    0  501  0.00000000000E+00  0.00000000000E+00 -0.19100325790E+04  0.19100325790E+04  0.50400001928E-02 0.  1.
    10030    2    1    2    0    0  0.00000000000E+00  0.00000000000E+00 -0.12828621068E+02  0.38072365370E+04  0.38072149236E+04 0.  0.
        1    1    3    3  502    0 -0.13126281389E+04 -0.93649596654E+03  0.10053740396E+04  0.19002090111E+04  0.50400001928E-02 0. -1.
       -1    1    3    3    0  502  0.13126281389E+04  0.93649596654E+03 -0.10182026607E+04  0.19070275259E+04  0.50400001928E-02 0.  1.
</event>
<event>
 5   0  0.1187925E-07  0.3888223E+04  0.7818609E-02  0.8027483E-01
       -1   -1    0    0    0  501  0.00000000000E+00  0.00000000000E+00  0.16508267356E+04  0.16508267356E+04  0.50400001928E-02 0.  1.
        1   -1    0    0  501    0  0.00000000000E+00  0.00000000000E+00 -0.22895014632E+04  0.22895014632E+04  0.50400001928E-02 0. -1.
    10030    2    1    2    0    0  0.00000000000E+00  0.00000000000E+00 -0.63867472756E+03  0.39403281988E+04  0.38882233612E+04 0.  0.
        1    1    3    3  502    0  0.58921715257E+03 -0.17760972373E+04  0.21486224719E+03  0.18835774564E+04  0.50400001928E-02 0. -1.
       -1    1    3    3    0  502 -0.58921715257E+03  0.17760972373E+04 -0.85353697474E+03  0.20567507424E+04  0.50400001928E-02 0.  1.
</event>
<event>
 5   0  0.1187925E-07  0.3774483E+04  0.7818609E-02  0.8051653E-01
       -1   -1    0    0    0  501  0.00000000000E+00  0.00000000000E+00  0.11332083145E+04  0.11332083145E+04  0.50400001928E-02 0. -1.
        1   -1    0    0  501    0  0.00000000000E+00  0.00000000000E+00 -0.31430063350E+04  0.31430063350E+04  0.50400001928E-02 0.  1.
    10030    2    1    2    0    0  0.00000000000E+00  0.00000000000E+00 -0.20097980205E+04  0.42762146495E+04  0.37744832290E+04 0.  0.
        2    1    3    3  502    0 -0.17344040682E+04  0.40212890604E+02 -0.18465551532E+04  0.25336812116E+04  0.25500000920E-02 0.  1.
       -2    1    3    3    0  502  0.17344040682E+04 -0.40212890604E+02 -0.16324286727E+03  0.17425334379E+04  0.25500000920E-02 0. -1.
</event>
<event>
 5   0  0.1187925E-07  0.3879304E+04  0.7818609E-02  0.8029347E-01
        1   -1    0    0  501    0  0.00000000000E+00  0.00000000000E+00  0.28240981695E+04  0.28240981695E+04  0.50400001928E-02 0.  1.
       -1   -1    0    0    0  501  0.00000000000E+00  0.00000000000E+00 -0.13321950762E+04  0.13321950762E+04  0.50400001928E-02 0. -1.
    10030    2    1    2    0    0  0.00000000000E+00  0.00000000000E+00  0.14919030933E+04  0.41562932458E+04  0.38793038944E+04 0.  0.
        3    1    3    3  502    0 -0.95643227437E+03 -0.78145298360E+03  0.23483396922E+04  0.26533244772E+04  0.10100000352E+00 0.  1.
       -3    1    3    3    0  502  0.95643227437E+03  0.78145298360E+03 -0.85643659895E+03  0.15029687686E+04  0.10100000352E+00 0. -1.
</event>
<event>
 5   0  0.3680814E-07  0.2822023E+04  0.7818609E-02  0.8296463E-01
       -2   -1    0    0    0  501  0.00000000000E+00  0.00000000000E+00  0.11407403048E+04  0.11407403048E+04  0.25500000920E-02 0. -1.
        2   -1    0    0  501    0  0.00000000000E+00  0.00000000000E+00 -0.17453174196E+04  0.17453174196E+04  0.25500000920E-02 0.  1.
    10030    2    1    2    0    0  0.00000000000E+00  0.00000000000E+00 -0.60457711477E+03  0.28860577245E+04  0.28220233346E+04 0.  0.
        1    1    3    3  502    0  0.82201148322E+03  0.42068556037E+03  0.78881998371E+03  0.12144612740E+04  0.50400001928E-02 0. -1.
       -1    1    3    3    0  502 -0.82201148322E+03 -0.42068556037E+03 -0.13933970985E+04  0.16715964505E+04  0.50400001928E-02 0.  1.
</event>
<event>
 5   0  0.1187925E-07  0.3796464E+04  0.7818609E-02  0.8046914E-01
        1   -1    0    0  501    0  0.00000000000E+00  0.00000000000E+00  0.11669899005E+04  0.11669899005E+04  0.50400001928E-02 0. -1.
       -1   -1    0    0    0  501  0.00000000000E+00  0.00000000000E+00 -0.30876741472E+04  0.30876741472E+04  0.50400001928E-02 0.  1.
    10030    2    1    2    0    0  0.00000000000E+00  0.00000000000E+00 -0.19206842467E+04  0.42546640478E+04  0.37964639052E+04 0.  0.
        3    1    3    3  502    0  0.74007643518E+03 -0.94216211508E+03 -0.26104252251E+04  0.28722295255E+04  0.10100000352E+00 0.  1.
       -3    1    3    3    0  502 -0.74007643518E+03  0.94216211508E+03  0.68974097835E+03  0.13824345223E+04  0.10100000352E+00 0. -1.
</event>
<event>
 5   0  0.3610483E-07  0.3877371E+04  0.7818609E-02  0.8029752E-01
       -2   -1    0    0    0  501  0.00000000000E+00  0.00000000000E+00  0.15510026021E+04  0.15510026021E+04  0.25500000920E-02 0.  1.
        2   -1    0    0  501    0  0.00000000000E+00  0.00000000000E+00 -0.24232725522E+04  0.24232725522E+04  0.25500000920E-02 0. -1.
    10030    2    1    2    0    0  0.00000000000E+00  0.00000000000E+00 -0.87226995007E+03  0.39742751544E+04  0.38773712921E+04 0.  0.
        4    1    3    3  502    0  0.11272691806E+03  0.15099530465E+04  0.80484011532E+03  0.17147696011E+04  0.12699999809E+01 0.  1.
       -4    1    3    3    0  502 -0.11272691806E+03 -0.15099530465E+04 -0.16771100654E+04  0.22595055532E+04  0.12699999809E+01 0. -1.
</event>
<event>
 5   0  0.3810833E-07  0.3490194E+04  0.7818609E-02  0.8116118E-01
       -2   -1    0    0    0  501  0.00000000000E+00  0.00000000000E+00  0.11352114643E+04  0.11352114643E+04  0.25500000920E-02 0. -1.
        2   -1    0    0  501    0  0.00000000000E+00  0.00000000000E+00 -0.26826401240E+04  0.26826401240E+04  0.25500000920E-02 0.  1.
    10030    2    1    2    0    0  0.00000000000E+00  0.00000000000E+00 -0.15474286597E+04  0.38178515882E+04  0.34901941626E+04 0.  0.
        3    1    3    3  502    0  0.65442763498E+03 -0.13898925276E+04 -0.16792503186E+04  0.22759521987E+04  0.10100000352E+00 0.  1.
       -3    1    3    3    0  502 -0.65442763498E+03  0.13898925276E+04  0.13182165891E+03  0.15418993896E+04  0.10100000352E+00 0. -1.
</event>
<event>
 5   0  0.3665303E-07  0.3624771E+04  0.7818609E-02  0.8084841E-01
        2   -1    0    0  501    0  0.00000000000E+00  0.00000000000E+00  0.23729257188E+04  0.23729257188E+04  0.25500000920E-02 0. -1.
       -2   -1    0    0    0  501  0.00000000000E+00  0.00000000000E+00 -0.13842581307E+04  0.13842581307E+04  0.25500000920E-02 0.  1.
    10030    2    1    2    0    0  0.00000000000E+00  0.00000000000E+00  0.98866758806E+03  0.37571838494E+04  0.36247712864E+04 0.  0.
        2    1    3    3  502    0 -0.91482878780E+03 -0.14303764352E+04  0.11514097675E+04  0.20514952864E+04  0.25500000920E-02 0. -1.
       -2    1    3    3    0  502  0.91482878780E+03  0.14303764352E+04 -0.16274217942E+03  0.17056885631E+04  0.25500000920E-02 0.  1.
</event>
<event>
 5   0  0.1187925E-07  0.2859129E+04  0.7818609E-02  0.8285143E-01
        1   -1    0    0  501    0  0.00000000000E+00  0.00000000000E+00  0.13799773749E+04  0.13799773749E+04  0.50400001928E-02 0.  1.
       -1   -1    0    0    0  501  0.00000000000E+00  0.00000000000E+00 -0.14809329730E+04  0.14809329730E+04  0.50400001928E-02 0. -1.
    10030    2    1    2    0    0  0.00000000000E+00  0.00000000000E+00 -0.10095559811E+03  0.28609103480E+04  0.28591285362E+04 0.  0.
        5    1    3    3  502    0  0.10078718281E+04  0.97931376645E+03  0.21192756375E+03  0.14211954325E+04  0.46999998093E+01 0. -1.
       -5    1    3    3    0  502 -0.10078718281E+04 -0.97931376645E+03 -0.31288316187E+03  0.14397149155E+04  0.46999998093E+01 0.  1.
</event>
<event>
 5   0  0.1187925E-07  0.3891513E+04  0.7818609E-02  0.8026797E-01
       -1   -1    0    0    0  501  0.00000000000E+00  0.00000000000E+00  0.24366812859E+04  0.24366812859E+04  0.50400001928E-02 0. -1.
        1   -1    0    0  501    0  0.00000000000E+00  0.00000000000E+00 -0.15537397823E+04  0.15537397823E+04  0.50400001928E-02 0.  1.
    10030    2    1    2    0    0  0.00000000000E+00  0.00000000000E+00  0.88294150354E+03  0.39904210682E+04  0.38915131508E+04 0.  0.
        1    1    3    3  502    0  0.36072249413E+02  0.19172134356E+04  0.10299002827E+03  0.19203165132E+04  0.50400001928E-02 0. -1.
       -1    1    3    3    0  502 -0.36072249413E+02 -0.19172134356E+04  0.77995147527E+03  0.20701045550E+04  0.50400001928E-02 0.  1.
</event>
<event>
 5   0  0.3610483E-07  0.3873028E+04  0.7818609E-02  0.8030662E-01
       -2   -1    0    0    0  501  0.00000000000E+00  0.00000000000E+00  0.29805077038E+04  0.29805077038E+04  0.25500000920E-02 0. -1.
        2   -1    0    0  501    0  0.00000000000E+00  0.00000000000E+00 -0.12582040292E+04  0.12582040292E+04  0.25500000920E-02 0.  1.
    10030    2    1    2    0    0  0.00000000000E+00  0.00000000000E+00  0.17223036746E+04  0.42387117330E+04  0.38730281702E+04 0.  0.
        4    1    3    3  502    0  0.16252360056E+04 -0.10932928573E+03  0.20072850872E+04  0.25850609279E+04  0.12699999809E+01 0. -1.
       -4    1    3    3    0  502 -0.16252360056E+04  0.10932928573E+03 -0.28498141260E+03  0.16536508051E+04  0.12699999809E+01 0.  1.
</event>
<event>
 5   0  0.3610483E-07  0.3890304E+04  0.7818609E-02  0.8027049E-01
       -2   -1    0    0    0  501  0.00000000000E+00  0.00000000000E+00  0.20456434790E+04  0.20456434790E+04  0.25500000920E-02 0.  1.
        2   -1    0    0  501    0  0.00000000000E+00  0.00000000000E+00 -0.18495971596E+04  0.18495971596E+04  0.25500000920E-02 0. -1.
    10030    2    1    2    0    0  0.00000000000E+00  0.00000000000E+00  0.19604631933E+03  0.38952406386E+04  0.38903040335E+04 0.  0.
        4    1    3    3  502    0 -0.11786257930E+03 -0.74912084938E+02 -0.18445705585E+04  0.18498501470E+04  0.12699999809E+01 0. -1.
       -4    1    3    3    0  502  0.11786257930E+03  0.74912084938E+02  0.20406168779E+04  0.20453904916E+04  0.12699999809E+01 0.  1.
</event>
<event>
 5   0  0.3832389E-07  0.3889572E+04  0.7818609E-02  0.8027201E-01
       -2   -1    0    0    0  501  0.00000000000E+00  0.00000000000E+00  0.17952508569E+04  0.17952508569E+04  0.25500000920E-02 0. -1.
        2   -1    0    0  501    0  0.00000000000E+00  0.00000000000E+00 -0.21067768427E+04  0.21067768427E+04  0.25500000920E-02 0.  1.
    10030    2    1    2    0    0  0.00000000000E+00  0.00000000000E+00 -0.31152598586E+03  0.39020276996E+04  0.38895721781E+04 0.  0.
        5    1    3    3  502    0 -0.13614492286E+04 -0.13865172355E+04 -0.76791181314E+02  0.19447089813E+04  0.46999998093E+01 0. -1.
       -5    1    3    3    0  502  0.13614492286E+04  0.13865172355E+04 -0.23473480455E+03  0.19573187183E+04  0.46999998093E+01 0.  1.
</event>
<event>
 5   0  0.3810833E-07  0.3702062E+04  0.7818609E-02  0.8067505E-01
       -2   -1    0    0    0  501  0.00000000000E+00  0.00000000000E+00  0.34700722520E+04  0.34700722520E+04  0.25500000920E-02 0. -1.
        2   -1    0    0  501    0  0.00000000000E+00  0.00000000000E+00 -0.98739023057E+03  0.98739023057E+03  0.25500000920E-02 0.  1.
    10030    2    1    2    0    0  0.00000000000E+00  0.00000000000E+00  0.24826820214E+04  0.44574624826E+04  0.37020618261E+04 0.  0.
        3    1    3    3  502    0 -0.14658678261E+04 -0.98515833421E+03  0.57419592304E+03  0.18571500735E+04  0.10100000352E+00 0.  1.
       -3    1    3    3    0  502  0.14658678261E+04  0.98515833421E+03  0.19084860984E+04  0.26003124091E+04  0.10100000352E+00 0. -1.
</event>
<event>
 5   0  0.3610483E-07  0.3871180E+04  0.7818609E-02  0.8031050E-01
        2   -1    0    0  501    0  0.00000000000E+00  0.00000000000E+00  0.20788065881E+04  0.20788065881E+04  0.25500000920E-02 0. -1.
       -2   -1    0    0    0  501  0.00000000000E+00  0.00000000000E+00 -0.18022403841E+04  0.18022403842E+04  0.25500000920E-02 0.  1.
    10030    2    1    2    0    0  0.00000000000E+00  0.00000000000E+00  0.27656620395E+03  0.38810469722E+04  0.38711802768E+04 0.  0.
        4    1    3    3  502    0 -0.68655388558E+03  0.16967888199E+04 -0.49265312524E+03  0.18955625159E+04  0.12699999809E+01 0.  1.
       -4    1    3    3    0  502  0.68655388558E+03 -0.16967888199E+04  0.76921932918E+03  0.19854844563E+04  0.12699999809E+01 0. -1.
</event>
<event>
 5   0  0.1187925E-07  0.3830144E+04  0.7818609E-02  0.8039717E-01
       -1   -1    0    0    0  501  0.00000000000E+00  0.00000000000E+00  0.20604256137E+04  0.20604256137E+04  0.50400001928E-02 0. -1.
        1   -1    0    0  501    0  0.00000000000E+00  0.00000000000E+00 -0.17799721163E+04  0.17799721163E+04  0.50400001928E-02 0.  1.
    10030    2    1    2    0    0  0.00000000000E+00  0.00000000000E+00  0.28045349742E+03  0.38403977300E+04  0.38301436736E+04 0.  0.
        5    1    3    3  502    0  0.12451568178E+04  0.11853778861E+04  0.98625212602E+03  0.19819817304E+04  0.46999998093E+01 0. -1.
       -5    1    3    3    0  502 -0.12451568178E+04 -0.11853778861E+04 -0.70579862860E+03  0.18584159996E+04  0.46999998093E+01 0.  1.
</event>
<event>
 5   0  0.1187925E-07  0.3933295E+04  0.7818609E-02  0.8018140E-01
       -1   -1    0    0    0  501  0.00000000000E+00  0.00000000000E+00  0.12229829214E+04  0.12229829214E+04  0.50400001928E-02 0.  1.
        1   -1    0    0  501    0  0.00000000000E+00  0.00000000000E+00 -0.31625151642E+04  0.31625151642E+04  0.50400001928E-02 0. -1.
    10030    2    1    2    0    0  0.00000000000E+00  0.00000000000E+00 -0.19395322428E+04  0.43854980857E+04  0.39332948197E+04 0.  0.
        2    1    3    3  502    0 -0.15912113453E+04  0.11492753002E+04 -0.11059327735E+04  0.22529701641E+04  0.25500000920E-02 0. -1.
       -2    1    3    3    0  502  0.15912113453E+04 -0.11492753002E+04 -0.83359946930E+03  0.21325279215E+04  0.25500000920E-02 0.  1.
</event>
<event>
 5   0  0.3610483E-07  0.3705995E+04  0.7818609E-02  0.8066635E-01
       -2   -1    0    0    0  501  0.00000000000E+00  0.00000000000E+00  0.17367858259E+04  0.17367858259E+04  0.25500000920E-02 0. -1.
        2   -1    0    0  501    0  0.00000000000E+00  0.00000000000E+00 -0.19769849385E+04  0.19769849385E+04  0.25500000920E-02 0.  1.
    10030    2    1    2    0    0  0.00000000000E+00  0.00000000000E+00 -0.24019911260E+03  0.37137707644E+04  0.37059948295E+04 0.  0.
        4    1    3    3  502    0 -0.12283319957E+04  0.56636354875E+03 -0.13892602535E+04  0.19389721055E+04  0.12699999809E+01 0.  1.
       -4    1    3    3    0  502  0.12283319957E+04 -0.56636354875E+03  0.11490611409E+04  0.17747986589E+04  0.12699999809E+01 0. -1.
</event>
<event>
 5   0  0.3810833E-07  0.2890104E+04  0.7818609E-02  0.8275828E-01
       -2   -1    0    0    0  501  0.00000000000E+00  0.00000000000E+00  0.13186032130E+04  0.13186032130E+04  0.25500000920E-02 0.  1.
        2   -1    0    0  501    0  0.00000000000E+00  0.00000000000E+00 -0.15836271543E+04  0.15836271543E+04  0.25500000920E-02 0. -1.
    10030    2    1    2    0    0  0.00000000000E+00  0.00000000000E+00 -0.26502394124E+03  0.29022303673E+04  0.28901043953E+04 0.  0.
        3    1    3    3  502    0 -0.55854256482E+03  0.62041054962E+02  0.12043727151E+04  0.13290344376E+04  0.10100000352E+00 0.  1.
       -3    1    3    3    0  502  0.55854256482E+03 -0.62041054962E+02 -0.14693966564E+04  0.15731959297E+04  0.10100000352E+00 0. -1.
</event>
<event>
 5   0  0.3665303E-07  0.3877093E+04  0.7818609E-02  0.8029810E-01
        2   -1    0    0  501    0  0.00000000000E+00  0.00000000000E+00  0.20010875776E+04  0.20010875776E+04  0.25500000920E-02 0.  1.
       -2   -1    0    0    0  501  0.00000000000E+00  0.00000000000E+00 -0.18779600768E+04  0.18779600768E+04  0.25500000920E-02 0. -1.
    10030    2    1    2    0    0  0.00000000000E+00  0.00000000000E+00  0.12312750083E+03  0.38790476543E+04  0.38770930248E+04 0.  0.
        2    1    3    3  502    0 -0.18053386236E+04 -0.69047980859E+03  0.20980277810E+03  0.19442291834E+04  0.25500000920E-02 0. -1.
       -2    1    3    3    0  502  0.18053386236E+04  0.69047980859E+03 -0.86675277273E+02  0.19348184709E+04  0.25500000920E-02 0.  1.
</event>
<event>
 5   0  0.3610483E-07  0.3930781E+04  0.7818609E-02  0.8018658E-01
        2   -1    0    0  501    0  0.00000000000E+00  0.00000000000E+00  0.14173044571E+04  0.14173044571E+04  0.25500000920E-02 0.  1.
       -2   -1    0    0    0  501  0.00000000000E+00  0.00000000000E+00 -0.27254270110E+04  0.27254270110E+04  0.25500000920E-02 0. -1.
    10030    2    1    2    0    0  0.00000000000E+00  0.00000000000E+00 -0.13081225539E+04  0.41427314681E+04  0.39307810166E+04 0.  0.
        4    1    3    3  502    0  0.18233670285E+04  0.26934441739E+03  0.65037473321E+02  0.18443007406E+04  0.12699999809E+01 0. -1.
       -4    1    3    3    0  502 -0.18233670285E+04 -0.26934441739E+03 -0.13731600272E+04  0.22984307275E+04  0.12699999809E+01 0.  1.
</event>
<event>
 5   0  0.1187925E-07  0.3933457E+04  0.7818609E-02  0.8018107E-01
       -1   -1    0    0    0  501  0.00000000000E+00  0.00000000000E+00  0.18523099875E+04  0.18523099875E+04  0.50400001928E-02 0.  1.
        1   -1    0    0  501    0  0.00000000000E+00  0.00000000000E+00 -0.20882146790E+04  0.20882146790E+04  0.50400001928E-02 0. -1.
    10030    2    1    2    0    0  0.00000000000E+00  0.00000000000E+00 -0.23590469153E+03  0.39405246665E+04  0.39334569559E+04 0.  0.
        1    1    3    3  502    0  0.71570931413E+03  0.83390955743E+03  0.15160442734E+04  0.18724409767E+04  0.50400001928E-02 0.  1.
       -1    1    3    3    0  502 -0.71570931413E+03 -0.83390955743E+03 -0.17519489649E+04  0.20680836898E+04  0.50400001928E-02 0. -1.
</event>
<event>
 5   0  0.3665303E-07  0.3754636E+04  0.7818609E-02  0.8055961E-01
        2   -1    0    0  501    0  0.00000000000E+00  0.00000000000E+00  0.23108058988E+04  0.23108058988E+04  0.25500000920E-02 0. -1.
       -2   -1    0    0    0  501  0.00000000000E+00  0.00000000000E+00 -0.15251488242E+04  0.15251488242E+04  0.25500000920E-02 0.  1.
    10030    2    1    2    0    0  0.00000000000E+00  0.00000000000E+00  0.78565707460E+03  0.38359547231E+04  0.37546360141E+04 0.  0.
        2    1    3    3  502    0  0.13701323663E+04  0.12336902880E+04  0.31518894432E+02  0.18439761030E+04  0.25500000920E-02 0. -1.
       -2    1    3    3    0  502 -0.13701323663E+04 -0.12336902880E+04  0.75413818017E+03  0.19919786200E+04  0.25500000920E-02 0.  1.
</event>
<event>
 5   0  0.1187925E-07  0.3135660E+04  0.7818609E-02  0.8206019E-01
       -1   -1    0    0    0  501  0.00000000000E+00  0.00000000000E+00  0.28978964904E+04  0.28978964904E+04  0.50400001928E-02 0. -1.
        1   -1    0    0  501    0  0.00000000000E+00  0.00000000000E+00 -0.84823268611E+03  0.84823268613E+03  0.50400001928E-02 0.  1.
    10030    2    1    2    0    0  0.00000000000E+00  0.00000000000E+00  0.20496638043E+04  0.37461291765E+04  0.31356597546E+04 0.  0.
        5    1    3    3  502    0  0.89124838768E+02 -0.15381169656E+04  0.13717466117E+04  0.20628761217E+04  0.46999998093E+01 0. -1.
       -5    1    3    3    0  502 -0.89124838768E+02  0.15381169656E+04  0.67791719254E+03  0.16832530548E+04  0.46999998093E+01 0.  1.
</event>
<event>
 5   0  0.1187925E-07  0.3875235E+04  0.7818609E-02  0.8030200E-01
        1   -1    0    0  501    0  0.00000000000E+00  0.00000000000E+00  0.12241235959E+04  0.12241235959E+04  0.50400001928E-02 0. -1.
       -1   -1    0    0    0  501  0.00000000000E+00  0.00000000000E+00 -0.30669795968E+04  0.30669795968E+04  0.50400001928E-02 0.  1.
    10030    2    1    2    0    0  0.00000000000E+00  0.00000000000E+00 -0.18428560009E+04  0.42911031928E+04  0.38752352665E+04 0.  0.
        3    1    3    3  502    0 -0.47532774998E+03 -0.13917125630E+04 -0.23183836940E+04  0.27454878056E+04  0.10100000352E+00 0.  1.
       -3    1    3    3    0  502  0.47532774998E+03  0.13917125630E+04  0.47552769308E+03  0.15456153872E+04  0.10100000352E+00 0. -1.
</event>
<event>
 5   0  0.3832389E-07  0.3891707E+04  0.7818609E-02  0.8026756E-01
       -2   -1    0    0    0  501  0.00000000000E+00  0.00000000000E+00  0.13677698736E+04  0.13677698736E+04  0.25500000920E-02 0.  1.
        2   -1    0    0  501    0  0.00000000000E+00  0.00000000000E+00 -0.27682622559E+04  0.27682622559E+04  0.25500000920E-02 0. -1.
    10030    2    1    2    0    0  0.00000000000E+00  0.00000000000E+00 -0.14004923823E+04  0.41360321295E+04  0.38917069344E+04 0.  0.
        5    1    3    3  502    0 -0.74600852188E+03 -0.17971560000E+04 -0.69490865057E+03  0.20662087323E+04  0.46999998093E+01 0. -1.
       -5    1    3    3    0  502  0.74600852188E+03  0.17971560000E+04 -0.70558373169E+03  0.20698233971E+04  0.46999998093E+01 0.  1.
</event>
<event>
 5   0  0.1187925E-07  0.3073270E+04  0.7818609E-02  0.8223112E-01
       -1   -1    0    0    0  501  0.00000000000E+00  0.00000000000E+00  0.85912842793E+03  0.85912842794E+03  0.50400001928E-02 0. -1.
        1   -1    0    0  501    0  0.00000000000E+00  0.00000000000E+00 -0.27484212969E+04  0.27484212969E+04  0.50400001928E-02 0.  1.
    10030    2    1    2    0    0  0.00000000000E+00  0.00000000000E+00 -0.18892928690E+04  0.36075497249E+04  0.30732698340E+04 0.  0.
        5    1    3    3  502    0  0.87760472198E+03 -0.61628604392E+03 -0.22365326628E+04  0.24803425122E+04  0.46999998093E+01 0.  1.
       -5    1    3    3    0  502 -0.87760472198E+03  0.61628604392E+03  0.34723979379E+03  0.11272072127E+04  0.46999998093E+01 0. -1.
</event>
<event>
 5   0  0.3810833E-07  0.3848810E+04  0.7818609E-02  0.8035761E-01
       -2   -1    0    0    0  501  0.00000000000E+00  0.00000000000E+00  0.22792179545E+04  0.22792179545E+04  0.25500000920E-02 0. -1.
        2   -1    0    0  501    0  0.00000000000E+00  0.00000000000E+00 -0.16248266658E+04  0.16248266658E+04  0.25500000920E-02 0.  1.
    10030    2    1    2    0    0  0.00000000000E+00  0.00000000000E+00  0.65439128868E+03  0.39040446203E+04  0.38488097431E+04 0.  0.
        3    1    3    3  502    0  0.72796942179E+02  0.15962281801E+04 -0.76061749443E+03  0.17696843732E+04  0.10100000352E+00 0.  1.
       -3    1    3    3    0  502 -0.72796942179E+02 -0.15962281801E+04  0.14150087831E+04  0.21343602471E+04  0.10100000352E+00 0. -1.
</event>
<event>
 5   0  0.1187925E-07  0.3376813E+04  0.7818609E-02  0.8143621E-01
       -1   -1    0    0    0  501  0.00000000000E+00  0.00000000000E+00  0.26292208985E+04  0.26292208985E+04  0.50400001928E-02 0. -1.
        1   -1    0    0  501    0  0.00000000000E+00  0.00000000000E+00 -0.10842436004E+04  0.10842436004E+04  0.50400001928E-02 0.  1.
    10030    2    1    2    0    0  0.00000000000E+00  0.00000000000E+00  0.15449772981E+04  0.37134644990E+04  0.33768126589E+04 0.  0.
        1    1    3    3  502    0  0.71935848733E+03 -0.12621135653E+04 -0.17370215003E+03  0.14630720153E+04  0.50400001928E-02 0.  1.
       -1    1    3    3    0  502 -0.71935848733E+03  0.12621135653E+04  0.17186794482E+04  0.22503924837E+04  0.50400001928E-02 0. -1.
</event>
<event>
 5   0  0.1187925E-07  0.3834417E+04  0.7818609E-02  0.8038809E-01
       -1   -1    0    0    0  501  0.00000000000E+00  0.00000000000E+00  0.14577735731E+04  0.14577735732E+04  0.50400001928E-02 0. -1.
        1   -1    0    0  501    0  0.00000000000E+00  0.00000000000E+00 -0.25214392548E+04  0.25214392548E+04  0.50400001928E-02 0.  1.
    10030    2    1    2    0    0  0.00000000000E+00  0.00000000000E+00 -0.10636656817E+04  0.39792128280E+04  0.38344165199E+04 0.  0.
        5    1    3    3  502    0 -0.33656446957E+03 -0.37483123923E+02 -0.24901495999E+04  0.25130753563E+04  0.46999998093E+01 0.  1.
       -5    1    3    3    0  502  0.33656446957E+03  0.37483123923E+02  0.14264839182E+04  0.14661374716E+04  0.46999998093E+01 0. -1.
</event>
<event>
 5   0  0.3810833E-07  0.2910356E+04  0.7818609E-02  0.8269803E-01
        2   -1    0    0  501    0  0.00000000000E+00  0.00000000000E+00  0.92959538463E+03  0.92959538464E+03  0.25500000920E-02 0.  1.
       -2   -1    0    0    0  501  0.00000000000E+00  0.00000000000E+00 -0.22779182638E+04  0.22779182638E+04  0.25500000920E-02 0. -1.
    10030    2    1    2    0    0  0.00000000000E+00  0.00000000000E+00 -0.13483228792E+04  0.32075136485E+04  0.29103555141E+04 0.  0.
        3    1    3    3  502    0 -0.48429509010E+03  0.30058555260E+03 -0.21497663351E+04  0.22240478220E+04  0.10100000352E+00 0. -1.
       -3    1    3    3    0  502  0.48429509010E+03 -0.30058555260E+03  0.80144345588E+03  0.98346582651E+03  0.10100000352E+00 0.  1.
</event>
<event>
 5   0  0.3832389E-07  0.3854661E+04  0.7818609E-02  0.8034526E-01
        2   -1    0    0  501    0  0.00000000000E+00  0.00000000000E+00  0.17496220973E+04  0.17496220973E+04  0.25500000920E-02 0.  1.
       -2   -1    0    0    0  501  0.00000000000E+00  0.00000000000E+00 -0.21230881538E+04  0.21230881538E+04  0.25500000920E-02 0. -1.
    10030    2    1    2    0    0  0.00000000000E+00  0.00000000000E+00 -0.37346605657E+03  0.38727102511E+04  0.38546605290E+04 0.  0.
        5    1    3    3  502    0  0.11665968940E+04  0.41356176745E+03 -0.16710127894E+04  0.20794921209E+04  0.46999998093E+01 0. -1.
       -5    1    3    3    0  502 -0.11665968940E+04 -0.41356176745E+03  0.12975467328E+04  0.17932181302E+04  0.46999998093E+01 0.  1.
</event>
<event>
 5   0  0.3832389E-07  0.3870019E+04  0.7818609E-02  0.8031294E-01
       -2   -1    0    0    0  501  0.00000000000E+00  0.00000000000E+00  0.20349771739E+04  0.20349771739E+04  0.25500000920E-02 0.  1.
        2   -1    0    0  501    0  0.00000000000E+00  0.00000000000E+00 -0.18399522768E+04  0.18399522768E+04  0.25500000920E-02 0. -1.
    10030    2    1    2    0    0  0.00000000000E+00  0.00000000000E+00  0.19502489714E+03  0.38749294507E+04  0.38700185448E+04 0.  0.
        5    1    3    3  502    0 -0.21522807316E+03 -0.65172727406E+03 -0.17139730055E+04  0.18462928037E+04  0.46999998093E+01 0.  1.
       -5    1    3    3    0  502  0.21522807316E+03  0.65172727406E+03  0.19089979027E+04  0.20286366470E+04  0.46999998093E+01 0. -1.
</event>
<event>
 5   0  0.1187925E-07  0.3759251E+04  0.7818609E-02  0.8054956E-01
       -1   -1    0    0    0  501  0.00000000000E+00  0.00000000000E+00  0.13426858208E+04  0.13426858208E+04  0.50400001928E-02 0.  1.
        1   -1    0    0  501    0  0.00000000000E+00  0.00000000000E+00 -0.26312874906E+04  0.26312874906E+04  0.50400001928E-02 0. -1.
    10030    2    1    2    0    0  0.00000000000E+00  0.00000000000E+00 -0.12886016698E+04  0.39739733114E+04  0.37592512042E+04 0.  0.
        4    1    3    3  502    0 -0.13556401611E+04 -0.12002980154E+04 -0.11098991418E+03  0.18140551111E+04  0.12699999809E+01 0.  1.
       -4    1    3    3    0  502  0.13556401611E+04  0.12002980154E+04 -0.11776117556E+04  0.21599182003E+04  0.12699999809E+01 0. -1.
</event>
<event>
 5   0  0.1187925E-07  0.3370531E+04  0.7818609E-02  0.8145177E-01
        3   -1    0    0  501    0  0.00000000000E+00  0.00000000000E+00  0.13472699126E+04  0.13472699164E+04  0.10100000352E+00 0.  1.
       -3   -1    0    0    0  501  0.00000000000E+00  0.00000000000E+00 -0.21080558113E+04  0.21080558137E+04  0.10100000352E+00 0. -1.
    10030    2    1    2    0    0  0.00000000000E+00  0.00000000000E+00 -0.76078589871E+03  0.34553257301E+04  0.33705312218E+04 0.  0.
        3    1    3    3  502    0 -0.13031293377E+04 -0.10191226130E+04 -0.50803266583E+02  0.16550945451E+04  0.10100000352E+00 0.  1.
       -3    1    3    3    0  502  0.13031293377E+04  0.10191226130E+04 -0.70998263213E+03  0.18002311850E+04  0.10100000352E+00 0. -1.
</event>
<event>
 5   0  0.1187925E-07  0.3542550E+04  0.7818609E-02  0.8103779E-01
       -1   -1    0    0    0  501  0.00000000000E+00  0.00000000000E+00  0.20516669478E+04  0.20516669478E+04  0.50400001928E-02 0. -1.
        1   -1    0    0  501    0  0.00000000000E+00  0.00000000000E+00 -0.15292031035E+04  0.15292031035E+04  0.50400001928E-02 0.  1.
    10030    2    1    2    0    0  0.00000000000E+00  0.00000000000E+00  0.52246384434E+03  0.35808700513E+04  0.35425501910E+04 0.  0.
        4    1    3    3  502    0 -0.14450882903E+04 -0.46724035407E+03  0.11825849250E+04  0.19248642635E+04  0.12699999809E+01 0. -1.
       -4    1    3    3    0  502  0.14450882903E+04  0.46724035407E+03 -0.66012108062E+03  0.16560057878E+04  0.12699999809E+01 0.  1.
</event>
<event>
 5   0  0.1187925E-07  0.3870737E+04  0.7818609E-02  0.8031143E-01
       -1   -1    0    0    0  501  0.00000000000E+00  0.00000000000E+00  0.27107751114E+04  0.27107751114E+04  0.50400001928E-02 0. -1.
        1   -1    0    0  501    0  0.00000000000E+00  0.00000000000E+00 -0.13817642717E+04  0.13817642717E+04  0.50400001928E-02 0.  1.
    10030    2    1    2    0    0  0.00000000000E+00  0.00000000000E+00  0.13290108397E+04  0.40925393831E+04  0.38707374996E+04 0.  0.
        3    1    3    3  502    0  0.15106619281E+04  0.22998002273E+02 -0.61436000421E+03  0.16309710586E+04  0.10100000352E+00 0.  1.
       -3    1    3    3    0  502 -0.15106619281E+04 -0.22998002273E+02  0.19433708439E+04  0.24615683245E+04  0.10100000352E+00 0. -1.
</event>
<event>
 5   0  0.1187925E-07  0.3048285E+04  0.7818609E-02  0.8230076E-01
       -1   -1    0    0    0  501  0.00000000000E+00  0.00000000000E+00  0.17568380646E+04  0.17568380646E+04  0.50400001928E-02 0.  1.
        1   -1    0    0  501    0  0.00000000000E+00  0.00000000000E+00 -0.13222677096E+04  0.13222677097E+04  0.50400001928E-02 0. -1.
    10030    2    1    2    0    0  0.00000000000E+00  0.00000000000E+00  0.43457035491E+03  0.30791057742E+04  0.30482849236E+04 0.  0.
        1    1    3    3  502    0 -0.44955018670E+03  0.97710533264E+02 -0.12504610363E+04  0.13324021623E+04  0.50400001928E-02 0. -1.
       -1    1    3    3    0  502  0.44955018670E+03 -0.97710533264E+02  0.16850313912E+04  0.17467036120E+04  0.50400001928E-02 0.  1.
</event>
<event>
 5   0  0.3810833E-07  0.3316973E+04  0.7818609E-02  0.8158590E-01
        2   -1    0    0  501    0  0.00000000000E+00  0.00000000000E+00  0.11478186197E+04  0.11478186197E+04  0.25500000920E-02 0.  1.
       -2   -1    0    0    0  501  0.00000000000E+00  0.00000000000E+00 -0.23963518945E+04  0.23963518945E+04  0.25500000920E-02 0. -1.
    10030    2    1    2    0    0  0.00000000000E+00  0.00000000000E+00 -0.12485332748E+04  0.35441705142E+04  0.33169729114E+04 0.  0.
        3    1    3    3  502    0  0.98362792293E+03 -0.10192669652E+04  0.29746060462E+03  0.14473810344E+04  0.10100000352E+00 0.  1.
       -3    1    3    3    0  502 -0.98362792293E+03  0.10192669652E+04 -0.15459938795E+04  0.20967894798E+04  0.10100000352E+00 0. -1.
</event>
<event>
 5   0  0.3832389E-07  0.4070873E+04  0.7818609E-02  0.7990400E-01
       -2   -1    0    0    0  501  0.00000000000E+00  0.00000000000E+00  0.19402064311E+04  0.19402064311E+04  0.25500000920E-02 0. -1.
        2   -1    0    0  501    0  0.00000000000E+00  0.00000000000E+00 -0.21353404222E+04  0.21353404222E+04  0.25500000920E-02 0.  1.
    10030    2    1    2    0    0  0.00000000000E+00  0.00000000000E+00 -0.19513399111E+03  0.40755468533E+04  0.40708727417E+04 0.  0.
        5    1    3    3  502    0 -0.61346830058E+03  0.14055047385E+03  0.18403417994E+04  0.19449878714E+04  0.46999998093E+01 0. -1.
       -5    1    3    3    0  502  0.61346830058E+03 -0.14055047385E+03 -0.20354757905E+04  0.21305589819E+04  0.46999998093E+01 0.  1.
</event>
<event>
 5   0  0.3832389E-07  0.3902589E+04  0.7818609E-02  0.8024491E-01
        2   -1    0    0  501    0  0.00000000000E+00  0.00000000000E+00  0.24978659571E+04  0.24978659571E+04  0.25500000920E-02 0. -1.
       -2   -1    0    0    0  501  0.00000000000E+00  0.00000000000E+00 -0.15243214647E+04  0.15243214647E+04  0.25500000920E-02 0.  1.
    10030    2    1    2    0    0  0.00000000000E+00  0.00000000000E+00  0.97354449241E+03  0.40221874218E+04  0.39025892401E+04 0.  0.
        5    1    3    3  502    0 -0.10161663883E+04  0.31294666200E+03  0.21730672529E+04  0.24192505281E+04  0.46999998093E+01 0. -1.
       -5    1    3    3    0  502  0.10161663883E+04 -0.31294666200E+03 -0.11995227605E+04  0.16029368937E+04  0.46999998093E+01 0.  1.
</event>
<event>
 5   0  0.1187925E-07  0.3917346E+04  0.7818609E-02  0.8021431E-01
        1   -1    0    0  501    0  0.00000000000E+00  0.00000000000E+00  0.14026220603E+04  0.14026220603E+04  0.50400001928E-02 0. -1.
       -1   -1    0    0    0  501  0.00000000000E+00  0.00000000000E+00 -0.27351627094E+04  0.27351627094E+04  0.50400001928E-02 0.  1.
    10030    2    1    2    0    0  0.00000000000E+00  0.00000000000E+00 -0.13325406492E+04  0.41377847697E+04  0.39173458130E+04 0.  0.
        1    1    3    3  502    0  0.10487037617E+04  0.15050610628E+03 -0.24063868739E+04  0.26292830686E+04  0.50400001928E-02 0.  1.
       -1    1    3    3    0  502 -0.10487037617E+04 -0.15050610628E+03  0.10738462247E+04  0.15085017011E+04  0.50400001928E-02 0. -1.
</event>
<event>
 5   0  0.3680814E-07  0.3884044E+04  0.7818609E-02  0.8028356E-01
       -2   -1    0    0    0  501  0.00000000000E+00  0.00000000000E+00  0.26473459381E+04  0.26473459381E+04  0.25500000920E-02 0.  1.
        2   -1    0    0  501    0  0.00000000000E+00  0.00000000000E+00 -0.14246152591E+04  0.14246152591E+04  0.25500000920E-02 0. -1.
    10030    2    1    2    0    0  0.00000000000E+00  0.00000000000E+00  0.12227306790E+04  0.40719611972E+04  0.38840439850E+04 0.  0.
        1    1    3    3  502    0  0.68901637662E+03 -0.10956499844E+04  0.21292604100E+04  0.24917749395E+04  0.50400001928E-02 0.  1.
       -1    1    3    3    0  502 -0.68901637662E+03  0.10956499844E+04 -0.90652973100E+03  0.15801862576E+04  0.50400001928E-02 0. -1.
</event>
<event>
 5   0  0.3680814E-07  0.3857113E+04  0.7818609E-02  0.8034008E-01
       -2   -1    0    0    0  501  0.00000000000E+00  0.00000000000E+00  0.32507828640E+04  0.32507828640E+04  0.25500000920E-02 0. -1.
        2   -1    0    0  501    0  0.00000000000E+00  0.00000000000E+00 -0.11441339483E+04  0.11441339483E+04  0.25500000920E-02 0.  1.
    10030    2    1    2    0    0  0.00000000000E+00  0.00000000000E+00  0.21066489157E+04  0.43949168123E+04  0.38571134457E+04 0.  0.
        1    1    3    3  502    0  0.16782753612E+04  0.75807440681E+03  0.17059373452E+04  0.25102803071E+04  0.50400001928E-02 0. -1.
       -1    1    3    3    0  502 -0.16782753612E+04 -0.75807440681E+03  0.40071157044E+03  0.18846365052E+04  0.50400001928E-02 0.  1.
</event>
<event>
 5   0  0.1187925E-07  0.3530518E+04  0.7818609E-02  0.8106595E-01
       -1   -1    0    0    0  501  0.00000000000E+00  0.00000000000E+00  0.26240816423E+04  0.26240816423E+04  0.50400001928E-02 0.  1.
        1   -1    0    0  501    0  0.00000000000E+00  0.00000000000E+00 -0.11875161065E+04  0.11875161065E+04  0.50400001928E-02 0. -1.
    10030    2    1    2    0    0  0.00000000000E+00  0.00000000000E+00  0.14365655358E+04  0.38115977488E+04  0.35305179308E+04 0.  0.
        3    1    3    3  502    0  0.16309521917E+04  0.27483927903E+03  0.13843247727E+04  0.21568256229E+04  0.10100000352E+00 0.  1.
       -3    1    3    3    0  502 -0.16309521917E+04 -0.27483927903E+03  0.52240763081E+02  0.16547721259E+04  0.10100000352E+00 0. -1.
</event>
<event>
 5   0  0.3610483E-07  0.3864291E+04  0.7818609E-02  0.8032497E-01
        2   -1    0    0  501    0  0.00000000000E+00  0.00000000000E+00  0.21422964764E+04  0.21422964764E+04  0.25500000920E-02 0.  1.
       -2   -1    0    0    0  501  0.00000000000E+00  0.00000000000E+00 -0.17426096989E+04  0.17426096989E+04  0.25500000920E-02 0. -1.
    10030    2    1    2    0    0  0.00000000000E+00  0.00000000000E+00  0.39968677749E+03  0.38849061752E+04  0.38642911990E+04 0.  0.
        4    1    3    3  502    0  0.21506155182E+02  0.10314719493E+04  0.18422010307E+04  0.21114220675E+04  0.12699999809E+01 0.  1.
       -4    1    3    3    0  502 -0.21506155182E+02 -0.10314719493E+04 -0.14425142532E+04  0.17734841077E+04  0.12699999809E+01 0. -1.
</event>
<event>
 5   0  0.1187925E-07  0.3780142E+04  0.7818609E-02  0.8050430E-01
       -1   -1    0    0    0  501  0.00000000000E+00  0.00000000000E+00  0.15215073614E+04  0.15215073614E+04  0.50400001928E-02 0. -1.
        1   -1    0    0  501    0  0.00000000000E+00  0.00000000000E+00 -0.23479135668E+04  0.23479135668E+04  0.50400001928E-02 0.  1.
    10030    2    1    2    0    0  0.00000000000E+00  0.00000000000E+00 -0.82640620542E+03  0.38694209283E+04  0.37801416777E+04 0.  0.
        2    1    3    3  502    0  0.34592390129E+03  0.83682738519E+03  0.12850233257E+04  0.15720141112E+04  0.25500000920E-02 0. -1.
       -2    1    3    3    0  502 -0.34592390129E+03 -0.83682738519E+03 -0.21114295312E+04  0.22974068171E+04  0.25500000920E-02 0.  1.
</event>
<event>
 5   0  0.3665303E-07  0.2971654E+04  0.7818609E-02  0.8251872E-01
       -2   -1    0    0    0  501  0.00000000000E+00  0.00000000000E+00  0.81977832698E+03  0.81977832698E+03  0.25500000920E-02 0.  1.
        2   -1    0    0  501    0  0.00000000000E+00  0.00000000000E+00 -0.26930225442E+04  0.26930225442E+04  0.25500000920E-02 0. -1.
    10030    2    1    2    0    0  0.00000000000E+00  0.00000000000E+00 -0.18732442172E+04  0.35128008712E+04  0.29716537590E+04 0.  0.
        2    1    3    3  502    0  0.14615428264E+03 -0.69899704960E+03  0.60361936732E+03  0.93504774760E+03  0.25500000920E-02 0.  1.
       -2    1    3    3    0  502 -0.14615428264E+03  0.69899704960E+03 -0.24768635846E+04  0.25777531236E+04  0.25500000920E-02 0. -1.
</event>
<event>
 5   0  0.1187925E-07  0.3881120E+04  0.7818609E-02  0.8028967E-01
        1   -1    0    0  501    0  0.00000000000E+00  0.00000000000E+00  0.18182012229E+04  0.18182012229E+04  0.50400001928E-02 0.  1.
       -1   -1    0    0    0  501  0.00000000000E+00  0.00000000000E+00 -0.20711529559E+04  0.20711529559E+04  0.50400001928E-02 0. -1.
    10030    2    1    2    0    0  0.00000000000E+00  0.00000000000E+00 -0.25295173296E+03  0.38893541788E+04  0.38811198576E+04 0.  0.
        1    1    3    3  502    0 -0.38933981501E+03  0.62647445821E+03 -0.19251982516E+04  0.20616605071E+04  0.50400001928E-02 0. -1.
       -1    1    3    3    0  502  0.38933981501E+03 -0.62647445821E+03  0.16722465187E+04  0.18276936717E+04  0.50400001928E-02 0.  1.
</event>
<event>
 5   0  0.3665303E-07  0.3817839E+04  0.7818609E-02  0.8042337E-01
       -2   -1    0    0    0  501  0.00000000000E+00  0.00000000000E+00  0.15706990793E+04  0.15706990793E+04  0.25500000920E-02 0. -1.
        2   -1    0    0  501    0  0.00000000000E+00  0.00000000000E+00 -0.23199697333E+04  0.23199697333E+04  0.25500000920E-02 0.  1.
    10030    2    1    2    0    0  0.00000000000E+00  0.00000000000E+00 -0.74927065401E+03  0.38906688126E+04  0.38178393492E+04 0.  0.
        2    1    3    3  502    0 -0.68594477501E+03 -0.16099335661E+04 -0.11517889320E+04  0.20949997769E+04  0.25500000920E-02 0.  1.
       -2    1    3    3    0  502  0.68594477501E+03  0.16099335661E+04  0.40251827797E+03  0.17956690356E+04  0.25500000920E-02 0. -1.
</event>
<event>
 5   0  0.3832389E-07  0.3868119E+04  0.7818609E-02  0.8031693E-01
       -2   -1    0    0    0  501  0.00000000000E+00  0.00000000000E+00  0.22593911143E+04  0.22593911143E+04  0.25500000920E-02 0. -1.
        2   -1    0    0  501    0  0.00000000000E+00  0.00000000000E+00 -0.16555729374E+04  0.16555729374E+04  0.25500000920E-02 0.  1.
    10030    2    1    2    0    0  0.00000000000E+00  0.00000000000E+00  0.60381817696E+03  0.39149640517E+04  0.38681193280E+04 0.  0.
        5    1    3    3  502    0 -0.97997174094E+03  0.16589654842E+04  0.47142959389E+03  0.19836277481E+04  0.46999998093E+01 0.  1.
       -5    1    3    3    0  502  0.97997174094E+03 -0.16589654842E+04  0.13238858307E+03  0.19313363037E+04  0.46999998093E+01 0. -1.
</event>
<event>
 5   0  0.3832389E-07  0.3790601E+04  0.7818609E-02  0.8048175E-01
        2   -1    0    0  501    0  0.00000000000E+00  0.00000000000E+00  0.27956521901E+04  0.27956521901E+04  0.25500000920E-02 0. -1.
       -2   -1    0    0    0  501  0.00000000000E+00  0.00000000000E+00 -0.12849109519E+04  0.12849109519E+04  0.25500000920E-02 0.  1.
    10030    2    1    2    0    0  0.00000000000E+00  0.00000000000E+00  0.15107412382E+04  0.40805631420E+04  0.37906010693E+04 0.  0.
        5    1    3    3  502    0 -0.90228740793E+03  0.99000155622E+03 -0.68806283322E+03  0.15058812039E+04  0.46999998093E+01 0.  1.
       -5    1    3    3    0  502  0.90228740793E+03 -0.99000155622E+03  0.21988040714E+04  0.25746819381E+04  0.46999998093E+01 0. -1.
</event>
<event>
 5   0  0.3832389E-07  0.3898232E+04  0.7818609E-02  0.8025397E-01
       -2   -1    0    0    0  501  0.00000000000E+00  0.00000000000E+00  0.27003693319E+04  0.27003693319E+04  0.25500000920E-02 0. -1.
        2   -1    0    0  501    0  0.00000000000E+00  0.00000000000E+00 -0.14068641569E+04  0.14068641569E+04  0.25500000920E-02 0.  1.
    10030    2    1    2    0    0  0.00000000000E+00  0.00000000000E+00  0.12935051750E+04  0.41072334888E+04  0.38982318163E+04 0.  0.
        5    1    3    3  502    0 -0.39766339690E+03  0.30610763687E+03 -0.13376241163E+04  0.14286701611E+04  0.46999998093E+01 0.  1.
       -5    1    3    3    0  502  0.39766339690E+03 -0.30610763687E+03  0.26311292914E+04  0.26785633277E+04  0.46999998093E+01 0. -1.
</event>
<event>
 5   0  0.1187925E-07  0.3915042E+04  0.7818609E-02  0.8021908E-01
        1   -1    0    0  501    0  0.00000000000E+00  0.00000000000E+00  0.25080446576E+04  0.25080446576E+04  0.50400001928E-02 0.  1.
       -1   -1    0    0    0  501  0.00000000000E+00  0.00000000000E+00 -0.15278389216E+04  0.15278389216E+04  0.50400001928E-02 0. -1.
    10030    2    1    2    0    0  0.00000000000E+00  0.00000000000E+00  0.98020573598E+03  0.40358835793E+04  0.39150418875E+04 0.  0.
        3    1    3    3  502    0  0.34049966693E+03  0.18187660676E+04  0.11485980930E+04  0.21778722693E+04  0.10100000352E+00 0.  1.
       -3    1    3    3    0  502 -0.34049966693E+03 -0.18187660676E+04 -0.16839235705E+03  0.18580113100E+04  0.10100000352E+00 0. -1.
</event>
<event>
 5   0  0.1187925E-07  0.3208497E+04  0.7818609E-02  0.8186577E-01
       -1   -1    0    0    0  501  0.00000000000E+00  0.00000000000E+00  0.15193350341E+04  0.15193350341E+04  0.50400001928E-02 0. -1.
        1   -1    0    0  501    0  0.00000000000E+00  0.00000000000E+00 -0.16939080825E+04  0.16939080825E+04  0.50400001928E-02 0.  1.
    10030    2    1    2    0    0  0.00000000000E+00  0.00000000000E+00 -0.17457304837E+03  0.32132431166E+04  0.32084974018E+04 0.  0.
        3    1    3    3  502    0 -0.28912720244E+03  0.63865035532E+03 -0.15323848113E+04  0.16851326463E+04  0.10100000352E+00 0.  1.
       -3    1    3    3    0  502  0.28912720244E+03 -0.63865035532E+03  0.13578117630E+04  0.15281104703E+04  0.10100000352E+00 0. -1.
</event>
<event>
 5   0  0.1187925E-07  0.3950360E+04  0.7818609E-02  0.8014636E-01
       -1   -1    0    0    0  501  0.00000000000E+00  0.00000000000E+00  0.17568052860E+04  0.17568052861E+04  0.50400001928E-02 0.  1.
        1   -1    0    0  501    0  0.00000000000E+00  0.00000000000E+00 -0.22206992079E+04  0.22206992079E+04  0.50400001928E-02 0. -1.
    10030    2    1    2    0    0  0.00000000000E+00  0.00000000000E+00 -0.46389392188E+03  0.39775044940E+04  0.39503600379E+04 0.  0.
        5    1    3    3  502    0 -0.10310404721E+04 -0.96909155629E+03 -0.16195060120E+04  0.21505824124E+04  0.46999998093E+01 0. -1.
       -5    1    3    3    0  502  0.10310404721E+04  0.96909155629E+03  0.11556120901E+04  0.18269220816E+04  0.46999998093E+01 0.  1.
</event>
<event>
 5   0  0.3680814E-07  0.3929830E+04  0.7818609E-02  0.8018854E-01
       -2   -1    0    0    0  501  0.00000000000E+00  0.00000000000E+00  0.17481912886E+04  0.17481912886E+04  0.25500000920E-02 0.  1.
        2   -1    0    0  501    0  0.00000000000E+00  0.00000000000E+00 -0.22085057082E+04  0.22085057082E+04  0.25500000920E-02 0. -1.
    10030    2    1    2    0    0  0.00000000000E+00  0.00000000000E+00 -0.46031441962E+03  0.39566969968E+04  0.39298297367E+04 0.  0.
        1    1    3    3  502    0  0.12816198580E+04  0.80258797425E+03 -0.14934037554E+04  0.21253121403E+04  0.50400001928E-02 0. -1.
       -1    1    3    3    0  502 -0.12816198580E+04 -0.80258797425E+03  0.10330893358E+04  0.18313848565E+04  0.50400001928E-02 0.  1.
</event>
<event>
 5   0  0.1187925E-07  0.3921662E+04  0.7818609E-02  0.8020539E-01
       -1   -1    0    0    0  501  0.00000000000E+00  0.00000000000E+00  0.21311983549E+04  0.21311983549E+04  0.50400001928E-02 0. -1.
        1   -1    0    0  501    0  0.00000000000E+00  0.00000000000E+00 -0.18040830620E+04  0.18040830620E+04  0.50400001928E-02 0.  1.
    10030    2    1    2    0    0  0.00000000000E+00  0.00000000000E+00  0.32711529288E+03  0.39352814169E+04  0.39216623281E+04 0.  0.
        5    1    3    3  502    0  0.51239347281E+03  0.12650793208E+04 -0.12491182118E+04  0.18502138136E+04  0.46999998093E+01 0. -1.
       -5    1    3    3    0  502 -0.51239347281E+03 -0.12650793208E+04  0.15762335047E+04  0.20850676033E+04  0.46999998093E+01 0.  1.
</event>
<event>
 5   0  0.3680814E-07  0.3932607E+04  0.7818609E-02  0.8018282E-01
        2   -1    0    0  501    0  0.00000000000E+00  0.00000000000E+00  0.27625085611E+04  0.27625085611E+04  0.25500000920E-02 0.  1.
       -2   -1    0    0    0  501  0.00000000000E+00  0.00000000000E+00 -0.13995790580E+04  0.13995790580E+04  0.25500000920E-02 0. -1.
    10030    2    1    2    0    0  0.00000000000E+00  0.00000000000E+00  0.13629295031E+04  0.41620876191E+04  0.39326068350E+04 0.  0.
        1    1    3    3  502    0  0.99885350152E+03 -0.16853318859E+04  0.50343082200E+03  0.20227442932E+04  0.50400001928E-02 0. -1.
       -1    1    3    3    0  502 -0.99885350152E+03  0.16853318859E+04  0.85949868107E+03  0.21393433259E+04  0.50400001928E-02 0.  1.
</event>
<event>
 5   0  0.3810833E-07  0.3881167E+04  0.7818609E-02  0.8028957E-01
       -2   -1    0    0    0  501  0.00000000000E+00  0.00000000000E+00  0.13841223321E+04  0.13841223321E+04  0.25500000920E-02 0. -1.
        2   -1    0    0  501    0  0.00000000000E+00  0.00000000000E+00 -0.27207604280E+04  0.27207604280E+04  0.25500000920E-02 0.  1.
    10030    2    1    2    0    0  0.00000000000E+00  0.00000000000E+00 -0.13366380960E+04  0.41048827601E+04  0.38811674886E+04 0.  0.
        3    1    3    3  502    0 -0.47762116868E+03 -0.15291044533E+04  0.49006747659E+03  0.16752458183E+04  0.10100000352E+00 0. -1.
       -3    1    3    3    0  502  0.47762116868E+03  0.15291044533E+04 -0.18267055725E+04  0.24296369418E+04  0.10100000352E+00 0.  1.
</event>
<event>
 5   0  0.3665303E-07  0.3840661E+04  0.7818609E-02  0.8037485E-01
        2   -1    0    0  501    0  0.00000000000E+00  0.00000000000E+00  0.29601149678E+04  0.29601149678E+04  0.25500000920E-02 0. -1.
       -2   -1    0    0    0  501  0.00000000000E+00  0.00000000000E+00 -0.12457855254E+04  0.12457855254E+04  0.25500000920E-02 0.  1.
    10030    2    1    2    0    0  0.00000000000E+00  0.00000000000E+00  0.17143294424E+04  0.42059004931E+04  0.38406605579E+04 0.  0.
        2    1    3    3  502    0  0.42937822860E+03 -0.12413874749E+04  0.23911858010E+04  0.27282188440E+04  0.25500000920E-02 0. -1.
       -2    1    3    3    0  502 -0.42937822860E+03  0.12413874749E+04 -0.67685635864E+03  0.14776816491E+04  0.25500000920E-02 0.  1.
</event>
<event>
 5   0  0.1187925E-07  0.3936367E+04  0.7818609E-02  0.8017508E-01
        1   -1    0    0  501    0  0.00000000000E+00  0.00000000000E+00  0.23053766821E+04  0.23053766821E+04  0.50400001928E-02 0.  1.
       -1   -1    0    0    0  501  0.00000000000E+00  0.00000000000E+00 -0.16803092079E+04  0.16803092079E+04  0.50400001928E-02 0. -1.
    10030    2    1    2    0    0  0.00000000000E+00  0.00000000000E+00  0.62506747420E+03  0.39856858899E+04  0.39363666834E+04 0.  0.
        2    1    3    3  502    0  0.77705063458E+03 -0.15798484002E+04  0.12033390002E+04  0.21325462260E+04  0.25500000920E-02 0.  1.
       -2    1    3    3    0  502 -0.77705063458E+03  0.15798484002E+04 -0.57827152598E+03  0.18531396640E+04  0.25500000920E-02 0. -1.
</event>
<event>
 5   0  0.3832389E-07  0.3900086E+04  0.7818609E-02  0.8025011E-01
        2   -1    0    0  501    0  0.00000000000E+00  0.00000000000E+00  0.32347759507E+04  0.32347759507E+04  0.25500000920E-02 0.  1.
       -2   -1    0    0    0  501  0.00000000000E+00  0.00000000000E+00 -0.11755584502E+04  0.11755584502E+04  0.25500000920E-02 0. -1.
    10030    2    1    2    0    0  0.00000000000E+00  0.00000000000E+00  0.20592175005E+04  0.44103344009E+04  0.39000862572E+04 0.  0.
        5    1    3    3  502    0  0.15350226713E+04  0.85792463618E+03  0.19826755918E+04  0.26501611036E+04  0.46999998093E+01 0.  1.
       -5    1    3    3    0  502 -0.15350226713E+04 -0.85792463618E+03  0.76541908681E+02  0.17601732973E+04  0.46999998093E+01 0. -1.
</event>
<event>
 5   0  0.3832389E-07  0.3946101E+04  0.7818609E-02  0.8015509E-01
       -2   -1    0    0    0  501  0.00000000000E+00  0.00000000000E+00  0.12423974634E+04  0.12423974634E+04  0.25500000920E-02 0. -1.
        2   -1    0    0  501    0  0.00000000000E+00  0.00000000000E+00 -0.31333995734E+04  0.31333995734E+04  0.25500000920E-02 0.  1.
    10030    2    1    2    0    0  0.00000000000E+00  0.00000000000E+00 -0.18910021099E+04  0.43757970368E+04  0.39461006991E+04 0.  0.
        5    1    3    3  502    0 -0.77542948395E+03  0.25473277715E+03 -0.29374125828E+04  0.30487037318E+04  0.46999998093E+01 0.  1.
       -5    1    3    3    0  502  0.77542948395E+03 -0.25473277715E+03  0.10464104729E+04  0.13270933050E+04  0.46999998093E+01 0. -1.
</event>
<event>
 5   0  0.3680814E-07  0.3967546E+04  0.7818609E-02  0.8011126E-01
       -2   -1    0    0    0  501  0.00000000000E+00  0.00000000000E+00  0.20546535320E+04  0.20546535320E+04  0.25500000920E-02 0.  1.
        2   -1    0    0  501    0  0.00000000000E+00  0.00000000000E+00 -0.19153380133E+04  0.19153380133E+04  0.25500000920E-02 0. -1.
    10030    2    1    2    0    0  0.00000000000E+00  0.00000000000E+00  0.13931551867E+03  0.39699915453E+04  0.39675463521E+04 0.  0.
        1    1    3    3  502    0 -0.38634251614E+03 -0.19011627849E+04  0.48425058540E+03  0.19995447242E+04  0.50400001928E-02 0.  1.
       -1    1    3    3    0  502  0.38634251614E+03  0.19011627849E+04 -0.34493506673E+03  0.19704468211E+04  0.50400001928E-02 0. -1.
</event>
<event>
 5   0  0.3610483E-07  0.2976608E+04  0.7818609E-02  0.8250442E-01
        2   -1    0    0  501    0  0.00000000000E+00  0.00000000000E+00  0.24598903355E+04  0.24598903355E+04  0.25500000920E-02 0. -1.
       -2   -1    0    0    0  501  0.00000000000E+00  0.00000000000E+00 -0.90046670558E+03  0.90046670559E+03  0.25500000920E-02 0.  1.
    10030    2    1    2    0    0  0.00000000000E+00  0.00000000000E+00  0.15594236300E+04  0.33603570411E+04  0.29766083696E+04 0.  0.
        4    1    3    3  502    0  0.17842446796E+03  0.15618676396E+03  0.24384267482E+04  0.24499298388E+04  0.12699999809E+01 0. -1.
       -4    1    3    3    0  502 -0.17842446796E+03 -0.15618676396E+03 -0.87900311821E+03  0.91042720232E+03  0.12699999809E+01 0.  1.
</event>
<event>
 5   0  0.1187925E-07  0.2960990E+04  0.7818609E-02  0.8254959E-01
       -1   -1    0    0    0  501  0.00000000000E+00  0.00000000000E+00  0.82250325885E+03  0.82250325886E+03  0.50400001928E-02 0. -1.
        1   -1    0    0  501    0  0.00000000000E+00  0.00000000000E+00 -0.26648710477E+04  0.26648710477E+04  0.50400001928E-02 0.  1.
    10030    2    1    2    0    0  0.00000000000E+00  0.00000000000E+00 -0.18423677889E+04  0.34873743066E+04  0.29609897813E+04 0.  0.
        2    1    3    3  502    0  0.52262692075E+03 -0.13090030041E+04 -0.14547520018E+04  0.20255693396E+04  0.25500000920E-02 0.  1.
       -2    1    3    3    0  502 -0.52262692075E+03  0.13090030041E+04 -0.38761578706E+03  0.14618049669E+04  0.25500000920E-02 0. -1.
</event>
<event>
 5   0  0.1187925E-07  0.3671772E+04  0.7818609E-02  0.8074246E-01
       -1   -1    0    0    0  501  0.00000000000E+00  0.00000000000E+00  0.13947836272E+04  0.13947836272E+04  0.50400001928E-02 0. -1.
        1   -1    0    0  501    0  0.00000000000E+00  0.00000000000E+00 -0.24164879159E+04  0.24164879159E+04  0.50400001928E-02 0.  1.
    10030    2    1    2    0    0  0.00000000000E+00  0.00000000000E+00 -0.10217042886E+04  0.38112715431E+04  0.36717722045E+04 0.  0.
        2    1    3    3  502    0 -0.17432321037E+03  0.16962630063E+04  0.19527340928E+03  0.17163415955E+04  0.25500000920E-02 0.  1.
       -2    1    3    3    0  502  0.17432321037E+03 -0.16962630063E+04 -0.12169776979E+04  0.20949299476E+04  0.25500000920E-02 0. -1.
</event>
<event>
 5   0  0.3832389E-07  0.3783900E+04  0.7818609E-02  0.8049619E-01
       -2   -1    0    0    0  501  0.00000000000E+00  0.00000000000E+00  0.17318424287E+04  0.17318424287E+04  0.25500000920E-02 0.  1.
        2   -1    0    0  501    0  0.00000000000E+00  0.00000000000E+00 -0.20668597204E+04  0.20668597204E+04  0.25500000920E-02 0. -1.
    10030    2    1    2    0    0  0.00000000000E+00  0.00000000000E+00 -0.33501729174E+03  0.37987021491E+04  0.37839002935E+04 0.  0.
        5    1    3    3  502    0 -0.14276971997E+04 -0.22054158957E+03  0.10589475913E+04  0.17911867513E+04  0.46999998093E+01 0.  1.
       -5    1    3    3    0  502  0.14276971997E+04  0.22054158957E+03 -0.13939648831E+04  0.20075153977E+04  0.46999998093E+01 0. -1.
</event>
<event>
 5   0  0.3810833E-07  0.3898261E+04  0.7818609E-02  0.8025391E-01
       -2   -1    0    0    0  501  0.00000000000E+00  0.00000000000E+00  0.22421924322E+04  0.22421924322E+04  0.25500000920E-02 0. -1.
        2   -1    0    0  501    0  0.00000000000E+00  0.00000000000E+00 -0.16943726135E+04  0.16943726135E+04  0.25500000920E-02 0.  1.
    10030    2    1    2    0    0  0.00000000000E+00  0.00000000000E+00  0.54781981864E+03  0.39365650457E+04  0.38982608694E+04 0.  0.
        3    1    3    3  502    0 -0.14674799534E+04 -0.21103639486E+03 -0.10038594278E+04  0.17904657312E+04  0.10100000352E+00 0.  1.
       -3    1    3    3    0  502  0.14674799534E+04  0.21103639486E+03  0.15516792464E+04  0.21460993145E+04  0.10100000352E+00 0. -1.
</event>
<event>
 5   0  0.1187925E-07  0.3910971E+04  0.7818609E-02  0.8022751E-01
       -1   -1    0    0    0  501  0.00000000000E+00  0.00000000000E+00  0.15190582791E+04  0.15190582791E+04  0.50400001928E-02 0. -1.
        1   -1    0    0  501    0  0.00000000000E+00  0.00000000000E+00 -0.25172993470E+04  0.25172993470E+04  0.50400001928E-02 0.  1.
    10030    2    1    2    0    0  0.00000000000E+00  0.00000000000E+00 -0.99824106785E+03  0.40363576261E+04  0.39109714466E+04 0.  0.
        2    1    3    3  502    0  0.25036301146E+03  0.18229507610E+04  0.18398577819E+03  0.18492381894E+04  0.25500000920E-02 0. -1.
       -2    1    3    3    0  502 -0.25036301146E+03 -0.18229507610E+04 -0.11822268460E+04  0.21871194367E+04  0.25500000920E-02 0.  1.
</event>
<event>
 5   0  0.3610483E-07  0.3946906E+04  0.7818609E-02  0.8015344E-01
        2   -1    0    0  501    0  0.00000000000E+00  0.00000000000E+00  0.28003141796E+04  0.28003141796E+04  0.25500000920E-02 0.  1.
       -2   -1    0    0    0  501  0.00000000000E+00  0.00000000000E+00 -0.13907430180E+04  0.13907430180E+04  0.25500000920E-02 0. -1.
    10030    2    1    2    0    0  0.00000000000E+00  0.00000000000E+00  0.14095711616E+04  0.41910571976E+04  0.39469063295E+04 0.  0.
        4    1    3    3  502    0  0.33624092058E+03  0.15152371288E+04  0.19989968646E+04  0.25308084856E+04  0.12699999809E+01 0.  1.
       -4    1    3    3    0  502 -0.33624092058E+03 -0.15152371288E+04 -0.58942570307E+03  0.16602487120E+04  0.12699999809E+01 0. -1.
</event>
<event>
 5   0  0.1187925E-07  0.3919610E+04  0.7818609E-02  0.8020963E-01
       -1   -1    0    0    0  501  0.00000000000E+00  0.00000000000E+00  0.29042710770E+04  0.29042710770E+04  0.50400001928E-02 0. -1.
        1   -1    0    0  501    0  0.00000000000E+00  0.00000000000E+00 -0.13224782053E+04  0.13224782053E+04  0.50400001928E-02 0.  1.
    10030    2    1    2    0    0  0.00000000000E+00  0.00000000000E+00  0.15817928717E+04  0.42267492824E+04  0.39196097774E+04 0.  0.
        4    1    3    3  502    0  0.11673786290E+04  0.15720885901E+04  0.70330209093E+03  0.20805938678E+04  0.12699999809E+01 0. -1.
       -4    1    3    3    0  502 -0.11673786290E+04 -0.15720885901E+04  0.87849078075E+03  0.21461554146E+04  0.12699999809E+01 0.  1.
</event>
<event>
 5   0  0.1187925E-07  0.3865481E+04  0.7818609E-02  0.8032247E-01
        1   -1    0    0  501    0  0.00000000000E+00  0.00000000000E+00  0.27791062924E+04  0.27791062924E+04  0.50400001928E-02 0. -1.
       -1   -1    0    0    0  501  0.00000000000E+00  0.00000000000E+00 -0.13441318806E+04  0.13441318806E+04  0.50400001928E-02 0.  1.
    10030    2    1    2    0    0  0.00000000000E+00  0.00000000000E+00  0.14349744118E+04  0.41232381730E+04  0.38654807552E+04 0.  0.
        3    1    3    3  502    0  0.80151185871E+01 -0.19313356018E+04  0.79560960518E+03  0.20888073398E+04  0.10100000352E+00 0. -1.
       -3    1    3    3    0  502 -0.80151185871E+01  0.19313356018E+04  0.63936480665E+03  0.20344308332E+04  0.10100000352E+00 0.  1.
</event>
<event>
 5   0  0.3680814E-07  0.4051244E+04  0.7818609E-02  0.7994288E-01
        2   -1    0    0  501    0  0.00000000000E+00  0.00000000000E+00  0.15930600291E+04  0.15930600291E+04  0.25500000920E-02 0. -1.
       -2   -1    0    0    0  501  0.00000000000E+00  0.00000000000E+00 -0.25756374114E+04  0.25756374114E+04  0.25500000920E-02 0.  1.
    10030    2    1    2    0    0  0.00000000000E+00  0.00000000000E+00 -0.98257738235E+03  0.41686974405E+04  0.40512442581E+04 0.  0.
        1    1    3    3  502    0 -0.16339414674E+04  0.34032042052E+03 -0.16724182204E+04  0.23627453124E+04  0.50400001928E-02 0.  1.
       -1    1    3    3    0  502  0.16339414674E+04 -0.34032042052E+03  0.68984083800E+03  0.18059521282E+04  0.50400001928E-02 0. -1.
</event>
<event>
 5   0  0.1187925E-07  0.3892389E+04  0.7818609E-02  0.8026614E-01
        1   -1    0    0  501    0  0.00000000000E+00  0.00000000000E+00  0.24071517942E+04  0.24071517943E+04  0.50400001928E-02 0. -1.
       -1   -1    0    0    0  501  0.00000000000E+00  0.00000000000E+00 -0.15735084075E+04  0.15735084075E+04  0.50400001928E-02 0.  1.
    10030    2    1    2    0    0  0.00000000000E+00  0.00000000000E+00  0.83364338679E+03  0.39806602017E+04  0.38923892849E+04 0.  0.
        2    1    3    3  502    0  0.13255457246E+04 -0.17398327129E+03 -0.10295831692E+04  0.16874190793E+04  0.25500000920E-02 0.  1.
       -2    1    3    3    0  502 -0.13255457246E+04  0.17398327129E+03  0.18632265560E+04  0.22932411225E+04  0.25500000920E-02 0. -1.
</event>
<event>
 5   0  0.3680814E-07  0.3307090E+04  0.7818609E-02  0.8161094E-01
       -2   -1    0    0    0  501  0.00000000000E+00  0.00000000000E+00  0.18668061272E+04  0.18668061272E+04  0.25500000920E-02 0. -1.
        2   -1    0    0  501    0  0.00000000000E+00  0.00000000000E+00 -0.14646460978E+04  0.14646460978E+04  0.25500000920E-02 0.  1.
    10030    2    1    2    0    0  0.00000000000E+00  0.00000000000E+00  0.40216002936E+03  0.33314522250E+04  0.33070895419E+04 0.  0.
        1    1    3    3  502    0 -0.14116254790E+04 -0.86009047004E+03  0.15872026982E+03  0.16606126079E+04  0.50400001928E-02 0.  1.
       -1    1    3    3    0  502  0.14116254790E+04  0.86009047004E+03  0.24343975953E+03  0.16708396171E+04  0.50400001928E-02 0. -1.
</event>
<event>
 5   0  0.3810833E-07  0.3875720E+04  0.7818609E-02  0.8030098E-01
       -2   -1    0    0    0  501  0.00000000000E+00  0.00000000000E+00  0.13790681507E+04  0.13790681507E+04  0.25500000920E-02 0. -1.
        2   -1    0    0  501    0  0.00000000000E+00  0.00000000000E+00 -0.27230713414E+04  0.27230713414E+04  0.25500000920E-02 0.  1.
    10030    2    1    2    0    0  0.00000000000E+00  0.00000000000E+00 -0.13440031907E+04  0.41021394921E+04  0.38757197829E+04 0.  0.
        3    1    3    3  502    0  0.10638712158E+04  0.49527221778E+03  0.96022638699E+03  0.15162952410E+04  0.10100000352E+00 0. -1.
       -3    1    3    3    0  502 -0.10638712158E+04 -0.49527221778E+03 -0.23042295777E+04  0.25858442510E+04  0.10100000352E+00 0.  1.
</event>
<event>
 5   0  0.1187925E-07  0.3914135E+04  0.7818609E-02  0.8022096E-01
       -1   -1    0    0    0  501  0.00000000000E+00  0.00000000000E+00  0.23752593265E+04  0.23752593265E+04  0.50400001928E-02 0. -1.
        1   -1    0    0  501    0  0.00000000000E+00  0.00000000000E+00 -0.16125032913E+04  0.16125032913E+04  0.50400001928E-02 0.  1.
    10030    2    1    2    0    0  0.00000000000E+00  0.00000000000E+00  0.76275603524E+03  0.39877626179E+04  0.39141351442E+04 0.  0.
        1    1    3    3  502    0  0.20918725923E+03  0.61689513350E+03 -0.14988161686E+04  0.16342487028E+04  0.50400001928E-02 0.  1.
       -1    1    3    3    0  502 -0.20918725923E+03 -0.61689513350E+03  0.22615722039E+04  0.23535139151E+04  0.50400001928E-02 0. -1.
</event>
<event>
 5   0  0.1187925E-07  0.3887602E+04  0.7818609E-02  0.8027613E-01
       -1   -1    0    0    0  501  0.00000000000E+00  0.00000000000E+00  0.15072266394E+04  0.15072266394E+04  0.50400001928E-02 0.  1.
        1   -1    0    0  501    0  0.00000000000E+00  0.00000000000E+00 -0.25068307503E+04  0.25068307503E+04  0.50400001928E-02 0. -1.
    10030    2    1    2    0    0  0.00000000000E+00  0.00000000000E+00 -0.99960411087E+03  0.40140573897E+04  0.38876018764E+04 0.  0.
        1    1    3    3  502    0  0.13135328193E+04 -0.67372036179E+03  0.80588427765E+03  0.16818790273E+04  0.50400001928E-02 0.  1.
       -1    1    3    3    0  502 -0.13135328193E+04  0.67372036179E+03 -0.18054883885E+04  0.23321783625E+04  0.50400001928E-02 0. -1.
</event>
<event>
 5   0  0.3680814E-07  0.2996333E+04  0.7818609E-02  0.8244779E-01
       -2   -1    0    0    0  501  0.00000000000E+00  0.00000000000E+00  0.15042574177E+04  0.15042574177E+04  0.25500000920E-02 0. -1.
        2   -1    0    0  501    0  0.00000000000E+00  0.00000000000E+00 -0.14921004390E+04  0.14921004390E+04  0.25500000920E-02 0.  1.
    10030    2    1    2    0    0  0.00000000000E+00  0.00000000000E+00  0.12156978768E+02  0.29963578567E+04  0.29963331946E+04 0.  0.
        1    1    3    3  502    0 -0.46523901198E+03 -0.11448760256E+03 -0.14134219767E+04  0.14924196573E+04  0.50400001928E-02 0.  1.
       -1    1    3    3    0  502  0.46523901198E+03  0.11448760256E+03  0.14255789554E+04  0.15039381994E+04  0.50400001928E-02 0. -1.
</event>
<event>
 5   0  0.1187925E-07  0.3903647E+04  0.7818609E-02  0.8024271E-01
       -1   -1    0    0    0  501  0.00000000000E+00  0.00000000000E+00  0.32627703085E+04  0.32627703085E+04  0.50400001928E-02 0. -1.
        1   -1    0    0  501    0  0.00000000000E+00  0.00000000000E+00 -0.11676014207E+04  0.11676014207E+04  0.50400001928E-02 0.  1.
    10030    2    1    2    0    0  0.00000000000E+00  0.00000000000E+00  0.20951688878E+04  0.44303717292E+04  0.39036471396E+04 0.  0.
        2    1    3    3  502    0 -0.16759489121E+04 -0.98806068291E+03  0.86977079461E+03  0.21310959397E+04  0.25500000920E-02 0.  1.
       -2    1    3    3    0  502  0.16759489121E+04  0.98806068291E+03  0.12253980932E+04  0.22992757895E+04  0.25500000920E-02 0. -1.
</event>
<event>
 5   0  0.1187925E-07  0.3867444E+04  0.7818609E-02  0.8031835E-01
       -1   -1    0    0    0  501  0.00000000000E+00  0.00000000000E+00  0.14136834022E+04  0.14136834022E+04  0.50400001928E-02 0.  1.
        1   -1    0    0  501    0  0.00000000000E+00  0.00000000000E+00 -0.26450623139E+04  0.26450623139E+04  0.50400001928E-02 0. -1.
    10030    2    1    2    0    0  0.00000000000E+00  0.00000000000E+00 -0.12313789117E+04  0.40587457161E+04  0.38674439575E+04 0.  0.
        1    1    3    3  502    0 -0.17760905397E+04  0.64559148097E+03 -0.10458352070E+04  0.21598743588E+04  0.50400001928E-02 0. -1.
       -1    1    3    3    0  502  0.17760905397E+04 -0.64559148097E+03 -0.18554370464E+03  0.18988713574E+04  0.50400001928E-02 0.  1.
</event>
<event>
 5   0  0.3810833E-07  0.3719902E+04  0.7818609E-02  0.8063566E-01
       -2   -1    0    0    0  501  0.00000000000E+00  0.00000000000E+00  0.18183589861E+04  0.18183589861E+04  0.25500000920E-02 0. -1.
        2   -1    0    0  501    0  0.00000000000E+00  0.00000000000E+00 -0.19024938978E+04  0.19024938978E+04  0.25500000920E-02 0.  1.
    10030    2    1    2    0    0  0.00000000000E+00  0.00000000000E+00 -0.84134911744E+02  0.37208528840E+04  0.37199015445E+04 0.  0.
        3    1    3    3  502    0 -0.89731843791E+03 -0.13128299041E+04  0.92291453224E+03  0.18386065321E+04  0.10100000352E+00 0. -1.
       -3    1    3    3    0  502  0.89731843791E+03  0.13128299041E+04 -0.10070494440E+04  0.18822463518E+04  0.10100000352E+00 0.  1.
</event>
<event>
 5   0  0.1187925E-07  0.3923772E+04  0.7818609E-02  0.8020103E-01
        1   -1    0    0  501    0  0.00000000000E+00  0.00000000000E+00  0.11843821284E+04  0.11843821284E+04  0.50400001928E-02 0. -1.
       -1   -1    0    0    0  501  0.00000000000E+00  0.00000000000E+00 -0.32497927454E+04  0.32497927454E+04  0.50400001928E-02 0.  1.
    10030    2    1    2    0    0  0.00000000000E+00  0.00000000000E+00 -0.20654106170E+04  0.44341748738E+04  0.39237718837E+04 0.  0.
        4    1    3    3  502    0 -0.11221576761E+04  0.12743259109E+04 -0.21433215265E+04  0.27344054483E+04  0.12699999809E+01 0.  1.
       -4    1    3    3    0  502  0.11221576761E+04 -0.12743259109E+04  0.77910909545E+02  0.16997694255E+04  0.12699999809E+01 0. -1.
</event>
<event>
 5   0  0.1187925E-07  0.3881488E+04  0.7818609E-02  0.8028890E-01
        1   -1    0    0  501    0  0.00000000000E+00  0.00000000000E+00  0.15455799801E+04  0.15455799801E+04  0.50400001928E-02 0. -1.
       -1   -1    0    0    0  501  0.00000000000E+00  0.00000000000E+00 -0.24369413488E+04  0.24369413488E+04  0.50400001928E-02 0.  1.
    10030    2    1    2    0    0  0.00000000000E+00  0.00000000000E+00 -0.89136136870E+03  0.39825213288E+04  0.38814882513E+04 0.  0.
        1    1    3    3  502    0 -0.15797504734E+04 -0.20735766242E+03 -0.15826208799E+04  0.22457287476E+04  0.50400001928E-02 0.  1.
       -1    1    3    3    0  502  0.15797504734E+04  0.20735766242E+03  0.69125951119E+03  0.17367925812E+04  0.50400001928E-02 0. -1.
</event>
<event>
 5   0  0.1187925E-07  0.3833378E+04  0.7818609E-02  0.8039030E-01
        1   -1    0    0  501    0  0.00000000000E+00  0.00000000000E+00  0.21012777428E+04  0.21012777428E+04  0.50400001928E-02 0.  1.
       -1   -1    0    0    0  501  0.00000000000E+00  0.00000000000E+00 -0.17483158213E+04  0.17483158213E+04  0.50400001928E-02 0. -1.
    10030    2    1    2    0    0  0.00000000000E+00  0.00000000000E+00  0.35296192145E+03  0.38495935641E+04  0.38333782087E+04 0.  0.
        1    1    3    3  502    0  0.51115577145E+03  0.46493903823E+03 -0.16188870576E+04  0.17601828988E+04  0.50400001928E-02 0. -1.
       -1    1    3    3    0  502 -0.51115577145E+03 -0.46493903823E+03  0.19718489791E+04  0.20894106653E+04  0.50400001928E-02 0.  1.
</event>
<event>
 5   0  0.3665303E-07  0.3831761E+04  0.7818609E-02  0.8039373E-01
       -2   -1    0    0    0  501  0.00000000000E+00  0.00000000000E+00  0.16931317769E+04  0.16931317769E+04  0.25500000920E-02 0. -1.
        2   -1    0    0  501    0  0.00000000000E+00  0.00000000000E+00 -0.21679337873E+04  0.21679337873E+04  0.25500000920E-02 0.  1.
    10030    2    1    2    0    0  0.00000000000E+00  0.00000000000E+00 -0.47480201036E+03  0.38610655642E+04  0.38317607366E+04 0.  0.
        2    1    3    3  502    0  0.11663256705E+04  0.15003391262E+04 -0.48270588506E+03  0.19606983538E+04  0.25500000920E-02 0.  1.
       -2    1    3    3    0  502 -0.11663256705E+04 -0.15003391262E+04  0.79038746998E+01  0.19003672104E+04  0.25500000920E-02 0. -1.
</event>
<event>
 5   0  0.3610483E-07  0.3770275E+04  0.7818609E-02  0.8052564E-01
        2   -1    0    0  501    0  0.00000000000E+00  0.00000000000E+00  0.14450621631E+04  0.14450621631E+04  0.25500000920E-02 0. -1.
       -2   -1    0    0    0  501  0.00000000000E+00  0.00000000000E+00 -0.24592320342E+04  0.24592320342E+04  0.25500000920E-02 0.  1.
    10030    2    1    2    0    0  0.00000000000E+00  0.00000000000E+00 -0.10141698711E+04  0.39042941973E+04  0.37702748775E+04 0.  0.
        4    1    3    3  502    0 -0.15475055662E+04 -0.37054517723E+03  0.53961847553E+03  0.16802579915E+04  0.12699999809E+01 0. -1.
       -4    1    3    3    0  502  0.15475055662E+04  0.37054517723E+03 -0.15537883466E+04  0.22240362059E+04  0.12699999809E+01 0.  1.
</event>
<event>
 5   0  0.3810833E-07  0.3883308E+04  0.7818609E-02  0.8028510E-01
        2   -1    0    0  501    0  0.00000000000E+00  0.00000000000E+00  0.25947426696E+04  0.25947426696E+04  0.25500000920E-02 0. -1.
       -2   -1    0    0    0  501  0.00000000000E+00  0.00000000000E+00 -0.14529453768E+04  0.14529453768E+04  0.25500000920E-02 0.  1.
    10030    2    1    2    0    0  0.00000000000E+00  0.00000000000E+00  0.11417972928E+04  0.40476880464E+04  0.38833075417E+04 0.  0.
        3    1    3    3  502    0  0.17654055835E+03  0.74398140222E+03  0.24312006324E+04  0.25486097035E+04  0.10100000352E+00 0. -1.
       -3    1    3    3    0  502 -0.17654055835E+03 -0.74398140222E+03 -0.12894033396E+04  0.14990783429E+04  0.10100000352E+00 0.  1.
</event>
<event>
 5   0  0.1187925E-07  0.3922680E+04  0.7818609E-02  0.8020329E-01
        1   -1    0    0  501    0  0.00000000000E+00  0.00000000000E+00  0.14809862941E+04  0.14809862942E+04  0.50400001928E-02 0.  1.
       -1   -1    0    0    0  501  0.00000000000E+00  0.00000000000E+00 -0.25974954350E+04  0.25974954350E+04  0.50400001928E-02 0. -1.
    10030    2    1    2    0    0  0.00000000000E+00  0.00000000000E+00 -0.11165091409E+04  0.40784817292E+04  0.39226802767E+04 0.  0.
        3    1    3    3  502    0  0.32729095411E+03  0.94860244839E+03 -0.23103844823E+04  0.25188970682E+04  0.10100000352E+00 0. -1.
       -3    1    3    3    0  502 -0.32729095411E+03 -0.94860244839E+03  0.11938753414E+04  0.15595846610E+04  0.10100000352E+00 0.  1.
</event>
<event>
 5   0  0.3810833E-07  0.3686657E+04  0.7818609E-02  0.8070925E-01
       -2   -1    0    0    0  501  0.00000000000E+00  0.00000000000E+00  0.29293329073E+04  0.29293329073E+04  0.25500000920E-02 0.  1.
        2   -1    0    0  501    0  0.00000000000E+00  0.00000000000E+00 -0.11599435132E+04  0.11599435132E+04  0.25500000920E-02 0. -1.
    10030    2    1    2    0    0  0.00000000000E+00  0.00000000000E+00  0.17693893942E+04  0.40892764205E+04  0.36866574041E+04 0.  0.
        3    1    3    3  502    0  0.12862402711E+04  0.61247799715E+03 -0.41280452432E+03  0.14832231516E+04  0.10100000352E+00 0. -1.
       -3    1    3    3    0  502 -0.12862402711E+04 -0.61247799715E+03  0.21821939185E+04  0.26060532689E+04  0.10100000352E+00 0.  1.
</event>
<event>
 5   0  0.3665303E-07  0.3924122E+04  0.7818609E-02  0.8020031E-01
        2   -1    0    0  501    0  0.00000000000E+00  0.00000000000E+00  0.24200601014E+04  0.24200601014E+04  0.25500000920E-02 0.  1.
       -2   -1    0    0    0  501  0.00000000000E+00  0.00000000000E+00 -0.15907386440E+04  0.15907386440E+04  0.25500000920E-02 0. -1.
    10030    2    1    2    0    0  0.00000000000E+00  0.00000000000E+00  0.82932145738E+03  0.40107987455E+04  0.39241218759E+04 0.  0.
        2    1    3    3  502    0  0.89640584816E+03 -0.12056142520E+04  0.17045319954E+04  0.22721088205E+04  0.25500000920E-02 0.  1.
       -2    1    3    3    0  502 -0.89640584816E+03  0.12056142520E+04 -0.87521053799E+03  0.17386899249E+04  0.25500000920E-02 0. -1.
</event>
<event>
 5   0  0.1187925E-07  0.3930258E+04  0.7818609E-02  0.8018765E-01
       -1   -1    0    0    0  501  0.00000000000E+00  0.00000000000E+00  0.17561819906E+04  0.17561819906E+04  0.50400001928E-02 0.  1.
        1   -1    0    0  501    0  0.00000000000E+00  0.00000000000E+00 -0.21989359624E+04  0.21989359624E+04  0.50400001928E-02 0. -1.
    10030    2    1    2    0    0  0.00000000000E+00  0.00000000000E+00 -0.44275397182E+03  0.39551179530E+04  0.39302578723E+04 0.  0.
        3    1    3    3  502    0 -0.99159106516E+03 -0.12356586633E+04  0.94857153079E+03  0.18465895949E+04  0.10100000352E+00 0.  1.
       -3    1    3    3    0  502  0.99159106516E+03  0.12356586633E+04 -0.13913255026E+04  0.21085283581E+04  0.10100000352E+00 0. -1.
</event>
<event>
 5   0  0.3832389E-07  0.3864855E+04  0.7818609E-02  0.8032379E-01
       -2   -1    0    0    0  501  0.00000000000E+00  0.00000000000E+00  0.17172883077E+04  0.17172883077E+04  0.25500000920E-02 0.  1.
        2   -1    0    0  501    0  0.00000000000E+00  0.00000000000E+00 -0.21745191391E+04  0.21745191391E+04  0.25500000920E-02 0. -1.
    10030    2    1    2    0    0  0.00000000000E+00  0.00000000000E+00 -0.45723083139E+03  0.38918074468E+04  0.38648551292E+04 0.  0.
        5    1    3    3  502    0  0.19540763706E+03 -0.12193569206E+04  0.12681007596E+04  0.17700613184E+04  0.46999998093E+01 0.  1.
       -5    1    3    3    0  502 -0.19540763706E+03  0.12193569206E+04 -0.17253315910E+04  0.21217461284E+04  0.46999998093E+01 0. -1.
</event>
<event>
 5   0  0.1187925E-07  0.3956946E+04  0.7818609E-02  0.8013289E-01
       -3   -1    0    0    0  501  0.00000000000E+00  0.00000000000E+00  0.18204673505E+04  0.18204673533E+04  0.10100000352E+00 0.  1.
        3   -1    0    0  501    0  0.00000000000E+00  0.00000000000E+00 -0.21501930391E+04  0.21501930414E+04  0.10100000352E+00 0. -1.
    10030    2    1    2    0    0  0.00000000000E+00  0.00000000000E+00 -0.32972568856E+03  0.39706603947E+04  0.39569464162E+04 0.  0.
        5    1    3    3  502    0  0.16524188464E+04  0.89306527034E+03  0.45880590181E+03  0.19335404228E+04  0.46999998093E+01 0.  1.
       -5    1    3    3    0  502 -0.16524188464E+04 -0.89306527034E+03 -0.78853159037E+03  0.20371199719E+04  0.46999998093E+01 0. -1.
</event>
<event>
 5   0  0.3832389E-07  0.3430234E+04  0.7818609E-02  0.8130525E-01
        2   -1    0    0  501    0  0.00000000000E+00  0.00000000000E+00  0.27838932667E+04  0.27838932667E+04  0.25500000920E-02 0.  1.
       -2   -1    0    0    0  501  0.00000000000E+00  0.00000000000E+00 -0.10566594269E+04  0.10566594269E+04  0.25500000920E-02 0. -1.
    10030    2    1    2    0    0  0.00000000000E+00  0.00000000000E+00  0.17272338398E+04  0.38405526936E+04  0.34302344315E+04 0.  0.
        5    1    3    3  502    0 -0.47154502581E+03 -0.37647284338E+03  0.26611248641E+04  0.27286799273E+04  0.46999998093E+01 0.  1.
       -5    1    3    3    0  502  0.47154502581E+03  0.37647284338E+03 -0.93389102432E+03  0.11118727663E+04  0.46999998093E+01 0. -1.
</event>
<event>
 5   0  0.3680814E-07  0.3900219E+04  0.7818609E-02  0.8024984E-01
        2   -1    0    0  501    0  0.00000000000E+00  0.00000000000E+00  0.12859536453E+04  0.12859536453E+04  0.25500000920E-02 0. -1.
       -2   -1    0    0    0  501  0.00000000000E+00  0.00000000000E+00 -0.29572808669E+04  0.29572808669E+04  0.25500000920E-02 0.  1.
    10030    2    1    2    0    0  0.00000000000E+00  0.00000000000E+00 -0.16713272217E+04  0.42432345122E+04  0.39002185123E+04 0.  0.
        1    1    3    3  502    0  0.80037018877E+03 -0.11714764420E+02 -0.27703141014E+04  0.28836383087E+04  0.50400001928E-02 0.  1.
       -1    1    3    3    0  502 -0.80037018877E+03  0.11714764420E+02  0.10989868797E+04  0.13595962035E+04  0.50400001928E-02 0. -1.
</event>
<event>
 5   0  0.3610483E-07  0.3918506E+04  0.7818609E-02  0.8021191E-01
       -2   -1    0    0    0  501  0.00000000000E+00  0.00000000000E+00  0.19917313893E+04  0.19917313893E+04  0.25500000920E-02 0.  1.
        2   -1    0    0  501    0  0.00000000000E+00  0.00000000000E+00 -0.19273037905E+04  0.19273037905E+04  0.25500000920E-02 0. -1.
    10030    2    1    2    0    0  0.00000000000E+00  0.00000000000E+00  0.64427598761E+02  0.39190351799E+04  0.39185055602E+04 0.  0.
        4    1    3    3  502    0  0.12291457695E+04  0.12647876073E+04 -0.82123782953E+03  0.19454871369E+04  0.12699999809E+01 0. -1.
       -4    1    3    3    0  502 -0.12291457695E+04 -0.12647876073E+04  0.88566542829E+03  0.19735480430E+04  0.12699999809E+01 0.  1.
</event>
<event>
 5   0  0.1187925E-07  0.3913211E+04  0.7818609E-02  0.8022287E-01
        1   -1    0    0  501    0  0.00000000000E+00  0.00000000000E+00  0.23434630876E+04  0.23434630876E+04  0.50400001928E-02 0. -1.
       -1   -1    0    0    0  501  0.00000000000E+00  0.00000000000E+00 -0.16336098863E+04  0.16336098863E+04  0.50400001928E-02 0.  1.
    10030    2    1    2    0    0  0.00000000000E+00  0.00000000000E+00  0.70985320128E+03  0.39770729739E+04  0.39132106859E+04 0.  0.
        3    1    3    3  502    0 -0.52895750241E+03  0.28402036724E+03 -0.15376780721E+04  0.16507324048E+04  0.10100000352E+00 0.  1.
       -3    1    3    3    0  502  0.52895750241E+03 -0.28402036724E+03  0.22475312734E+04  0.23263405691E+04  0.10100000352E+00 0. -1.
</event>
<event>
 5   0  0.1187925E-07  0.3871416E+04  0.7818609E-02  0.8031001E-01
        1   -1    0    0  501    0  0.00000000000E+00  0.00000000000E+00  0.17265409123E+04  0.17265409123E+04  0.50400001928E-02 0.  1.
       -1   -1    0    0    0  501  0.00000000000E+00  0.00000000000E+00 -0.21702151637E+04  0.21702151637E+04  0.50400001928E-02 0. -1.
    10030    2    1    2    0    0  0.00000000000E+00  0.00000000000E+00 -0.44367425139E+03  0.38967560760E+04  0.38714159005E+04 0.  0.
        4    1    3    3  502    0 -0.21179576080E+03 -0.11173876360E+04 -0.17984713294E+04  0.21278894024E+04  0.12699999809E+01 0. -1.
       -4    1    3    3    0  502  0.21179576080E+03  0.11173876360E+04  0.13547970780E+04  0.17688666736E+04  0.12699999809E+01 0.  1.
</event>
<event>
 5   0  0.3680814E-07  0.3980153E+04  0.7818609E-02  0.8008562E-01
        2   -1    0    0  501    0  0.00000000000E+00  0.00000000000E+00  0.27328326047E+04  0.27328326047E+04  0.25500000920E-02 0. -1.
       -2   -1    0    0    0  501  0.00000000000E+00  0.00000000000E+00 -0.14491936943E+04  0.14491936943E+04  0.25500000920E-02 0.  1.
    10030    2    1    2    0    0  0.00000000000E+00  0.00000000000E+00  0.12836389103E+04  0.41820262990E+04  0.39801526495E+04 0.  0.
        1    1    3    3  502    0 -0.84106777875E+03 -0.21933698471E+03 -0.12392042828E+04  0.15136482338E+04  0.50400001928E-02 0.  1.
       -1    1    3    3    0  502  0.84106777875E+03  0.21933698471E+03  0.25228431931E+04  0.26683780651E+04  0.50400001928E-02 0. -1.
</event>
<event>
 5   0  0.1187925E-07  0.3249155E+04  0.7818609E-02  0.8175955E-01
       -1   -1    0    0    0  501  0.00000000000E+00  0.00000000000E+00  0.15959412322E+04  0.15959412322E+04  0.50400001928E-02 0. -1.
        1   -1    0    0  501    0  0.00000000000E+00  0.00000000000E+00 -0.16537274297E+04  0.16537274297E+04  0.50400001928E-02 0.  1.
    10030    2    1    2    0    0  0.00000000000E+00  0.00000000000E+00 -0.57786197481E+02  0.32496686619E+04  0.32491548390E+04 0.  0.
        1    1    3    3  502    0  0.16550910191E+03 -0.72840096526E+03  0.14140029084E+04  0.15991764925E+04  0.50400001928E-02 0. -1.
       -1    1    3    3    0  502 -0.16550910191E+03  0.72840096526E+03 -0.14717891059E+04  0.16504921694E+04  0.50400001928E-02 0.  1.
</event>
<event>
 5   0  0.3610483E-07  0.3978522E+04  0.7818609E-02  0.8008893E-01
       -2   -1    0    0    0  501  0.00000000000E+00  0.00000000000E+00  0.27898492837E+04  0.27898492837E+04  0.25500000920E-02 0. -1.
        2   -1    0    0  501    0  0.00000000000E+00  0.00000000000E+00 -0.14184136388E+04  0.14184136388E+04  0.25500000920E-02 0.  1.
    10030    2    1    2    0    0  0.00000000000E+00  0.00000000000E+00  0.13714356449E+04  0.42082629225E+04  0.39785224766E+04 0.  0.
        4    1    3    3  502    0  0.52747990121E+03  0.54454716603E+03 -0.12596109887E+04  0.14701660171E+04  0.12699999809E+01 0.  1.
       -4    1    3    3    0  502 -0.52747990121E+03 -0.54454716603E+03  0.26310466336E+04  0.27380969054E+04  0.12699999809E+01 0. -1.
</event>
<event>
 5   0  0.3810833E-07  0.3911579E+04  0.7818609E-02  0.8022625E-01
       -2   -1    0    0    0  501  0.00000000000E+00  0.00000000000E+00  0.18483646269E+04  0.18483646269E+04  0.25500000920E-02 0.  1.
        2   -1    0    0  501    0  0.00000000000E+00  0.00000000000E+00 -0.20694574644E+04  0.20694574644E+04  0.25500000920E-02 0. -1.
    10030    2    1    2    0    0  0.00000000000E+00  0.00000000000E+00 -0.22109283745E+03  0.39178220913E+04  0.39115786962E+04 0.  0.
        3    1    3    3  502    0  0.13979880915E+04 -0.14937954847E+03 -0.14722851550E+04  0.20357574859E+04  0.10100000352E+00 0. -1.
       -3    1    3    3    0  502 -0.13979880915E+04  0.14937954847E+03  0.12511923176E+04  0.18820646055E+04  0.10100000352E+00 0.  1.
</event>
<event>
 5   0  0.3832389E-07  0.3868954E+04  0.7818609E-02  0.8031517E-01
       -2   -1    0    0    0  501  0.00000000000E+00  0.00000000000E+00  0.15697749727E+04  0.15697749727E+04  0.25500000920E-02 0. -1.
        2   -1    0    0  501    0  0.00000000000E+00  0.00000000000E+00 -0.23839090885E+04  0.23839090885E+04  0.25500000920E-02 0.  1.
    10030    2    1    2    0    0  0.00000000000E+00  0.00000000000E+00 -0.81413411579E+03  0.39536840612E+04  0.38689537729E+04 0.  0.
        5    1    3    3  502    0  0.36674234603E+03 -0.56582948711E+03 -0.22599259414E+04  0.23583787456E+04  0.46999998093E+01 0.  1.
       -5    1    3    3    0  502 -0.36674234603E+03  0.56582948711E+03  0.14457918257E+04  0.15953053156E+04  0.46999998093E+01 0. -1.
</event>
<event>
 5   0  0.1187925E-07  0.3409932E+04  0.7818609E-02  0.8135473E-01
        1   -1    0    0  501    0  0.00000000000E+00  0.00000000000E+00  0.27158211706E+04  0.27158211706E+04  0.50400001928E-02 0.  1.
       -1   -1    0    0    0  501  0.00000000000E+00  0.00000000000E+00 -0.10703612850E+04  0.10703612850E+04  0.50400001928E-02 0. -1.
    10030    2    1    2    0    0  0.00000000000E+00  0.00000000000E+00  0.16454598856E+04  0.37861824556E+04  0.34099324556E+04 0.  0.
        4    1    3    3  502    0 -0.49644144169E+03  0.14310488726E+04  0.16917457663E+04  0.22707620596E+04  0.12699999809E+01 0.  1.
       -4    1    3    3    0  502  0.49644144169E+03 -0.14310488726E+04 -0.46285880682E+02  0.15154203960E+04  0.12699999809E+01 0. -1.
</event>
<event>
 5   0  0.1187925E-07  0.3901845E+04  0.7818609E-02  0.8024646E-01
        1   -1    0    0  501    0  0.00000000000E+00  0.00000000000E+00  0.16460843072E+04  0.16460843072E+04  0.50400001928E-02 0. -1.
       -1   -1    0    0    0  501  0.00000000000E+00  0.00000000000E+00 -0.23122133920E+04  0.23122133920E+04  0.50400001928E-02 0.  1.
    10030    2    1    2    0    0  0.00000000000E+00  0.00000000000E+00 -0.66612908480E+03  0.39582976993E+04  0.39018447840E+04 0.  0.
        4    1    3    3  502    0 -0.12807872840E+04  0.19788866649E+03 -0.18124224564E+04  0.22281051961E+04  0.12699999809E+01 0.  1.
       -4    1    3    3    0  502  0.12807872840E+04 -0.19788866649E+03  0.11462933717E+04  0.17301925032E+04  0.12699999809E+01 0. -1.
</event>
<event>
 5   0  0.1187925E-07  0.3889138E+04  0.7818609E-02  0.8027292E-01
        1   -1    0    0  501    0  0.00000000000E+00  0.00000000000E+00  0.22343765400E+04  0.22343765400E+04  0.50400001928E-02 0. -1.
       -1   -1    0    0    0  501  0.00000000000E+00  0.00000000000E+00 -0.16923510488E+04  0.16923510489E+04  0.50400001928E-02 0.  1.
    10030    2    1    2    0    0  0.00000000000E+00  0.00000000000E+00  0.54202549119E+03  0.39267275889E+04  0.38891384553E+04 0.  0.
        1    1    3    3  502    0  0.42670570505E+03 -0.18869950449E+03 -0.16349998116E+04  0.17002675218E+04  0.50400001928E-02 0.  1.
       -1    1    3    3    0  502 -0.42670570505E+03  0.18869950449E+03  0.21770253028E+04  0.22264600671E+04  0.50400001928E-02 0. -1.
</event>
<event>
 5   0  0.3832389E-07  0.3916952E+04  0.7818609E-02  0.8021513E-01
        2   -1    0    0  501    0  0.00000000000E+00  0.00000000000E+00  0.20940780345E+04  0.20940780345E+04  0.25500000920E-02 0.  1.
       -2   -1    0    0    0  501  0.00000000000E+00  0.00000000000E+00 -0.18316548012E+04  0.18316548012E+04  0.25500000920E-02 0. -1.
    10030    2    1    2    0    0  0.00000000000E+00  0.00000000000E+00  0.26242323328E+03  0.39257328357E+04  0.39169519201E+04 0.  0.
        5    1    3    3  502    0  0.76786928779E+03 -0.86512029289E+03  0.17151181985E+04  0.20687457285E+04  0.46999998093E+01 0.  1.
       -5    1    3    3    0  502 -0.76786928779E+03  0.86512029289E+03 -0.14526949653E+04  0.18569871072E+04  0.46999998093E+01 0. -1.
</event>
<event>
 5   0  0.3610483E-07  0.3894227E+04  0.7818609E-02  0.8026231E-01
       -2   -1    0    0    0  501  0.00000000000E+00  0.00000000000E+00  0.20604771715E+04  0.20604771715E+04  0.25500000920E-02 0. -1.
        2   -1    0    0  501    0  0.00000000000E+00  0.00000000000E+00 -0.18399866575E+04  0.18399866575E+04  0.25500000920E-02 0.  1.
    10030    2    1    2    0    0  0.00000000000E+00  0.00000000000E+00  0.22049051395E+03  0.39004638290E+04  0.38942267544E+04 0.  0.
        4    1    3    3  502    0 -0.12282870808E+04  0.32290546987E+03  0.15885128167E+04  0.20337973540E+04  0.12699999809E+01 0. -1.
       -4    1    3    3    0  502  0.12282870808E+04 -0.32290546987E+03 -0.13680223028E+04  0.18666664750E+04  0.12699999809E+01 0.  1.
</event>
<event>
 5   0  0.3680814E-07  0.3958193E+04  0.7818609E-02  0.8013034E-01
       -2   -1    0    0    0  501  0.00000000000E+00  0.00000000000E+00  0.22669061863E+04  0.22669061863E+04  0.25500000920E-02 0.  1.
        2   -1    0    0  501    0  0.00000000000E+00  0.00000000000E+00 -0.17278273706E+04  0.17278273706E+04  0.25500000920E-02 0. -1.
    10030    2    1    2    0    0  0.00000000000E+00  0.00000000000E+00  0.53907881565E+03  0.39947335569E+04  0.39581927974E+04 0.  0.
        1    1    3    3  502    0  0.69829734548E+03 -0.46172615851E+03 -0.15403403632E+04  0.17531282505E+04  0.50400001928E-02 0. -1.
       -1    1    3    3    0  502 -0.69829734548E+03  0.46172615851E+03  0.20794191789E+04  0.22416053064E+04  0.50400001928E-02 0.  1.
</event>
<event>
 5   0  0.3680814E-07  0.3942110E+04  0.7818609E-02  0.8016328E-01
       -2   -1    0    0    0  501  0.00000000000E+00  0.00000000000E+00  0.19002616606E+04  0.19002616606E+04  0.25500000920E-02 0.  1.
        2   -1    0    0  501    0  0.00000000000E+00  0.00000000000E+00 -0.20444852826E+04  0.20444852826E+04  0.25500000920E-02 0. -1.
    10030    2    1    2    0    0  0.00000000000E+00  0.00000000000E+00 -0.14422362200E+03  0.39447469431E+04  0.39421095865E+04 0.  0.
        1    1    3    3  502    0  0.55679470186E+03 -0.63980273702E+03  0.17083168906E+04  0.19072793401E+04  0.50400001928E-02 0.  1.
       -1    1    3    3    0  502 -0.55679470186E+03  0.63980273702E+03 -0.18525405126E+04  0.20374676030E+04  0.50400001928E-02 0. -1.
</event>
<event>
 5   0  0.1187925E-07  0.3969151E+04  0.7818609E-02  0.8010799E-01
        1   -1    0    0  501    0  0.00000000000E+00  0.00000000000E+00  0.14202164676E+04  0.14202164676E+04  0.50400001928E-02 0. -1.
       -1   -1    0    0    0  501  0.00000000000E+00  0.00000000000E+00 -0.27731965515E+04  0.27731965515E+04  0.50400001928E-02 0.  1.
    10030    2    1    2    0    0  0.00000000000E+00  0.00000000000E+00 -0.13529800839E+04  0.41934130192E+04  0.39691507457E+04 0.  0.
        2    1    3    3  502    0 -0.12106165988E+04  0.12189736451E+04 -0.17261282889E+04  0.24353661257E+04  0.25500000920E-02 0.  1.
       -2    1    3    3    0  502  0.12106165988E+04 -0.12189736451E+04  0.37314820494E+03  0.17580468934E+04  0.25500000920E-02 0. -1.
</event>
<event>
 5   0  0.1187925E-07  0.3926483E+04  0.7818609E-02  0.8019544E-01
       -1   -1    0    0    0  501  0.00000000000E+00  0.00000000000E+00  0.22772750612E+04  0.22772750612E+04  0.50400001928E-02 0.  1.
        1   -1    0    0  501    0  0.00000000000E+00  0.00000000000E+00 -0.16925123937E+04  0.16925123937E+04  0.50400001928E-02 0. -1.
    10030    2    1    2    0    0  0.00000000000E+00  0.00000000000E+00  0.58476266752E+03  0.39697874548E+04  0.39264825301E+04 0.  0.
        5    1    3    3  502    0 -0.60213176947E+03 -0.15935212314E+04  0.12790655973E+04  0.21302355445E+04  0.46999998093E+01 0.  1.
       -5    1    3    3    0  502  0.60213176947E+03  0.15935212314E+04 -0.69430292980E+03  0.18395519104E+04  0.46999998093E+01 0. -1.
</event>
<event>
 5   0  0.3832389E-07  0.2879558E+04  0.7818609E-02  0.8278986E-01
        2   -1    0    0  501    0  0.00000000000E+00  0.00000000000E+00  0.15167874764E+04  0.15167874764E+04  0.25500000920E-02 0.  1.
       -2   -1    0    0    0  501  0.00000000000E+00  0.00000000000E+00 -0.13666801904E+04  0.13666801905E+04  0.25500000920E-02 0. -1.
    10030    2    1    2    0    0  0.00000000000E+00  0.00000000000E+00  0.15010728596E+03  0.28834676669E+04  0.28795578807E+04 0.  0.
        5    1    3    3  502    0 -0.82146031941E+03 -0.24125449609E+03  0.12341833421E+04  0.15020756972E+04  0.46999998093E+01 0.  1.
       -5    1    3    3    0  502  0.82146031941E+03  0.24125449609E+03 -0.10840760562E+04  0.13813919696E+04  0.46999998093E+01 0. -1.
</event>
<event>
 5   0  0.1187925E-07  0.3180059E+04  0.7818609E-02  0.8194104E-01
        1   -1    0    0  501    0  0.00000000000E+00  0.00000000000E+00  0.20896943175E+04  0.20896943175E+04  0.50400001928E-02 0.  1.
       -1   -1    0    0    0  501  0.00000000000E+00  0.00000000000E+00 -0.12098389003E+04  0.12098389003E+04  0.50400001928E-02 0. -1.
    10030    2    1    2    0    0  0.00000000000E+00  0.00000000000E+00  0.87985541723E+03  0.32995332179E+04  0.31800587888E+04 0.  0.
        4    1    3    3  502    0 -0.32055323459E+03 -0.15075166738E+04  0.34304279015E+02  0.15416028329E+04  0.12699999809E+01 0. -1.
       -4    1    3    3    0  502  0.32055323459E+03  0.15075166738E+04  0.84555113821E+03  0.17579303849E+04  0.12699999809E+01 0.  1.
</event>
<event>
 5   0  0.3665303E-07  0.3385948E+04  0.7818609E-02  0.8141364E-01
        2   -1    0    0  501    0  0.00000000000E+00  0.00000000000E+00  0.26284828551E+04  0.26284828551E+04  0.25500000920E-02 0.  1.
       -2   -1    0    0    0  501  0.00000000000E+00  0.00000000000E+00 -0.10904241230E+04  0.10904241230E+04  0.25500000920E-02 0. -1.
    10030    2    1    2    0    0  0.00000000000E+00  0.00000000000E+00  0.15380587320E+04  0.37189069781E+04  0.33859480871E+04 0.  0.
        2    1    3    3  502    0 -0.69260678662E+03 -0.16167069801E+03 -0.91837986523E+03  0.11615778718E+04  0.25500000920E-02 0. -1.
       -2    1    3    3    0  502  0.69260678662E+03  0.16167069801E+03  0.24564385973E+04  0.25573291062E+04  0.25500000920E-02 0.  1.
</event>
<event>
 5   0  0.1187925E-07  0.3870398E+04  0.7818609E-02  0.8031214E-01
       -1   -1    0    0    0  501  0.00000000000E+00  0.00000000000E+00  0.17846704950E+04  0.17846704950E+04  0.50400001928E-02 0. -1.
        1   -1    0    0  501    0  0.00000000000E+00  0.00000000000E+00 -0.20984236118E+04  0.20984236118E+04  0.50400001928E-02 0.  1.
    10030    2    1    2    0    0  0.00000000000E+00  0.00000000000E+00 -0.31375311675E+03  0.38830941068E+04  0.38703977604E+04 0.  0.
        1    1    3    3  502    0  0.11333574328E+04  0.18717512525E+03 -0.17193745711E+04  0.20677965359E+04  0.50400001928E-02 0.  1.
       -1    1    3    3    0  502 -0.11333574328E+04 -0.18717512525E+03  0.14056214544E+04  0.18152975709E+04  0.50400001928E-02 0. -1.
</event>
<event>
 5   0  0.3810833E-07  0.3861211E+04  0.7818609E-02  0.8033145E-01
        2   -1    0    0  501    0  0.00000000000E+00  0.00000000000E+00  0.24499585550E+04  0.24499585550E+04  0.25500000920E-02 0. -1.
       -2   -1    0    0    0  501  0.00000000000E+00  0.00000000000E+00 -0.15213468112E+04  0.15213468112E+04  0.25500000920E-02 0.  1.
    10030    2    1    2    0    0  0.00000000000E+00  0.00000000000E+00  0.92861174381E+03  0.39713053663E+04  0.38612105021E+04 0.  0.
        3    1    3    3  502    0 -0.13300636691E+04 -0.85692033460E+03 -0.67351724212E+03  0.17195951004E+04  0.10100000352E+00 0.  1.
       -3    1    3    3    0  502  0.13300636691E+04  0.85692033460E+03  0.16021289859E+04  0.22517102659E+04  0.10100000352E+00 0. -1.
</event>
<event>
 5   0  0.3832389E-07  0.3885176E+04  0.7818609E-02  0.8028119E-01
        2   -1    0    0  501    0  0.00000000000E+00  0.00000000000E+00  0.23289725996E+04  0.23289725996E+04  0.25500000920E-02 0.  1.
       -2   -1    0    0    0  501  0.00000000000E+00  0.00000000000E+00 -0.16203058641E+04  0.16203058641E+04  0.25500000920E-02 0. -1.
    10030    2    1    2    0    0  0.00000000000E+00  0.00000000000E+00  0.70866673554E+03  0.39492784637E+04  0.38851759087E+04 0.  0.
        5    1    3    3  502    0 -0.12529202424E+04 -0.13412426287E+04 -0.29247091292E+03  0.18585753274E+04  0.46999998093E+01 0. -1.
       -5    1    3    3    0  502  0.12529202424E+04  0.13412426287E+04  0.10011376485E+04  0.20907031363E+04  0.46999998093E+01 0.  1.
</event>
<event>
 5   0  0.1187925E-07  0.3835819E+04  0.7818609E-02  0.8038512E-01
        1   -1    0    0  501    0  0.00000000000E+00  0.00000000000E+00  0.23648989294E+04  0.23648989294E+04  0.50400001928E-02 0.  1.
       -1   -1    0    0    0  501  0.00000000000E+00  0.00000000000E+00 -0.15554057077E+04  0.15554057077E+04  0.50400001928E-02 0. -1.
    10030    2    1    2    0    0  0.00000000000E+00  0.00000000000E+00  0.80949322165E+03  0.39203046371E+04  0.38358192309E+04 0.  0.
        1    1    3    3  502    0  0.25469557001E+02 -0.69882939972E+03  0.22299609357E+04  0.23370359439E+04  0.50400001928E-02 0.  1.
       -1    1    3    3    0  502 -0.25469557001E+02  0.69882939972E+03 -0.14204677141E+04  0.15832686932E+04  0.50400001928E-02 0. -1.
</event>
<event>
 5   0  0.1187925E-07  0.3897862E+04  0.7818609E-02  0.8025474E-01
        1   -1    0    0  501    0  0.00000000000E+00  0.00000000000E+00  0.29334667865E+04  0.29334667865E+04  0.50400001928E-02 0. -1.
       -1   -1    0    0    0  501  0.00000000000E+00  0.00000000000E+00 -0.12948273033E+04  0.12948273033E+04  0.50400001928E-02 0.  1.
    10030    2    1    2    0    0  0.00000000000E+00  0.00000000000E+00  0.16386394832E+04  0.42282940898E+04  0.38978624340E+04 0.  0.
        4    1    3    3  502    0 -0.17239896885E+04 -0.62252764133E+03  0.10086762743E+03  0.18357170266E+04  0.12699999809E+01 0. -1.
       -4    1    3    3    0  502  0.17239896885E+04  0.62252764133E+03  0.15377718558E+04  0.23925770633E+04  0.12699999809E+01 0.  1.
</event>
<event>
 5   0  0.1187925E-07  0.3864998E+04  0.7818609E-02  0.8032349E-01
        3   -1    0    0  501    0  0.00000000000E+00  0.00000000000E+00  0.31358007412E+04  0.31358007429E+04  0.10100000352E+00 0.  1.
       -3   -1    0    0    0  501  0.00000000000E+00  0.00000000000E+00 -0.11909406421E+04  0.11909406464E+04  0.10100000352E+00 0. -1.
    10030    2    1    2    0    0  0.00000000000E+00  0.00000000000E+00  0.19448600991E+04  0.43267413892E+04  0.38649980911E+04 0.  0.
        3    1    3    3  502    0 -0.16464819189E+04 -0.37772920050E+03 -0.78302861596E+02  0.16910687172E+04  0.10100000352E+00 0. -1.
       -3    1    3    3    0  502  0.16464819189E+04  0.37772920050E+03  0.20231629607E+04  0.26356726720E+04  0.10100000352E+00 0.  1.
</event>
<event>
 5   0  0.1187925E-07  0.3854807E+04  0.7818609E-02  0.8034495E-01
        1   -1    0    0  501    0  0.00000000000E+00  0.00000000000E+00  0.16125417143E+04  0.16125417143E+04  0.50400001928E-02 0. -1.
       -1   -1    0    0    0  501  0.00000000000E+00  0.00000000000E+00 -0.23037447707E+04  0.23037447707E+04  0.50400001928E-02 0.  1.
    10030    2    1    2    0    0  0.00000000000E+00  0.00000000000E+00 -0.69120305634E+03  0.39162864850E+04  0.38548071505E+04 0.  0.
        5    1    3    3  502    0 -0.10769419816E+04 -0.91742754412E+02 -0.19668729220E+04  0.22442887395E+04  0.46999998093E+01 0.  1.
       -5    1    3    3    0  502  0.10769419816E+04  0.91742754412E+02  0.12756698657E+04  0.16719977455E+04  0.46999998093E+01 0. -1.
</event>
<event>
 5   0  0.3832389E-07  0.3567393E+04  0.7818609E-02  0.8098002E-01
       -2   -1    0    0    0  501  0.00000000000E+00  0.00000000000E+00  0.14783729363E+04  0.14783729363E+04  0.25500000920E-02 0. -1.
        2   -1    0    0  501    0  0.00000000000E+00  0.00000000000E+00 -0.21520781501E+04  0.21520781501E+04  0.25500000920E-02 0.  1.
    10030    2    1    2    0    0  0.00000000000E+00  0.00000000000E+00 -0.67370521378E+03  0.36304510864E+04  0.35673934988E+04 0.  0.
        5    1    3    3  502    0 -0.10552004610E+04  0.18403990306E+02  0.11265377642E+04  0.15436632223E+04  0.46999998093E+01 0. -1.
       -5    1    3    3    0  502  0.10552004610E+04 -0.18403990306E+02 -0.18002429780E+04  0.20867878640E+04  0.46999998093E+01 0.  1.
</event>
<event>
 5   0  0.3832389E-07  0.3891500E+04  0.7818609E-02  0.8026799E-01
       -2   -1    0    0    0  501  0.00000000000E+00  0.00000000000E+00  0.26727868990E+04  0.26727868990E+04  0.25500000920E-02 0. -1.
        2   -1    0    0  501    0  0.00000000000E+00  0.00000000000E+00 -0.14164774108E+04  0.14164774108E+04  0.25500000920E-02 0.  1.
    10030    2    1    2    0    0  0.00000000000E+00  0.00000000000E+00  0.12563094882E+04  0.40892643098E+04  0.38914995909E+04 0.  0.
        5    1    3    3  502    0 -0.14996184070E+04 -0.10216335921E+04  0.13662234402E+04  0.22713826498E+04  0.46999998093E+01 0. -1.
       -5    1    3    3    0  502  0.14996184070E+04  0.10216335921E+04 -0.10991395205E+03  0.18178816601E+04  0.46999998093E+01 0.  1.
</event>
<event>
 5   0  0.3810833E-07  0.3912555E+04  0.7818609E-02  0.8022423E-01
        2   -1    0    0  501    0  0.00000000000E+00  0.00000000000E+00  0.24461684624E+04  0.24461684624E+04  0.25500000920E-02 0. -1.
       -2   -1    0    0    0  501  0.00000000000E+00  0.00000000000E+00 -0.15644967555E+04  0.15644967555E+04  0.25500000920E-02 0.  1.
    10030    2    1    2    0    0  0.00000000000E+00  0.00000000000E+00  0.88167170684E+03  0.40106652179E+04  0.39125554937E+04 0.  0.
        3    1    3    3  502    0  0.42994417522E+03  0.25119024763E+03 -0.14984473900E+04  0.15790165056E+04  0.10100000352E+00 0.  1.
       -3    1    3    3    0  502 -0.42994417522E+03 -0.25119024763E+03  0.23801190968E+04  0.24316487122E+04  0.10100000352E+00 0. -1.
</event>
<event>
 5   0  0.3832389E-07  0.4002840E+04  0.7818609E-02  0.8003974E-01
        2   -1    0    0  501    0  0.00000000000E+00  0.00000000000E+00  0.13787196973E+04  0.13787196973E+04  0.25500000920E-02 0.  1.
       -2   -1    0    0    0  501  0.00000000000E+00  0.00000000000E+00 -0.29053630016E+04  0.29053630016E+04  0.25500000920E-02 0. -1.
    10030    2    1    2    0    0  0.00000000000E+00  0.00000000000E+00 -0.15266433043E+04  0.42840826989E+04  0.40028395911E+04 0.  0.
        5    1    3    3  502    0  0.14463304851E+04 -0.65110954074E+03  0.54302970037E+03  0.16765198631E+04  0.46999998093E+01 0.  1.
       -5    1    3    3    0  502 -0.14463304851E+04  0.65110954074E+03 -0.20696730047E+04  0.26075628357E+04  0.46999998093E+01 0. -1.
</event>
<event>
 5   0  0.1187925E-07  0.3539974E+04  0.7818609E-02  0.8104381E-01
        1   -1    0    0  501    0  0.00000000000E+00  0.00000000000E+00  0.22067717668E+04  0.22067717669E+04  0.50400001928E-02 0.  1.
       -1   -1    0    0    0  501  0.00000000000E+00  0.00000000000E+00 -0.14196549575E+04  0.14196549575E+04  0.50400001928E-02 0. -1.
    10030    2    1    2    0    0  0.00000000000E+00  0.00000000000E+00  0.78711680938E+03  0.36264267243E+04  0.35399742817E+04 0.  0.
        2    1    3    3  502    0 -0.14669195631E+04  0.81979362722E+03  0.96295620944E+03  0.19368012952E+04  0.25500000920E-02 0.  1.
       -2    1    3    3    0  502  0.14669195631E+04 -0.81979362722E+03 -0.17583940006E+03  0.16896254291E+04  0.25500000920E-02 0. -1.
</event>
<event>
 5   0  0.3810833E-07  0.3922061E+04  0.7818609E-02  0.8020456E-01
        2   -1    0    0  501    0  0.00000000000E+00  0.00000000000E+00  0.22448729233E+04  0.22448729233E+04  0.25500000920E-02 0.  1.
       -2   -1    0    0    0  501  0.00000000000E+00  0.00000000000E+00 -0.17130774803E+04  0.17130774803E+04  0.25500000920E-02 0. -1.
    10030    2    1    2    0    0  0.00000000000E+00  0.00000000000E+00  0.53179544292E+03  0.39579504036E+04  0.39220613208E+04 0.  0.
        3    1    3    3  502    0  0.22939170499E+03  0.25652755222E+03  0.22141632671E+04  0.22407467333E+04  0.10100000352E+00 0.  1.
       -3    1    3    3    0  502 -0.22939170499E+03 -0.25652755222E+03 -0.16823678242E+04  0.17172036703E+04  0.10100000352E+00 0. -1.
</event>
<event>
 5   0  0.3665303E-07  0.3906674E+04  0.7818609E-02  0.8023643E-01
        2   -1    0    0  501    0  0.00000000000E+00  0.00000000000E+00  0.27013374212E+04  0.27013374212E+04  0.25500000920E-02 0.  1.
       -2   -1    0    0    0  501  0.00000000000E+00  0.00000000000E+00 -0.14124580325E+04  0.14124580325E+04  0.25500000920E-02 0. -1.
    10030    2    1    2    0    0  0.00000000000E+00  0.00000000000E+00  0.12888793886E+04  0.41137954537E+04  0.39066741554E+04 0.  0.
        2    1    3    3  502    0  0.10789331287E+04 -0.16201041552E+04  0.47240241858E+03  0.20029973078E+04  0.25500000920E-02 0. -1.
       -2    1    3    3    0  502 -0.10789331287E+04  0.16201041552E+04  0.81647697005E+03  0.21107981459E+04  0.25500000920E-02 0.  1.
</event>
<event>
 5   0  0.3810833E-07  0.4002909E+04  0.7818609E-02  0.8003960E-01
        2   -1    0    0  501    0  0.00000000000E+00  0.00000000000E+00  0.16123978260E+04  0.16123978260E+04  0.25500000920E-02 0. -1.
       -2   -1    0    0    0  501  0.00000000000E+00  0.00000000000E+00 -0.24843874301E+04  0.24843874301E+04  0.25500000920E-02 0.  1.
    10030    2    1    2    0    0  0.00000000000E+00  0.00000000000E+00 -0.87198960409E+03  0.40967852561E+04  0.40029093876E+04 0.  0.
        3    1    3    3  502    0 -0.13076926763E+04 -0.48291330837E+03  0.10338458696E+04  0.17355410371E+04  0.10100000352E+00 0. -1.
       -3    1    3    3    0  502  0.13076926763E+04  0.48291330837E+03 -0.19058354736E+04  0.23612442190E+04  0.10100000352E+00 0.  1.
</event>
<event>
 5   0  0.1187925E-07  0.2959015E+04  0.7818609E-02  0.8255532E-01
        1   -1    0    0  501    0  0.00000000000E+00  0.00000000000E+00  0.11298500500E+04  0.11298500500E+04  0.50400001928E-02 0. -1.
       -1   -1    0    0    0  501  0.00000000000E+00  0.00000000000E+00 -0.19373741495E+04  0.19373741495E+04  0.50400001928E-02 0.  1.
    10030    2    1    2    0    0  0.00000000000E+00  0.00000000000E+00 -0.80752409949E+03  0.30672241995E+04  0.29590148899E+04 0.  0.
        2    1    3    3  502    0  0.11421092257E+04  0.83601420641E+03  0.42816580258E+02  0.14160390165E+04  0.25500000920E-02 0.  1.
       -2    1    3    3    0  502 -0.11421092257E+04 -0.83601420641E+03 -0.85034067975E+03  0.16511851829E+04  0.25500000920E-02 0. -1.
</event>
<event>
 5   0  0.3665303E-07  0.3666580E+04  0.7818609E-02  0.8075409E-01
       -2   -1    0    0    0  501  0.00000000000E+00  0.00000000000E+00  0.12588033765E+04  0.12588033765E+04  0.25500000920E-02 0. -1.
        2   -1    0    0  501    0  0.00000000000E+00  0.00000000000E+00 -0.26699586215E+04  0.26699586215E+04  0.25500000920E-02 0.  1.
    10030    2    1    2    0    0  0.00000000000E+00  0.00000000000E+00 -0.14111552450E+04  0.39287619980E+04  0.36665803839E+04 0.  0.
        2    1    3    3  502    0 -0.33933954751E+03 -0.16266602202E+04 -0.15354089414E+04  0.22624445668E+04  0.25500000920E-02 0.  1.
       -2    1    3    3    0  502  0.33933954751E+03  0.16266602202E+04  0.12425369639E+03  0.16663174312E+04  0.25500000920E-02 0. -1.
</event>
<event>
 5   0  0.1187925E-07  0.3426254E+04  0.7818609E-02  0.8131493E-01
        1   -1    0    0  501    0  0.00000000000E+00  0.00000000000E+00  0.12300773212E+04  0.12300773213E+04  0.50400001928E-02 0. -1.
       -1   -1    0    0    0  501  0.00000000000E+00  0.00000000000E+00 -0.23858697204E+04  0.23858697204E+04  0.50400001928E-02 0.  1.
    10030    2    1    2    0    0  0.00000000000E+00  0.00000000000E+00 -0.11557923992E+04  0.36159470417E+04  0.34262540680E+04 0.  0.
        4    1    3    3  502    0 -0.56793877639E+03  0.60790043795E+03 -0.21583747079E+04  0.23131537754E+04  0.12699999809E+01 0.  1.
       -4    1    3    3    0  502  0.56793877639E+03 -0.60790043795E+03  0.10025823087E+04  0.13027932663E+04  0.12699999809E+01 0. -1.
</event>
<event>
 5   0  0.1187925E-07  0.3925992E+04  0.7818609E-02  0.8019645E-01
        1   -1    0    0  501    0  0.00000000000E+00  0.00000000000E+00  0.19347751635E+04  0.19347751635E+04  0.50400001928E-02 0.  1.
       -1   -1    0    0    0  501  0.00000000000E+00  0.00000000000E+00 -0.19916283814E+04  0.19916283814E+04  0.50400001928E-02 0. -1.
    10030    2    1    2    0    0  0.00000000000E+00  0.00000000000E+00 -0.56853217933E+02  0.39264035449E+04  0.39259919141E+04 0.  0.
        4    1    3    3  502    0  0.70852998516E+03  0.17912492454E+04 -0.40630602579E+03  0.19686733600E+04  0.12699999809E+01 0.  1.
       -4    1    3    3    0  502 -0.70852998516E+03 -0.17912492454E+04  0.34945280786E+03  0.19577301849E+04  0.12699999809E+01 0. -1.
</event>
<event>
 5   0  0.3610483E-07  0.3889530E+04  0.7818609E-02  0.8027210E-01
        2   -1    0    0  501    0  0.00000000000E+00  0.00000000000E+00  0.17085013111E+04  0.17085013111E+04  0.25500000920E-02 0.  1.
       -2   -1    0    0    0  501  0.00000000000E+00  0.00000000000E+00 -0.22137004630E+04  0.22137004630E+04  0.25500000920E-02 0. -1.
    10030    2    1    2    0    0  0.00000000000E+00  0.00000000000E+00 -0.50519915192E+03  0.39222017742E+04  0.38895296083E+04 0.  0.
        4    1    3    3  502    0 -0.16257723318E+04  0.19613037559E+03  0.80526239347E+03  0.18248429890E+04  0.12699999809E+01 0.  1.
       -4    1    3    3    0  502  0.16257723318E+04 -0.19613037559E+03 -0.13104615454E+04  0.20973587852E+04  0.12699999809E+01 0. -1.
</event>
<event>
 5   0  0.1187925E-07  0.3918927E+04  0.7818609E-02  0.8021104E-01
       -1   -1    0    0    0  501  0.00000000000E+00  0.00000000000E+00  0.15598623305E+04  0.15598623305E+04  0.50400001928E-02 0. -1.
        1   -1    0    0  501    0  0.00000000000E+00  0.00000000000E+00 -0.24614333485E+04  0.24614333485E+04  0.50400001928E-02 0.  1.
    10030    2    1    2    0    0  0.00000000000E+00  0.00000000000E+00 -0.90157101795E+03  0.40212956790E+04  0.39189269753E+04 0.  0.
        3    1    3    3  502    0  0.89518712026E+03  0.17425674581E+04 -0.49177676271E+03  0.20198380432E+04  0.10100000352E+00 0.  1.
       -3    1    3    3    0  502 -0.89518712026E+03 -0.17425674581E+04 -0.40979425524E+03  0.20014576358E+04  0.10100000352E+00 0. -1.
</event>
<event>
 5   0  0.1187925E-07  0.3952596E+04  0.7818609E-02  0.8014178E-01
        1   -1    0    0  501    0  0.00000000000E+00  0.00000000000E+00  0.26801099950E+04  0.26801099950E+04  0.50400001928E-02 0. -1.
       -1   -1    0    0    0  501  0.00000000000E+00  0.00000000000E+00 -0.14573107867E+04  0.14573107867E+04  0.50400001928E-02 0.  1.
    10030    2    1    2    0    0  0.00000000000E+00  0.00000000000E+00  0.12227992083E+04  0.41374207816E+04  0.39525957067E+04 0.  0.
        2    1    3    3  502    0  0.18974964149E+04 -0.32499593671E+03  0.14369771759E+03  0.19304828508E+04  0.25500000920E-02 0.  1.
       -2    1    3    3    0  502 -0.18974964149E+04  0.32499593671E+03  0.10791014907E+04  0.22069379308E+04  0.25500000920E-02 0. -1.
</event>
<event>
 5   0  0.3680814E-07  0.3911071E+04  0.7818609E-02  0.8022731E-01
       -2   -1    0    0    0  501  0.00000000000E+00  0.00000000000E+00  0.16047279767E+04  0.16047279767E+04  0.25500000920E-02 0. -1.
        2   -1    0    0  501    0  0.00000000000E+00  0.00000000000E+00 -0.23830326486E+04  0.23830326486E+04  0.25500000920E-02 0.  1.
    10030    2    1    2    0    0  0.00000000000E+00  0.00000000000E+00 -0.77830467190E+03  0.39877606253E+04  0.39110710352E+04 0.  0.
        1    1    3    3  502    0 -0.49304580593E+03  0.18847885592E+04 -0.21672972039E+03  0.19602280101E+04  0.50400001928E-02 0. -1.
       -1    1    3    3    0  502  0.49304580593E+03 -0.18847885592E+04 -0.56157495151E+03  0.20275326152E+04  0.50400001928E-02 0.  1.
</event>
<event>
 5   0  0.3810833E-07  0.3918827E+04  0.7818609E-02  0.8021125E-01
        2   -1    0    0  501    0  0.00000000000E+00  0.00000000000E+00  0.24904556800E+04  0.24904556800E+04  0.25500000920E-02 0.  1.
       -2   -1    0    0    0  501  0.00000000000E+00  0.00000000000E+00 -0.15416060195E+04  0.15416060195E+04  0.25500000920E-02 0. -1.
    10030    2    1    2    0    0  0.00000000000E+00  0.00000000000E+00  0.94884966049E+03  0.40320616994E+04  0.39188271038E+04 0.  0.
        3    1    3    3  502    0 -0.12177826629E+04  0.54667797144E+03 -0.10014030656E+04  0.16687299148E+04  0.10100000352E+00 0. -1.
       -3    1    3    3    0  502  0.12177826629E+04 -0.54667797144E+03  0.19502527261E+04  0.23633317846E+04  0.10100000352E+00 0.  1.
</event>
<event>
 5   0  0.3665303E-07  0.3866654E+04  0.7818609E-02  0.8032000E-01
       -2   -1    0    0    0  501  0.00000000000E+00  0.00000000000E+00  0.18325776720E+04  0.18325776720E+04  0.25500000920E-02 0. -1.
        2   -1    0    0  501    0  0.00000000000E+00  0.00000000000E+00 -0.20396155737E+04  0.20396155737E+04  0.25500000920E-02 0.  1.
    10030    2    1    2    0    0  0.00000000000E+00  0.00000000000E+00 -0.20703790162E+03  0.38721932457E+04  0.38666543470E+04 0.  0.
        2    1    3    3  502    0  0.18398426351E+04 -0.18832454772E+03  0.46055241855E+03  0.19059369316E+04  0.25500000920E-02 0.  1.
       -2    1    3    3    0  502 -0.18398426351E+04  0.18832454772E+03 -0.66759032016E+03  0.19662563141E+04  0.25500000920E-02 0. -1.
</event>
<event>
 5   0  0.1187925E-07  0.3921441E+04  0.7818609E-02  0.8020585E-01
        1   -1    0    0  501    0  0.00000000000E+00  0.00000000000E+00  0.23637172504E+04  0.23637172504E+04  0.50400001928E-02 0.  1.
       -1   -1    0    0    0  501  0.00000000000E+00  0.00000000000E+00 -0.16264320229E+04  0.16264320229E+04  0.50400001928E-02 0. -1.
    10030    2    1    2    0    0  0.00000000000E+00  0.00000000000E+00  0.73728522752E+03  0.39901492732E+04  0.39214412804E+04 0.  0.
        1    1    3    3  502    0  0.12557445316E+04  0.10823628192E+04 -0.69661103044E+03  0.17982409541E+04  0.50400001928E-02 0. -1.
       -1    1    3    3    0  502 -0.12557445316E+04 -0.10823628192E+04  0.14338962580E+04  0.21919083192E+04  0.50400001928E-02 0.  1.
</event>
<event>
 5   0  0.3610483E-07  0.3898613E+04  0.7818609E-02  0.8025318E-01
        2   -1    0    0  501    0  0.00000000000E+00  0.00000000000E+00  0.19296959788E+04  0.19296959788E+04  0.25500000920E-02 0.  1.
       -2   -1    0    0    0  501  0.00000000000E+00  0.00000000000E+00 -0.19691166551E+04  0.19691166551E+04  0.25500000920E-02 0. -1.
    10030    2    1    2    0    0  0.00000000000E+00  0.00000000000E+00 -0.39420676282E+02  0.38988126339E+04  0.38986133387E+04 0.  0.
        4    1    3    3  502    0 -0.90254391783E+02 -0.10216884579E+04 -0.16774445320E+04  0.19661675746E+04  0.12699999809E+01 0. -1.
       -4    1    3    3    0  502  0.90254391783E+02  0.10216884579E+04  0.16380238558E+04  0.19326450593E+04  0.12699999809E+01 0.  1.
</event>
<event>
 5   0  0.1187925E-07  0.3994929E+04  0.7818609E-02  0.8005570E-01
       -1   -1    0    0    0  501  0.00000000000E+00  0.00000000000E+00  0.16922661710E+04  0.16922661710E+04  0.50400001928E-02 0. -1.
        1   -1    0    0  501    0  0.00000000000E+00  0.00000000000E+00 -0.23577053721E+04  0.23577053721E+04  0.50400001928E-02 0.  1.
    10030    2    1    2    0    0  0.00000000000E+00  0.00000000000E+00 -0.66543920115E+03  0.40499715432E+04  0.39949293073E+04 0.  0.
        3    1    3    3  502    0  0.28004370369E+03 -0.39779968955E+02 -0.23372995017E+04  0.23543525421E+04  0.10100000352E+00 0.  1.
       -3    1    3    3    0  502 -0.28004370369E+03  0.39779968955E+02  0.16718603005E+04  0.16956190010E+04  0.10100000352E+00 0. -1.
</event>
<event>
 5   0  0.3810833E-07  0.3824368E+04  0.7818609E-02  0.8040946E-01
       -2   -1    0    0    0  501  0.00000000000E+00  0.00000000000E+00  0.12926025781E+04  0.12926025781E+04  0.25500000920E-02 0.  1.
        2   -1    0    0  501    0  0.00000000000E+00  0.00000000000E+00 -0.28287490950E+04  0.28287490950E+04  0.25500000920E-02 0. -1.
    10030    2    1    2    0    0  0.00000000000E+00  0.00000000000E+00 -0.15361465169E+04  0.41213516732E+04  0.38243683783E+04 0.  0.
        3    1    3    3  502    0 -0.28662405222E+03  0.10698540312E+04  0.91172428183E+03  0.14345668934E+04  0.10100000352E+00 0.  1.
       -3    1    3    3    0  502  0.28662405222E+03 -0.10698540312E+04 -0.24478707987E+04  0.26867847798E+04  0.10100000352E+00 0. -1.
</event>
<event>
 5   0  0.3810833E-07  0.3951788E+04  0.7818609E-02  0.8014344E-01
        2   -1    0    0  501    0  0.00000000000E+00  0.00000000000E+00  0.21460593167E+04  0.21460593167E+04  0.25500000920E-02 0. -1.
       -2   -1    0    0    0  501  0.00000000000E+00  0.00000000000E+00 -0.18192216973E+04  0.18192216973E+04  0.25500000920E-02 0.  1.
    10030    2    1    2    0    0  0.00000000000E+00  0.00000000000E+00  0.32683761933E+03  0.39652810140E+04  0.39517882902E+04 0.  0.
        3    1    3    3  502    0  0.23298665245E+03 -0.12912587390E+04 -0.13189626988E+04  0.18604554610E+04  0.10100000352E+00 0.  1.
       -3    1    3    3    0  502 -0.23298665245E+03  0.12912587390E+04  0.16458003182E+04  0.21048255530E+04  0.10100000352E+00 0. -1.
</event>
<event>
 5   0  0.1187925E-07  0.3889267E+04  0.7818609E-02  0.8027265E-01
       -1   -1    0    0    0  501  0.00000000000E+00  0.00000000000E+00  0.11164459497E+04  0.11164459497E+04  0.50400001928E-02 0.  1.
        1   -1    0    0  501    0  0.00000000000E+00  0.00000000000E+00 -0.33871770314E+04  0.33871770314E+04  0.50400001928E-02 0. -1.
    10030    2    1    2    0    0  0.00000000000E+00  0.00000000000E+00 -0.22707310817E+04  0.45036229811E+04  0.38892673231E+04 0.  0.
        1    1    3    3  502    0 -0.17026824924E+04  0.84167305176E+03 -0.65225965800E+03  0.20082290351E+04  0.50400001928E-02 0.  1.
       -1    1    3    3    0  502  0.17026824924E+04 -0.84167305176E+03 -0.16184714238E+04  0.24953939460E+04  0.50400001928E-02 0. -1.
</event>
<event>
 5   0  0.1187925E-07  0.4002714E+04  0.7818609E-02  0.8003999E-01
       -1   -1    0    0    0  501  0.00000000000E+00  0.00000000000E+00  0.13242197716E+04  0.13242197716E+04  0.50400001928E-02 0. -1.
        1   -1    0    0  501    0  0.00000000000E+00  0.00000000000E+00 -0.30247466470E+04  0.30247466470E+04  0.50400001928E-02 0.  1.
    10030    2    1    2    0    0  0.00000000000E+00  0.00000000000E+00 -0.17005268754E+04  0.43489664186E+04  0.40027137365E+04 0.  0.
        1    1    3    3  502    0  0.97925700387E+03 -0.51342497233E+02 -0.27458476081E+04  0.29156919279E+04  0.50400001928E-02 0.  1.
       -1    1    3    3    0  502 -0.97925700387E+03  0.51342497233E+02  0.10453207327E+04  0.14332744907E+04  0.50400001928E-02 0. -1.
</event>
<event>
 5   0  0.3680814E-07  0.3922660E+04  0.7818609E-02  0.8020333E-01
       -2   -1    0    0    0  501  0.00000000000E+00  0.00000000000E+00  0.28756410795E+04  0.28756410795E+04  0.25500000920E-02 0.  1.
        2   -1    0    0  501    0  0.00000000000E+00  0.00000000000E+00 -0.13377242879E+04  0.13377242879E+04  0.25500000920E-02 0. -1.
    10030    2    1    2    0    0  0.00000000000E+00  0.00000000000E+00  0.15379167916E+04  0.42133653674E+04  0.39226597688E+04 0.  0.
        1    1    3    3  502    0 -0.85204800095E+03  0.69902154561E+03  0.25115987114E+04  0.27427622945E+04  0.50400001928E-02 0.  1.
       -1    1    3    3    0  502  0.85204800095E+03 -0.69902154561E+03 -0.97368191979E+03  0.14706030729E+04  0.50400001928E-02 0. -1.
</event>
<event>
 5   0  0.1187925E-07  0.3859112E+04  0.7818609E-02  0.8033587E-01
       -1   -1    0    0    0  501  0.00000000000E+00  0.00000000000E+00  0.18347578091E+04  0.18347578091E+04  0.50400001928E-02 0.  1.
        1   -1    0    0  501    0  0.00000000000E+00  0.00000000000E+00 -0.20292526457E+04  0.20292526457E+04  0.50400001928E-02 0. -1.
    10030    2    1    2    0    0  0.00000000000E+00  0.00000000000E+00 -0.19449483667E+03  0.38640104548E+04  0.38591124049E+04 0.  0.
        4    1    3    3  502    0 -0.10030909075E+04 -0.30660783628E+03 -0.17188664524E+04  0.20136293671E+04  0.12699999809E+01 0. -1.
       -4    1    3    3    0  502  0.10030909075E+04  0.30660783628E+03  0.15243716158E+04  0.18503810877E+04  0.12699999809E+01 0.  1.
</event>
<event>
 5   0  0.3832389E-07  0.3896098E+04  0.7818609E-02  0.8025841E-01
       -2   -1    0    0    0  501  0.00000000000E+00  0.00000000000E+00  0.16689068140E+04  0.16689068140E+04  0.25500000920E-02 0.  1.
        2   -1    0    0  501    0  0.00000000000E+00  0.00000000000E+00 -0.22738800992E+04  0.22738800992E+04  0.25500000920E-02 0. -1.
    10030    2    1    2    0    0  0.00000000000E+00  0.00000000000E+00 -0.60497328526E+03  0.39427869132E+04  0.38960975305E+04 0.  0.
        5    1    3    3  502    0  0.10776484036E+04 -0.93779531701E+03  0.10378037307E+04  0.17657420004E+04  0.46999998093E+01 0. -1.
       -5    1    3    3    0  502 -0.10776484036E+04  0.93779531701E+03 -0.16427770159E+04  0.21770449128E+04  0.46999998093E+01 0.  1.
</event>
<event>
 5   0  0.1187925E-07  0.3910392E+04  0.7818609E-02  0.8022871E-01
        1   -1    0    0  501    0  0.00000000000E+00  0.00000000000E+00  0.26363895990E+04  0.26363895990E+04  0.50400001928E-02 0. -1.
       -1   -1    0    0    0  501  0.00000000000E+00  0.00000000000E+00 -0.14500100258E+04  0.14500100258E+04  0.50400001928E-02 0.  1.
    10030    2    1    2    0    0  0.00000000000E+00  0.00000000000E+00  0.11863795732E+04  0.40863996248E+04  0.39103919755E+04 0.  0.
        2    1    3    3  502    0  0.19026159969E+04  0.88558756804E+02  0.13172450227E+03  0.19092254004E+04  0.25500000920E-02 0. -1.
       -2    1    3    3    0  502 -0.19026159969E+04 -0.88558756804E+02  0.10546550710E+04  0.21771742245E+04  0.25500000920E-02 0.  1.
</event>
<event>
 5   0  0.1187925E-07  0.3898742E+04  0.7818609E-02  0.8025291E-01
       -1   -1    0    0    0  501  0.00000000000E+00  0.00000000000E+00  0.18004762774E+04  0.18004762774E+04  0.50400001928E-02 0. -1.
        1   -1    0    0  501    0  0.00000000000E+00  0.00000000000E+00 -0.21105789212E+04  0.21105789212E+04  0.50400001928E-02 0.  1.
    10030    2    1    2    0    0  0.00000000000E+00  0.00000000000E+00 -0.31010264387E+03  0.39110551986E+04  0.38987419916E+04 0.  0.
        5    1    3    3  502    0 -0.14275420296E+04  0.12588746485E+04 -0.57755076012E+03  0.19890270480E+04  0.46999998093E+01 0. -1.
       -5    1    3    3    0  502  0.14275420296E+04 -0.12588746485E+04  0.26744811625E+03  0.19220281507E+04  0.46999998093E+01 0.  1.
</event>
<event>
 5   0  0.1187925E-07  0.3814030E+04  0.7818609E-02  0.8043151E-01
       -1   -1    0    0    0  501  0.00000000000E+00  0.00000000000E+00  0.29992348708E+04  0.29992348708E+04  0.50400001928E-02 0. -1.
        1   -1    0    0  501    0  0.00000000000E+00  0.00000000000E+00 -0.12125445672E+04  0.12125445672E+04  0.50400001928E-02 0.  1.
    10030    2    1    2    0    0  0.00000000000E+00  0.00000000000E+00  0.17866903036E+04  0.42117794379E+04  0.38140298626E+04 0.  0.
        1    1    3    3  502    0  0.16575524295E+03 -0.14791856486E+04 -0.42313825417E+03  0.15474207462E+04  0.50400001928E-02 0.  1.
       -1    1    3    3    0  502 -0.16575524295E+03  0.14791856486E+04  0.22098285578E+04  0.26643586918E+04  0.50400001928E-02 0. -1.
</event>
<event>
 5   0  0.3832389E-07  0.3054776E+04  0.7818609E-02  0.8228260E-01
       -2   -1    0    0    0  501  0.00000000000E+00  0.00000000000E+00  0.19928651802E+04  0.19928651802E+04  0.25500000920E-02 0. -1.
        2   -1    0    0  501    0  0.00000000000E+00  0.00000000000E+00 -0.11706328516E+04  0.11706328516E+04  0.25500000920E-02 0.  1.
    10030    2    1    2    0    0  0.00000000000E+00  0.00000000000E+00  0.82223232860E+03  0.31634980318E+04  0.30547755719E+04 0.  0.
        5    1    3    3  502    0  0.10704318653E+04 -0.10326527699E+04  0.51339222358E+02  0.14882385317E+04  0.46999998093E+01 0.  1.
       -5    1    3    3    0  502 -0.10704318653E+04  0.10326527699E+04  0.77089310624E+03  0.16752595001E+04  0.46999998093E+01 0. -1.
</event>
<event>
 5   0  0.1187925E-07  0.3911959E+04  0.7818609E-02  0.8022547E-01
       -1   -1    0    0    0  501  0.00000000000E+00  0.00000000000E+00  0.32896863478E+04  0.32896863478E+04  0.50400001928E-02 0. -1.
        1   -1    0    0  501    0  0.00000000000E+00  0.00000000000E+00 -0.11629850533E+04  0.11629850533E+04  0.50400001928E-02 0.  1.
    10030    2    1    2    0    0  0.00000000000E+00  0.00000000000E+00  0.21267012945E+04  0.44526714011E+04  0.39119591269E+04 0.  0.
        2    1    3    3  502    0  0.70704465782E+03  0.69085512170E+03  0.29844369834E+04  0.31438920235E+04  0.25500000920E-02 0. -1.
       -2    1    3    3    0  502 -0.70704465782E+03 -0.69085512170E+03 -0.85773568891E+03  0.13087793776E+04  0.25500000920E-02 0.  1.
</event>
<event>
 5   0  0.1187925E-07  0.4012612E+04  0.7818609E-02  0.8002007E-01
       -1   -1    0    0    0  501  0.00000000000E+00  0.00000000000E+00  0.19696602241E+04  0.19696602241E+04  0.50400001928E-02 0.  1.
        1   -1    0    0  501    0  0.00000000000E+00  0.00000000000E+00 -0.20436334177E+04  0.20436334177E+04  0.50400001928E-02 0. -1.
    10030    2    1    2    0    0  0.00000000000E+00  0.00000000000E+00 -0.73973193561E+02  0.40132936419E+04  0.40126118455E+04 0.  0.
        3    1    3    3  502    0  0.83191776641E+03 -0.14006938731E+04 -0.12081821272E+04  0.20282343451E+04  0.10100000352E+00 0. -1.
       -3    1    3    3    0  502 -0.83191776641E+03  0.14006938731E+04  0.11342089336E+04  0.19850592967E+04  0.10100000352E+00 0.  1.
</event>
<event>
 5   0  0.3810833E-07  0.4207807E+04  0.7818609E-02  0.7963889E-01
       -2   -1    0    0    0  501  0.00000000000E+00  0.00000000000E+00  0.26940016006E+04  0.26940016006E+04  0.25500000920E-02 0. -1.
        2   -1    0    0  501    0  0.00000000000E+00  0.00000000000E+00 -0.16430613081E+04  0.16430613081E+04  0.25500000920E-02 0.  1.
    10030    2    1    2    0    0  0.00000000000E+00  0.00000000000E+00  0.10509402924E+04  0.43370629087E+04  0.42078069318E+04 0.  0.
        3    1    3    3  502    0  0.13527030057E+04 -0.10339190492E+04  0.17994043034E+04  0.24772262471E+04  0.10100000352E+00 0. -1.
       -3    1    3    3    0  502 -0.13527030057E+04  0.10339190492E+04 -0.74846401097E+03  0.18598366616E+04  0.10100000352E+00 0.  1.
</event>
<event>
 5   0  0.3832389E-07  0.2864156E+04  0.7818609E-02  0.8283623E-01
       -2   -1    0    0    0  501  0.00000000000E+00  0.00000000000E+00  0.19518171122E+04  0.19518171122E+04  0.25500000920E-02 0.  1.
        2   -1    0    0  501    0  0.00000000000E+00  0.00000000000E+00 -0.10507375096E+04  0.10507375096E+04  0.25500000920E-02 0. -1.
    10030    2    1    2    0    0  0.00000000000E+00  0.00000000000E+00  0.90107960263E+03  0.30025546218E+04  0.28641560374E+04 0.  0.
        5    1    3    3  502    0 -0.13487812089E+04  0.48044301505E+03  0.42109109656E+03  0.14924396275E+04  0.46999998093E+01 0. -1.
       -5    1    3    3    0  502  0.13487812089E+04 -0.48044301505E+03  0.47998850607E+03  0.15101149943E+04  0.46999998093E+01 0.  1.
</event>
<event>
 5   0  0.3680814E-07  0.3778133E+04  0.7818609E-02  0.8050864E-01
       -2   -1    0    0    0  501  0.00000000000E+00  0.00000000000E+00  0.22532023727E+04  0.22532023727E+04  0.25500000920E-02 0.  1.
        2   -1    0    0  501    0  0.00000000000E+00  0.00000000000E+00 -0.15837782980E+04  0.15837782980E+04  0.25500000920E-02 0. -1.
    10030    2    1    2    0    0  0.00000000000E+00  0.00000000000E+00  0.66942407468E+03  0.38369806708E+04  0.37781334116E+04 0.  0.
        1    1    3    3  502    0  0.27660782245E+03 -0.11496048013E+04  0.18309105163E+04  0.21795266471E+04  0.50400001928E-02 0.  1.
       -1    1    3    3    0  502 -0.27660782245E+03  0.11496048013E+04 -0.11614864416E+04  0.16574540237E+04  0.50400001928E-02 0. -1.
</event>
<event>
 5   0  0.1187925E-07  0.3888948E+04  0.7818609E-02  0.8027332E-01
       -1   -1    0    0    0  501  0.00000000000E+00  0.00000000000E+00  0.23208332194E+04  0.23208332194E+04  0.50400001928E-02 0.  1.
        1   -1    0    0  501    0  0.00000000000E+00  0.00000000000E+00 -0.16291475088E+04  0.16291475088E+04  0.50400001928E-02 0. -1.
    10030    2    1    2    0    0  0.00000000000E+00  0.00000000000E+00  0.69168571062E+03  0.39499807282E+04  0.38889482680E+04 0.  0.
        4    1    3    3  502    0  0.12334130462E+04 -0.11921594071E+03  0.18678450036E+04  0.22415099271E+04  0.12699999809E+01 0.  1.
       -4    1    3    3    0  502 -0.12334130462E+04  0.11921594071E+03 -0.11761592929E+04  0.17084708011E+04  0.12699999809E+01 0. -1.
</event>
<event>
 5   0  0.1187925E-07  0.3275232E+04  0.7818609E-02  0.8169226E-01
        1   -1    0    0  501    0  0.00000000000E+00  0.00000000000E+00  0.22290716561E+04  0.22290716561E+04  0.50400001928E-02 0.  1.
       -1   -1    0    0    0  501  0.00000000000E+00  0.00000000000E+00 -0.12030956615E+04  0.12030956615E+04  0.50400001928E-02 0. -1.
    10030    2    1    2    0    0  0.00000000000E+00  0.00000000000E+00  0.10259759945E+04  0.34321673176E+04  0.32752321681E+04 0.  0.
        5    1    3    3  502    0  0.14752390424E+04  0.65795189994E+02  0.12547947393E+04  0.19378315631E+04  0.46999998093E+01 0.  1.
       -5    1    3    3    0  502 -0.14752390424E+04 -0.65795189994E+02 -0.22881874481E+03  0.14943357545E+04  0.46999998093E+01 0. -1.
</event>
<event>
 5   0  0.1187925E-07  0.3924272E+04  0.7818609E-02  0.8020000E-01
        1   -1    0    0  501    0  0.00000000000E+00  0.00000000000E+00  0.11060945324E+04  0.11060945324E+04  0.50400001928E-02 0.  1.
       -1   -1    0    0    0  501  0.00000000000E+00  0.00000000000E+00 -0.34806952548E+04  0.34806952548E+04  0.50400001928E-02 0. -1.
    10030    2    1    2    0    0  0.00000000000E+00  0.00000000000E+00 -0.23746007224E+04  0.45867897872E+04  0.39242721568E+04 0.  0.
        3    1    3    3  502    0  0.68479677339E+03 -0.12799689167E+04  0.35568709527E+03  0.14945836773E+04  0.10100000352E+00 0.  1.
       -3    1    3    3    0  502 -0.68479677339E+03  0.12799689167E+04 -0.27302878177E+04  0.30922061099E+04  0.10100000352E+00 0. -1.
</event>
<event>
 5   0  0.3665303E-07  0.3881426E+04  0.7818609E-02  0.8028903E-01
       -2   -1    0    0    0  501  0.00000000000E+00  0.00000000000E+00  0.18373599362E+04  0.18373599362E+04  0.25500000920E-02 0.  1.
        2   -1    0    0  501    0  0.00000000000E+00  0.00000000000E+00 -0.20498802249E+04  0.20498802249E+04  0.25500000920E-02 0. -1.
    10030    2    1    2    0    0  0.00000000000E+00  0.00000000000E+00 -0.21252028872E+03  0.38872401610E+04  0.38814264384E+04 0.  0.
        2    1    3    3  502    0  0.52252375571E+03  0.18278673861E+04 -0.49702085968E+03  0.19649834583E+04  0.25500000920E-02 0. -1.
       -2    1    3    3    0  502 -0.52252375571E+03 -0.18278673861E+04  0.28450057096E+03  0.19222567028E+04  0.25500000920E-02 0.  1.
</event>
<event>
 5   0  0.1187925E-07  0.3906800E+04  0.7818609E-02  0.8023616E-01
        1   -1    0    0  501    0  0.00000000000E+00  0.00000000000E+00  0.13571254833E+04  0.13571254833E+04  0.50400001928E-02 0.  1.
       -1   -1    0    0    0  501  0.00000000000E+00  0.00000000000E+00 -0.28116574189E+04  0.28116574189E+04  0.50400001928E-02 0. -1.
    10030    2    1    2    0    0  0.00000000000E+00  0.00000000000E+00 -0.14545319356E+04  0.41687829023E+04  0.39068001913E+04 0.  0.
        3    1    3    3  502    0 -0.13428496292E+04  0.12609777523E+04 -0.14208224821E+04  0.23263805695E+04  0.10100000352E+00 0.  1.
       -3    1    3    3    0  502  0.13428496292E+04 -0.12609777523E+04 -0.33709453517E+02  0.18424023328E+04  0.10100000352E+00 0. -1.
</event>
<event>
 5   0  0.1187925E-07  0.3883887E+04  0.7818609E-02  0.8028389E-01
       -4   -1    0    0    0  501  0.00000000000E+00  0.00000000000E+00  0.23279683999E+04  0.23279687464E+04  0.12699999809E+01 0.  1.
        4   -1    0    0  501    0  0.00000000000E+00  0.00000000000E+00 -0.16199285928E+04  0.16199290907E+04  0.12699999809E+01 0. -1.
    10030    2    1    2    0    0  0.00000000000E+00  0.00000000000E+00  0.70803980709E+03  0.39478978370E+04  0.38838868371E+04 0.  0.
        1    1    3    3  502    0  0.98985312053E+03 -0.26600526296E+02  0.20520691018E+04  0.22784873023E+04  0.50400001928E-02 0.  1.
       -1    1    3    3    0  502 -0.98985312053E+03  0.26600526296E+02 -0.13440292947E+04  0.16694105347E+04  0.50400001928E-02 0. -1.
</event>
<event>
 5   0  0.1187925E-07  0.3911682E+04  0.7818609E-02  0.8022604E-01
       -1   -1    0    0    0  501  0.00000000000E+00  0.00000000000E+00  0.26178807749E+04  0.26178807749E+04  0.50400001928E-02 0.  1.
        1   -1    0    0  501    0  0.00000000000E+00  0.00000000000E+00 -0.14612254530E+04  0.14612254530E+04  0.50400001928E-02 0. -1.
    10030    2    1    2    0    0  0.00000000000E+00  0.00000000000E+00  0.11566553219E+04  0.40791062279E+04  0.39116820020E+04 0.  0.
        4    1    3    3  502    0  0.12069630524E+04  0.13451777533E+04  0.13580259306E+04  0.22606412893E+04  0.12699999809E+01 0.  1.
       -4    1    3    3    0  502 -0.12069630524E+04 -0.13451777533E+04 -0.20137060875E+03  0.18184649386E+04  0.12699999809E+01 0. -1.
</event>
<event>
 5   0  0.3680814E-07  0.3926284E+04  0.7818609E-02  0.8019585E-01
       -2   -1    0    0    0  501  0.00000000000E+00  0.00000000000E+00  0.20412017388E+04  0.20412017389E+04  0.25500000920E-02 0.  1.
        2   -1    0    0  501    0  0.00000000000E+00  0.00000000000E+00 -0.18880677648E+04  0.18880677648E+04  0.25500000920E-02 0. -1.
    10030    2    1    2    0    0  0.00000000000E+00  0.00000000000E+00  0.15313397405E+03  0.39292695037E+04  0.39262843527E+04 0.  0.
        1    1    3    3  502    0  0.61710715774E+03  0.16399608316E+04  0.96247131456E+03  0.19991607751E+04  0.50400001928E-02 0.  1.
       -1    1    3    3    0  502 -0.61710715774E+03 -0.16399608316E+04 -0.80933734051E+03  0.19301087286E+04  0.50400001928E-02 0. -1.
</event>
<event>
 5   0  0.3810833E-07  0.3971054E+04  0.7818609E-02  0.8010411E-01
        2   -1    0    0  501    0  0.00000000000E+00  0.00000000000E+00  0.30032155600E+04  0.30032155600E+04  0.25500000920E-02 0. -1.
       -2   -1    0    0    0  501  0.00000000000E+00  0.00000000000E+00 -0.13126987556E+04  0.13126987556E+04  0.25500000920E-02 0.  1.
    10030    2    1    2    0    0  0.00000000000E+00  0.00000000000E+00  0.16905168045E+04  0.43159143156E+04  0.39710539298E+04 0.  0.
        3    1    3    3  502    0  0.18350990537E+04  0.60167293020E+03  0.13465259917E+04  0.23543005561E+04  0.10100000352E+00 0. -1.
       -3    1    3    3    0  502 -0.18350990537E+04 -0.60167293020E+03  0.34399081275E+03  0.19616137595E+04  0.10100000352E+00 0.  1.
</event>
<event>
 5   0  0.1187925E-07  0.3727411E+04  0.7818609E-02  0.8061914E-01
        1   -1    0    0  501    0  0.00000000000E+00  0.00000000000E+00  0.19668081764E+04  0.19668081764E+04  0.50400001928E-02 0.  1.
       -1   -1    0    0    0  501  0.00000000000E+00  0.00000000000E+00 -0.17660071993E+04  0.17660071993E+04  0.50400001928E-02 0. -1.
    10030    2    1    2    0    0  0.00000000000E+00  0.00000000000E+00  0.20080097709E+03  0.37328153757E+04  0.37274105753E+04 0.  0.
        2    1    3    3  502    0  0.10287790713E+04 -0.14889185248E+04  0.54616685672E+03  0.18903869939E+04  0.25500000920E-02 0.  1.
       -2    1    3    3    0  502 -0.10287790713E+04  0.14889185248E+04 -0.34536587963E+03  0.18424283818E+04  0.25500000920E-02 0. -1.
</event>
<event>
 5   0  0.1187925E-07  0.3927607E+04  0.7818609E-02  0.8019312E-01
        1   -1    0    0  501    0  0.00000000000E+00  0.00000000000E+00  0.31500979773E+04  0.31500979773E+04  0.50400001928E-02 0.  1.
       -1   -1    0    0    0  501  0.00000000000E+00  0.00000000000E+00 -0.12242556015E+04  0.12242556015E+04  0.50400001928E-02 0. -1.
    10030    2    1    2    0    0  0.00000000000E+00  0.00000000000E+00  0.19258423758E+04  0.43743535787E+04  0.39276074620E+04 0.  0.
        5    1    3    3  502    0 -0.10518933859E+04  0.66913651690E+02 -0.88251978947E+03  0.13747073874E+04  0.46999998093E+01 0. -1.
       -5    1    3    3    0  502  0.10518933859E+04 -0.66913651690E+02  0.28083621653E+04  0.29996461914E+04  0.46999998093E+01 0.  1.
</event>
<event>
 5   0  0.3832389E-07  0.3469263E+04  0.7818609E-02  0.8121113E-01
        2   -1    0    0  501    0  0.00000000000E+00  0.00000000000E+00  0.15352281712E+04  0.15352281712E+04  0.25500000920E-02 0. -1.
       -2   -1    0    0    0  501  0.00000000000E+00  0.00000000000E+00 -0.19599342303E+04  0.19599342303E+04  0.25500000920E-02 0.  1.
    10030    2    1    2    0    0  0.00000000000E+00  0.00000000000E+00 -0.42470605913E+03  0.34951624015E+04  0.34692628866E+04 0.  0.
        5    1    3    3  502    0 -0.46779602250E+03  0.68676444476E+03  0.13216584438E+04  0.15611795711E+04  0.46999998093E+01 0. -1.
       -5    1    3    3    0  502  0.46779602250E+03 -0.68676444476E+03 -0.17463645029E+04  0.19339828304E+04  0.46999998093E+01 0.  1.
</event>
<event>
 5   0  0.3680814E-07  0.3094521E+04  0.7818609E-02  0.8217243E-01
       -2   -1    0    0    0  501  0.00000000000E+00  0.00000000000E+00  0.13481342555E+04  0.13481342555E+04  0.25500000920E-02 0.  1.
        2   -1    0    0  501    0  0.00000000000E+00  0.00000000000E+00 -0.17757983504E+04  0.17757983504E+04  0.25500000920E-02 0. -1.
    10030    2    1    2    0    0  0.00000000000E+00  0.00000000000E+00 -0.42766409490E+03  0.31239326058E+04  0.30945206976E+04 0.  0.
        1    1    3    3  502    0 -0.42400340864E+03  0.10620667563E+04  0.83830700157E+03  0.14179292346E+04  0.50400001928E-02 0.  1.
       -1    1    3    3    0  502  0.42400340864E+03 -0.10620667563E+04 -0.12659710965E+04  0.17060033712E+04  0.50400001928E-02 0. -1.
</event>
<event>
 5   0  0.1187925E-07  0.3959168E+04  0.7818609E-02  0.8012835E-01
        3   -1    0    0  501    0  0.00000000000E+00  0.00000000000E+00  0.14220732566E+04  0.14220732602E+04  0.10100000352E+00 0. -1.
       -3   -1    0    0    0  501  0.00000000000E+00  0.00000000000E+00 -0.27556610450E+04  0.27556610468E+04  0.10100000352E+00 0.  1.
    10030    2    1    2    0    0  0.00000000000E+00  0.00000000000E+00 -0.13335877883E+04  0.41777343070E+04  0.39591675326E+04 0.  0.
        3    1    3    3  502    0  0.16645564700E+03  0.19724271291E+04 -0.64147741764E+03  0.20807858009E+04  0.10100000352E+00 0.  1.
       -3    1    3    3    0  502 -0.16645564700E+03 -0.19724271291E+04 -0.69211037067E+03  0.20969485061E+04  0.10100000352E+00 0. -1.
</event>
<event>
 5   0  0.1187925E-07  0.3867424E+04  0.7818609E-02  0.8031839E-01
        1   -1    0    0  501    0  0.00000000000E+00  0.00000000000E+00  0.25549233987E+04  0.25549233987E+04  0.50400001928E-02 0. -1.
       -1   -1    0    0    0  501  0.00000000000E+00  0.00000000000E+00 -0.14635438429E+04  0.14635438429E+04  0.50400001928E-02 0.  1.
    10030    2    1    2    0    0  0.00000000000E+00  0.00000000000E+00  0.10913795558E+04  0.40184672416E+04  0.38674241605E+04 0.  0.
        4    1    3    3  502    0 -0.47215516631E+03  0.15835615345E+04 -0.49784613695E+03  0.17258186532E+04  0.12699999809E+01 0.  1.
       -4    1    3    3    0  502  0.47215516631E+03 -0.15835615345E+04  0.15892256927E+04  0.22926485884E+04  0.12699999809E+01 0. -1.
</event>
<event>
 5   0  0.3610483E-07  0.3883147E+04  0.7818609E-02  0.8028544E-01
       -2   -1    0    0    0  501  0.00000000000E+00  0.00000000000E+00  0.11876951742E+04  0.11876951742E+04  0.25500000920E-02 0.  1.
        2   -1    0    0  501    0  0.00000000000E+00  0.00000000000E+00 -0.31739685095E+04  0.31739685095E+04  0.25500000920E-02 0. -1.
    10030    2    1    2    0    0  0.00000000000E+00  0.00000000000E+00 -0.19862733353E+04  0.43616636837E+04  0.38831467043E+04 0.  0.
        4    1    3    3  502    0 -0.10341519969E+04  0.13811264966E+03  0.84606665826E+03  0.13432705833E+04  0.12699999809E+01 0.  1.
       -4    1    3    3    0  502  0.10341519969E+04 -0.13811264966E+03 -0.28323399935E+04  0.30183931004E+04  0.12699999809E+01 0. -1.
</event>
<event>
 5   0  0.3680814E-07  0.3863122E+04  0.7818609E-02  0.8032743E-01
        2   -1    0    0  501    0  0.00000000000E+00  0.00000000000E+00  0.26375037533E+04  0.26375037533E+04  0.25500000920E-02 0.  1.
       -2   -1    0    0    0  501  0.00000000000E+00  0.00000000000E+00 -0.14145675696E+04  0.14145675696E+04  0.25500000920E-02 0. -1.
    10030    2    1    2    0    0  0.00000000000E+00  0.00000000000E+00  0.12229361837E+04  0.40520713229E+04  0.38631216777E+04 0.  0.
        1    1    3    3  502    0  0.16019560618E+04  0.39898175367E+03  0.16632480615E+04  0.23434683223E+04  0.50400001928E-02 0.  1.
       -1    1    3    3    0  502 -0.16019560618E+04 -0.39898175367E+03 -0.44031187778E+03  0.17086030006E+04  0.50400001928E-02 0. -1.
</event>
<event>
 5   0  0.3832389E-07  0.3845943E+04  0.7818609E-02  0.8036367E-01
        2   -1    0    0  501    0  0.00000000000E+00  0.00000000000E+00  0.31100436837E+04  0.31100436837E+04  0.25500000920E-02 0.  1.
       -2   -1    0    0    0  501  0.00000000000E+00  0.00000000000E+00 -0.11889930535E+04  0.11889930535E+04  0.25500000920E-02 0. -1.
    10030    2    1    2    0    0  0.00000000000E+00  0.00000000000E+00  0.19210506302E+04  0.42990367372E+04  0.38459434920E+04 0.  0.
        5    1    3    3  502    0  0.50641901717E+03  0.17614961509E+04  0.16108465298E+04  0.24401183461E+04  0.46999998093E+01 0.  1.
       -5    1    3    3    0  502 -0.50641901717E+03 -0.17614961509E+04  0.31020410040E+03  0.18589183910E+04  0.46999998093E+01 0. -1.
</event>
<event>
 5   0  0.3832389E-07  0.3906980E+04  0.7818609E-02  0.8023579E-01
        2   -1    0    0  501    0  0.00000000000E+00  0.00000000000E+00  0.28012151565E+04  0.28012151565E+04  0.25500000920E-02 0.  1.
       -2   -1    0    0    0  501  0.00000000000E+00  0.00000000000E+00 -0.13623101257E+04  0.13623101257E+04  0.25500000920E-02 0. -1.
    10030    2    1    2    0    0  0.00000000000E+00  0.00000000000E+00  0.14389050307E+04  0.41635252822E+04  0.39069803030E+04 0.  0.
        5    1    3    3  502    0  0.59409636409E+03  0.15729272892E+04 -0.34036065792E+03  0.17154935774E+04  0.46999998093E+01 0. -1.
       -5    1    3    3    0  502 -0.59409636409E+03 -0.15729272892E+04  0.17792656887E+04  0.24480317048E+04  0.46999998093E+01 0.  1.
</event>
<event>
 5   0  0.3832389E-07  0.3919923E+04  0.7818609E-02  0.8020898E-01
        2   -1    0    0  501    0  0.00000000000E+00  0.00000000000E+00  0.29611021805E+04  0.29611021805E+04  0.25500000920E-02 0. -1.
       -2   -1    0    0    0  501  0.00000000000E+00  0.00000000000E+00 -0.12973039129E+04  0.12973039129E+04  0.25500000920E-02 0.  1.
    10030    2    1    2    0    0  0.00000000000E+00  0.00000000000E+00  0.16637982675E+04  0.42584060934E+04  0.39199231856E+04 0.  0.
        5    1    3    3  502    0  0.44582060529E+03 -0.16281597768E+04 -0.24996908512E+03  0.17065072237E+04  0.46999998093E+01 0. -1.
       -5    1    3    3    0  502 -0.44582060529E+03  0.16281597768E+04  0.19137673527E+04  0.25518988697E+04  0.46999998093E+01 0.  1.
</event>
<event>
 5   0  0.1187925E-07  0.3969873E+04  0.7818609E-02  0.8010652E-01
       -1   -1    0    0    0  501  0.00000000000E+00  0.00000000000E+00  0.15702789284E+04  0.15702789284E+04  0.50400001928E-02 0.  1.
        1   -1    0    0  501    0  0.00000000000E+00  0.00000000000E+00 -0.25090915139E+04  0.25090915139E+04  0.50400001928E-02 0. -1.
    10030    2    1    2    0    0  0.00000000000E+00  0.00000000000E+00 -0.93881258551E+03  0.40793704423E+04  0.39698733147E+04 0.  0.
        5    1    3    3  502    0 -0.65697124776E+03 -0.12775371460E+04 -0.18769457683E+04  0.23636116194E+04  0.46999998093E+01 0. -1.
       -5    1    3    3    0  502  0.65697124776E+03  0.12775371460E+04  0.93813318282E+03  0.17157588230E+04  0.46999998093E+01 0.  1.
</event>
<event>
 5   0  0.3680814E-07  0.2987412E+04  0.7818609E-02  0.8247335E-01
       -2   -1    0    0    0  501  0.00000000000E+00  0.00000000000E+00  0.17286186382E+04  0.17286186382E+04  0.25500000920E-02 0. -1.
        2   -1    0    0  501    0  0.00000000000E+00  0.00000000000E+00 -0.12907166593E+04  0.12907166593E+04  0.25500000920E-02 0.  1.
    10030    2    1    2    0    0  0.00000000000E+00  0.00000000000E+00  0.43790197886E+03  0.30193352975E+04  0.29874115043E+04 0.  0.
        1    1    3    3  502    0 -0.49352993794E+03  0.97658127273E+02 -0.12025092106E+04  0.13035096129E+04  0.50400001928E-02 0.  1.
       -1    1    3    3    0  502  0.49352993794E+03 -0.97658127273E+02  0.16404111894E+04  0.17158256846E+04  0.50400001928E-02 0. -1.
</event>
<event>
 5   0  0.1187925E-07  0.2915578E+04  0.7818609E-02  0.8268258E-01
       -1   -1    0    0    0  501  0.00000000000E+00  0.00000000000E+00  0.10063644815E+04  0.10063644815E+04  0.50400001928E-02 0. -1.
        1   -1    0    0  501    0  0.00000000000E+00  0.00000000000E+00 -0.21117086704E+04  0.21117086704E+04  0.50400001928E-02 0.  1.
    10030    2    1    2    0    0  0.00000000000E+00  0.00000000000E+00 -0.11053441889E+04  0.31180731519E+04  0.29155778852E+04 0.  0.
        2    1    3    3  502    0 -0.76408324056E+03  0.70155542440E+03  0.54274494076E+03  0.11707157139E+04  0.25500000920E-02 0. -1.
       -2    1    3    3    0  502  0.76408324056E+03 -0.70155542440E+03 -0.16480891296E+04  0.19473574380E+04  0.25500000920E-02 0.  1.
</event>
<event>
 5   0  0.1187925E-07  0.3824892E+04  0.7818609E-02  0.8040834E-01
       -1   -1    0    0    0  501  0.00000000000E+00  0.00000000000E+00  0.12774300852E+04  0.12774300852E+04  0.50400001928E-02 0.  1.
        1   -1    0    0  501    0  0.00000000000E+00  0.00000000000E+00 -0.28631304208E+04  0.28631304208E+04  0.50400001928E-02 0. -1.
    10030    2    1    2    0    0  0.00000000000E+00  0.00000000000E+00 -0.15857003356E+04  0.41405605061E+04  0.38248915998E+04 0.  0.
        2    1    3    3  502    0 -0.16807189507E+04  0.40571154632E+02 -0.17796681338E+04  0.24481995172E+04  0.25500000920E-02 0. -1.
       -2    1    3    3    0  502  0.16807189507E+04 -0.40571154632E+02  0.19396779817E+03  0.16923609888E+04  0.25500000920E-02 0.  1.
</event>
<event>
 5   0  0.1187925E-07  0.3855163E+04  0.7818609E-02  0.8034420E-01
        1   -1    0    0  501    0  0.00000000000E+00  0.00000000000E+00  0.22360162093E+04  0.22360162093E+04  0.50400001928E-02 0.  1.
       -1   -1    0    0    0  501  0.00000000000E+00  0.00000000000E+00 -0.16616921344E+04  0.16616921344E+04  0.50400001928E-02 0. -1.
    10030    2    1    2    0    0  0.00000000000E+00  0.00000000000E+00  0.57432407488E+03  0.38977083438E+04  0.38551630562E+04 0.  0.
        3    1    3    3  502    0  0.17462410808E+04 -0.44835253577E+03 -0.40241533061E+03  0.18472455216E+04  0.10100000352E+00 0. -1.
       -3    1    3    3    0  502 -0.17462410808E+04  0.44835253577E+03  0.97673940549E+03  0.20504628222E+04  0.10100000352E+00 0.  1.
</event>
<event>
 5   0  0.3680814E-07  0.3971713E+04  0.7818609E-02  0.8010277E-01
        2   -1    0    0  501    0  0.00000000000E+00  0.00000000000E+00  0.29208143757E+04  0.29208143757E+04  0.25500000920E-02 0. -1.
       -2   -1    0    0    0  501  0.00000000000E+00  0.00000000000E+00 -0.13501806003E+04  0.13501806003E+04  0.25500000920E-02 0.  1.
    10030    2    1    2    0    0  0.00000000000E+00  0.00000000000E+00  0.15706337753E+04  0.42709949760E+04  0.39717134374E+04 0.  0.
        1    1    3    3  502    0  0.98526198007E+03  0.52241604976E+03 -0.98165808884E+03  0.14857026290E+04  0.50400001928E-02 0.  1.
       -1    1    3    3    0  502 -0.98526198007E+03 -0.52241604976E+03  0.25522918642E+04  0.27852923470E+04  0.50400001928E-02 0. -1.
</event>
<event>
 5   0  0.1187925E-07  0.3764300E+04  0.7818609E-02  0.8053860E-01
        1   -1    0    0  501    0  0.00000000000E+00  0.00000000000E+00  0.22873511639E+04  0.22873511639E+04  0.50400001928E-02 0.  1.
       -1   -1    0    0    0  501  0.00000000000E+00  0.00000000000E+00 -0.15487299892E+04  0.15487299892E+04  0.50400001928E-02 0. -1.
    10030    2    1    2    0    0  0.00000000000E+00  0.00000000000E+00  0.73862117473E+03  0.38360811532E+04  0.37643003830E+04 0.  0.
        4    1    3    3  502    0 -0.91460263778E+02  0.88748900804E+03 -0.13195438138E+04  0.15928588163E+04  0.12699999809E+01 0. -1.
       -4    1    3    3    0  502  0.91460263778E+02 -0.88748900804E+03  0.20581649886E+04  0.22432223368E+04  0.12699999809E+01 0.  1.
</event>
<event>
 5   0  0.1187925E-07  0.3946822E+04  0.7818609E-02  0.8015361E-01
       -1   -1    0    0    0  501  0.00000000000E+00  0.00000000000E+00  0.20005034077E+04  0.20005034077E+04  0.50400001928E-02 0. -1.
        1   -1    0    0  501    0  0.00000000000E+00  0.00000000000E+00 -0.19466852059E+04  0.19466852059E+04  0.50400001928E-02 0.  1.
    10030    2    1    2    0    0  0.00000000000E+00  0.00000000000E+00  0.53818201764E+02  0.39471886136E+04  0.39468217026E+04 0.  0.
        4    1    3    3  502    0 -0.14385037480E+04 -0.96901008136E+03 -0.91449408449E+03  0.19607586834E+04  0.12699999809E+01 0. -1.
       -4    1    3    3    0  502  0.14385037480E+04  0.96901008136E+03  0.96831228626E+03  0.19864299302E+04  0.12699999809E+01 0.  1.
</event>
<event>
 5   0  0.1187925E-07  0.3833136E+04  0.7818609E-02  0.8039081E-01
        1   -1    0    0  501    0  0.00000000000E+00  0.00000000000E+00  0.30075938713E+04  0.30075938713E+04  0.50400001928E-02 0. -1.
       -1   -1    0    0    0  501  0.00000000000E+00  0.00000000000E+00 -0.12213195784E+04  0.12213195784E+04  0.50400001928E-02 0.  1.
    10030    2    1    2    0    0  0.00000000000E+00  0.00000000000E+00  0.17862742929E+04  0.42289134498E+04  0.38331361985E+04 0.  0.
        5    1    3    3  502    0 -0.88433184442E+03 -0.22846324243E+03 -0.96575918937E+03  0.13292671538E+04  0.46999998093E+01 0.  1.
       -5    1    3    3    0  502  0.88433184442E+03  0.22846324243E+03  0.27520334823E+04  0.28996462960E+04  0.46999998093E+01 0. -1.
</event>
<event>
 5   0  0.3665303E-07  0.3934630E+04  0.7818609E-02  0.8017865E-01
       -2   -1    0    0    0  501  0.00000000000E+00  0.00000000000E+00  0.27598428574E+04  0.27598428574E+04  0.25500000920E-02 0.  1.
        2   -1    0    0  501    0  0.00000000000E+00  0.00000000000E+00 -0.14023730446E+04  0.14023730446E+04  0.25500000920E-02 0. -1.
    10030    2    1    2    0    0  0.00000000000E+00  0.00000000000E+00  0.13574698128E+04  0.41622159020E+04  0.39346304683E+04 0.  0.
        2    1    3    3  502    0  0.13820966595E+04 -0.29815727441E+03 -0.76832141187E+03  0.16091633629E+04  0.25500000920E-02 0. -1.
       -2    1    3    3    0  502 -0.13820966595E+04  0.29815727441E+03  0.21257912247E+04  0.25530525391E+04  0.25500000920E-02 0.  1.
</event>
<event>
 5   0  0.3610483E-07  0.3324008E+04  0.7818609E-02  0.8156813E-01
        2   -1    0    0  501    0  0.00000000000E+00  0.00000000000E+00  0.17749926863E+04  0.17749926863E+04  0.25500000920E-02 0. -1.
       -2   -1    0    0    0  501  0.00000000000E+00  0.00000000000E+00 -0.15562073259E+04  0.15562073259E+04  0.25500000920E-02 0.  1.
    10030    2    1    2    0    0  0.00000000000E+00  0.00000000000E+00  0.21878536039E+03  0.33312000123E+04  0.33240075944E+04 0.  0.
        4    1    3    3  502    0 -0.52613948763E+03  0.10656810577E+04 -0.10549112317E+04  0.15891312711E+04  0.12699999809E+01 0.  1.
       -4    1    3    3    0  502  0.52613948763E+03 -0.10656810577E+04  0.12736965921E+04  0.17420687411E+04  0.12699999809E+01 0. -1.
</event>
<event>
 5   0  0.3832389E-07  0.3944195E+04  0.7818609E-02  0.8015900E-01
        2   -1    0    0  501    0  0.00000000000E+00  0.00000000000E+00  0.16542494735E+04  0.16542494735E+04  0.25500000920E-02 0. -1.
       -2   -1    0    0    0  501  0.00000000000E+00  0.00000000000E+00 -0.23510175227E+04  0.23510175227E+04  0.25500000920E-02 0.  1.
    10030    2    1    2    0    0  0.00000000000E+00  0.00000000000E+00 -0.69676804917E+03  0.40052669962E+04  0.39441954816E+04 0.  0.
        5    1    3    3  502    0  0.83158577242E+03 -0.17022515758E+04 -0.90454304228E+03  0.20993845597E+04  0.46999998093E+01 0.  1.
       -5    1    3    3    0  502 -0.83158577242E+03  0.17022515758E+04  0.20777499311E+03  0.19058824365E+04  0.46999998093E+01 0. -1.
</event>
<event>
 5   0  0.3810833E-07  0.3770375E+04  0.7818609E-02  0.8052542E-01
        2   -1    0    0  501    0  0.00000000000E+00  0.00000000000E+00  0.23501986712E+04  0.23501986712E+04  0.25500000920E-02 0.  1.
       -2   -1    0    0    0  501  0.00000000000E+00  0.00000000000E+00 -0.15121837692E+04  0.15121837692E+04  0.25500000920E-02 0. -1.
    10030    2    1    2    0    0  0.00000000000E+00  0.00000000000E+00  0.83801490202E+03  0.38623824403E+04  0.37703751987E+04 0.  0.
        3    1    3    3  502    0 -0.43073206234E+03  0.13339219070E+04 -0.87233105629E+03  0.16510115825E+04  0.10100000352E+00 0. -1.
       -3    1    3    3    0  502  0.43073206234E+03 -0.13339219070E+04  0.17103459583E+04  0.22113708578E+04  0.10100000352E+00 0.  1.
</event>
<event>
 5   0  0.3832389E-07  0.3852537E+04  0.7818609E-02  0.8034974E-01
       -2   -1    0    0    0  501  0.00000000000E+00  0.00000000000E+00  0.14734378057E+04  0.14734378057E+04  0.25500000920E-02 0.  1.
        2   -1    0    0  501    0  0.00000000000E+00  0.00000000000E+00 -0.25182667423E+04  0.25182667423E+04  0.25500000920E-02 0. -1.
    10030    2    1    2    0    0  0.00000000000E+00  0.00000000000E+00 -0.10448289365E+04  0.39917045480E+04  0.38525365270E+04 0.  0.
        5    1    3    3  502    0 -0.19056979475E+04  0.66219363202E+02 -0.80506488788E+03  0.20698360405E+04  0.46999998093E+01 0.  1.
       -5    1    3    3    0  502  0.19056979475E+04 -0.66219363202E+02 -0.23976404864E+03  0.19218685075E+04  0.46999998093E+01 0. -1.
</event>
<event>
 5   0  0.3665303E-07  0.3457442E+04  0.7818609E-02  0.8123950E-01
       -2   -1    0    0    0  501  0.00000000000E+00  0.00000000000E+00  0.14427929986E+04  0.14427929986E+04  0.25500000920E-02 0.  1.
        2   -1    0    0  501    0  0.00000000000E+00  0.00000000000E+00 -0.20713135711E+04  0.20713135711E+04  0.25500000920E-02 0. -1.
    10030    2    1    2    0    0  0.00000000000E+00  0.00000000000E+00 -0.62852057254E+03  0.35141065697E+04  0.34574422443E+04 0.  0.
        2    1    3    3  502    0 -0.12487745116E+04  0.62174441664E+03 -0.13520093821E+04  0.19426613883E+04  0.25500000920E-02 0. -1.
       -2    1    3    3    0  502  0.12487745116E+04 -0.62174441664E+03  0.72348880953E+03  0.15714451813E+04  0.25500000920E-02 0.  1.
</event>
<event>
 5   0  0.1187925E-07  0.3943952E+04  0.7818609E-02  0.8015950E-01
        1   -1    0    0  501    0  0.00000000000E+00  0.00000000000E+00  0.27028369339E+04  0.27028369339E+04  0.50400001928E-02 0. -1.
       -1   -1    0    0    0  501  0.00000000000E+00  0.00000000000E+00 -0.14387436293E+04  0.14387436293E+04  0.50400001928E-02 0.  1.
    10030    2    1    2    0    0  0.00000000000E+00  0.00000000000E+00  0.12640933046E+04  0.41415805633E+04  0.39439520381E+04 0.  0.
        1    1    3    3  502    0 -0.14313314716E+04  0.11888924867E+04  0.13178526578E+04  0.22801120047E+04  0.50400001928E-02 0. -1.
       -1    1    3    3    0  502  0.14313314716E+04 -0.11888924867E+04 -0.53759353187E+02  0.18614685585E+04  0.50400001928E-02 0.  1.
</event>
<event>
 5   0  0.1187925E-07  0.2847438E+04  0.7818609E-02  0.8288690E-01
        1   -1    0    0  501    0  0.00000000000E+00  0.00000000000E+00  0.15597078726E+04  0.15597078726E+04  0.50400001928E-02 0. -1.
       -1   -1    0    0    0  501  0.00000000000E+00  0.00000000000E+00 -0.12995872123E+04  0.12995872123E+04  0.50400001928E-02 0.  1.
    10030    2    1    2    0    0  0.00000000000E+00  0.00000000000E+00  0.26012066029E+03  0.28592950848E+04  0.28474384320E+04 0.  0.
        4    1    3    3  502    0  0.65977992158E+03  0.10268237352E+04 -0.60599820728E+03  0.13626855720E+04  0.12699999809E+01 0.  1.
       -4    1    3    3    0  502 -0.65977992158E+03 -0.10268237352E+04  0.86611886756E+03  0.14966095128E+04  0.12699999809E+01 0. -1.
</event>
<event>
 5   0  0.3610483E-07  0.3834611E+04  0.7818609E-02  0.8038768E-01
        2   -1    0    0  501    0  0.00000000000E+00  0.00000000000E+00  0.22114685677E+04  0.22114685677E+04  0.25500000920E-02 0. -1.
       -2   -1    0    0    0  501  0.00000000000E+00  0.00000000000E+00 -0.16622711001E+04  0.16622711001E+04  0.25500000920E-02 0.  1.
    10030    2    1    2    0    0  0.00000000000E+00  0.00000000000E+00  0.54919746762E+03  0.38737396679E+04  0.38346109523E+04 0.  0.
        4    1    3    3  502    0 -0.38868742463E+03 -0.27155314783E+02  0.21710516598E+04  0.22057384812E+04  0.12699999809E+01 0. -1.
       -4    1    3    3    0  502  0.38868742463E+03  0.27155314783E+02 -0.16218541921E+04  0.16680011866E+04  0.12699999809E+01 0.  1.
</event>
<event>
 5   0  0.3610483E-07  0.3921586E+04  0.7818609E-02  0.8020555E-01
        2   -1    0    0  501    0  0.00000000000E+00  0.00000000000E+00  0.15376718174E+04  0.15376718174E+04  0.25500000920E-02 0.  1.
       -2   -1    0    0    0  501  0.00000000000E+00  0.00000000000E+00 -0.25003443014E+04  0.25003443014E+04  0.25500000920E-02 0. -1.
    10030    2    1    2    0    0  0.00000000000E+00  0.00000000000E+00 -0.96267248403E+03  0.40380161188E+04  0.39215858863E+04 0.  0.
        4    1    3    3  502    0 -0.16917836914E+04 -0.44531161480E+03 -0.13932209033E+04  0.22364034947E+04  0.12699999809E+01 0. -1.
       -4    1    3    3    0  502  0.16917836914E+04  0.44531161480E+03  0.43054841927E+03  0.18016126241E+04  0.12699999809E+01 0.  1.
</event>
<event>
 5   0  0.1187925E-07  0.3858310E+04  0.7818609E-02  0.8033756E-01
        1   -1    0    0  501    0  0.00000000000E+00  0.00000000000E+00  0.20233563968E+04  0.20233563968E+04  0.50400001928E-02 0. -1.
       -1   -1    0    0    0  501  0.00000000000E+00  0.00000000000E+00 -0.18393389663E+04  0.18393389663E+04  0.50400001928E-02 0.  1.
    10030    2    1    2    0    0  0.00000000000E+00  0.00000000000E+00  0.18401743049E+03  0.38626953631E+04  0.38583096109E+04 0.  0.
        2    1    3    3  502    0  0.63089510371E+03 -0.12431832505E+04 -0.12429630782E+04  0.18677501011E+04  0.25500000920E-02 0.  1.
       -2    1    3    3    0  502 -0.63089510371E+03  0.12431832505E+04  0.14269805087E+04  0.19949452620E+04  0.25500000920E-02 0. -1.
</event>
<event>
 5   0  0.1187925E-07  0.3834253E+04  0.7818609E-02  0.8038844E-01
       -1   -1    0    0    0  501  0.00000000000E+00  0.00000000000E+00  0.24685818106E+04  0.24685818107E+04  0.50400001928E-02 0. -1.
        1   -1    0    0  501    0  0.00000000000E+00  0.00000000000E+00 -0.14888603431E+04  0.14888603431E+04  0.50400001928E-02 0.  1.
    10030    2    1    2    0    0  0.00000000000E+00  0.00000000000E+00  0.97972146755E+03  0.39574421538E+04  0.38342527624E+04 0.  0.
        2    1    3    3  502    0  0.14688764417E+04 -0.31882182910E+03  0.17181060656E+04  0.22827907947E+04  0.25500000920E-02 0. -1.
       -2    1    3    3    0  502 -0.14688764417E+04  0.31882182910E+03 -0.73838459803E+03  0.16746513591E+04  0.25500000920E-02 0.  1.
</event>
<event>
 5   0  0.3665303E-07  0.3904757E+04  0.7818609E-02  0.8024041E-01
       -2   -1    0    0    0  501  0.00000000000E+00  0.00000000000E+00  0.15979954843E+04  0.15979954843E+04  0.25500000920E-02 0.  1.
        2   -1    0    0  501    0  0.00000000000E+00  0.00000000000E+00 -0.23853518698E+04  0.23853518698E+04  0.25500000920E-02 0. -1.
    10030    2    1    2    0    0  0.00000000000E+00  0.00000000000E+00 -0.78735638557E+03  0.39833473541E+04  0.39047568510E+04 0.  0.
        2    1    3    3  502    0  0.16537228424E+04 -0.10217513297E+04 -0.20834470392E+03  0.19550402899E+04  0.25500000920E-02 0.  1.
       -2    1    3    3    0  502 -0.16537228424E+04  0.10217513297E+04 -0.57901168165E+03  0.20283070642E+04  0.25500000920E-02 0. -1.
</event>
<event>
 5   0  0.3810833E-07  0.3840070E+04  0.7818609E-02  0.8037610E-01
        2   -1    0    0  501    0  0.00000000000E+00  0.00000000000E+00  0.27154895582E+04  0.27154895582E+04  0.25500000920E-02 0. -1.
       -2   -1    0    0    0  501  0.00000000000E+00  0.00000000000E+00 -0.13575951035E+04  0.13575951035E+04  0.25500000920E-02 0.  1.
    10030    2    1    2    0    0  0.00000000000E+00  0.00000000000E+00  0.13578944547E+04  0.40730846617E+04  0.38400704826E+04 0.  0.
        3    1    3    3  502    0 -0.66397710272E+03  0.12417233390E+04 -0.70555175334E+03  0.15749748348E+04  0.10100000352E+00 0.  1.
       -3    1    3    3    0  502  0.66397710272E+03 -0.12417233390E+04  0.20634462080E+04  0.24981098269E+04  0.10100000352E+00 0. -1.
</event>
<event>
 5   0  0.3665303E-07  0.3053584E+04  0.7818609E-02  0.8228593E-01
       -2   -1    0    0    0  501  0.00000000000E+00  0.00000000000E+00  0.12285650001E+04  0.12285650001E+04  0.25500000920E-02 0. -1.
        2   -1    0    0  501    0  0.00000000000E+00  0.00000000000E+00 -0.18974123913E+04  0.18974123913E+04  0.25500000920E-02 0.  1.
    10030    2    1    2    0    0  0.00000000000E+00  0.00000000000E+00 -0.66884739121E+03  0.31259773914E+04  0.30535844214E+04 0.  0.
        2    1    3    3  502    0  0.36039974300E+03 -0.11841681605E+04  0.58060836876E+03  0.13672045513E+04  0.25500000920E-02 0. -1.
       -2    1    3    3    0  502 -0.36039974300E+03  0.11841681605E+04 -0.12494557600E+04  0.17587728401E+04  0.25500000920E-02 0.  1.
</event>
<event>
 5   0  0.3680814E-07  0.4030083E+04  0.7818609E-02  0.7998505E-01
       -2   -1    0    0    0  501  0.00000000000E+00  0.00000000000E+00  0.26739563410E+04  0.26739563410E+04  0.25500000920E-02 0.  1.
        2   -1    0    0  501    0  0.00000000000E+00  0.00000000000E+00 -0.15184959095E+04  0.15184959095E+04  0.25500000920E-02 0. -1.
    10030    2    1    2    0    0  0.00000000000E+00  0.00000000000E+00  0.11554604314E+04  0.41924522505E+04  0.40300827614E+04 0.  0.
        1    1    3    3  502    0 -0.82714024152E+02  0.17749489544E+04  0.15663370576E+04  0.23686910264E+04  0.50400001928E-02 0.  1.
       -1    1    3    3    0  502  0.82714024152E+02 -0.17749489544E+04 -0.41087662618E+03  0.18237612241E+04  0.50400001928E-02 0. -1.
</event>
<event>
 5   0  0.1187925E-07  0.4107434E+04  0.7818609E-02  0.7983218E-01
       -1   -1    0    0    0  501  0.00000000000E+00  0.00000000000E+00  0.17892474387E+04  0.17892474387E+04  0.50400001928E-02 0. -1.
        1   -1    0    0  501    0  0.00000000000E+00  0.00000000000E+00 -0.23572775770E+04  0.23572775770E+04  0.50400001928E-02 0.  1.
    10030    2    1    2    0    0  0.00000000000E+00  0.00000000000E+00 -0.56803013824E+03  0.41465250157E+04  0.41074336839E+04 0.  0.
        5    1    3    3  502    0 -0.65861025160E+03 -0.73676723610E+03 -0.21014649674E+04  0.23222339509E+04  0.46999998093E+01 0.  1.
       -5    1    3    3    0  502  0.65861025160E+03  0.73676723610E+03  0.15334348292E+04  0.18242910648E+04  0.46999998093E+01 0. -1.
</event>
<event>
 5   0  0.3832389E-07  0.3922250E+04  0.7818609E-02  0.8020418E-01
        2   -1    0    0  501    0  0.00000000000E+00  0.00000000000E+00  0.15897277020E+04  0.15897277020E+04  0.25500000920E-02 0. -1.
       -2   -1    0    0    0  501  0.00000000000E+00  0.00000000000E+00 -0.24192888393E+04  0.24192888393E+04  0.25500000920E-02 0.  1.
    10030    2    1    2    0    0  0.00000000000E+00  0.00000000000E+00 -0.82956113725E+03  0.40090165413E+04  0.39222496029E+04 0.  0.
        5    1    3    3  502    0  0.17072411229E+04  0.46103539581E+03  0.45177282714E+03  0.18251977058E+04  0.46999998093E+01 0. -1.
       -5    1    3    3    0  502 -0.17072411229E+04 -0.46103539581E+03 -0.12813339644E+04  0.21838188355E+04  0.46999998093E+01 0.  1.
</event>
<event>
 5   0  0.3610483E-07  0.3918373E+04  0.7818609E-02  0.8021219E-01
       -2   -1    0    0    0  501  0.00000000000E+00  0.00000000000E+00  0.14295662458E+04  0.14295662458E+04  0.25500000920E-02 0.  1.
        2   -1    0    0  501    0  0.00000000000E+00  0.00000000000E+00 -0.26850181218E+04  0.26850181218E+04  0.25500000920E-02 0. -1.
    10030    2    1    2    0    0  0.00000000000E+00  0.00000000000E+00 -0.12554518760E+04  0.41145843677E+04  0.39183727625E+04 0.  0.
        4    1    3    3  502    0  0.20266145670E+03  0.16901177785E+04  0.39081405121E+03  0.17465128132E+04  0.12699999809E+01 0.  1.
       -4    1    3    3    0  502 -0.20266145670E+03 -0.16901177785E+04 -0.16462659272E+04  0.23680715545E+04  0.12699999809E+01 0. -1.
</event>
<event>
 5   0  0.3665303E-07  0.3879688E+04  0.7818609E-02  0.8029267E-01
       -2   -1    0    0    0  501  0.00000000000E+00  0.00000000000E+00  0.15532344658E+04  0.15532344658E+04  0.25500000920E-02 0.  1.
        2   -1    0    0  501    0  0.00000000000E+00  0.00000000000E+00 -0.24226824141E+04  0.24226824141E+04  0.25500000920E-02 0. -1.
    10030    2    1    2    0    0  0.00000000000E+00  0.00000000000E+00 -0.86944794832E+03  0.39759168800E+04  0.38796875263E+04 0.  0.
        2    1    3    3  502    0 -0.35989466318E+03  0.70397363971E+01 -0.23881562320E+04  0.24151322769E+04  0.25500000920E-02 0. -1.
       -2    1    3    3    0  502  0.35989466318E+03 -0.70397363971E+01  0.15187082836E+04  0.15607846031E+04  0.25500000920E-02 0.  1.
</event>
<event>
 5   0  0.1187925E-07  0.3884575E+04  0.7818609E-02  0.8028245E-01
       -1   -1    0    0    0  501  0.00000000000E+00  0.00000000000E+00  0.18967427820E+04  0.18967427820E+04  0.50400001928E-02 0. -1.
        1   -1    0    0  501    0  0.00000000000E+00  0.00000000000E+00 -0.19889263172E+04  0.19889263172E+04  0.50400001928E-02 0.  1.
    10030    2    1    2    0    0  0.00000000000E+00  0.00000000000E+00 -0.92183535176E+02  0.38856690993E+04  0.38845754652E+04 0.  0.
        5    1    3    3  502    0 -0.17457660461E+04  0.81841008126E+03 -0.28060477563E+03  0.19483981315E+04  0.46999998093E+01 0. -1.
       -5    1    3    3    0  502  0.17457660461E+04 -0.81841008126E+03  0.18842124045E+03  0.19372709678E+04  0.46999998093E+01 0.  1.
</event>
<event>
 5   0  0.1187925E-07  0.3160465E+04  0.7818609E-02  0.8199337E-01
        1   -1    0    0  501    0  0.00000000000E+00  0.00000000000E+00  0.15530123038E+04  0.15530123038E+04  0.50400001928E-02 0.  1.
       -1   -1    0    0    0  501  0.00000000000E+00  0.00000000000E+00 -0.16079297841E+04  0.16079297841E+04  0.50400001928E-02 0. -1.
    10030    2    1    2    0    0  0.00000000000E+00  0.00000000000E+00 -0.54917480299E+02  0.31609420878E+04  0.31604649900E+04 0.  0.
        5    1    3    3  502    0  0.65755903684E+03  0.61390105439E+03 -0.13268293131E+04  0.16030460092E+04  0.46999998093E+01 0. -1.
       -5    1    3    3    0  502 -0.65755903684E+03 -0.61390105439E+03  0.12719118328E+04  0.15578960786E+04  0.46999998093E+01 0.  1.
</event>
<event>
 5   0  0.3680814E-07  0.3856947E+04  0.7818609E-02  0.8034043E-01
        2   -1    0    0  501    0  0.00000000000E+00  0.00000000000E+00  0.28379533959E+04  0.28379533959E+04  0.25500000920E-02 0.  1.
       -2   -1    0    0    0  501  0.00000000000E+00  0.00000000000E+00 -0.13104552312E+04  0.13104552312E+04  0.25500000920E-02 0. -1.
    10030    2    1    2    0    0  0.00000000000E+00  0.00000000000E+00  0.15274981647E+04  0.41484086272E+04  0.38569474322E+04 0.  0.
        1    1    3    3  502    0 -0.11078494594E+04  0.96154691073E+03 -0.58269174218E+03  0.15784272402E+04  0.50400001928E-02 0. -1.
       -1    1    3    3    0  502  0.11078494594E+04 -0.96154691073E+03  0.21101899068E+04  0.25699813869E+04  0.50400001928E-02 0.  1.
</event>
<event>
 5   0  0.3832389E-07  0.3982783E+04  0.7818609E-02  0.8008029E-01
        2   -1    0    0  501    0  0.00000000000E+00  0.00000000000E+00  0.21941464681E+04  0.21941464681E+04  0.25500000920E-02 0. -1.
       -2   -1    0    0    0  501  0.00000000000E+00  0.00000000000E+00 -0.18073728486E+04  0.18073728486E+04  0.25500000920E-02 0.  1.
    10030    2    1    2    0    0  0.00000000000E+00  0.00000000000E+00  0.38677361953E+03  0.40015193167E+04  0.39827833244E+04 0.  0.
        5    1    3    3  502    0 -0.16704414922E+04 -0.59433500221E+03  0.11042994575E+04  0.20888054614E+04  0.46999998093E+01 0. -1.
       -5    1    3    3    0  502  0.16704414922E+04  0.59433500221E+03 -0.71752583797E+03  0.19127138552E+04  0.46999998093E+01 0.  1.
</event>
<event>
 5   0  0.3832389E-07  0.3871605E+04  0.7818609E-02  0.8030961E-01
       -2   -1    0    0    0  501  0.00000000000E+00  0.00000000000E+00  0.22058319916E+04  0.22058319916E+04  0.25500000920E-02 0.  1.
        2   -1    0    0  501    0  0.00000000000E+00  0.00000000000E+00 -0.16988288254E+04  0.16988288255E+04  0.25500000920E-02 0. -1.
    10030    2    1    2    0    0  0.00000000000E+00  0.00000000000E+00  0.50700316612E+03  0.39046608170E+04  0.38716048204E+04 0.  0.
        5    1    3    3  502    0  0.16440369376E+03  0.73145027973E+02  0.21973733693E+04  0.22047336764E+04  0.46999998093E+01 0.  1.
       -5    1    3    3    0  502 -0.16440369376E+03 -0.73145027973E+02 -0.16903702032E+04  0.16999271406E+04  0.46999998093E+01 0. -1.
</event>
<event>
 5   0  0.1187925E-07  0.4051094E+04  0.7818609E-02  0.7994318E-01
       -1   -1    0    0    0  501  0.00000000000E+00  0.00000000000E+00  0.19982766066E+04  0.19982766066E+04  0.50400001928E-02 0. -1.
        1   -1    0    0  501    0  0.00000000000E+00  0.00000000000E+00 -0.20531894940E+04  0.20531894940E+04  0.50400001928E-02 0.  1.
    10030    2    1    2    0    0  0.00000000000E+00  0.00000000000E+00 -0.54912887388E+02  0.40514661005E+04  0.40510939435E+04 0.  0.
        4    1    3    3  502    0  0.10813281676E+03  0.52391268959E+03 -0.19812637482E+04  0.20522146246E+04  0.12699999809E+01 0.  1.
       -4    1    3    3    0  502 -0.10813281676E+03 -0.52391268959E+03  0.19263508608E+04  0.19992514760E+04  0.12699999809E+01 0. -1.
</event>
<event>
 5   0  0.1187925E-07  0.3890838E+04  0.7818609E-02  0.8026938E-01
        1   -1    0    0  501    0  0.00000000000E+00  0.00000000000E+00  0.21992946427E+04  0.21992946427E+04  0.50400001928E-02 0.  1.
       -1   -1    0    0    0  501  0.00000000000E+00  0.00000000000E+00 -0.17208490968E+04  0.17208490968E+04  0.50400001928E-02 0. -1.
    10030    2    1    2    0    0  0.00000000000E+00  0.00000000000E+00  0.47844554598E+03  0.39201437395E+04  0.38908375445E+04 0.  0.
        4    1    3    3  502    0 -0.90138364354E+03  0.34706767525E+03 -0.14621956336E+04  0.17524172243E+04  0.12699999809E+01 0. -1.
       -4    1    3    3    0  502  0.90138364354E+03 -0.34706767525E+03  0.19406411796E+04  0.21677265152E+04  0.12699999809E+01 0.  1.
</event>
<event>
 5   0  0.1187925E-07  0.3777871E+04  0.7818609E-02  0.8050920E-01
        1   -1    0    0  501    0  0.00000000000E+00  0.00000000000E+00  0.10899971391E+04  0.10899971391E+04  0.50400001928E-02 0.  1.
       -1   -1    0    0    0  501  0.00000000000E+00  0.00000000000E+00 -0.32734740936E+04  0.32734740936E+04  0.50400001928E-02 0. -1.
    10030    2    1    2    0    0  0.00000000000E+00  0.00000000000E+00 -0.21834769545E+04  0.43634712327E+04  0.37778710391E+04 0.  0.
        2    1    3    3  502    0  0.70130909802E+03  0.84884185244E+03  0.68100519174E+03  0.12946563299E+04  0.25500000920E-02 0.  1.
       -2    1    3    3    0  502 -0.70130909802E+03 -0.84884185244E+03 -0.28644821463E+04  0.30688149028E+04  0.25500000920E-02 0. -1.
</event>
<event>
 5   0  0.3680814E-07  0.3778537E+04  0.7818609E-02  0.8050777E-01
        2   -1    0    0  501    0  0.00000000000E+00  0.00000000000E+00  0.20782948108E+04  0.20782948108E+04  0.25500000920E-02 0.  1.
       -2   -1    0    0    0  501  0.00000000000E+00  0.00000000000E+00 -0.17174345625E+04  0.17174345625E+04  0.25500000920E-02 0. -1.
    10030    2    1    2    0    0  0.00000000000E+00  0.00000000000E+00  0.36086024826E+03  0.37957293733E+04  0.37785369333E+04 0.  0.
        1    1    3    3  502    0  0.35120181741E+03  0.18034603281E+04  0.62234476210E+03  0.19398775412E+04  0.50400001928E-02 0.  1.
       -1    1    3    3    0  502 -0.35120181741E+03 -0.18034603281E+04 -0.26148451384E+03  0.18558518321E+04  0.50400001928E-02 0. -1.
</event>
<event>
 5   0  0.3832389E-07  0.3950726E+04  0.7818609E-02  0.8014561E-01
       -2   -1    0    0    0  501  0.00000000000E+00  0.00000000000E+00  0.15797029508E+04  0.15797029508E+04  0.25500000920E-02 0. -1.
        2   -1    0    0  501    0  0.00000000000E+00  0.00000000000E+00 -0.24701220101E+04  0.24701220101E+04  0.25500000920E-02 0.  1.
    10030    2    1    2    0    0  0.00000000000E+00  0.00000000000E+00 -0.89041905934E+03  0.40498249609E+04  0.39507260235E+04 0.  0.
        5    1    3    3  502    0  0.38789621006E+03  0.34383288471E+03  0.15087389204E+04  0.15953055326E+04  0.46999998093E+01 0. -1.
       -5    1    3    3    0  502 -0.38789621006E+03 -0.34383288471E+03 -0.23991579797E+04  0.24545194284E+04  0.46999998093E+01 0.  1.
</event>
<event>
 5   0  0.3810833E-07  0.3902803E+04  0.7818609E-02  0.8024446E-01
       -2   -1    0    0    0  501  0.00000000000E+00  0.00000000000E+00  0.25591740160E+04  0.25591740160E+04  0.25500000920E-02 0.  1.
        2   -1    0    0  501    0  0.00000000000E+00  0.00000000000E+00 -0.14879678477E+04  0.14879678477E+04  0.25500000920E-02 0. -1.
    10030    2    1    2    0    0  0.00000000000E+00  0.00000000000E+00  0.10712061683E+04  0.40471418637E+04  0.39028034296E+04 0.  0.
        3    1    3    3  502    0  0.53796741789E+03 -0.11547316415E+04  0.20684995678E+04  0.24293012531E+04  0.10100000352E+00 0.  1.
       -3    1    3    3    0  502 -0.53796741789E+03  0.11547316415E+04 -0.99729339941E+03  0.16178406106E+04  0.10100000352E+00 0. -1.
</event>
<event>
 5   0  0.1187925E-07  0.3989410E+04  0.7818609E-02  0.8006686E-01
        1   -1    0    0  501    0  0.00000000000E+00  0.00000000000E+00  0.27618297164E+04  0.27618297164E+04  0.50400001928E-02 0. -1.
       -1   -1    0    0    0  501  0.00000000000E+00  0.00000000000E+00 -0.14406564987E+04  0.14406564987E+04  0.50400001928E-02 0.  1.
    10030    2    1    2    0    0  0.00000000000E+00  0.00000000000E+00  0.13211732178E+04  0.42024862151E+04  0.39894099459E+04 0.  0.
        4    1    3    3  502    0  0.12588017656E+04 -0.11117260871E+03  0.22863594227E+04  0.26123518632E+04  0.12699999809E+01 0. -1.
       -4    1    3    3    0  502 -0.12588017656E+04  0.11117260871E+03 -0.96518620497E+03  0.15901343519E+04  0.12699999809E+01 0.  1.
</event>
<event>
 5   0  0.3680814E-07  0.3823754E+04  0.7818609E-02  0.8041076E-01
        2   -1    0    0  501    0  0.00000000000E+00  0.00000000000E+00  0.23085653502E+04  0.23085653502E+04  0.25500000920E-02 0.  1.
       -2   -1    0    0    0  501  0.00000000000E+00  0.00000000000E+00 -0.15833528851E+04  0.15833528851E+04  0.25500000920E-02 0. -1.
    10030    2    1    2    0    0  0.00000000000E+00  0.00000000000E+00  0.72521246507E+03  0.38919182353E+04  0.38237539711E+04 0.  0.
        1    1    3    3  502    0  0.74117439213E+03  0.91201082219E+03 -0.11723120776E+04  0.16599454288E+04  0.50400001928E-02 0. -1.
       -1    1    3    3    0  502 -0.74117439213E+03 -0.91201082219E+03  0.18975245426E+04  0.22319728066E+04  0.50400001928E-02 0.  1.
</event>
<event>
 5   0  0.1187925E-07  0.3587897E+04  0.7818609E-02  0.8093270E-01
       -1   -1    0    0    0  501  0.00000000000E+00  0.00000000000E+00  0.13876996318E+04  0.13876996318E+04  0.50400001928E-02 0.  1.
        1   -1    0    0  501    0  0.00000000000E+00  0.00000000000E+00 -0.23191268714E+04  0.23191268714E+04  0.50400001928E-02 0. -1.
    10030    2    1    2    0    0  0.00000000000E+00  0.00000000000E+00 -0.93142723964E+03  0.37068265032E+04  0.35878971588E+04 0.  0.
        4    1    3    3  502    0 -0.16694502390E+04  0.32415965443E+03  0.12427260922E+03  0.17051653516E+04  0.12699999809E+01 0.  1.
       -4    1    3    3    0  502  0.16694502390E+04 -0.32415965443E+03 -0.10556998489E+04  0.20016611516E+04  0.12699999809E+01 0. -1.
</event>
<event>
 5   0  0.3810833E-07  0.3890080E+04  0.7818609E-02  0.8027096E-01
        2   -1    0    0  501    0  0.00000000000E+00  0.00000000000E+00  0.18697069146E+04  0.18697069146E+04  0.25500000920E-02 0.  1.
       -2   -1    0    0    0  501  0.00000000000E+00  0.00000000000E+00 -0.20234080964E+04  0.20234080964E+04  0.25500000920E-02 0. -1.
    10030    2    1    2    0    0  0.00000000000E+00  0.00000000000E+00 -0.15370118180E+03  0.38931150109E+04  0.38900797466E+04 0.  0.
        3    1    3    3  502    0 -0.19151780585E+04  0.34456039771E+02  0.26117897348E+03  0.19332120113E+04  0.10100000352E+00 0. -1.
       -3    1    3    3    0  502  0.19151780585E+04 -0.34456039771E+02 -0.41488015528E+03  0.19599029996E+04  0.10100000352E+00 0.  1.
</event>
<event>
 5   0  0.3610483E-07  0.3700199E+04  0.7818609E-02  0.8067918E-01
       -2   -1    0    0    0  501  0.00000000000E+00  0.00000000000E+00  0.12297293503E+04  0.12297293503E+04  0.25500000920E-02 0.  1.
        2   -1    0    0  501    0  0.00000000000E+00  0.00000000000E+00 -0.27834321420E+04  0.27834321420E+04  0.25500000920E-02 0. -1.
    10030    2    1    2    0    0  0.00000000000E+00  0.00000000000E+00 -0.15537027917E+04  0.40131614923E+04  0.37001990214E+04 0.  0.
        4    1    3    3  502    0  0.17856697717E+04  0.48117466015E+03 -0.83342655371E+03  0.20284839217E+04  0.12699999809E+01 0. -1.
       -4    1    3    3    0  502 -0.17856697717E+04 -0.48117466015E+03 -0.72027623799E+03  0.19846775706E+04  0.12699999809E+01 0.  1.
</event>
<event>
 5   0  0.1187925E-07  0.3905540E+04  0.7818609E-02  0.8023878E-01
       -1   -1    0    0    0  501  0.00000000000E+00  0.00000000000E+00  0.23963668268E+04  0.23963668268E+04  0.50400001928E-02 0. -1.
        1   -1    0    0  501    0  0.00000000000E+00  0.00000000000E+00 -0.15912881188E+04  0.15912881188E+04  0.50400001928E-02 0.  1.
    10030    2    1    2    0    0  0.00000000000E+00  0.00000000000E+00  0.80507870802E+03  0.39876549456E+04  0.39055396860E+04 0.  0.
        1    1    3    3  502    0  0.12304091575E+04 -0.88393582323E+03 -0.85546198339E+03  0.17398460965E+04  0.50400001928E-02 0.  1.
       -1    1    3    3    0  502 -0.12304091575E+04  0.88393582323E+03  0.16605406914E+04  0.22478088491E+04  0.50400001928E-02 0. -1.
</event>
<event>
 5   0  0.3680814E-07  0.3534797E+04  0.7818609E-02  0.8105593E-01
        2   -1    0    0  501    0  0.00000000000E+00  0.00000000000E+00  0.26332549801E+04  0.26332549802E+04  0.25500000920E-02 0. -1.
       -2   -1    0    0    0  501  0.00000000000E+00  0.00000000000E+00 -0.11862492361E+04  0.11862492361E+04  0.25500000920E-02 0.  1.
    10030    2    1    2    0    0  0.00000000000E+00  0.00000000000E+00  0.14470057440E+04  0.38195042163E+04  0.35347965762E+04 0.  0.
        1    1    3    3  502    0  0.63186857267E+03 -0.27019824746E+03 -0.10359708790E+04  0.12431816634E+04  0.50400001928E-02 0.  1.
       -1    1    3    3    0  502 -0.63186857267E+03  0.27019824746E+03  0.24829766230E+04  0.25763225529E+04  0.50400001928E-02 0. -1.
</event>
<event>
 5   0  0.1187925E-07  0.3836398E+04  0.7818609E-02  0.8038389E-01
        1   -1    0    0  501    0  0.00000000000E+00  0.00000000000E+00  0.21325397613E+04  0.21325397613E+04  0.50400001928E-02 0.  1.
       -1   -1    0    0    0  501  0.00000000000E+00  0.00000000000E+00 -0.17254016906E+04  0.17254016906E+04  0.50400001928E-02 0. -1.
    10030    2    1    2    0    0  0.00000000000E+00  0.00000000000E+00  0.40713807071E+03  0.38579414519E+04  0.38363981594E+04 0.  0.
        5    1    3    3  502    0  0.39615491890E+03  0.18761436197E+04  0.15217413316E+03  0.19235468952E+04  0.46999998093E+01 0. -1.
       -5    1    3    3    0  502 -0.39615491890E+03 -0.18761436197E+04  0.25496393755E+03  0.19343945567E+04  0.46999998093E+01 0.  1.
</event>
<event>
 5   0  0.1187925E-07  0.3536427E+04  0.7818609E-02  0.8105211E-01
        1   -1    0    0  501    0  0.00000000000E+00  0.00000000000E+00  0.17420363232E+04  0.17420363232E+04  0.50400001928E-02 0.  1.
       -1   -1    0    0    0  501  0.00000000000E+00  0.00000000000E+00 -0.17947837739E+04  0.17947837739E+04  0.50400001928E-02 0. -1.
    10030    2    1    2    0    0  0.00000000000E+00  0.00000000000E+00 -0.52747450742E+02  0.35368200971E+04  0.35364267426E+04 0.  0.
        5    1    3    3  502    0 -0.24921172260E+03 -0.16267776012E+04 -0.67300932032E+03  0.17780538467E+04  0.46999998093E+01 0. -1.
       -5    1    3    3    0  502  0.24921172260E+03  0.16267776012E+04  0.62026186958E+03  0.17587662504E+04  0.46999998093E+01 0.  1.
</event>
<event>
 5   0  0.1187925E-07  0.3637851E+04  0.7818609E-02  0.8081876E-01
       -1   -1    0    0    0  501  0.00000000000E+00  0.00000000000E+00  0.21383749803E+04  0.21383749803E+04  0.50400001928E-02 0.  1.
        1   -1    0    0  501    0  0.00000000000E+00  0.00000000000E+00 -0.15471980047E+04  0.15471980047E+04  0.50400001928E-02 0. -1.
    10030    2    1    2    0    0  0.00000000000E+00  0.00000000000E+00  0.59117697566E+03  0.36855729850E+04  0.36378507406E+04 0.  0.
        1    1    3    3  502    0 -0.24733451042E+03 -0.65451746645E+03 -0.14054011637E+04  0.15699426438E+04  0.50400001928E-02 0. -1.
       -1    1    3    3    0  502  0.24733451042E+03  0.65451746645E+03  0.19965781394E+04  0.21156303412E+04  0.50400001928E-02 0.  1.
</event>
<event>
 5   0  0.1187925E-07  0.3909302E+04  0.7818609E-02  0.8023097E-01
        1   -1    0    0  501    0  0.00000000000E+00  0.00000000000E+00  0.16629353719E+04  0.16629353719E+04  0.50400001928E-02 0.  1.
       -1   -1    0    0    0  501  0.00000000000E+00  0.00000000000E+00 -0.22975405137E+04  0.22975405137E+04  0.50400001928E-02 0. -1.
    10030    2    1    2    0    0  0.00000000000E+00  0.00000000000E+00 -0.63460514179E+03  0.39604758856E+04  0.39093024384E+04 0.  0.
        3    1    3    3  502    0 -0.16727191773E+04  0.63766377054E+03  0.47786470287E+03  0.18528246584E+04  0.10100000352E+00 0.  1.
       -3    1    3    3    0  502  0.16727191773E+04 -0.63766377054E+03 -0.11124698447E+04  0.21076512273E+04  0.10100000352E+00 0. -1.
</event>
<event>
 5   0  0.1187925E-07  0.3099391E+04  0.7818609E-02  0.8215905E-01
       -1   -1    0    0    0  501  0.00000000000E+00  0.00000000000E+00  0.12577383784E+04  0.12577383784E+04  0.50400001928E-02 0. -1.
        1   -1    0    0  501    0  0.00000000000E+00  0.00000000000E+00 -0.19094241079E+04  0.19094241079E+04  0.50400001928E-02 0.  1.
    10030    2    1    2    0    0  0.00000000000E+00  0.00000000000E+00 -0.65168572950E+03  0.31671624863E+04  0.30993908957E+04 0.  0.
        3    1    3    3  502    0  0.11076828575E+04  0.75415508275E+03 -0.11212228770E+04  0.17472412403E+04  0.10100000352E+00 0.  1.
       -3    1    3    3    0  502 -0.11076828575E+04 -0.75415508275E+03  0.46953714749E+03  0.14199212460E+04  0.10100000352E+00 0. -1.
</event>
<event>
 5   0  0.1187925E-07  0.3826716E+04  0.7818609E-02  0.8040446E-01
        1   -1    0    0  501    0  0.00000000000E+00  0.00000000000E+00  0.25082249829E+04  0.25082249829E+04  0.50400001928E-02 0.  1.
       -1   -1    0    0    0  501  0.00000000000E+00  0.00000000000E+00 -0.14595733952E+04  0.14595733952E+04  0.50400001928E-02 0. -1.
    10030    2    1    2    0    0  0.00000000000E+00  0.00000000000E+00  0.10486515876E+04  0.39677983781E+04  0.38267158004E+04 0.  0.
        4    1    3    3  502    0  0.14244686792E+03  0.82276001402E+03 -0.12606871209E+04  0.15121371567E+04  0.12699999809E+01 0. -1.
       -4    1    3    3    0  502 -0.14244686792E+03 -0.82276001402E+03  0.23093387085E+04  0.24556612215E+04  0.12699999809E+01 0.  1.
</event>
<event>
 5   0  0.1187925E-07  0.3116531E+04  0.7818609E-02  0.8211216E-01
       -1   -1    0    0    0  501  0.00000000000E+00  0.00000000000E+00  0.12433305014E+04  0.12433305014E+04  0.50400001928E-02 0. -1.
        1   -1    0    0  501    0  0.00000000000E+00  0.00000000000E+00 -0.19529731709E+04  0.19529731709E+04  0.50400001928E-02 0.  1.
    10030    2    1    2    0    0  0.00000000000E+00  0.00000000000E+00 -0.70964266951E+03  0.31963036723E+04  0.31165308353E+04 0.  0.
        3    1    3    3  502    0 -0.34162391487E+03  0.97507484006E+03  0.84153323778E+03  0.13325374454E+04  0.10100000352E+00 0. -1.
       -3    1    3    3    0  502  0.34162391487E+03 -0.97507484006E+03 -0.15511759073E+04  0.18637662269E+04  0.10100000352E+00 0.  1.
</event>
<event>
 5   0  0.1187925E-07  0.3846493E+04  0.7818609E-02  0.8036251E-01
       -1   -1    0    0    0  501  0.00000000000E+00  0.00000000000E+00  0.20667342451E+04  0.20667342451E+04  0.50400001928E-02 0. -1.
        1   -1    0    0  501    0  0.00000000000E+00  0.00000000000E+00 -0.17897207996E+04  0.17897207996E+04  0.50400001928E-02 0.  1.
    10030    2    1    2    0    0  0.00000000000E+00  0.00000000000E+00  0.27701344551E+03  0.38564550447E+04  0.38464930863E+04 0.  0.
        1    1    3    3  502    0  0.65062838064E+03 -0.12265702409E+04  0.14727747242E+04  0.20240694736E+04  0.50400001928E-02 0. -1.
       -1    1    3    3    0  502 -0.65062838064E+03  0.12265702409E+04 -0.11957612787E+04  0.18323855711E+04  0.50400001928E-02 0.  1.
</event>
<event>
 5   0  0.1187925E-07  0.3917338E+04  0.7818609E-02  0.8021433E-01
        1   -1    0    0  501    0  0.00000000000E+00  0.00000000000E+00  0.24890306971E+04  0.24890306971E+04  0.50400001928E-02 0. -1.
       -1   -1    0    0    0  501  0.00000000000E+00  0.00000000000E+00 -0.15413168921E+04  0.15413168921E+04  0.50400001928E-02 0.  1.
    10030    2    1    2    0    0  0.00000000000E+00  0.00000000000E+00  0.94771380502E+03  0.40303475892E+04  0.39173384119E+04 0.  0.
        5    1    3    3  502    0  0.23527309454E+03  0.59100324697E+03  0.23797899123E+04  0.24633433345E+04  0.46999998093E+01 0. -1.
       -5    1    3    3    0  502 -0.23527309454E+03 -0.59100324697E+03 -0.14320761073E+04  0.15670042547E+04  0.46999998093E+01 0.  1.
</event>
<event>
 5   0  0.3810833E-07  0.3869864E+04  0.7818609E-02  0.8031326E-01
       -2   -1    0    0    0  501  0.00000000000E+00  0.00000000000E+00  0.16531797195E+04  0.16531797195E+04  0.25500000920E-02 0. -1.
        2   -1    0    0  501    0  0.00000000000E+00  0.00000000000E+00 -0.22647039625E+04  0.22647039625E+04  0.25500000920E-02 0.  1.
    10030    2    1    2    0    0  0.00000000000E+00  0.00000000000E+00 -0.61152424299E+03  0.39178836820E+04  0.38698644221E+04 0.  0.
        3    1    3    3  502    0  0.13099640288E+04 -0.91496244439E+03  0.79901663321E+03  0.17865020632E+04  0.10100000352E+00 0. -1.
       -3    1    3    3    0  502 -0.13099640288E+04  0.91496244439E+03 -0.14105408762E+04  0.21313816188E+04  0.10100000352E+00 0.  1.
</event>
<event>
 5   0  0.3665303E-07  0.3722318E+04  0.7818609E-02  0.8063034E-01
        2   -1    0    0  501    0  0.00000000000E+00  0.00000000000E+00  0.29002578756E+04  0.29002578756E+04  0.25500000920E-02 0. -1.
       -2   -1    0    0    0  501  0.00000000000E+00  0.00000000000E+00 -0.11943466732E+04  0.11943466733E+04  0.25500000920E-02 0.  1.
    10030    2    1    2    0    0  0.00000000000E+00  0.00000000000E+00  0.17059112024E+04  0.40946045489E+04  0.37223182805E+04 0.  0.
        2    1    3    3  502    0 -0.10495538712E+04 -0.32779013986E+03 -0.79886338390E+03  0.13591145686E+04  0.25500000920E-02 0.  1.
       -2    1    3    3    0  502  0.10495538712E+04  0.32779013986E+03  0.25047745863E+04  0.27354899803E+04  0.25500000920E-02 0. -1.
</event>
<event>
 5   0  0.1187925E-07  0.3727863E+04  0.7818609E-02  0.8061815E-01
        1   -1    0    0  501    0  0.00000000000E+00  0.00000000000E+00  0.23079863447E+04  0.23079863447E+04  0.50400001928E-02 0.  1.
       -1   -1    0    0    0  501  0.00000000000E+00  0.00000000000E+00 -0.15053121885E+04  0.15053121885E+04  0.50400001928E-02 0. -1.
    10030    2    1    2    0    0  0.00000000000E+00  0.00000000000E+00  0.80267415615E+03  0.38132985332E+04  0.37278626454E+04 0.  0.
        5    1    3    3  502    0  0.22217973537E+03  0.84596936853E+03 -0.12823470830E+04  0.15522448707E+04  0.46999998093E+01 0. -1.
       -5    1    3    3    0  502 -0.22217973537E+03 -0.84596936853E+03  0.20850212391E+04  0.22610536626E+04  0.46999998093E+01 0.  1.
</event>
<event>
 5   0  0.3680814E-07  0.3911767E+04  0.7818609E-02  0.8022586E-01
        2   -1    0    0  501    0  0.00000000000E+00  0.00000000000E+00  0.11670654119E+04  0.11670654119E+04  0.25500000920E-02 0. -1.
       -2   -1    0    0    0  501  0.00000000000E+00  0.00000000000E+00 -0.32778630193E+04  0.32778630193E+04  0.25500000920E-02 0.  1.
    10030    2    1    2    0    0  0.00000000000E+00  0.00000000000E+00 -0.21107976074E+04  0.44449284312E+04  0.39117671479E+04 0.  0.
        1    1    3    3  502    0 -0.92150193035E+02  0.19137211704E+03 -0.32647190857E+04  0.32716212577E+04  0.50400001928E-02 0.  1.
       -1    1    3    3    0  502  0.92150193035E+02 -0.19137211704E+03  0.11539214783E+04  0.11733071735E+04  0.50400001928E-02 0. -1.
</event>
<event>
 5   0  0.3680814E-07  0.3550681E+04  0.7818609E-02  0.8101883E-01
       -2   -1    0    0    0  501  0.00000000000E+00  0.00000000000E+00  0.12984145393E+04  0.12984145393E+04  0.25500000920E-02 0.  1.
        2   -1    0    0  501    0  0.00000000000E+00  0.00000000000E+00 -0.24274481230E+04  0.24274481230E+04  0.25500000920E-02 0. -1.
    10030    2    1    2    0    0  0.00000000000E+00  0.00000000000E+00 -0.11290335837E+04  0.37258626624E+04  0.35506810256E+04 0.  0.
        1    1    3    3  502    0  0.30731673439E+03  0.77488190513E+02  0.12684886472E+04  0.13074828653E+04  0.50400001928E-02 0.  1.
       -1    1    3    3    0  502 -0.30731673439E+03 -0.77488190513E+02 -0.23975222309E+04  0.24183797970E+04  0.50400001928E-02 0. -1.
</event>
<event>
 5   0  0.3610483E-07  0.3878105E+04  0.7818609E-02  0.8029598E-01
       -2   -1    0    0    0  501  0.00000000000E+00  0.00000000000E+00  0.16394896565E+04  0.16394896565E+04  0.25500000920E-02 0.  1.
        2   -1    0    0  501    0  0.00000000000E+00  0.00000000000E+00 -0.22933508629E+04  0.22933508629E+04  0.25500000920E-02 0. -1.
    10030    2    1    2    0    0  0.00000000000E+00  0.00000000000E+00 -0.65386120645E+03  0.39328405194E+04  0.38781052169E+04 0.  0.
        4    1    3    3  502    0  0.11142550565E+04 -0.98967317045E+03 -0.15849658445E+04  0.21755770858E+04  0.12699999809E+01 0. -1.
       -4    1    3    3    0  502 -0.11142550565E+04  0.98967317045E+03  0.93110463802E+03  0.17572634336E+04  0.12699999809E+01 0.  1.
</event>
<event>
 5   0  0.3665303E-07  0.3908599E+04  0.7818609E-02  0.8023243E-01
        2   -1    0    0  501    0  0.00000000000E+00  0.00000000000E+00  0.13210250700E+04  0.13210250700E+04  0.25500000920E-02 0. -1.
       -2   -1    0    0    0  501  0.00000000000E+00  0.00000000000E+00 -0.28911530681E+04  0.28911530681E+04  0.25500000920E-02 0.  1.
    10030    2    1    2    0    0  0.00000000000E+00  0.00000000000E+00 -0.15701279981E+04  0.42121781381E+04  0.39085985643E+04 0.  0.
        2    1    3    3  502    0 -0.18804167025E+04  0.38805161177E+03 -0.11776888872E+04  0.22524435938E+04  0.25500000920E-02 0.  1.
       -2    1    3    3    0  502  0.18804167025E+04 -0.38805161177E+03 -0.39243911087E+03  0.19597345443E+04  0.25500000920E-02 0. -1.
</event>
<event>
 5   0  0.1187925E-07  0.3588074E+04  0.7818609E-02  0.8093229E-01
       -1   -1    0    0    0  501  0.00000000000E+00  0.00000000000E+00  0.19074808615E+04  0.19074808615E+04  0.50400001928E-02 0.  1.
        1   -1    0    0  501    0  0.00000000000E+00  0.00000000000E+00 -0.16873396152E+04  0.16873396152E+04  0.50400001928E-02 0. -1.
    10030    2    1    2    0    0  0.00000000000E+00  0.00000000000E+00  0.22014124632E+03  0.35948204767E+04  0.35880735905E+04 0.  0.
        5    1    3    3  502    0  0.29128679974E+03  0.43787079334E+02 -0.16629407914E+04  0.16888337614E+04  0.46999998093E+01 0. -1.
       -5    1    3    3    0  502 -0.29128679974E+03 -0.43787079334E+02  0.18830820377E+04  0.19059867153E+04  0.46999998093E+01 0.  1.
</event>
<event>
 5   0  0.3665303E-07  0.3867783E+04  0.7818609E-02  0.8031763E-01
       -2   -1    0    0    0  501  0.00000000000E+00  0.00000000000E+00  0.16294162676E+04  0.16294162676E+04  0.25500000920E-02 0. -1.
        2   -1    0    0  501    0  0.00000000000E+00  0.00000000000E+00 -0.22952619144E+04  0.22952619144E+04  0.25500000920E-02 0.  1.
    10030    2    1    2    0    0  0.00000000000E+00  0.00000000000E+00 -0.66584564678E+03  0.39246781821E+04  0.38677833972E+04 0.  0.
        2    1    3    3  502    0  0.15708051765E+04 -0.86602047601E+02 -0.14741933221E+04  0.21559626082E+04  0.25500000920E-02 0.  1.
       -2    1    3    3    0  502 -0.15708051765E+04  0.86602047601E+02  0.80834767529E+03  0.17687155739E+04  0.25500000920E-02 0. -1.
</event>
<event>
 5   0  0.1187925E-07  0.2913301E+04  0.7818609E-02  0.8268931E-01
       -1   -1    0    0    0  501  0.00000000000E+00  0.00000000000E+00  0.13737866739E+04  0.13737866739E+04  0.50400001928E-02 0.  1.
        1   -1    0    0  501    0  0.00000000000E+00  0.00000000000E+00 -0.15445126659E+04  0.15445126659E+04  0.50400001928E-02 0. -1.
    10030    2    1    2    0    0  0.00000000000E+00  0.00000000000E+00 -0.17072599201E+03  0.29182993398E+04  0.29133011640E+04 0.  0.
        5    1    3    3  502    0  0.84994094377E+03  0.81830722035E+03 -0.94110171159E+03  0.15092119918E+04  0.46999998093E+01 0. -1.
       -5    1    3    3    0  502 -0.84994094377E+03 -0.81830722035E+03  0.77037571958E+03  0.14090873479E+04  0.46999998093E+01 0.  1.
</event>
<event>
 5   0  0.1187925E-07  0.3915071E+04  0.7818609E-02  0.8021902E-01
        1   -1    0    0  501    0  0.00000000000E+00  0.00000000000E+00  0.17142610658E+04  0.17142610659E+04  0.50400001928E-02 0. -1.
       -1   -1    0    0    0  501  0.00000000000E+00  0.00000000000E+00 -0.22353337926E+04  0.22353337926E+04  0.50400001928E-02 0.  1.
    10030    2    1    2    0    0  0.00000000000E+00  0.00000000000E+00 -0.52107272679E+03  0.39495948585E+04  0.39150712330E+04 0.  0.
        4    1    3    3  502    0 -0.89413522435E+02  0.15325325249E+04 -0.14858635640E+04  0.21364556774E+04  0.12699999809E+01 0.  1.
       -4    1    3    3    0  502  0.89413522435E+02 -0.15325325249E+04  0.96479083717E+03  0.18131391811E+04  0.12699999809E+01 0. -1.
</event>
<event>
 5   0  0.1187925E-07  0.3899077E+04  0.7818609E-02  0.8025221E-01
       -1   -1    0    0    0  501  0.00000000000E+00  0.00000000000E+00  0.24833944760E+04  0.24833944760E+04  0.50400001928E-02 0.  1.
        1   -1    0    0  501    0  0.00000000000E+00  0.00000000000E+00 -0.15304457560E+04  0.15304457560E+04  0.50400001928E-02 0. -1.
    10030    2    1    2    0    0  0.00000000000E+00  0.00000000000E+00  0.95294872002E+03  0.40138402320E+04  0.38990770889E+04 0.  0.
        2    1    3    3  502    0  0.16870479823E+04 -0.69332272232E+03 -0.23217166301E+03  0.18386764188E+04  0.25500000920E-02 0. -1.
       -2    1    3    3    0  502 -0.16870479823E+04  0.69332272232E+03  0.11851203830E+04  0.21751638132E+04  0.25500000920E-02 0.  1.
</event>
<event>
 5   0  0.1187925E-07  0.3961130E+04  0.7818609E-02  0.8012434E-01
        1   -1    0    0  501    0  0.00000000000E+00  0.00000000000E+00  0.26422981190E+04  0.26422981191E+04  0.50400001928E-02 0.  1.
       -1   -1    0    0    0  501  0.00000000000E+00  0.00000000000E+00 -0.14845551459E+04  0.14845551459E+04  0.50400001928E-02 0. -1.
    10030    2    1    2    0    0  0.00000000000E+00  0.00000000000E+00  0.11577429731E+04  0.41268532650E+04  0.39611297730E+04 0.  0.
        4    1    3    3  502    0 -0.83604070573E+03  0.17675682771E+03  0.24403608295E+04  0.25856468492E+04  0.12699999809E+01 0.  1.
       -4    1    3    3    0  502  0.83604070573E+03 -0.17675682771E+03 -0.12826178563E+04  0.15412064158E+04  0.12699999809E+01 0. -1.
</event>
<event>
 5   0  0.3680814E-07  0.3884307E+04  0.7818609E-02  0.8028301E-01
        2   -1    0    0  501    0  0.00000000000E+00  0.00000000000E+00  0.17751114228E+04  0.17751114228E+04  0.25500000920E-02 0.  1.
       -2   -1    0    0    0  501  0.00000000000E+00  0.00000000000E+00 -0.21249142001E+04  0.21249142001E+04  0.25500000920E-02 0. -1.
    10030    2    1    2    0    0  0.00000000000E+00  0.00000000000E+00 -0.34980277723E+03  0.39000256229E+04  0.38843066146E+04 0.  0.
        1    1    3    3  502    0  0.17824817855E+04  0.77108537639E+03 -0.16279041825E+03  0.19489265491E+04  0.50400001928E-02 0. -1.
       -1    1    3    3    0  502 -0.17824817855E+04 -0.77108537639E+03 -0.18701235898E+03  0.19510990738E+04  0.50400001928E-02 0.  1.
</event>
<event>
 5   0  0.3610483E-07  0.4063872E+04  0.7818609E-02  0.7991784E-01
        2   -1    0    0  501    0  0.00000000000E+00  0.00000000000E+00  0.22260891125E+04  0.22260891125E+04  0.25500000920E-02 0.  1.
       -2   -1    0    0    0  501  0.00000000000E+00  0.00000000000E+00 -0.18547159141E+04  0.18547159141E+04  0.25500000920E-02 0. -1.
    10030    2    1    2    0    0  0.00000000000E+00  0.00000000000E+00  0.37137319833E+03  0.40808050266E+04  0.40638715054E+04 0.  0.
        4    1    3    3  502    0 -0.13340787923E+04 -0.14822513513E+03 -0.13461284930E+04  0.19009998547E+04  0.12699999809E+01 0. -1.
       -4    1    3    3    0  502  0.13340787923E+04  0.14822513513E+03  0.17175016913E+04  0.21798051719E+04  0.12699999809E+01 0.  1.
</event>
<event>
 5   0  0.1187925E-07  0.3536633E+04  0.7818609E-02  0.8105163E-01
       -1   -1    0    0    0  501  0.00000000000E+00  0.00000000000E+00  0.22040845379E+04  0.22040845379E+04  0.50400001928E-02 0. -1.
        1   -1    0    0  501    0  0.00000000000E+00  0.00000000000E+00 -0.14187041740E+04  0.14187041740E+04  0.50400001928E-02 0.  1.
    10030    2    1    2    0    0  0.00000000000E+00  0.00000000000E+00  0.78538036385E+03  0.36227887119E+04  0.35366333900E+04 0.  0.
        3    1    3    3  502    0 -0.16538980846E+04 -0.60137765790E+03  0.21553213126E+03  0.17729884578E+04  0.10100000352E+00 0. -1.
       -3    1    3    3    0  502  0.16538980846E+04  0.60137765790E+03  0.56984823259E+03  0.18498002541E+04  0.10100000352E+00 0.  1.
</event>
<event>
 5   0  0.3810833E-07  0.3987238E+04  0.7818609E-02  0.8007126E-01
       -2   -1    0    0    0  501  0.00000000000E+00  0.00000000000E+00  0.12169663075E+04  0.12169663075E+04  0.25500000920E-02 0. -1.
        2   -1    0    0  501    0  0.00000000000E+00  0.00000000000E+00 -0.32659218785E+04  0.32659218785E+04  0.25500000920E-02 0.  1.
    10030    2    1    2    0    0  0.00000000000E+00  0.00000000000E+00 -0.20489555710E+04  0.44828881861E+04  0.39872380863E+04 0.  0.
        3    1    3    3  502    0 -0.92264411328E+03 -0.16905628981E+04 -0.44544023776E+03  0.19767883265E+04  0.10100000352E+00 0. -1.
       -3    1    3    3    0  502  0.92264411328E+03  0.16905628981E+04 -0.16035153333E+04  0.25060998596E+04  0.10100000352E+00 0.  1.
</event>
<event>
 5   0  0.1187925E-07  0.3181975E+04  0.7818609E-02  0.8193594E-01
        1   -1    0    0  501    0  0.00000000000E+00  0.00000000000E+00  0.22784091566E+04  0.22784091566E+04  0.50400001928E-02 0.  1.
       -1   -1    0    0    0  501  0.00000000000E+00  0.00000000000E+00 -0.11109687812E+04  0.11109687812E+04  0.50400001928E-02 0. -1.
    10030    2    1    2    0    0  0.00000000000E+00  0.00000000000E+00  0.11674403754E+04  0.33893779378E+04  0.31819751374E+04 0.  0.
        3    1    3    3  502    0 -0.39397880261E+03 -0.90425079710E+03  0.19134275880E+04  0.21526945779E+04  0.10100000352E+00 0.  1.
       -3    1    3    3    0  502  0.39397880261E+03  0.90425079710E+03 -0.74598721264E+03  0.12366833599E+04  0.10100000352E+00 0. -1.
</event>
<event>
 5   0  0.1187925E-07  0.3835490E+04  0.7818609E-02  0.8038581E-01
       -1   -1    0    0    0  501  0.00000000000E+00  0.00000000000E+00  0.13182315732E+04  0.13182315732E+04  0.50400001928E-02 0.  1.
        1   -1    0    0  501    0  0.00000000000E+00  0.00000000000E+00 -0.27899083890E+04  0.27899083890E+04  0.50400001928E-02 0. -1.
    10030    2    1    2    0    0  0.00000000000E+00  0.00000000000E+00 -0.14716768158E+04  0.41081399622E+04  0.38354897079E+04 0.  0.
        2    1    3    3  502    0  0.15542511749E+04  0.92245024543E+03 -0.14226161129E+04  0.23000973403E+04  0.25500000920E-02 0. -1.
       -2    1    3    3    0  502 -0.15542511749E+04 -0.92245024543E+03 -0.49060702818E+02  0.18080426219E+04  0.25500000920E-02 0.  1.
</event>
<event>
 5   0  0.3665303E-07  0.3940490E+04  0.7818609E-02  0.8016660E-01
       -2   -1    0    0    0  501  0.00000000000E+00  0.00000000000E+00  0.30597874102E+04  0.30597874102E+04  0.25500000920E-02 0. -1.
        2   -1    0    0  501    0  0.00000000000E+00  0.00000000000E+00 -0.12686713128E+04  0.12686713128E+04  0.25500000920E-02 0.  1.
    10030    2    1    2    0    0  0.00000000000E+00  0.00000000000E+00  0.17911160974E+04  0.43284587229E+04  0.39404895688E+04 0.  0.
        2    1    3    3  502    0  0.93340295863E+03 -0.15383292654E+04  0.13936563532E+02  0.17994144158E+04  0.25500000920E-02 0.  1.
       -2    1    3    3    0  502 -0.93340295863E+03  0.15383292654E+04  0.17771795339E+04  0.25290443072E+04  0.25500000920E-02 0. -1.
</event>
<event>
 5   0  0.1187925E-07  0.3996373E+04  0.7818609E-02  0.8005279E-01
        3   -1    0    0  501    0  0.00000000000E+00  0.00000000000E+00  0.20196285027E+04  0.20196285052E+04  0.10100000352E+00 0. -1.
       -3   -1    0    0    0  501  0.00000000000E+00  0.00000000000E+00 -0.19769719441E+04  0.19769719467E+04  0.10100000352E+00 0.  1.
    10030    2    1    2    0    0  0.00000000000E+00  0.00000000000E+00  0.42656558589E+02  0.39966004519E+04  0.39963728042E+04 0.  0.
        1    1    3    3  502    0  0.10984246347E+04  0.44864200265E+03 -0.15865358553E+04  0.19811391533E+04  0.50400001928E-02 0.  1.
       -1    1    3    3    0  502 -0.10984246347E+04 -0.44864200265E+03  0.16291924139E+04  0.20154612986E+04  0.50400001928E-02 0. -1.
</event>
<event>
 5   0  0.1187925E-07  0.3817753E+04  0.7818609E-02  0.8042356E-01
       -1   -1    0    0    0  501  0.00000000000E+00  0.00000000000E+00  0.18926630424E+04  0.18926630424E+04  0.50400001928E-02 0.  1.
        1   -1    0    0  501    0  0.00000000000E+00  0.00000000000E+00 -0.19252285594E+04  0.19252285594E+04  0.50400001928E-02 0. -1.
    10030    2    1    2    0    0  0.00000000000E+00  0.00000000000E+00 -0.32565516999E+02  0.38178916019E+04  0.38177527121E+04 0.  0.
        1    1    3    3  502    0  0.56115777915E+03  0.10636242810E+04 -0.14987719422E+04  0.19215910072E+04  0.50400001928E-02 0. -1.
       -1    1    3    3    0  502 -0.56115777915E+03 -0.10636242810E+04  0.14662064252E+04  0.18963005947E+04  0.50400001928E-02 0.  1.
</event>
<event>
 5   0  0.3610483E-07  0.3156986E+04  0.7818609E-02  0.8200270E-01
       -2   -1    0    0    0  501  0.00000000000E+00  0.00000000000E+00  0.89145019714E+03  0.89145019714E+03  0.25500000920E-02 0. -1.
        2   -1    0    0  501    0  0.00000000000E+00  0.00000000000E+00 -0.27950408463E+04  0.27950408463E+04  0.25500000920E-02 0.  1.
    10030    2    1    2    0    0  0.00000000000E+00  0.00000000000E+00 -0.19035906492E+04  0.36864910435E+04  0.31569857228E+04 0.  0.
        4    1    3    3  502    0 -0.13591403609E+04 -0.70998099627E+03 -0.51440077141E+03  0.16173884203E+04  0.12699999809E+01 0.  1.
       -4    1    3    3    0  502  0.13591403609E+04  0.70998099627E+03 -0.13891898778E+04  0.20691026231E+04  0.12699999809E+01 0. -1.
</event>
<event>
 5   0  0.1187925E-07  0.3883277E+04  0.7818609E-02  0.8028516E-01
        1   -1    0    0  501    0  0.00000000000E+00  0.00000000000E+00  0.26351519160E+04  0.26351519160E+04  0.50400001928E-02 0.  1.
       -1   -1    0    0    0  501  0.00000000000E+00  0.00000000000E+00 -0.14306426181E+04  0.14306426181E+04  0.50400001928E-02 0. -1.
    10030    2    1    2    0    0  0.00000000000E+00  0.00000000000E+00  0.12045092979E+04  0.40657945341E+04  0.38832772944E+04 0.  0.
        1    1    3    3  502    0  0.10455019586E+04  0.15320189653E+04  0.12035323562E+04  0.22110284006E+04  0.50400001928E-02 0. -1.
       -1    1    3    3    0  502 -0.10455019586E+04 -0.15320189653E+04  0.97694162594E+00  0.18547661335E+04  0.50400001928E-02 0.  1.
</event>
<event>
 5   0  0.3610483E-07  0.3868381E+04  0.7818609E-02  0.8031638E-01
        2   -1    0    0  501    0  0.00000000000E+00  0.00000000000E+00  0.24336198898E+04  0.24336198898E+04  0.25500000920E-02 0.  1.
       -2   -1    0    0    0  501  0.00000000000E+00  0.00000000000E+00 -0.15372545321E+04  0.15372545321E+04  0.25500000920E-02 0. -1.
    10030    2    1    2    0    0  0.00000000000E+00  0.00000000000E+00  0.89636535776E+03  0.39708744219E+04  0.38683811627E+04 0.  0.
        4    1    3    3  502    0 -0.95185071131E+03  0.54260003966E+03  0.20843582823E+04  0.23547793191E+04  0.12699999809E+01 0.  1.
       -4    1    3    3    0  502  0.95185071131E+03 -0.54260003966E+03 -0.11879929245E+04  0.16160951028E+04  0.12699999809E+01 0. -1.
</event>
<event>
 5   0  0.3832389E-07  0.3924920E+04  0.7818609E-02  0.8019866E-01
       -2   -1    0    0    0  501  0.00000000000E+00  0.00000000000E+00  0.28861595509E+04  0.28861595509E+04  0.25500000920E-02 0.  1.
        2   -1    0    0  501    0  0.00000000000E+00  0.00000000000E+00 -0.13343856836E+04  0.13343856836E+04  0.25500000920E-02 0. -1.
    10030    2    1    2    0    0  0.00000000000E+00  0.00000000000E+00  0.15517738674E+04  0.42205452345E+04  0.39249203738E+04 0.  0.
        5    1    3    3  502    0  0.76561637037E+03  0.12481747135E+04 -0.62909147994E+03  0.15937022062E+04  0.46999998093E+01 0. -1.
       -5    1    3    3    0  502 -0.76561637037E+03 -0.12481747135E+04  0.21808653473E+04  0.26268430283E+04  0.46999998093E+01 0.  1.
</event>
<event>
 5   0  0.1187925E-07  0.3908447E+04  0.7818609E-02  0.8023275E-01
       -1   -1    0    0    0  501  0.00000000000E+00  0.00000000000E+00  0.14733852696E+04  0.14733852696E+04  0.50400001928E-02 0.  1.
        1   -1    0    0  501    0  0.00000000000E+00  0.00000000000E+00 -0.25919832574E+04  0.25919832574E+04  0.50400001928E-02 0. -1.
    10030    2    1    2    0    0  0.00000000000E+00  0.00000000000E+00 -0.11185979878E+04  0.40653685270E+04  0.39084472367E+04 0.  0.
        4    1    3    3  502    0  0.92897543247E+02 -0.83372607346E+02 -0.25878320555E+04  0.25908410421E+04  0.12699999809E+01 0. -1.
       -4    1    3    3    0  502 -0.92897543247E+02  0.83372607346E+02  0.14692340677E+04  0.14745274849E+04  0.12699999809E+01 0.  1.
</event>
<event>
 5   0  0.3832389E-07  0.3656949E+04  0.7818609E-02  0.8077570E-01
        2   -1    0    0  501    0  0.00000000000E+00  0.00000000000E+00  0.18412210372E+04  0.18412210372E+04  0.25500000920E-02 0.  1.
       -2   -1    0    0    0  501  0.00000000000E+00  0.00000000000E+00 -0.18158162418E+04  0.18158162418E+04  0.25500000920E-02 0. -1.
    10030    2    1    2    0    0  0.00000000000E+00  0.00000000000E+00  0.25404795345E+02  0.36570372790E+04  0.36569490366E+04 0.  0.
        5    1    3    3  502    0  0.80631932685E+03  0.40190813936E+03 -0.15784412609E+04  0.18174652441E+04  0.46999998093E+01 0. -1.
       -5    1    3    3    0  502 -0.80631932685E+03 -0.40190813936E+03  0.16038460563E+04  0.18395720349E+04  0.46999998093E+01 0.  1.
</event>
<event>
 5   0  0.1187925E-07  0.3749181E+04  0.7818609E-02  0.8057149E-01
       -1   -1    0    0    0  501  0.00000000000E+00  0.00000000000E+00  0.17075641786E+04  0.17075641786E+04  0.50400001928E-02 0.  1.
        1   -1    0    0  501    0  0.00000000000E+00  0.00000000000E+00 -0.20579549030E+04  0.20579549031E+04  0.50400001928E-02 0. -1.
    10030    2    1    2    0    0  0.00000000000E+00  0.00000000000E+00 -0.35039072441E+03  0.37655190817E+04  0.37491812833E+04 0.  0.
        2    1    3    3  502    0  0.83446624699E+03 -0.10262552707E+04  0.11589592725E+04  0.17586132017E+04  0.25500000920E-02 0.  1.
       -2    1    3    3    0  502 -0.83446624699E+03  0.10262552707E+04 -0.15093499969E+04  0.20069058800E+04  0.25500000920E-02 0. -1.
</event>
<event>
 5   0  0.3665303E-07  0.3974911E+04  0.7818609E-02  0.8009627E-01
       -2   -1    0    0    0  501  0.00000000000E+00  0.00000000000E+00  0.21043370714E+04  0.21043370714E+04  0.25500000920E-02 0.  1.
        2   -1    0    0  501    0  0.00000000000E+00  0.00000000000E+00 -0.18770661394E+04  0.18770661394E+04  0.25500000920E-02 0. -1.
    10030    2    1    2    0    0  0.00000000000E+00  0.00000000000E+00  0.22727093204E+03  0.39814032108E+04  0.39749112506E+04 0.  0.
        2    1    3    3  502    0  0.18167327835E+04 -0.60139348820E+03  0.65097013401E+03  0.20213743467E+04  0.25500000920E-02 0.  1.
       -2    1    3    3    0  502 -0.18167327835E+04  0.60139348820E+03 -0.42369920197E+03  0.19600288640E+04  0.25500000920E-02 0. -1.
</event>
<event>
 5   0  0.1187925E-07  0.2797999E+04  0.7818609E-02  0.8303890E-01
       -1   -1    0    0    0  501  0.00000000000E+00  0.00000000000E+00  0.77444349832E+03  0.77444349834E+03  0.50400001928E-02 0.  1.
        1   -1    0    0  501    0  0.00000000000E+00  0.00000000000E+00 -0.25272341034E+04  0.25272341034E+04  0.50400001928E-02 0. -1.
    10030    2    1    2    0    0  0.00000000000E+00  0.00000000000E+00 -0.17527906051E+04  0.33016776018E+04  0.27979992996E+04 0.  0.
        5    1    3    3  502    0  0.53114838577E+03  0.10524825775E+04 -0.17652047603E+04  0.21226888890E+04  0.46999998093E+01 0. -1.
       -5    1    3    3    0  502 -0.53114838577E+03 -0.10524825775E+04  0.12414155231E+02  0.11789887128E+04  0.46999998093E+01 0.  1.
</event>
</LesHouchesEvents>
