<LesHouchesEvents version="3.0">
<header>
<!--
#*********************************************************************
#                                                                    *
#                        MadGraph5_aMC@NLO                           *
#                                                                    *
#                           Going Beyond                             *
#                                                                    *
#                   http://madgraph.hep.uiuc.edu                     *
#                   http://madgraph.phys.ucl.ac.be                   *
#                   http://amcatnlo.cern.ch                          *
#                                                                    *
#                     The MadGraph5_aMC@NLO team                     *
#                                                                    *
#....................................................................*
#                                                                    *
# This file contains all the information necessary to reproduce      *
# the events generated:                                              *
#                                                                    *
# 1. software version                                                *
# 2. proc_card          : code generation info including model       *
# 3. param_card         : model primary parameters in the LH format  *
# 4. run_card           : running parameters (collider and cuts)     *
# 5. pythia_card        : present only if pythia has been run        *
# 6. pgs_card           : present only if pgs has been run           *
# 7. delphes_cards      : present only if delphes has been run       *
#                                                                    *
#                                                                    *
#*********************************************************************
-->
<MGVersion>
#5.2.2.3
</MGVersion>
<MG5ProcCard>
#************************************************************
#*                     MadGraph5_aMC@NLO                    *
#*                                                          *
#*                *                       *                 *
#*                  *        * *        *                   *
#*                    * * * * 5 * * * *                     *
#*                  *        * *        *                   *
#*                *                       *                 *
#*                                                          *
#*                                                          *
#*         VERSION 2.2.3                 2015-02-10         *
#*                                                          *
#*    The MadGraph5_aMC@NLO Development Team - Find us at   *
#*    https://server06.fynu.ucl.ac.be/projects/madgraph     *
#*                                                          *
#************************************************************
#*                                                          *
#*               Command File for MadGraph5_aMC@NLO         *
#*                                                          *
#*     run as ./bin/mg5_aMC  filename                       *
#*                                                          *
#************************************************************
set group_subprocesses Auto
set ignore_six_quark_processes False
set loop_optimized_output True
set gauge unitary
set complex_mass_scheme False
import model sm
define p = g u c d s u~ c~ d~ s~
define j = g u c d s u~ c~ d~ s~
define l+ = e+ mu+
define l- = e- mu-
define vl = ve vm vt
define vl~ = ve~ vm~ vt~
import model Zprime_UFO
generate p p > zph, zph > j j
add process p p > zph, zph > b b~
output Dijet_signal
</MG5ProcCard>
<MGProcCard>
#*********************************************************************
#                        MadGraph/MadEvent                           *
#                   http://madgraph.hep.uiuc.edu                     *
#                                                                    *
#                          proc_card.dat                             *
#*********************************************************************
#                                                                    *
#            This Files is generated by MADGRAPH 5                   *
#                                                                    *
# WARNING: This Files is generated for MADEVENT (compatibility issue)*
#          This files is NOT a valid MG4 proc_card.dat               *
#          Running this in MG4 will NEVER reproduce the result of MG5*
#                                                                    *
#*********************************************************************
#*********************************************************************
# Process(es) requested : mg2 input                                  *
#*********************************************************************
# Begin PROCESS # This is TAG. Do not modify this line
p p > zph , zph > j j           #Process
# Be carefull the coupling are here in MG5 convention
          
end_coup           # End the couplings input

done               # this tells MG there are no more procs
# End PROCESS  # This is TAG. Do not modify this line
#*********************************************************************
# Model information                                                  *
#*********************************************************************
# Begin MODEL  # This is TAG. Do not modify this line
Zprime_UFO
# End   MODEL  # This is TAG. Do not modify this line
#*********************************************************************
# Start multiparticle definitions                                    *
#*********************************************************************
# Begin MULTIPARTICLES # This is TAG. Do not modify this line

# End  MULTIPARTICLES # This is TAG. Do not modify this line
</MGProcCard>
<MGRunCard>
#*********************************************************************
#                       MadGraph5_aMC@NLO                            *
#                                                                    *
#                     run_card.dat MadEvent                          *
#                                                                    *
#  This file is used to set the parameters of the run.               *
#                                                                    *
#  Some notation/conventions:                                        *
#                                                                    *
#   Lines starting with a '# ' are info or comments                  *
#                                                                    *
#   mind the format:   value    = variable     ! comment             *
#*********************************************************************
#
#*******************                                                 
# Running parameters
#*******************                                                 
#                                                                    
#*********************************************************************
# Tag name for the run (one word)                                    *
#*********************************************************************
  tag_1     = run_tag ! name of the run 
#*********************************************************************
# Run to generate the grid pack                                      *
#*********************************************************************
  .false.     = gridpack  !True = setting up the grid pack
#*********************************************************************
# Number of events and rnd seed                                      *
# Warning: Do not generate more than 1M events in a single run       *
# If you want to run Pythia, avoid more than 50k events in a run.    *
#*********************************************************************
  2000 = nevents ! Number of unweighted events requested 
 1218 = iseed   ! rnd seed (0=assigned automatically=default))
#*********************************************************************
# Collider type and energy                                           *
# lpp: 0=No PDF, 1=proton, -1=antiproton, 2=photon from proton,      *
#                                         3=photon from electron     *
#*********************************************************************
        1     = lpp1    ! beam 1 type 
        1     = lpp2    ! beam 2 type
     4000     = ebeam1  ! beam 1 total energy in GeV
     4000     = ebeam2  ! beam 2 total energy in GeV
#*********************************************************************
# Beam polarization from -100 (left-handed) to 100 (right-handed)    *
#*********************************************************************
        0     = polbeam1 ! beam polarization for beam 1
        0     = polbeam2 ! beam polarization for beam 2
#*********************************************************************
# PDF CHOICE: this automatically fixes also alpha_s and its evol.    *
#*********************************************************************
 'nn23lo1'    = pdlabel     ! PDF set                                     
 230000    = lhaid     ! if pdlabel=lhapdf, this is the lhapdf number
#*********************************************************************
# Renormalization and factorization scales                           *
#*********************************************************************
 F        = fixed_ren_scale  ! if .true. use fixed ren scale
 F        = fixed_fac_scale  ! if .true. use fixed fac scale
 91.1880  = scale            ! fixed ren scale
 91.1880  = dsqrt_q2fact1    ! fixed fact scale for pdf1
 91.1880  = dsqrt_q2fact2    ! fixed fact scale for pdf2
 1        = scalefact        ! scale factor for event-by-event scales
#*********************************************************************
# Matching - Warning! ickkw > 1 is still beta
#*********************************************************************
 0        = ickkw            ! 0 no matching, 1 MLM, 2 CKKW matching
 1        = highestmult      ! for ickkw=2, highest mult group
 1        = ktscheme         ! for ickkw=1, 1 Durham kT, 2 Pythia pTE
 1        = alpsfact         ! scale factor for QCD emission vx
 F        = chcluster        ! cluster only according to channel diag
 T        = pdfwgt           ! for ickkw=1, perform pdf reweighting
 5        = asrwgtflavor     ! highest quark flavor for a_s reweight
 T        = clusinfo         ! include clustering tag in output
 3.0      = lhe_version       ! Change the way clustering information pass to shower.        
#*********************************************************************
#**********************************************************
#
#**********************************************************
# Automatic ptj and mjj cuts if xqcut > 0
# (turn off for VBF and single top processes)
#**********************************************************
   T  = auto_ptj_mjj  ! Automatic setting of ptj and mjj
#**********************************************************
#                                                                    
#**********************************
# BW cutoff (M+/-bwcutoff*Gamma)
#**********************************
  15  = bwcutoff      ! (M+/-bwcutoff*Gamma)
#**********************************************************
# Apply pt/E/eta/dr/mij cuts on decay products or not
# (note that etmiss/ptll/ptheavy/ht/sorted cuts always apply)
#**********************************************************
   T  = cut_decays    ! Cut decay products 
#*************************************************************
# Number of helicities to sum per event (0 = all helicities)
# 0 gives more stable result, but longer run time (needed for
# long decay chains e.g.).
# Use >=2 if most helicities contribute, e.g. pure QCD.
#*************************************************************
   0  = nhel          ! Number of helicities used per event
#*******************                                                 
# Standard Cuts
#*******************                                                 
#                                                                    
#*********************************************************************
# Minimum and maximum pt's (for max, -1 means no cut)                *
#*********************************************************************
 20  = ptj       ! minimum pt for the jets 
  0  = ptb       ! minimum pt for the b 
 10  = pta       ! minimum pt for the photons 
 10  = ptl       ! minimum pt for the charged leptons 
  0  = misset    ! minimum missing Et (sum of neutrino's momenta)
  0  = ptheavy   ! minimum pt for one heavy final state
 1.0 = ptonium   ! minimum pt for the quarkonium states
 -1  = ptjmax    ! maximum pt for the jets
 -1  = ptbmax    ! maximum pt for the b
 -1  = ptamax    ! maximum pt for the photons
 -1  = ptlmax    ! maximum pt for the charged leptons
 -1  = missetmax ! maximum missing Et (sum of neutrino's momenta)
#*********************************************************************
# Minimum and maximum E's (in the center of mass frame)              *
#*********************************************************************
  0  = ej     ! minimum E for the jets 
  0  = eb     ! minimum E for the b 
  0  = ea     ! minimum E for the photons 
  0  = el     ! minimum E for the charged leptons 
 -1   = ejmax ! maximum E for the jets
 -1   = ebmax ! maximum E for the b
 -1   = eamax ! maximum E for the photons
 -1   = elmax ! maximum E for the charged leptons
#*********************************************************************
# Maximum and minimum absolute rapidity (for max, -1 means no cut)   *
#*********************************************************************
   5  = etaj    ! max rap for the jets 
  -1  = etab    ! max rap for the b
 2.5  = etaa    ! max rap for the photons 
 2.5  = etal    ! max rap for the charged leptons 
 0.6  = etaonium ! max rap for the quarkonium states
   0  = etajmin ! min rap for the jets
   0  = etabmin ! min rap for the b
   0  = etaamin ! min rap for the photons
   0  = etalmin ! main rap for the charged leptons
#*********************************************************************
# Minimum and maximum DeltaR distance                                *
#*********************************************************************
 0.4 = drjj    ! min distance between jets 
 0   = drbb    ! min distance between b's 
 0.4 = drll    ! min distance between leptons 
 0.4 = draa    ! min distance between gammas 
 0   = drbj    ! min distance between b and jet 
 0.4 = draj    ! min distance between gamma and jet 
 0.4 = drjl    ! min distance between jet and lepton 
 0   = drab    ! min distance between gamma and b 
 0   = drbl    ! min distance between b and lepton 
 0.4 = dral    ! min distance between gamma and lepton 
 -1  = drjjmax ! max distance between jets
 -1  = drbbmax ! max distance between b's
 -1  = drllmax ! max distance between leptons
 -1  = draamax ! max distance between gammas
 -1  = drbjmax ! max distance between b and jet
 -1  = drajmax ! max distance between gamma and jet
 -1  = drjlmax ! max distance between jet and lepton
 -1  = drabmax ! max distance between gamma and b
 -1  = drblmax ! max distance between b and lepton
 -1  = dralmax ! maxdistance between gamma and lepton
#*********************************************************************
# Minimum and maximum invariant mass for pairs                       *
# WARNING: for four lepton final state mmll cut require to have      *
#          different lepton masses for each flavor!                  *           
#*********************************************************************
 0   = mmjj    ! min invariant mass of a jet pair 
 0   = mmbb    ! min invariant mass of a b pair 
 0   = mmaa    ! min invariant mass of gamma gamma pair
 0   = mmll    ! min invariant mass of l+l- (same flavour) lepton pair
 -1  = mmjjmax ! max invariant mass of a jet pair
 -1  = mmbbmax ! max invariant mass of a b pair
 -1  = mmaamax ! max invariant mass of gamma gamma pair
 -1  = mmllmax ! max invariant mass of l+l- (same flavour) lepton pair
#*********************************************************************
# Minimum and maximum invariant mass for all letpons                 *
#*********************************************************************
 0   = mmnl    ! min invariant mass for all letpons (l+- and vl) 
 -1  = mmnlmax ! max invariant mass for all letpons (l+- and vl) 
#*********************************************************************
# Minimum and maximum pt for 4-momenta sum of leptons                *
#*********************************************************************
 0   = ptllmin  ! Minimum pt for 4-momenta sum of leptons(l and vl)
 -1  = ptllmax  ! Maximum pt for 4-momenta sum of leptons(l and vl)
#*********************************************************************
# Inclusive cuts                                                     *
#*********************************************************************
 0  = xptj ! minimum pt for at least one jet  
 0  = xptb ! minimum pt for at least one b 
 0  = xpta ! minimum pt for at least one photon 
 0  = xptl ! minimum pt for at least one charged lepton 
#*********************************************************************
# Control the pt's of the jets sorted by pt                          *
#*********************************************************************
 0   = ptj1min ! minimum pt for the leading jet in pt
 0   = ptj2min ! minimum pt for the second jet in pt
 0   = ptj3min ! minimum pt for the third jet in pt
 0   = ptj4min ! minimum pt for the fourth jet in pt
 -1  = ptj1max ! maximum pt for the leading jet in pt 
 -1  = ptj2max ! maximum pt for the second jet in pt
 -1  = ptj3max ! maximum pt for the third jet in pt
 -1  = ptj4max ! maximum pt for the fourth jet in pt
 0   = cutuse  ! reject event if fails any (0) / all (1) jet pt cuts
#*********************************************************************
# Control the pt's of leptons sorted by pt                           *
#*********************************************************************
 0   = ptl1min ! minimum pt for the leading lepton in pt
 0   = ptl2min ! minimum pt for the second lepton in pt
 0   = ptl3min ! minimum pt for the third lepton in pt
 0   = ptl4min ! minimum pt for the fourth lepton in pt
 -1  = ptl1max ! maximum pt for the leading lepton in pt 
 -1  = ptl2max ! maximum pt for the second lepton in pt
 -1  = ptl3max ! maximum pt for the third lepton in pt
 -1  = ptl4max ! maximum pt for the fourth lepton in pt
#*********************************************************************
# Control the Ht(k)=Sum of k leading jets                            *
#*********************************************************************
 0   = htjmin ! minimum jet HT=Sum(jet pt)
 -1  = htjmax ! maximum jet HT=Sum(jet pt)
 0   = ihtmin  !inclusive Ht for all partons (including b)
 -1  = ihtmax  !inclusive Ht for all partons (including b)
 0   = ht2min ! minimum Ht for the two leading jets
 0   = ht3min ! minimum Ht for the three leading jets
 0   = ht4min ! minimum Ht for the four leading jets
 -1  = ht2max ! maximum Ht for the two leading jets
 -1  = ht3max ! maximum Ht for the three leading jets
 -1  = ht4max ! maximum Ht for the four leading jets
#***********************************************************************
# Photon-isolation cuts, according to hep-ph/9801442                   *
# When ptgmin=0, all the other parameters are ignored                  *
# When ptgmin>0, pta and draj are not going to be used                 *
#***********************************************************************
   0 = ptgmin ! Min photon transverse momentum
 0.4 = R0gamma ! Radius of isolation code
 1.0 = xn ! n parameter of eq.(3.4) in hep-ph/9801442
 1.0 = epsgamma ! epsilon_gamma parameter of eq.(3.4) in hep-ph/9801442
 .true. = isoEM ! isolate photons from EM energy (photons and leptons)
#*********************************************************************
# WBF cuts                                                           *
#*********************************************************************
 0   = xetamin ! minimum rapidity for two jets in the WBF case  
 0   = deltaeta ! minimum rapidity for two jets in the WBF case 
#*********************************************************************
# KT DURHAM CUT                                                      *
#*********************************************************************
 -1    =  ktdurham        
 0.4  =  dparameter 
#*********************************************************************
# maximal pdg code for quark to be considered as a light jet         *
# (otherwise b cuts are applied)                                     *
#*********************************************************************
 4 = maxjetflavor    ! Maximum jet pdg code
#*********************************************************************
# Jet measure cuts                                                   *
#*********************************************************************
 0   = xqcut   ! minimum kt jet measure between partons
#*********************************************************************
#
#*********************************************************************
# Store info for systematics studies                                 *
# WARNING: If use_syst is T, matched Pythia output is                *
#          meaningful ONLY if plotted taking matchscale              *
#          reweighting into account!                                 *
#*********************************************************************
   F  = use_syst      ! Enable systematics studies
#
#**************************************
# Parameter of the systematics study
#  will be used by SysCalc (if installed)
#**************************************                                  
#
0.5 1 2 = sys_scalefact  # factorization/renormalization scale factor
0.5 1 2 = sys_alpsfact  # \alpha_s emission scale factors
30 50 = sys_matchscale # variation of merging scale
# PDF sets and number of members (0 or none for all members).
CT10nlo.LHgrid = sys_pdf # matching scales
# MSTW2008nlo68cl.LHgrid 1  = sys_pdf
</MGRunCard>
<slha>
######################################################################
## PARAM_CARD AUTOMATICALY GENERATED BY MG5 FOLLOWING UFO MODEL   ####
######################################################################
##                                                                  ##
##  Width set on Auto will be computed following the information    ##
##        present in the decay.py files of the model.               ##
##        See  arXiv:1402.1178 for more details.                    ##
##                                                                  ##
######################################################################

###################################
## INFORMATION FOR CKMBLOCK
###################################
Block ckmblock 
    1 2.277360e-01 # cabi 

###################################
## INFORMATION FOR FRBLOCK
###################################
Block frblock 
    1 6.000000e-01 # gz 

###################################
## INFORMATION FOR MASS
###################################
Block mass 
    1 5.040000e-03 # MD 
    2 2.550000e-03 # MU 
    3 1.010000e-01 # MS 
    4 1.270000e+00 # MC 
    5 4.700000e+00 # MB 
    6 1.720000e+02 # MT 
   11 5.110000e-04 # Me 
   13 1.056600e-01 # MM 
   15 1.777000e+00 # MTA 
   23 9.118760e+01 # MZ 
   25 1.200000e+02 # MH 
  10030 1.300000e+03 # MZph 
  10031 3.000000e+02 # MZpl 
## Dependent parameters, given by model restrictions.
## Those values should be edited following the 
## analytical expression. MG5 ignores those values 
## but they are important for interfacing the output of MG5
## to external program such as Pythia.
  12 0.000000 # ve : 0.0 
  14 0.000000 # vm : 0.0 
  16 0.000000 # vt : 0.0 
  21 0.000000 # g : 0.0 
  22 0.000000 # a : 0.0 
  24 79.824360 # w+ : cmath.sqrt(MZ__exp__2/2. + cmath.sqrt(MZ__exp__4/4. - (aEW*cmath.pi*MZ__exp__2)/(Gf*sqrt__2))) 

###################################
## INFORMATION FOR SMINPUTS
###################################
Block sminputs 
    1 1.279000e+02 # aEWM1 
    2 1.166370e-05 # Gf 
    3 1.184000e-01 # aS 

###################################
## INFORMATION FOR YUKAWA
###################################
Block yukawa 
    1 5.040000e-03 # ymdo 
    2 2.550000e-03 # ymup 
    3 1.010000e-01 # yms 
    4 1.270000e+00 # ymc 
    5 4.700000e+00 # ymb 
    6 1.720000e+02 # ymt 
   11 5.110000e-04 # yme 
   13 1.056600e-01 # ymm 
   15 1.777000e+00 # ymtau 

###################################
## INFORMATION FOR DECAY
###################################
DECAY   6 1.508336e+00 # WT 
DECAY  23 2.495200e+00 # WZ 
DECAY  24 2.085000e+00 # WW 
DECAY  25 5.753088e-03 # WH 
## Dependent parameters, given by model restrictions.
## Those values should be edited following the 
## analytical expression. MG5 ignores those values 
## but they are important for interfacing the output of MG5
## to external program such as Pythia.
DECAY  1 0.000000 # d : 0.0 
DECAY  2 0.000000 # u : 0.0 
DECAY  3 0.000000 # s : 0.0 
DECAY  4 0.000000 # c : 0.0 
DECAY  5 0.000000 # b : 0.0 
DECAY  11 0.000000 # e- : 0.0 
DECAY  12 0.000000 # ve : 0.0 
DECAY  13 0.000000 # mu- : 0.0 
DECAY  14 0.000000 # vm : 0.0 
DECAY  15 0.000000 # ta- : 0.0 
DECAY  16 0.000000 # vt : 0.0 
DECAY  21 0.000000 # g : 0.0 
DECAY  22 0.000000 # a : 0.0 
DECAY  10030 0.308725 # zph : (gz__exp__2*MZph*(5 + cmath.sqrt(1 - (4*MT__exp__2)/MZph__exp__2)))/(144.*cmath.pi) 
DECAY  10031 0.132629 # zpl : (5*gz__exp__2*MZpl)/(144.*cmath.pi) 
#===========================================================
# QUANTUM NUMBERS OF NEW STATE(S) (NON SM PDG CODE)
#===========================================================

Block QNUMBERS 10030  # zph 
        1 0  # 3 times electric charge
        2 3  # number of spin states (2S+1)
        3 1  # colour rep (1: singlet, 3: triplet, 8: octet)
        4 0  # Particle/Antiparticle distinction (0=own anti)
Block QNUMBERS 10031  # zpl 
        1 0  # 3 times electric charge
        2 3  # number of spin states (2S+1)
        3 1  # colour rep (1: singlet, 3: triplet, 8: octet)
        4 0  # Particle/Antiparticle distinction (0=own anti)
</slha>
## END BANNER##
<MGGenerationInfo>
#  Number of Events        :         4038
#  Integrated weight (pb)  :  0.18047E+00
#  Max wgt                 :  0.60529E-04
#  Average wgt             :  0.44693E-04
</MGGenerationInfo>
</header>
<init>
     2212     2212  0.40000000000E+04  0.40000000000E+04 0 0  247000  247000 2   1
  0.18056096326E+00  0.41072691659E-03  0.60528640000E-04   0
</init>
<event>
 5   0  0.5957913E-04  0.1297502E+04  0.7818609E-02  0.9031549E-01
       -2   -1    0    0    0  501  0.00000000000E+00  0.00000000000E+00  0.58196658993E+03  0.58196658993E+03  0.25500000920E-02 0. -1.
        2   -1    0    0  501    0  0.00000000000E+00  0.00000000000E+00 -0.72319908330E+03  0.72319908331E+03  0.25500000920E-02 0.  1.
    10030    2    1    2    0    0  0.00000000000E+00  0.00000000000E+00 -0.14123249338E+03  0.13051656732E+04  0.12975017601E+04 0.  0.
        1    1    3    3  502    0  0.43625006709E+03  0.43378050618E+03  0.13650786468E+03  0.63016985466E+03  0.50400001928E-02 0. -1.
       -1    1    3    3    0  502 -0.43625006709E+03 -0.43378050618E+03 -0.27774035806E+03  0.67499581858E+03  0.50400001928E-02 0.  1.
</event>
<event>
 5   0  0.5957913E-04  0.1299953E+04  0.7818609E-02  0.9029603E-01
       -2   -1    0    0    0  501  0.00000000000E+00  0.00000000000E+00  0.78034758030E+03  0.78034758030E+03  0.25500000920E-02 0. -1.
        2   -1    0    0  501    0  0.00000000000E+00  0.00000000000E+00 -0.54138600917E+03  0.54138600917E+03  0.25500000920E-02 0.  1.
    10030    2    1    2    0    0  0.00000000000E+00  0.00000000000E+00  0.23896157113E+03  0.13217335895E+04  0.12999527103E+04 0.  0.
        1    1    3    3  502    0 -0.13701036932E+03  0.50924819144E+03  0.50579916981E+03  0.73071086074E+03  0.50400001928E-02 0. -1.
       -1    1    3    3    0  502  0.13701036932E+03 -0.50924819144E+03 -0.26683759868E+03  0.59102272874E+03  0.50400001928E-02 0.  1.
</event>
<event>
 5   0  0.5384960E-04  0.1328078E+04  0.7818609E-02  0.9007591E-01
        2   -1    0    0  501    0  0.00000000000E+00  0.00000000000E+00  0.12141056077E+04  0.12141056077E+04  0.25500000920E-02 0. -1.
       -2   -1    0    0    0  501  0.00000000000E+00  0.00000000000E+00 -0.36318736388E+03  0.36318736389E+03  0.25500000920E-02 0.  1.
    10030    2    1    2    0    0  0.00000000000E+00  0.00000000000E+00  0.85091824378E+03  0.15772929716E+04  0.13280780325E+04 0.  0.
        3    1    3    3  502    0 -0.33086139262E+03  0.55173062204E+03  0.62086960518E+03  0.89406656199E+03  0.10100000352E+00 0. -1.
       -3    1    3    3    0  502  0.33086139262E+03 -0.55173062204E+03  0.23004863860E+03  0.68322640957E+03  0.10100000352E+00 0.  1.
</event>
<event>
 5   0  0.5957913E-04  0.1298537E+04  0.7818609E-02  0.9030726E-01
       -2   -1    0    0    0  501  0.00000000000E+00  0.00000000000E+00  0.35405529125E+03  0.35405529126E+03  0.25500000920E-02 0.  1.
        2   -1    0    0  501    0  0.00000000000E+00  0.00000000000E+00 -0.11906324256E+04  0.11906324256E+04  0.25500000920E-02 0. -1.
    10030    2    1    2    0    0  0.00000000000E+00  0.00000000000E+00 -0.83657713432E+03  0.15446877168E+04  0.12985371927E+04 0.  0.
        1    1    3    3  502    0  0.75185212037E+02 -0.40654184244E+03  0.17722917346E+03  0.44982137089E+03  0.50400001928E-02 0.  1.
       -1    1    3    3    0  502 -0.75185212037E+02  0.40654184244E+03 -0.10138063078E+04  0.10948663459E+04  0.50400001928E-02 0. -1.
</event>
<event>
 5   0  0.5384960E-04  0.1281760E+04  0.7818609E-02  0.9044156E-01
       -2   -1    0    0    0  501  0.00000000000E+00  0.00000000000E+00  0.55305762166E+03  0.55305762166E+03  0.25500000920E-02 0.  1.
        2   -1    0    0  501    0  0.00000000000E+00  0.00000000000E+00 -0.74264785008E+03  0.74264785008E+03  0.25500000920E-02 0. -1.
    10030    2    1    2    0    0  0.00000000000E+00  0.00000000000E+00 -0.18959022842E+03  0.12957054717E+04  0.12817598117E+04 0.  0.
        3    1    3    3  502    0 -0.74418458802E+02  0.38763524187E+03  0.41560209227E+03  0.57317039094E+03  0.10100000352E+00 0.  1.
       -3    1    3    3    0  502  0.74418458802E+02 -0.38763524187E+03 -0.60519232069E+03  0.72253508080E+03  0.10100000352E+00 0. -1.
</event>
<event>
 5   0  0.3403833E-04  0.1307478E+04  0.7818609E-02  0.9023656E-01
        1   -1    0    0  501    0  0.00000000000E+00  0.00000000000E+00  0.43334946129E+03  0.43334946132E+03  0.50400001928E-02 0.  1.
       -1   -1    0    0    0  501  0.00000000000E+00  0.00000000000E+00 -0.98621225258E+03  0.98621225259E+03  0.50400001928E-02 0. -1.
    10030    2    1    2    0    0  0.00000000000E+00  0.00000000000E+00 -0.55286279129E+03  0.14195617139E+04  0.13074777985E+04 0.  0.
        1    1    3    3  502    0 -0.60765241847E+03  0.17990066189E+03 -0.10214343954E+03  0.64190263443E+03  0.50400001928E-02 0.  1.
       -1    1    3    3    0  502  0.60765241847E+03 -0.17990066189E+03 -0.45071935175E+03  0.77765907948E+03  0.50400001928E-02 0. -1.
</event>
<event>
 5   0  0.3335747E-04  0.1299672E+04  0.7818609E-02  0.9029825E-01
       -1   -1    0    0    0  501  0.00000000000E+00  0.00000000000E+00  0.10366212042E+04  0.10366212042E+04  0.50400001928E-02 0.  1.
        1   -1    0    0  501    0  0.00000000000E+00  0.00000000000E+00 -0.40736865312E+03  0.40736865315E+03  0.50400001928E-02 0. -1.
    10030    2    1    2    0    0  0.00000000000E+00  0.00000000000E+00  0.62925255106E+03  0.14439898573E+04  0.12996722414E+04 0.  0.
        3    1    3    3  502    0 -0.64938441250E+02  0.12062428157E+03 -0.39114292188E+03  0.41443939725E+03  0.10100000352E+00 0. -1.
       -3    1    3    3    0  502  0.64938441250E+02 -0.12062428157E+03  0.10203954729E+04  0.10295504601E+04  0.10100000352E+00 0.  1.
</event>
<event>
 5   0  0.5957913E-04  0.1295140E+04  0.7818609E-02  0.9033428E-01
        2   -1    0    0  501    0  0.00000000000E+00  0.00000000000E+00  0.64271724485E+03  0.64271724486E+03  0.25500000920E-02 0.  1.
       -2   -1    0    0    0  501  0.00000000000E+00  0.00000000000E+00 -0.65245971023E+03  0.65245971024E+03  0.25500000920E-02 0. -1.
    10030    2    1    2    0    0  0.00000000000E+00  0.00000000000E+00 -0.97424653791E+01  0.12951769551E+04  0.12951403126E+04 0.  0.
        1    1    3    3  502    0  0.51337411989E+03 -0.25487593646E+03  0.29652139686E+03  0.64532136861E+03  0.50400001928E-02 0.  1.
       -1    1    3    3    0  502 -0.51337411989E+03  0.25487593646E+03 -0.30626386224E+03  0.64985558649E+03  0.50400001928E-02 0. -1.
</event>
<event>
 5   0  0.2255875E-04  0.1325051E+04  0.7818609E-02  0.9009932E-01
       -4   -1    0    0    0  501  0.00000000000E+00  0.00000000000E+00  0.55716339182E+03  0.55716483924E+03  0.12699999809E+01 0. -1.
        4   -1    0    0  501    0  0.00000000000E+00  0.00000000000E+00 -0.78780886319E+03  0.78780988685E+03  0.12699999809E+01 0.  1.
    10030    2    1    2    0    0  0.00000000000E+00  0.00000000000E+00 -0.23064547137E+03  0.13449747261E+04  0.13250508218E+04 0.  0.
        3    1    3    3  502    0  0.61174645444E+03 -0.16077539015E+03 -0.31540969669E+03  0.70679964456E+03  0.10100000352E+00 0. -1.
       -3    1    3    3    0  502 -0.61174645444E+03  0.16077539015E+03  0.84764225315E+02  0.63817508153E+03  0.10100000352E+00 0.  1.
</event>
<event>
 5   0  0.5957913E-04  0.1299233E+04  0.7818609E-02  0.9030173E-01
       -2   -1    0    0    0  501  0.00000000000E+00  0.00000000000E+00  0.30031661031E+03  0.30031661032E+03  0.25500000920E-02 0. -1.
        2   -1    0    0  501    0  0.00000000000E+00  0.00000000000E+00 -0.14051899066E+04  0.14051899066E+04  0.25500000920E-02 0.  1.
    10030    2    1    2    0    0  0.00000000000E+00  0.00000000000E+00 -0.11048732963E+04  0.17055065169E+04  0.12992334195E+04 0.  0.
        1    1    3    3  502    0 -0.51915779177E+03 -0.15282925093E+02 -0.10646319189E+04  0.11845672220E+04  0.50400001928E-02 0.  1.
       -1    1    3    3    0  502  0.51915779177E+03  0.15282925093E+02 -0.40241377379E+02  0.52093929496E+03  0.50400001928E-02 0. -1.
</event>
<event>
 5   0  0.6007125E-04  0.1304688E+04  0.7818609E-02  0.9025856E-01
       -2   -1    0    0    0  501  0.00000000000E+00  0.00000000000E+00  0.24403000014E+03  0.24403000015E+03  0.25500000920E-02 0. -1.
        2   -1    0    0  501    0  0.00000000000E+00  0.00000000000E+00 -0.17438530584E+04  0.17438530584E+04  0.25500000920E-02 0.  1.
    10030    2    1    2    0    0  0.00000000000E+00  0.00000000000E+00 -0.14998230582E+04  0.19878830585E+04  0.13046876440E+04 0.  0.
        5    1    3    3  502    0  0.35367244382E+03  0.54534720080E+03 -0.66586745804E+03  0.93053174509E+03  0.46999998093E+01 0.  1.
       -5    1    3    3    0  502 -0.35367244382E+03 -0.54534720080E+03 -0.83395560017E+03  0.10573513134E+04  0.46999998093E+01 0. -1.
</event>
<event>
 5   0  0.6007125E-04  0.1301202E+04  0.7818609E-02  0.9028612E-01
       -2   -1    0    0    0  501  0.00000000000E+00  0.00000000000E+00  0.24611036525E+03  0.24611036527E+03  0.25500000920E-02 0. -1.
        2   -1    0    0  501    0  0.00000000000E+00  0.00000000000E+00 -0.17198863329E+04  0.17198863329E+04  0.25500000920E-02 0.  1.
    10030    2    1    2    0    0  0.00000000000E+00  0.00000000000E+00 -0.14737759677E+04  0.19659966982E+04  0.13012022957E+04 0.  0.
        5    1    3    3  502    0 -0.45553377933E+03  0.30263176892E+03 -0.12692825670E+04  0.13820988881E+04  0.46999998093E+01 0.  1.
       -5    1    3    3    0  502  0.45553377933E+03 -0.30263176892E+03 -0.20449340066E+03  0.58389781005E+03  0.46999998093E+01 0. -1.
</event>
<event>
 5   0  0.3337520E-04  0.1303663E+04  0.7818609E-02  0.9026666E-01
       -1   -1    0    0    0  501  0.00000000000E+00  0.00000000000E+00  0.19800417665E+03  0.19800417671E+03  0.50400001928E-02 0.  1.
        1   -1    0    0  501    0  0.00000000000E+00  0.00000000000E+00 -0.21458345540E+04  0.21458345540E+04  0.50400001928E-02 0. -1.
    10030    2    1    2    0    0  0.00000000000E+00  0.00000000000E+00 -0.19478303774E+04  0.23438387307E+04  0.13036628463E+04 0.  0.
        5    1    3    3  502    0  0.34273743724E+03 -0.54172745877E+03 -0.76176051069E+03  0.99560974087E+03  0.46999998093E+01 0.  1.
       -5    1    3    3    0  502 -0.34273743724E+03  0.54172745877E+03 -0.11860698667E+04  0.13482289899E+04  0.46999998093E+01 0. -1.
</event>
<event>
 5   0  0.2255875E-04  0.1293944E+04  0.7818609E-02  0.9034381E-01
        3   -1    0    0  501    0  0.00000000000E+00  0.00000000000E+00  0.65554333230E+03  0.65554334008E+03  0.10100000352E+00 0.  1.
       -3   -1    0    0    0  501  0.00000000000E+00  0.00000000000E+00 -0.63851266802E+03  0.63851267601E+03  0.10100000352E+00 0. -1.
    10030    2    1    2    0    0  0.00000000000E+00  0.00000000000E+00  0.17030664280E+02  0.12940560161E+04  0.12939439436E+04 0.  0.
        1    1    3    3  502    0 -0.44959283106E+03  0.80464308881E+02  0.46677386884E+03  0.65305900454E+03  0.50400001928E-02 0.  1.
       -1    1    3    3    0  502  0.44959283106E+03 -0.80464308881E+02 -0.44974320456E+03  0.64099701156E+03  0.50400001928E-02 0. -1.
</event>
<event>
 5   0  0.3403833E-04  0.1297598E+04  0.7818609E-02  0.9031472E-01
       -1   -1    0    0    0  501  0.00000000000E+00  0.00000000000E+00  0.15441443632E+04  0.15441443632E+04  0.50400001928E-02 0.  1.
        1   -1    0    0  501    0  0.00000000000E+00  0.00000000000E+00 -0.27260413438E+03  0.27260413442E+03  0.50400001928E-02 0. -1.
    10030    2    1    2    0    0  0.00000000000E+00  0.00000000000E+00  0.12715402288E+04  0.18167484976E+04  0.12975979925E+04 0.  0.
        1    1    3    3  502    0 -0.35721021476E+02 -0.22525312612E+03 -0.21463094178E+03  0.31317950667E+03  0.50400001928E-02 0. -1.
       -1    1    3    3    0  502  0.35721021476E+02  0.22525312612E+03  0.14861711706E+04  0.15035689909E+04  0.50400001928E-02 0.  1.
</event>
<event>
 5   0  0.3335747E-04  0.1316883E+04  0.7818609E-02  0.9016283E-01
        1   -1    0    0  501    0  0.00000000000E+00  0.00000000000E+00  0.37675768332E+03  0.37675768336E+03  0.50400001928E-02 0. -1.
       -1   -1    0    0    0  501  0.00000000000E+00  0.00000000000E+00 -0.11507266604E+04  0.11507266604E+04  0.50400001928E-02 0.  1.
    10030    2    1    2    0    0  0.00000000000E+00  0.00000000000E+00 -0.77396897705E+03  0.15274843437E+04  0.13168828509E+04 0.  0.
        3    1    3    3  502    0  0.42252335587E+03 -0.30323122463E+03  0.81415180377E+02  0.52640631041E+03  0.10100000352E+00 0. -1.
       -3    1    3    3    0  502 -0.42252335587E+03  0.30323122463E+03 -0.85538415742E+03  0.10010780333E+04  0.10100000352E+00 0.  1.
</event>
<event>
 5   0  0.3335747E-04  0.1296398E+04  0.7818609E-02  0.9032427E-01
        1   -1    0    0  501    0  0.00000000000E+00  0.00000000000E+00  0.87364966134E+03  0.87364966135E+03  0.50400001928E-02 0. -1.
       -1   -1    0    0    0  501  0.00000000000E+00  0.00000000000E+00 -0.48092715819E+03  0.48092715822E+03  0.50400001928E-02 0.  1.
    10030    2    1    2    0    0  0.00000000000E+00  0.00000000000E+00  0.39272250314E+03  0.13545768196E+04  0.12963978539E+04 0.  0.
        3    1    3    3  502    0  0.15471403957E+03  0.16247368006E+02 -0.46113272227E+03  0.48666601356E+03  0.10100000352E+00 0.  1.
       -3    1    3    3    0  502 -0.15471403957E+03 -0.16247368006E+02  0.85385522542E+03  0.86791080600E+03  0.10100000352E+00 0. -1.
</event>
<event>
 5   0  0.5957913E-04  0.1308628E+04  0.7818609E-02  0.9022751E-01
       -2   -1    0    0    0  501  0.00000000000E+00  0.00000000000E+00  0.37961707169E+03  0.37961707170E+03  0.25500000920E-02 0.  1.
        2   -1    0    0  501    0  0.00000000000E+00  0.00000000000E+00 -0.11277864954E+04  0.11277864954E+04  0.25500000920E-02 0. -1.
    10030    2    1    2    0    0  0.00000000000E+00  0.00000000000E+00 -0.74816942367E+03  0.15074035671E+04  0.13086283000E+04 0.  0.
        1    1    3    3  502    0 -0.63847485323E+03  0.16514934006E+02 -0.21035282733E+03  0.67243675780E+03  0.50400001928E-02 0.  1.
       -1    1    3    3    0  502  0.63847485323E+03 -0.16514934006E+02 -0.53781659635E+03  0.83496680927E+03  0.50400001928E-02 0. -1.
</event>
<event>
 5   0  0.3274879E-04  0.1356936E+04  0.7818609E-02  0.8985594E-01
       -1   -1    0    0    0  501  0.00000000000E+00  0.00000000000E+00  0.10132035839E+04  0.10132035839E+04  0.50400001928E-02 0. -1.
        1   -1    0    0  501    0  0.00000000000E+00  0.00000000000E+00 -0.45432035076E+03  0.45432035079E+03  0.50400001928E-02 0.  1.
    10030    2    1    2    0    0  0.00000000000E+00  0.00000000000E+00  0.55888323312E+03  0.14675239347E+04  0.13569362662E+04 0.  0.
        4    1    3    3  502    0 -0.16698654096E+03  0.30534691473E+03  0.90931201908E+03  0.97363812792E+03  0.12699999809E+01 0. -1.
       -4    1    3    3    0  502  0.16698654096E+03 -0.30534691473E+03 -0.35042878596E+03  0.49388580677E+03  0.12699999809E+01 0.  1.
</event>
<event>
 5   0  0.3403833E-04  0.1291165E+04  0.7818609E-02  0.9036601E-01
       -1   -1    0    0    0  501  0.00000000000E+00  0.00000000000E+00  0.47672160595E+03  0.47672160598E+03  0.50400001928E-02 0.  1.
        1   -1    0    0  501    0  0.00000000000E+00  0.00000000000E+00 -0.87425549198E+03  0.87425549200E+03  0.50400001928E-02 0. -1.
    10030    2    1    2    0    0  0.00000000000E+00  0.00000000000E+00 -0.39753388603E+03  0.13509770980E+04  0.12911645630E+04 0.  0.
        1    1    3    3  502    0 -0.97691504896E+01 -0.48184029018E+03  0.25067903392E+03  0.54323611773E+03  0.50400001928E-02 0.  1.
       -1    1    3    3    0  502  0.97691504896E+01  0.48184029018E+03 -0.64821291995E+03  0.80774098024E+03  0.50400001928E-02 0. -1.
</event>
<event>
 5   0  0.6052864E-04  0.1302782E+04  0.7818609E-02  0.9027362E-01
       -2   -1    0    0    0  501  0.00000000000E+00  0.00000000000E+00  0.19183305915E+03  0.19183305917E+03  0.25500000920E-02 0. -1.
        2   -1    0    0  501    0  0.00000000000E+00  0.00000000000E+00 -0.22118736259E+04  0.22118736259E+04  0.25500000920E-02 0.  1.
    10030    2    1    2    0    0  0.00000000000E+00  0.00000000000E+00 -0.20200405668E+04  0.24037066851E+04  0.13027823826E+04 0.  0.
        2    1    3    3  502    0  0.47601369814E+03 -0.22731067191E+03 -0.30490145691E+03  0.60928161043E+03  0.25500000920E-02 0. -1.
       -2    1    3    3    0  502 -0.47601369814E+03  0.22731067191E+03 -0.17151391098E+04  0.17944250746E+04  0.25500000920E-02 0.  1.
</event>
<event>
 5   0  0.3335747E-04  0.1285941E+04  0.7818609E-02  0.9040789E-01
       -1   -1    0    0    0  501  0.00000000000E+00  0.00000000000E+00  0.85026118047E+03  0.85026118048E+03  0.50400001928E-02 0. -1.
        1   -1    0    0  501    0  0.00000000000E+00  0.00000000000E+00 -0.48621650843E+03  0.48621650846E+03  0.50400001928E-02 0.  1.
    10030    2    1    2    0    0  0.00000000000E+00  0.00000000000E+00  0.36404467204E+03  0.13364776889E+04  0.12859409356E+04 0.  0.
        3    1    3    3  502    0  0.10987197954E+03 -0.52831324607E+03 -0.18132286240E+03  0.56926683417E+03  0.10100000352E+00 0.  1.
       -3    1    3    3    0  502 -0.10987197954E+03  0.52831324607E+03  0.54536753444E+03  0.76721085477E+03  0.10100000352E+00 0. -1.
</event>
<event>
 5   0  0.2255875E-04  0.1302180E+04  0.7818609E-02  0.9027838E-01
       -3   -1    0    0    0  501  0.00000000000E+00  0.00000000000E+00  0.18064792279E+04  0.18064792307E+04  0.10100000352E+00 0. -1.
        3   -1    0    0  501    0  0.00000000000E+00  0.00000000000E+00 -0.23466527144E+03  0.23466529317E+03  0.10100000352E+00 0.  1.
    10030    2    1    2    0    0  0.00000000000E+00  0.00000000000E+00  0.15718139565E+04  0.20411445239E+04  0.13021796549E+04 0.  0.
        1    1    3    3  502    0 -0.27672045368E+03 -0.27244845879E+03  0.16050808602E+04  0.16513893968E+04  0.50400001928E-02 0. -1.
       -1    1    3    3    0  502  0.27672045368E+03  0.27244845879E+03 -0.33266903709E+02  0.38975512708E+03  0.50400001928E-02 0.  1.
</event>
<event>
 5   0  0.5384960E-04  0.1279364E+04  0.7818609E-02  0.9046092E-01
       -2   -1    0    0    0  501  0.00000000000E+00  0.00000000000E+00  0.71976285496E+03  0.71976285497E+03  0.25500000920E-02 0. -1.
        2   -1    0    0  501    0  0.00000000000E+00  0.00000000000E+00 -0.56851110495E+03  0.56851110495E+03  0.25500000920E-02 0.  1.
    10030    2    1    2    0    0  0.00000000000E+00  0.00000000000E+00  0.15125175002E+03  0.12882739599E+04  0.12793641796E+04 0.  0.
        3    1    3    3  502    0  0.22290853381E+03 -0.28587007060E+03 -0.45509610211E+03  0.58182676466E+03  0.10100000352E+00 0.  1.
       -3    1    3    3    0  502 -0.22290853381E+03  0.28587007060E+03  0.60634785213E+03  0.70644719526E+03  0.10100000352E+00 0. -1.
</event>
<event>
 5   0  0.3403833E-04  0.1299249E+04  0.7818609E-02  0.9030161E-01
        1   -1    0    0  501    0  0.00000000000E+00  0.00000000000E+00  0.15482056244E+04  0.15482056245E+04  0.50400001928E-02 0. -1.
       -1   -1    0    0    0  501  0.00000000000E+00  0.00000000000E+00 -0.27258123525E+03  0.27258123530E+03  0.50400001928E-02 0.  1.
    10030    2    1    2    0    0  0.00000000000E+00  0.00000000000E+00  0.12756243892E+04  0.18207868597E+04  0.12992487084E+04 0.  0.
        1    1    3    3  502    0  0.26640429666E+03  0.18047428995E+03 -0.15304996497E+03  0.35632360351E+03  0.50400001928E-02 0.  1.
       -1    1    3    3    0  502 -0.26640429666E+03 -0.18047428995E+03  0.14286743542E+04  0.14644632562E+04  0.50400001928E-02 0. -1.
</event>
<event>
 5   0  0.6052864E-04  0.1305736E+04  0.7818609E-02  0.9025029E-01
        2   -1    0    0  501    0  0.00000000000E+00  0.00000000000E+00  0.13759390536E+04  0.13759390536E+04  0.25500000920E-02 0.  1.
       -2   -1    0    0    0  501  0.00000000000E+00  0.00000000000E+00 -0.30977856342E+03  0.30977856343E+03  0.25500000920E-02 0. -1.
    10030    2    1    2    0    0  0.00000000000E+00  0.00000000000E+00  0.10661604902E+04  0.16857176170E+04  0.13057356905E+04 0.  0.
        2    1    3    3  502    0  0.39066432786E+03  0.51117880327E+03  0.38981864920E+03  0.75225060002E+03  0.25500000920E-02 0.  1.
       -2    1    3    3    0  502 -0.39066432786E+03 -0.51117880327E+03  0.67634184096E+03  0.93346701699E+03  0.25500000920E-02 0. -1.
</event>
<event>
 5   0  0.3263679E-04  0.1300931E+04  0.7818609E-02  0.9028827E-01
        1   -1    0    0  501    0  0.00000000000E+00  0.00000000000E+00  0.11113146288E+04  0.11113146288E+04  0.50400001928E-02 0. -1.
       -1   -1    0    0    0  501  0.00000000000E+00  0.00000000000E+00 -0.38072535887E+03  0.38072535890E+03  0.50400001928E-02 0.  1.
    10030    2    1    2    0    0  0.00000000000E+00  0.00000000000E+00  0.73058926991E+03  0.14920399877E+04  0.13009314523E+04 0.  0.
        2    1    3    3  502    0 -0.60672233341E+03 -0.11333125684E+03  0.60075796339E+03  0.86131648900E+03  0.25500000920E-02 0. -1.
       -2    1    3    3    0  502  0.60672233341E+03  0.11333125684E+03  0.12983130652E+03  0.63072349869E+03  0.25500000920E-02 0.  1.
</event>
<event>
 5   0  0.5384960E-04  0.1221975E+04  0.7818609E-02  0.9093837E-01
       -2   -1    0    0    0  501  0.00000000000E+00  0.00000000000E+00  0.24073352080E+03  0.24073352081E+03  0.25500000920E-02 0. -1.
        2   -1    0    0  501    0  0.00000000000E+00  0.00000000000E+00 -0.15506999398E+04  0.15506999398E+04  0.25500000920E-02 0.  1.
    10030    2    1    2    0    0  0.00000000000E+00  0.00000000000E+00 -0.13099664190E+04  0.17914334606E+04  0.12219745598E+04 0.  0.
        3    1    3    3  502    0 -0.29720846343E+03  0.41688448023E+03 -0.11438062493E+04  0.12531633121E+04  0.10100000352E+00 0.  1.
       -3    1    3    3    0  502  0.29720846343E+03 -0.41688448023E+03 -0.16616016967E+03  0.53827014851E+03  0.10100000352E+00 0. -1.
</event>
<event>
 5   0  0.6007125E-04  0.1296034E+04  0.7818609E-02  0.9032716E-01
       -2   -1    0    0    0  501  0.00000000000E+00  0.00000000000E+00  0.45250900679E+03  0.45250900679E+03  0.25500000920E-02 0.  1.
        2   -1    0    0  501    0  0.00000000000E+00  0.00000000000E+00 -0.92799510283E+03  0.92799510283E+03  0.25500000920E-02 0. -1.
    10030    2    1    2    0    0  0.00000000000E+00  0.00000000000E+00 -0.47548609604E+03  0.13805041096E+04  0.12960341698E+04 0.  0.
        5    1    3    3  502    0  0.35713338908E+02  0.12341979801E+00 -0.92692785804E+03  0.92762751243E+03  0.46999998093E+01 0. -1.
       -5    1    3    3    0  502 -0.35713338908E+02 -0.12341979801E+00  0.45144176200E+03  0.45287659719E+03  0.46999998093E+01 0.  1.
</event>
<event>
 5   0  0.3263679E-04  0.1302774E+04  0.7818609E-02  0.9027368E-01
        1   -1    0    0  501    0  0.00000000000E+00  0.00000000000E+00  0.14610856093E+04  0.14610856093E+04  0.50400001928E-02 0.  1.
       -1   -1    0    0    0  501  0.00000000000E+00  0.00000000000E+00 -0.29040392527E+03  0.29040392531E+03  0.50400001928E-02 0. -1.
    10030    2    1    2    0    0  0.00000000000E+00  0.00000000000E+00  0.11706816840E+04  0.17514895346E+04  0.13027739576E+04 0.  0.
        2    1    3    3  502    0 -0.15242323946E+03 -0.19939553898E+03  0.13934696997E+04  0.14158916728E+04  0.25500000920E-02 0.  1.
       -2    1    3    3    0  502  0.15242323946E+03  0.19939553898E+03 -0.22278801574E+03  0.33559786182E+03  0.25500000920E-02 0. -1.
</event>
<event>
 5   0  0.5384960E-04  0.1294134E+04  0.7818609E-02  0.9034230E-01
       -2   -1    0    0    0  501  0.00000000000E+00  0.00000000000E+00  0.74781205184E+03  0.74781205184E+03  0.25500000920E-02 0.  1.
        2   -1    0    0  501    0  0.00000000000E+00  0.00000000000E+00 -0.55989392085E+03  0.55989392085E+03  0.25500000920E-02 0. -1.
    10030    2    1    2    0    0  0.00000000000E+00  0.00000000000E+00  0.18791813099E+03  0.13077059727E+04  0.12941335662E+04 0.  0.
        3    1    3    3  502    0  0.60395127705E+03  0.22117362807E+03  0.16555760744E+03  0.66414173968E+03  0.10100000352E+00 0.  1.
       -3    1    3    3    0  502 -0.60395127705E+03 -0.22117362807E+03  0.22360523551E+02  0.64356423302E+03  0.10100000352E+00 0. -1.
</event>
<event>
 5   0  0.5957913E-04  0.1304840E+04  0.7818609E-02  0.9025736E-01
        2   -1    0    0  501    0  0.00000000000E+00  0.00000000000E+00  0.17011727228E+04  0.17011727228E+04  0.25500000920E-02 0. -1.
       -2   -1    0    0    0  501  0.00000000000E+00  0.00000000000E+00 -0.25021073946E+03  0.25021073947E+03  0.25500000920E-02 0.  1.
    10030    2    1    2    0    0  0.00000000000E+00  0.00000000000E+00  0.14509619833E+04  0.19513834622E+04  0.13048397372E+04 0.  0.
        1    1    3    3  502    0  0.63787066582E+03 -0.77042985545E+02  0.89492199654E+03  0.11016805289E+04  0.50400001928E-02 0. -1.
       -1    1    3    3    0  502 -0.63787066582E+03  0.77042985545E+02  0.55603998678E+03  0.84970293330E+03  0.50400001928E-02 0.  1.
</event>
<event>
 5   0  0.3335747E-04  0.1312660E+04  0.7818609E-02  0.9019586E-01
        1   -1    0    0  501    0  0.00000000000E+00  0.00000000000E+00  0.15145017974E+04  0.15145017974E+04  0.50400001928E-02 0.  1.
       -1   -1    0    0    0  501  0.00000000000E+00  0.00000000000E+00 -0.28442945548E+03  0.28442945553E+03  0.50400001928E-02 0. -1.
    10030    2    1    2    0    0  0.00000000000E+00  0.00000000000E+00  0.12300723419E+04  0.17989312530E+04  0.13126597756E+04 0.  0.
        3    1    3    3  502    0  0.21824537509E+03 -0.14932550790E+01  0.14633150716E+04  0.14795013628E+04  0.10100000352E+00 0.  1.
       -3    1    3    3    0  502 -0.21824537509E+03  0.14932550790E+01 -0.23324272968E+03  0.31942989014E+03  0.10100000352E+00 0. -1.
</event>
<event>
 5   0  0.5384960E-04  0.1300804E+04  0.7818609E-02  0.9028928E-01
        2   -1    0    0  501    0  0.00000000000E+00  0.00000000000E+00  0.61914768459E+03  0.61914768460E+03  0.25500000920E-02 0.  1.
       -2   -1    0    0    0  501  0.00000000000E+00  0.00000000000E+00 -0.68323359473E+03  0.68323359474E+03  0.25500000920E-02 0. -1.
    10030    2    1    2    0    0  0.00000000000E+00  0.00000000000E+00 -0.64085910139E+02  0.13023812793E+04  0.13008035950E+04 0.  0.
        3    1    3    3  502    0  0.21203842820E+03 -0.47890429668E+03  0.35405783519E+03  0.63219188643E+03  0.10100000352E+00 0.  1.
       -3    1    3    3    0  502 -0.21203842820E+03  0.47890429668E+03 -0.41814374532E+03  0.67018939291E+03  0.10100000352E+00 0. -1.
</event>
<event>
 5   0  0.3274879E-04  0.1296916E+04  0.7818609E-02  0.9032015E-01
        1   -1    0    0  501    0  0.00000000000E+00  0.00000000000E+00  0.93947222718E+03  0.93947222719E+03  0.50400001928E-02 0. -1.
       -1   -1    0    0    0  501  0.00000000000E+00  0.00000000000E+00 -0.44758909246E+03  0.44758909249E+03  0.50400001928E-02 0.  1.
    10030    2    1    2    0    0  0.00000000000E+00  0.00000000000E+00  0.49188313472E+03  0.13870613197E+04  0.12969156049E+04 0.  0.
        4    1    3    3  502    0 -0.91083534537E+02 -0.23033538003E+03 -0.39500089645E+03  0.46623804934E+03  0.12699999809E+01 0.  1.
       -4    1    3    3    0  502  0.91083534537E+02  0.23033538003E+03  0.88688403117E+03  0.92082327034E+03  0.12699999809E+01 0. -1.
</event>
<event>
 5   0  0.3403833E-04  0.1298237E+04  0.7818609E-02  0.9030964E-01
        1   -1    0    0  501    0  0.00000000000E+00  0.00000000000E+00  0.10789339737E+04  0.10789339737E+04  0.50400001928E-02 0. -1.
       -1   -1    0    0    0  501  0.00000000000E+00  0.00000000000E+00 -0.39052891000E+03  0.39052891004E+03  0.50400001928E-02 0.  1.
    10030    2    1    2    0    0  0.00000000000E+00  0.00000000000E+00  0.68840506373E+03  0.14694628838E+04  0.12982371259E+04 0.  0.
        1    1    3    3  502    0  0.24805081170E+03  0.59960103383E+03  0.36394758322E+03  0.74398148385E+03  0.50400001928E-02 0.  1.
       -1    1    3    3    0  502 -0.24805081170E+03 -0.59960103383E+03  0.32445748050E+03  0.72548139993E+03  0.50400001928E-02 0. -1.
</event>
<event>
 5   0  0.3335747E-04  0.1300551E+04  0.7818609E-02  0.9029128E-01
       -1   -1    0    0    0  501  0.00000000000E+00  0.00000000000E+00  0.50777405402E+03  0.50777405405E+03  0.50400001928E-02 0.  1.
        1   -1    0    0  501    0  0.00000000000E+00  0.00000000000E+00 -0.83276894213E+03  0.83276894215E+03  0.50400001928E-02 0. -1.
    10030    2    1    2    0    0  0.00000000000E+00  0.00000000000E+00 -0.32499488811E+03  0.13405429962E+04  0.13005513628E+04 0.  0.
        3    1    3    3  502    0  0.33640693307E+03  0.54448751489E+03 -0.28102099640E+03  0.69900578618E+03  0.10100000352E+00 0. -1.
       -3    1    3    3    0  502 -0.33640693307E+03 -0.54448751489E+03 -0.43973891707E+02  0.64153721002E+03  0.10100000352E+00 0.  1.
</event>
<event>
 5   0  0.5787604E-04  0.1302469E+04  0.7818609E-02  0.9027609E-01
        2   -1    0    0  501    0  0.00000000000E+00  0.00000000000E+00  0.13771877207E+04  0.13771877207E+04  0.25500000920E-02 0.  1.
       -2   -1    0    0    0  501  0.00000000000E+00  0.00000000000E+00 -0.30795106510E+03  0.30795106511E+03  0.25500000920E-02 0. -1.
    10030    2    1    2    0    0  0.00000000000E+00  0.00000000000E+00  0.10692366556E+04  0.16851387858E+04  0.13024690790E+04 0.  0.
        4    1    3    3  502    0  0.28062178625E+03  0.58663204149E+03  0.48944488389E+03  0.81390641126E+03  0.12699999809E+01 0. -1.
       -4    1    3    3    0  502 -0.28062178625E+03 -0.58663204149E+03  0.57979177168E+03  0.87123237453E+03  0.12699999809E+01 0.  1.
</event>
<event>
 5   0  0.5787604E-04  0.1281588E+04  0.7818609E-02  0.9044295E-01
        2   -1    0    0  501    0  0.00000000000E+00  0.00000000000E+00  0.17556633363E+04  0.17556633363E+04  0.25500000920E-02 0. -1.
       -2   -1    0    0    0  501  0.00000000000E+00  0.00000000000E+00 -0.23388137215E+03  0.23388137217E+03  0.25500000920E-02 0.  1.
    10030    2    1    2    0    0  0.00000000000E+00  0.00000000000E+00  0.15217819641E+04  0.19895447085E+04  0.12815879995E+04 0.  0.
        4    1    3    3  502    0  0.42040175714E+03 -0.38731532353E+03  0.31132395040E+03  0.65090322802E+03  0.12699999809E+01 0.  1.
       -4    1    3    3    0  502 -0.42040175714E+03  0.38731532353E+03  0.12104580137E+04  0.13386414804E+04  0.12699999809E+01 0. -1.
</event>
<event>
 5   0  0.2255875E-04  0.1305014E+04  0.7818609E-02  0.9025598E-01
        4   -1    0    0  501    0  0.00000000000E+00  0.00000000000E+00  0.96394660384E+03  0.96394744046E+03  0.12699999809E+01 0. -1.
       -4   -1    0    0    0  501  0.00000000000E+00  0.00000000000E+00 -0.44168787395E+03  0.44168969978E+03  0.12699999809E+01 0.  1.
    10030    2    1    2    0    0  0.00000000000E+00  0.00000000000E+00  0.52225872990E+03  0.14056371402E+04  0.13050140187E+04 0.  0.
        4    1    3    3  502    0 -0.40757864941E+03  0.50483799210E+03  0.18664515355E+03  0.67514426604E+03  0.12699999809E+01 0. -1.
       -4    1    3    3    0  502  0.40757864941E+03 -0.50483799210E+03  0.33561357634E+03  0.73049287419E+03  0.12699999809E+01 0.  1.
</event>
<event>
 5   0  0.3335747E-04  0.1303115E+04  0.7818609E-02  0.9027099E-01
        1   -1    0    0  501    0  0.00000000000E+00  0.00000000000E+00  0.12365140954E+04  0.12365140954E+04  0.50400001928E-02 0. -1.
       -1   -1    0    0    0  501  0.00000000000E+00  0.00000000000E+00 -0.34332561116E+03  0.34332561120E+03  0.50400001928E-02 0.  1.
    10030    2    1    2    0    0  0.00000000000E+00  0.00000000000E+00  0.89318848420E+03  0.15798397066E+04  0.13031146650E+04 0.  0.
        3    1    3    3  502    0 -0.41379737220E+03 -0.10039747791E+03  0.10444950873E+04  0.11279529761E+04  0.10100000352E+00 0. -1.
       -3    1    3    3    0  502  0.41379737220E+03  0.10039747791E+03 -0.15130660308E+03  0.45188673044E+03  0.10100000352E+00 0.  1.
</event>
<event>
 5   0  0.3337520E-04  0.1295747E+04  0.7818609E-02  0.9032944E-01
        1   -1    0    0  501    0  0.00000000000E+00  0.00000000000E+00  0.13601104304E+04  0.13601104305E+04  0.50400001928E-02 0. -1.
       -1   -1    0    0    0  501  0.00000000000E+00  0.00000000000E+00 -0.30860746159E+03  0.30860746163E+03  0.50400001928E-02 0.  1.
    10030    2    1    2    0    0  0.00000000000E+00  0.00000000000E+00  0.10515029689E+04  0.16687178921E+04  0.12957472400E+04 0.  0.
        5    1    3    3  502    0 -0.52555361599E+03 -0.11708862343E+03  0.61767523293E+02  0.54199046666E+03  0.46999998093E+01 0.  1.
       -5    1    3    3    0  502  0.52555361599E+03  0.11708862343E+03  0.98973544557E+03  0.11267274254E+04  0.46999998093E+01 0. -1.
</event>
<event>
 5   0  0.6052864E-04  0.1303167E+04  0.7818609E-02  0.9027057E-01
       -2   -1    0    0    0  501  0.00000000000E+00  0.00000000000E+00  0.35674619877E+03  0.35674619878E+03  0.25500000920E-02 0. -1.
        2   -1    0    0  501    0  0.00000000000E+00  0.00000000000E+00 -0.11900931266E+04  0.11900931266E+04  0.25500000920E-02 0.  1.
    10030    2    1    2    0    0  0.00000000000E+00  0.00000000000E+00 -0.83334692784E+03  0.15468393254E+04  0.13031672174E+04 0.  0.
        2    1    3    3  502    0 -0.16788118542E+03 -0.45135502512E+02  0.32871113568E+03  0.37184985778E+03  0.25500000920E-02 0. -1.
       -2    1    3    3    0  502  0.16788118542E+03  0.45135502512E+02 -0.11620580635E+04  0.11749894676E+04  0.25500000920E-02 0.  1.
</event>
<event>
 5   0  0.5384960E-04  0.1295941E+04  0.7818609E-02  0.9032790E-01
       -2   -1    0    0    0  501  0.00000000000E+00  0.00000000000E+00  0.96668263678E+03  0.96668263678E+03  0.25500000920E-02 0. -1.
        2   -1    0    0  501    0  0.00000000000E+00  0.00000000000E+00 -0.43433663911E+03  0.43433663912E+03  0.25500000920E-02 0.  1.
    10030    2    1    2    0    0  0.00000000000E+00  0.00000000000E+00  0.53234599766E+03  0.14010192759E+04  0.12959408745E+04 0.  0.
        3    1    3    3  502    0  0.44038082201E+03 -0.31498607920E+03 -0.11865931277E+03  0.55428471130E+03  0.10100000352E+00 0.  1.
       -3    1    3    3    0  502 -0.44038082201E+03  0.31498607920E+03  0.65100531043E+03  0.84673456460E+03  0.10100000352E+00 0. -1.
</event>
<event>
 5   0  0.5957913E-04  0.1302287E+04  0.7818609E-02  0.9027754E-01
       -2   -1    0    0    0  501  0.00000000000E+00  0.00000000000E+00  0.38496536697E+03  0.38496536698E+03  0.25500000920E-02 0. -1.
        2   -1    0    0  501    0  0.00000000000E+00  0.00000000000E+00 -0.11013657013E+04  0.11013657013E+04  0.25500000920E-02 0.  1.
    10030    2    1    2    0    0  0.00000000000E+00  0.00000000000E+00 -0.71640033433E+03  0.14863310683E+04  0.13022866833E+04 0.  0.
        1    1    3    3  502    0 -0.62903949265E+03  0.60646046122E+01 -0.55006548798E+03  0.83564316777E+03  0.50400001928E-02 0.  1.
       -1    1    3    3    0  502  0.62903949265E+03 -0.60646046122E+01 -0.16633484635E+03  0.65068790052E+03  0.50400001928E-02 0. -1.
</event>
<event>
 5   0  0.6052864E-04  0.1375948E+04  0.7818609E-02  0.8971415E-01
       -2   -1    0    0    0  501  0.00000000000E+00  0.00000000000E+00  0.37496202784E+03  0.37496202784E+03  0.25500000920E-02 0. -1.
        2   -1    0    0  501    0  0.00000000000E+00  0.00000000000E+00 -0.12622826379E+04  0.12622826379E+04  0.25500000920E-02 0.  1.
    10030    2    1    2    0    0  0.00000000000E+00  0.00000000000E+00 -0.88732061006E+03  0.16372446657E+04  0.13759477572E+04 0.  0.
        2    1    3    3  502    0  0.61797387055E+03 -0.14833496028E+03 -0.13016406514E+03  0.64872000816E+03  0.25500000920E-02 0. -1.
       -2    1    3    3    0  502 -0.61797387055E+03  0.14833496028E+03 -0.75715654492E+03  0.98852465759E+03  0.25500000920E-02 0.  1.
</event>
<event>
 5   0  0.5384960E-04  0.1303319E+04  0.7818609E-02  0.9026937E-01
       -2   -1    0    0    0  501  0.00000000000E+00  0.00000000000E+00  0.42432549144E+03  0.42432549144E+03  0.25500000920E-02 0.  1.
        2   -1    0    0  501    0  0.00000000000E+00  0.00000000000E+00 -0.10007882025E+04  0.10007882025E+04  0.25500000920E-02 0. -1.
    10030    2    1    2    0    0  0.00000000000E+00  0.00000000000E+00 -0.57646271103E+03  0.14251136939E+04  0.13033187574E+04 0.  0.
        3    1    3    3  502    0  0.13220950685E+03 -0.62219723455E+03 -0.13339645100E+03  0.64992566939E+03  0.10100000352E+00 0. -1.
       -3    1    3    3    0  502 -0.13220950685E+03  0.62219723455E+03 -0.44306626003E+03  0.77518802452E+03  0.10100000352E+00 0.  1.
</event>
<event>
 5   0  0.3335747E-04  0.1312023E+04  0.7818609E-02  0.9020085E-01
       -1   -1    0    0    0  501  0.00000000000E+00  0.00000000000E+00  0.59658424040E+03  0.59658424042E+03  0.50400001928E-02 0.  1.
        1   -1    0    0  501    0  0.00000000000E+00  0.00000000000E+00 -0.72135882018E+03  0.72135882020E+03  0.50400001928E-02 0. -1.
    10030    2    1    2    0    0  0.00000000000E+00  0.00000000000E+00 -0.12477457978E+03  0.13179430606E+04  0.13120233288E+04 0.  0.
        3    1    3    3  502    0  0.25907652903E+03  0.20853027047E+03  0.50562469045E+03  0.60519571990E+03  0.10100000352E+00 0.  1.
       -3    1    3    3    0  502 -0.25907652903E+03 -0.20853027047E+03 -0.63039927023E+03  0.71274734072E+03  0.10100000352E+00 0. -1.
</event>
<event>
 5   0  0.6007125E-04  0.1300836E+04  0.7818609E-02  0.9028903E-01
       -2   -1    0    0    0  501  0.00000000000E+00  0.00000000000E+00  0.51482804892E+03  0.51482804893E+03  0.25500000920E-02 0. -1.
        2   -1    0    0  501    0  0.00000000000E+00  0.00000000000E+00 -0.82171798189E+03  0.82171798189E+03  0.25500000920E-02 0.  1.
    10030    2    1    2    0    0  0.00000000000E+00  0.00000000000E+00 -0.30688993297E+03  0.13365460308E+04  0.13008358319E+04 0.  0.
        5    1    3    3  502    0  0.37948277117E+03 -0.51295844516E+03 -0.23937802195E+02  0.63853633291E+03  0.46999998093E+01 0. -1.
       -5    1    3    3    0  502 -0.37948277117E+03  0.51295844516E+03 -0.28295213077E+03  0.69800969791E+03  0.46999998093E+01 0.  1.
</event>
<event>
 5   0  0.3337520E-04  0.1306450E+04  0.7818609E-02  0.9024466E-01
        1   -1    0    0  501    0  0.00000000000E+00  0.00000000000E+00  0.14213076956E+04  0.14213076956E+04  0.50400001928E-02 0.  1.
       -1   -1    0    0    0  501  0.00000000000E+00  0.00000000000E+00 -0.30021835155E+03  0.30021835159E+03  0.50400001928E-02 0. -1.
    10030    2    1    2    0    0  0.00000000000E+00  0.00000000000E+00  0.11210893441E+04  0.17215260472E+04  0.13064496216E+04 0.  0.
        5    1    3    3  502    0  0.34412871167E+03 -0.12815751887E+03 -0.15130308546E+03  0.39719470478E+03  0.46999998093E+01 0. -1.
       -5    1    3    3    0  502 -0.34412871167E+03  0.12815751887E+03  0.12723924295E+04  0.13243313424E+04  0.46999998093E+01 0.  1.
</event>
<event>
 5   0  0.3335747E-04  0.1306352E+04  0.7818609E-02  0.9024543E-01
       -1   -1    0    0    0  501  0.00000000000E+00  0.00000000000E+00  0.29774274806E+03  0.29774274810E+03  0.50400001928E-02 0.  1.
        1   -1    0    0  501    0  0.00000000000E+00  0.00000000000E+00 -0.14329111503E+04  0.14329111503E+04  0.50400001928E-02 0. -1.
    10030    2    1    2    0    0  0.00000000000E+00  0.00000000000E+00 -0.11351684022E+04  0.17306538984E+04  0.13063520255E+04 0.  0.
        3    1    3    3  502    0 -0.45259015557E+03 -0.46301955748E+03 -0.45351343521E+03  0.79050579102E+03  0.10100000352E+00 0.  1.
       -3    1    3    3    0  502  0.45259015557E+03  0.46301955748E+03 -0.68165496702E+03  0.94014810737E+03  0.10100000352E+00 0. -1.
</event>
<event>
 5   0  0.5384960E-04  0.1297273E+04  0.7818609E-02  0.9031731E-01
       -2   -1    0    0    0  501  0.00000000000E+00  0.00000000000E+00  0.66546338736E+03  0.66546338737E+03  0.25500000920E-02 0. -1.
        2   -1    0    0  501    0  0.00000000000E+00  0.00000000000E+00 -0.63223503349E+03  0.63223503350E+03  0.25500000920E-02 0.  1.
    10030    2    1    2    0    0  0.00000000000E+00  0.00000000000E+00  0.33228353866E+02  0.12976984209E+04  0.12972729351E+04 0.  0.
        3    1    3    3  502    0  0.52979471745E+03  0.86635530410E+02 -0.34756717381E+03  0.63952412642E+03  0.10100000352E+00 0.  1.
       -3    1    3    3    0  502 -0.52979471745E+03 -0.86635530410E+02  0.38079552768E+03  0.65817429444E+03  0.10100000352E+00 0. -1.
</event>
<event>
 5   0  0.3403833E-04  0.1297263E+04  0.7818609E-02  0.9031739E-01
        1   -1    0    0  501    0  0.00000000000E+00  0.00000000000E+00  0.58091368927E+03  0.58091368929E+03  0.50400001928E-02 0. -1.
       -1   -1    0    0    0  501  0.00000000000E+00  0.00000000000E+00 -0.72424304369E+03  0.72424304371E+03  0.50400001928E-02 0.  1.
    10030    2    1    2    0    0  0.00000000000E+00  0.00000000000E+00 -0.14332935443E+03  0.13051567330E+04  0.12972628083E+04 0.  0.
        1    1    3    3  502    0 -0.10780702599E+03  0.29766777289E+03 -0.64123167283E+03  0.71512692310E+03  0.50400001928E-02 0.  1.
       -1    1    3    3    0  502  0.10780702599E+03 -0.29766777289E+03  0.49790231841E+03  0.59002980990E+03  0.50400001928E-02 0. -1.
</event>
<event>
 5   0  0.3335747E-04  0.1304390E+04  0.7818609E-02  0.9026091E-01
       -1   -1    0    0    0  501  0.00000000000E+00  0.00000000000E+00  0.50655425903E+03  0.50655425906E+03  0.50400001928E-02 0.  1.
        1   -1    0    0  501    0  0.00000000000E+00  0.00000000000E+00 -0.83970984617E+03  0.83970984618E+03  0.50400001928E-02 0. -1.
    10030    2    1    2    0    0  0.00000000000E+00  0.00000000000E+00 -0.33315558713E+03  0.13462641052E+04  0.13043904307E+04 0.  0.
        3    1    3    3  502    0  0.63980652767E+02 -0.11129278332E+03  0.49338591664E+03  0.50981298580E+03  0.10100000352E+00 0.  1.
       -3    1    3    3    0  502 -0.63980652767E+02  0.11129278332E+03 -0.82654150378E+03  0.83645111944E+03  0.10100000352E+00 0. -1.
</event>
<event>
 5   0  0.3263679E-04  0.1304171E+04  0.7818609E-02  0.9026264E-01
       -1   -1    0    0    0  501  0.00000000000E+00  0.00000000000E+00  0.53974155652E+03  0.53974155654E+03  0.50400001928E-02 0.  1.
        1   -1    0    0  501    0  0.00000000000E+00  0.00000000000E+00 -0.78781261192E+03  0.78781261194E+03  0.50400001928E-02 0. -1.
    10030    2    1    2    0    0  0.00000000000E+00  0.00000000000E+00 -0.24807105541E+03  0.13275541685E+04  0.13041705493E+04 0.  0.
        2    1    3    3  502    0  0.42815880234E+03  0.22665518449E+03  0.32027969680E+03  0.58075090776E+03  0.25500000920E-02 0.  1.
       -2    1    3    3    0  502 -0.42815880234E+03 -0.22665518449E+03 -0.56835075220E+03  0.74680326072E+03  0.25500000920E-02 0. -1.
</event>
<event>
 5   0  0.3337520E-04  0.1293508E+04  0.7818609E-02  0.9034729E-01
       -1   -1    0    0    0  501  0.00000000000E+00  0.00000000000E+00  0.51140392787E+03  0.51140392789E+03  0.50400001928E-02 0. -1.
        1   -1    0    0  501    0  0.00000000000E+00  0.00000000000E+00 -0.81792635077E+03  0.81792635079E+03  0.50400001928E-02 0.  1.
    10030    2    1    2    0    0  0.00000000000E+00  0.00000000000E+00 -0.30652242290E+03  0.13293302787E+04  0.12935080186E+04 0.  0.
        5    1    3    3  502    0 -0.12484920350E+03  0.53322863159E+03  0.20028424733E+03  0.58314317872E+03  0.46999998093E+01 0. -1.
       -5    1    3    3    0  502  0.12484920350E+03 -0.53322863159E+03 -0.50680667023E+03  0.74618709996E+03  0.46999998093E+01 0.  1.
</event>
<event>
 5   0  0.5787604E-04  0.1296807E+04  0.7818609E-02  0.9032101E-01
       -2   -1    0    0    0  501  0.00000000000E+00  0.00000000000E+00  0.30364632472E+03  0.30364632473E+03  0.25500000920E-02 0.  1.
        2   -1    0    0  501    0  0.00000000000E+00  0.00000000000E+00 -0.13845946108E+04  0.13845946108E+04  0.25500000920E-02 0. -1.
    10030    2    1    2    0    0  0.00000000000E+00  0.00000000000E+00 -0.10809482861E+04  0.16882409355E+04  0.12968069476E+04 0.  0.
        4    1    3    3  502    0 -0.56514178103E+03  0.25346572310E+03 -0.29075286649E+03  0.68422872471E+03  0.12699999809E+01 0.  1.
       -4    1    3    3    0  502  0.56514178103E+03 -0.25346572310E+03 -0.79019541958E+03  0.10040122108E+04  0.12699999809E+01 0. -1.
</event>
<event>
 5   0  0.5957913E-04  0.1264573E+04  0.7818609E-02  0.9058140E-01
        2   -1    0    0  501    0  0.00000000000E+00  0.00000000000E+00  0.57256478916E+03  0.57256478917E+03  0.25500000920E-02 0. -1.
       -2   -1    0    0    0  501  0.00000000000E+00  0.00000000000E+00 -0.69823787233E+03  0.69823787233E+03  0.25500000920E-02 0.  1.
    10030    2    1    2    0    0  0.00000000000E+00  0.00000000000E+00 -0.12567308316E+03  0.12708026615E+04  0.12645733196E+04 0.  0.
        1    1    3    3  502    0  0.63164801444E+02 -0.51573263826E+03  0.29923884680E+03  0.59959472460E+03  0.50400001928E-02 0. -1.
       -1    1    3    3    0  502 -0.63164801444E+02  0.51573263826E+03 -0.42491192996E+03  0.67120793690E+03  0.50400001928E-02 0.  1.
</event>
<event>
 5   0  0.3274879E-04  0.1300884E+04  0.7818609E-02  0.9028865E-01
       -1   -1    0    0    0  501  0.00000000000E+00  0.00000000000E+00  0.87896851457E+03  0.87896851459E+03  0.50400001928E-02 0.  1.
        1   -1    0    0  501    0  0.00000000000E+00  0.00000000000E+00 -0.48133090884E+03  0.48133090887E+03  0.50400001928E-02 0. -1.
    10030    2    1    2    0    0  0.00000000000E+00  0.00000000000E+00  0.39763760573E+03  0.13602994235E+04  0.13008838749E+04 0.  0.
        4    1    3    3  502    0  0.78247332290E+00 -0.33507194463E+03  0.78177508412E+03  0.85055729694E+03  0.12699999809E+01 0.  1.
       -4    1    3    3    0  502 -0.78247332290E+00  0.33507194463E+03 -0.38413747839E+03  0.50974212651E+03  0.12699999809E+01 0. -1.
</event>
<event>
 5   0  0.6052864E-04  0.1305111E+04  0.7818609E-02  0.9025522E-01
       -2   -1    0    0    0  501  0.00000000000E+00  0.00000000000E+00  0.25691166616E+03  0.25691166618E+03  0.25500000920E-02 0.  1.
        2   -1    0    0  501    0  0.00000000000E+00  0.00000000000E+00 -0.16574911519E+04  0.16574911519E+04  0.25500000920E-02 0. -1.
    10030    2    1    2    0    0  0.00000000000E+00  0.00000000000E+00 -0.14005794857E+04  0.19144028180E+04  0.13051112037E+04 0.  0.
        2    1    3    3  502    0 -0.16738681489E+03 -0.11143456931E+03  0.21033114497E+03  0.29099003349E+03  0.25500000920E-02 0.  1.
       -2    1    3    3    0  502  0.16738681489E+03  0.11143456931E+03 -0.16109106307E+04  0.16234127846E+04  0.25500000920E-02 0. -1.
</event>
<event>
 5   0  0.3337520E-04  0.1300797E+04  0.7818609E-02  0.9028933E-01
        1   -1    0    0  501    0  0.00000000000E+00  0.00000000000E+00  0.11694383628E+04  0.11694383628E+04  0.50400001928E-02 0. -1.
       -1   -1    0    0    0  501  0.00000000000E+00  0.00000000000E+00 -0.36172775476E+03  0.36172775479E+03  0.50400001928E-02 0.  1.
    10030    2    1    2    0    0  0.00000000000E+00  0.00000000000E+00  0.80771060804E+03  0.15311661176E+04  0.13007971607E+04 0.  0.
        5    1    3    3  502    0  0.46051717648E+03  0.41661218050E+03  0.63135659818E+03  0.88559303455E+03  0.46999998093E+01 0. -1.
       -5    1    3    3    0  502 -0.46051717648E+03 -0.41661218050E+03  0.17635400986E+03  0.64557308306E+03  0.46999998093E+01 0.  1.
</event>
<event>
 5   0  0.6052864E-04  0.1301095E+04  0.7818609E-02  0.9028697E-01
        2   -1    0    0  501    0  0.00000000000E+00  0.00000000000E+00  0.40069413332E+03  0.40069413333E+03  0.25500000920E-02 0.  1.
       -2   -1    0    0    0  501  0.00000000000E+00  0.00000000000E+00 -0.10561974755E+04  0.10561974755E+04  0.25500000920E-02 0. -1.
    10030    2    1    2    0    0  0.00000000000E+00  0.00000000000E+00 -0.65550334216E+03  0.14568916088E+04  0.13010951265E+04 0.  0.
        2    1    3    3  502    0 -0.41597809877E+03 -0.47088180539E+03 -0.13890092345E+03  0.64347565599E+03  0.25500000920E-02 0.  1.
       -2    1    3    3    0  502  0.41597809877E+03  0.47088180539E+03 -0.51660241871E+03  0.81341595283E+03  0.25500000920E-02 0. -1.
</event>
<event>
 5   0  0.3263679E-04  0.1298844E+04  0.7818609E-02  0.9030483E-01
       -1   -1    0    0    0  501  0.00000000000E+00  0.00000000000E+00  0.42976030424E+03  0.42976030427E+03  0.50400001928E-02 0. -1.
        1   -1    0    0  501    0  0.00000000000E+00  0.00000000000E+00 -0.98135804986E+03  0.98135804987E+03  0.50400001928E-02 0.  1.
    10030    2    1    2    0    0  0.00000000000E+00  0.00000000000E+00 -0.55159774561E+03  0.14111183541E+04  0.12988436921E+04 0.  0.
        2    1    3    3  502    0  0.49340779516E+03 -0.10629994536E+03 -0.71977736353E+03  0.87910772023E+03  0.25500000920E-02 0.  1.
       -2    1    3    3    0  502 -0.49340779516E+03  0.10629994536E+03  0.16817961792E+03  0.53201063391E+03  0.25500000920E-02 0. -1.
</event>
<event>
 5   0  0.3263679E-04  0.1307246E+04  0.7818609E-02  0.9023839E-01
       -1   -1    0    0    0  501  0.00000000000E+00  0.00000000000E+00  0.35389518853E+03  0.35389518856E+03  0.50400001928E-02 0.  1.
        1   -1    0    0  501    0  0.00000000000E+00  0.00000000000E+00 -0.12072021861E+04  0.12072021861E+04  0.50400001928E-02 0. -1.
    10030    2    1    2    0    0  0.00000000000E+00  0.00000000000E+00 -0.85330699759E+03  0.15610973747E+04  0.13072460293E+04 0.  0.
        2    1    3    3  502    0  0.28738474010E+02  0.27851269021E+02 -0.12057377342E+04  0.12064017062E+04  0.25500000920E-02 0. -1.
       -2    1    3    3    0  502 -0.28738474010E+02 -0.27851269021E+02  0.35243073665E+03  0.35469566844E+03  0.25500000920E-02 0.  1.
</event>
<event>
 5   0  0.3263679E-04  0.1301274E+04  0.7818609E-02  0.9028555E-01
        1   -1    0    0  501    0  0.00000000000E+00  0.00000000000E+00  0.30011019235E+03  0.30011019239E+03  0.50400001928E-02 0. -1.
       -1   -1    0    0    0  501  0.00000000000E+00  0.00000000000E+00 -0.14105776725E+04  0.14105776725E+04  0.50400001928E-02 0.  1.
    10030    2    1    2    0    0  0.00000000000E+00  0.00000000000E+00 -0.11104674802E+04  0.17106878649E+04  0.13012743549E+04 0.  0.
        2    1    3    3  502    0  0.32314448104E+03 -0.41345071042E+03 -0.10609201043E+04  0.11836026839E+04  0.25500000920E-02 0.  1.
       -2    1    3    3    0  502 -0.32314448104E+03  0.41345071042E+03 -0.49547375831E+02  0.52708518100E+03  0.25500000920E-02 0. -1.
</event>
<event>
 5   0  0.5787604E-04  0.1299723E+04  0.7818609E-02  0.9029785E-01
        2   -1    0    0  501    0  0.00000000000E+00  0.00000000000E+00  0.14654984623E+04  0.14654984623E+04  0.25500000920E-02 0. -1.
       -2   -1    0    0    0  501  0.00000000000E+00  0.00000000000E+00 -0.28817493573E+03  0.28817493574E+03  0.25500000920E-02 0.  1.
    10030    2    1    2    0    0  0.00000000000E+00  0.00000000000E+00  0.11773235265E+04  0.17536733980E+04  0.12997229323E+04 0.  0.
        4    1    3    3  502    0  0.54950980430E+03 -0.30427765464E+03  0.36380569727E+03  0.72588023420E+03  0.12699999809E+01 0.  1.
       -4    1    3    3    0  502 -0.54950980430E+03  0.30427765464E+03  0.81351782926E+03  0.10277931638E+04  0.12699999809E+01 0. -1.
</event>
<event>
 5   0  0.3337520E-04  0.1300860E+04  0.7818609E-02  0.9028883E-01
       -1   -1    0    0    0  501  0.00000000000E+00  0.00000000000E+00  0.23580794512E+03  0.23580794518E+03  0.50400001928E-02 0. -1.
        1   -1    0    0  501    0  0.00000000000E+00  0.00000000000E+00 -0.17940847509E+04  0.17940847509E+04  0.50400001928E-02 0.  1.
    10030    2    1    2    0    0  0.00000000000E+00  0.00000000000E+00 -0.15582768058E+04  0.20298926961E+04  0.13008603900E+04 0.  0.
        5    1    3    3  502    0 -0.55811950461E+03 -0.23515174117E+03 -0.11492042835E+04  0.12990328318E+04  0.46999998093E+01 0.  1.
       -5    1    3    3    0  502  0.55811950461E+03  0.23515174117E+03 -0.40907252231E+03  0.73085986434E+03  0.46999998093E+01 0. -1.
</event>
<event>
 5   0  0.6007125E-04  0.1301659E+04  0.7818609E-02  0.9028250E-01
       -2   -1    0    0    0  501  0.00000000000E+00  0.00000000000E+00  0.40051895269E+03  0.40051895270E+03  0.25500000920E-02 0. -1.
        2   -1    0    0  501    0  0.00000000000E+00  0.00000000000E+00 -0.10575759983E+04  0.10575759983E+04  0.25500000920E-02 0.  1.
    10030    2    1    2    0    0  0.00000000000E+00  0.00000000000E+00 -0.65705704558E+03  0.14580949510E+04  0.13016592968E+04 0.  0.
        5    1    3    3  502    0  0.44363430379E+03 -0.46304486610E+03 -0.45294031283E+03  0.78511079505E+03  0.46999998093E+01 0.  1.
       -5    1    3    3    0  502 -0.44363430379E+03  0.46304486610E+03 -0.20411673275E+03  0.67298415591E+03  0.46999998093E+01 0. -1.
</event>
<event>
 5   0  0.6007125E-04  0.1300099E+04  0.7818609E-02  0.9029486E-01
       -2   -1    0    0    0  501  0.00000000000E+00  0.00000000000E+00  0.52354231546E+03  0.52354231547E+03  0.25500000920E-02 0. -1.
        2   -1    0    0  501    0  0.00000000000E+00  0.00000000000E+00 -0.80712585515E+03  0.80712585515E+03  0.25500000920E-02 0.  1.
    10030    2    1    2    0    0  0.00000000000E+00  0.00000000000E+00 -0.28358353969E+03  0.13306681706E+04  0.13000992871E+04 0.  0.
        5    1    3    3  502    0 -0.45068730550E+03 -0.12279520068E+03  0.32088210831E+03  0.56673197023E+03  0.46999998093E+01 0. -1.
       -5    1    3    3    0  502  0.45068730550E+03  0.12279520068E+03 -0.60446564800E+03  0.76393620039E+03  0.46999998093E+01 0.  1.
</event>
<event>
 5   0  0.5787604E-04  0.1299616E+04  0.7818609E-02  0.9029870E-01
       -2   -1    0    0    0  501  0.00000000000E+00  0.00000000000E+00  0.40316575499E+03  0.40316575500E+03  0.25500000920E-02 0. -1.
        2   -1    0    0  501    0  0.00000000000E+00  0.00000000000E+00 -0.10473367153E+04  0.10473367153E+04  0.25500000920E-02 0.  1.
    10030    2    1    2    0    0  0.00000000000E+00  0.00000000000E+00 -0.64417096031E+03  0.14505024703E+04  0.12996157856E+04 0.  0.
        4    1    3    3  502    0  0.39803578217E+03 -0.51360881031E+03 -0.32734310352E+03  0.72758615589E+03  0.12699999809E+01 0.  1.
       -4    1    3    3    0  502 -0.39803578217E+03  0.51360881031E+03 -0.31682785679E+03  0.72291631442E+03  0.12699999809E+01 0. -1.
</event>
<event>
 5   0  0.3274879E-04  0.1296174E+04  0.7818609E-02  0.9032604E-01
        1   -1    0    0  501    0  0.00000000000E+00  0.00000000000E+00  0.94395304981E+03  0.94395304982E+03  0.50400001928E-02 0. -1.
       -1   -1    0    0    0  501  0.00000000000E+00  0.00000000000E+00 -0.44495539107E+03  0.44495539110E+03  0.50400001928E-02 0.  1.
    10030    2    1    2    0    0  0.00000000000E+00  0.00000000000E+00  0.49899765873E+03  0.13889084409E+04  0.12961743686E+04 0.  0.
        4    1    3    3  502    0  0.42574902935E+03  0.47784248645E+03  0.14011882000E+03  0.65515690829E+03  0.12699999809E+01 0. -1.
       -4    1    3    3    0  502 -0.42574902935E+03 -0.47784248645E+03  0.35887883873E+03  0.73375153264E+03  0.12699999809E+01 0.  1.
</event>
<event>
 5   0  0.3263679E-04  0.1304847E+04  0.7818609E-02  0.9025731E-01
        1   -1    0    0  501    0  0.00000000000E+00  0.00000000000E+00  0.45115722043E+03  0.45115722046E+03  0.50400001928E-02 0. -1.
       -1   -1    0    0    0  501  0.00000000000E+00  0.00000000000E+00 -0.94347645360E+03  0.94347645361E+03  0.50400001928E-02 0.  1.
    10030    2    1    2    0    0  0.00000000000E+00  0.00000000000E+00 -0.49231923317E+03  0.13946336741E+04  0.13048466797E+04 0.  0.
        2    1    3    3  502    0 -0.24831181931E+03  0.57948983626E+03 -0.42560834174E+03  0.76066398002E+03  0.25500000920E-02 0. -1.
       -2    1    3    3    0  502  0.24831181931E+03 -0.57948983626E+03 -0.66710891429E+02  0.63396969405E+03  0.25500000920E-02 0.  1.
</event>
<event>
 5   0  0.2255875E-04  0.1295814E+04  0.7818609E-02  0.9032892E-01
       -3   -1    0    0    0  501  0.00000000000E+00  0.00000000000E+00  0.11476677742E+04  0.11476677786E+04  0.10100000352E+00 0. -1.
        3   -1    0    0  501    0  0.00000000000E+00  0.00000000000E+00 -0.36577066070E+03  0.36577067464E+03  0.10100000352E+00 0.  1.
    10030    2    1    2    0    0  0.00000000000E+00  0.00000000000E+00  0.78189711349E+03  0.15134384533E+04  0.12958135884E+04 0.  0.
        5    1    3    3  502    0  0.57713921885E+03  0.35968377389E+02  0.49681383179E+02  0.58040824593E+03  0.46999998093E+01 0.  1.
       -5    1    3    3    0  502 -0.57713921885E+03 -0.35968377389E+02  0.73221573032E+03  0.93303020735E+03  0.46999998093E+01 0. -1.
</event>
<event>
 5   0  0.6052864E-04  0.1303259E+04  0.7818609E-02  0.9026985E-01
        2   -1    0    0  501    0  0.00000000000E+00  0.00000000000E+00  0.62566962666E+03  0.62566962667E+03  0.25500000920E-02 0. -1.
       -2   -1    0    0    0  501  0.00000000000E+00  0.00000000000E+00 -0.67866629761E+03  0.67866629761E+03  0.25500000920E-02 0.  1.
    10030    2    1    2    0    0  0.00000000000E+00  0.00000000000E+00 -0.52996670943E+02  0.13043359243E+04  0.13032588217E+04 0.  0.
        2    1    3    3  502    0  0.30202441734E+03 -0.30839961945E+03  0.46205653281E+03  0.63231741512E+03  0.25500000920E-02 0. -1.
       -2    1    3    3    0  502 -0.30202441734E+03  0.30839961945E+03 -0.51505320376E+03  0.67201850916E+03  0.25500000920E-02 0.  1.
</event>
<event>
 5   0  0.3263679E-04  0.1282068E+04  0.7818609E-02  0.9043908E-01
        1   -1    0    0  501    0  0.00000000000E+00  0.00000000000E+00  0.18329150489E+04  0.18329150490E+04  0.50400001928E-02 0.  1.
       -1   -1    0    0    0  501  0.00000000000E+00  0.00000000000E+00 -0.22419176171E+03  0.22419176176E+03  0.50400001928E-02 0. -1.
    10030    2    1    2    0    0  0.00000000000E+00  0.00000000000E+00  0.16087232872E+04  0.20571068107E+04  0.12820677891E+04 0.  0.
        2    1    3    3  502    0  0.47217685633E+03  0.45518338841E+02  0.11255080833E+03  0.48753521646E+03  0.25500000920E-02 0. -1.
       -2    1    3    3    0  502 -0.47217685633E+03 -0.45518338841E+02  0.14961724789E+04  0.15695715943E+04  0.25500000920E-02 0.  1.
</event>
<event>
 5   0  0.5384960E-04  0.1302100E+04  0.7818609E-02  0.9027902E-01
        2   -1    0    0  501    0  0.00000000000E+00  0.00000000000E+00  0.63379284165E+03  0.63379284165E+03  0.25500000920E-02 0. -1.
       -2   -1    0    0    0  501  0.00000000000E+00  0.00000000000E+00 -0.66877661729E+03  0.66877661729E+03  0.25500000920E-02 0.  1.
    10030    2    1    2    0    0  0.00000000000E+00  0.00000000000E+00 -0.34983775639E+02  0.13025694589E+04  0.13020995856E+04 0.  0.
        3    1    3    3  502    0 -0.60746900976E+03  0.21134172365E+03  0.83449928606E+02  0.64857368337E+03  0.10100000352E+00 0. -1.
       -3    1    3    3    0  502  0.60746900976E+03 -0.21134172365E+03 -0.11843370425E+03  0.65399577558E+03  0.10100000352E+00 0.  1.
</event>
<event>
 5   0  0.6007125E-04  0.1300615E+04  0.7818609E-02  0.9029078E-01
       -2   -1    0    0    0  501  0.00000000000E+00  0.00000000000E+00  0.52684563104E+03  0.52684563105E+03  0.25500000920E-02 0.  1.
        2   -1    0    0  501    0  0.00000000000E+00  0.00000000000E+00 -0.80270132799E+03  0.80270132799E+03  0.25500000920E-02 0. -1.
    10030    2    1    2    0    0  0.00000000000E+00  0.00000000000E+00 -0.27585569695E+03  0.13295469590E+04  0.13006147588E+04 0.  0.
        5    1    3    3  502    0  0.15962160201E+03 -0.91624194867E+02 -0.77550359021E+03  0.79705831489E+03  0.46999998093E+01 0. -1.
       -5    1    3    3    0  502 -0.15962160201E+03  0.91624194867E+02  0.49964789326E+03  0.53248864415E+03  0.46999998093E+01 0.  1.
</event>
<event>
 5   0  0.3337520E-04  0.1306472E+04  0.7818609E-02  0.9024448E-01
       -1   -1    0    0    0  501  0.00000000000E+00  0.00000000000E+00  0.92786586911E+03  0.92786586912E+03  0.50400001928E-02 0.  1.
        1   -1    0    0  501    0  0.00000000000E+00  0.00000000000E+00 -0.45989139931E+03  0.45989139934E+03  0.50400001928E-02 0. -1.
    10030    2    1    2    0    0  0.00000000000E+00  0.00000000000E+00  0.46797446980E+03  0.13877572685E+04  0.13064723999E+04 0.  0.
        5    1    3    3  502    0 -0.26970380165E+03 -0.57336408458E+03  0.65335634264E+02  0.63700655351E+03  0.46999998093E+01 0. -1.
       -5    1    3    3    0  502  0.26970380165E+03  0.57336408458E+03  0.40263883554E+03  0.75075071495E+03  0.46999998093E+01 0.  1.
</event>
<event>
 5   0  0.3335747E-04  0.1297729E+04  0.7818609E-02  0.9031368E-01
        1   -1    0    0  501    0  0.00000000000E+00  0.00000000000E+00  0.77784897391E+03  0.77784897393E+03  0.50400001928E-02 0. -1.
       -1   -1    0    0    0  501  0.00000000000E+00  0.00000000000E+00 -0.54126865902E+03  0.54126865905E+03  0.50400001928E-02 0.  1.
    10030    2    1    2    0    0  0.00000000000E+00  0.00000000000E+00  0.23658031489E+03  0.13191176330E+04  0.12977292030E+04 0.  0.
        3    1    3    3  502    0 -0.13542504302E+03 -0.44773266689E+02  0.76171621545E+03  0.77495560568E+03  0.10100000352E+00 0. -1.
       -3    1    3    3    0  502  0.13542504302E+03  0.44773266689E+02 -0.52513590056E+03  0.54416202730E+03  0.10100000352E+00 0.  1.
</event>
<event>
 5   0  0.5384960E-04  0.1307832E+04  0.7818609E-02  0.9023377E-01
        2   -1    0    0  501    0  0.00000000000E+00  0.00000000000E+00  0.14833962860E+04  0.14833962860E+04  0.25500000920E-02 0. -1.
       -2   -1    0    0    0  501  0.00000000000E+00  0.00000000000E+00 -0.28826168786E+03  0.28826168788E+03  0.25500000920E-02 0.  1.
    10030    2    1    2    0    0  0.00000000000E+00  0.00000000000E+00  0.11951345982E+04  0.17716579739E+04  0.13078322785E+04 0.  0.
        3    1    3    3  502    0  0.35731342420E+03 -0.39761775760E+03  0.87394491621E+02  0.54167386095E+03  0.10100000352E+00 0.  1.
       -3    1    3    3    0  502 -0.35731342420E+03  0.39761775760E+03  0.11077401065E+04  0.12299841129E+04  0.10100000352E+00 0. -1.
</event>
<event>
 5   0  0.5957913E-04  0.1317281E+04  0.7818609E-02  0.9015973E-01
        2   -1    0    0  501    0  0.00000000000E+00  0.00000000000E+00  0.11126082990E+04  0.11126082990E+04  0.25500000920E-02 0. -1.
       -2   -1    0    0    0  501  0.00000000000E+00  0.00000000000E+00 -0.38990105142E+03  0.38990105142E+03  0.25500000920E-02 0.  1.
    10030    2    1    2    0    0  0.00000000000E+00  0.00000000000E+00  0.72270724754E+03  0.15025093504E+04  0.13172807530E+04 0.  0.
        1    1    3    3  502    0  0.16178262136E+03 -0.37173956690E+03 -0.23071557687E+03  0.46646929117E+03  0.50400001928E-02 0.  1.
       -1    1    3    3    0  502 -0.16178262136E+03  0.37173956690E+03  0.95342282441E+03  0.10360400592E+04  0.50400001928E-02 0. -1.
</event>
<event>
 5   0  0.5957913E-04  0.1302572E+04  0.7818609E-02  0.9027528E-01
       -2   -1    0    0    0  501  0.00000000000E+00  0.00000000000E+00  0.31118501768E+03  0.31118501769E+03  0.25500000920E-02 0.  1.
        2   -1    0    0  501    0  0.00000000000E+00  0.00000000000E+00 -0.13630911111E+04  0.13630911111E+04  0.25500000920E-02 0. -1.
    10030    2    1    2    0    0  0.00000000000E+00  0.00000000000E+00 -0.10519060934E+04  0.16742761288E+04  0.13025721194E+04 0.  0.
        1    1    3    3  502    0 -0.51940386723E+03  0.24658348427E+03 -0.13272958124E+03  0.59008553089E+03  0.50400001928E-02 0.  1.
       -1    1    3    3    0  502  0.51940386723E+03 -0.24658348427E+03 -0.91917651221E+03  0.10841905979E+04  0.50400001928E-02 0. -1.
</event>
<event>
 5   0  0.6052864E-04  0.1299223E+04  0.7818609E-02  0.9030182E-01
       -2   -1    0    0    0  501  0.00000000000E+00  0.00000000000E+00  0.28519196014E+03  0.28519196015E+03  0.25500000920E-02 0.  1.
        2   -1    0    0  501    0  0.00000000000E+00  0.00000000000E+00 -0.14796879878E+04  0.14796879878E+04  0.25500000920E-02 0. -1.
    10030    2    1    2    0    0  0.00000000000E+00  0.00000000000E+00 -0.11944960277E+04  0.17648799480E+04  0.12992230257E+04 0.  0.
        2    1    3    3  502    0 -0.32504293425E+03 -0.18163928136E+03 -0.13203384098E+04  0.13718379110E+04  0.25500000920E-02 0. -1.
       -2    1    3    3    0  502  0.32504293425E+03  0.18163928136E+03  0.12584238217E+03  0.39304203694E+03  0.25500000920E-02 0.  1.
</event>
<event>
 5   0  0.3403833E-04  0.1290579E+04  0.7818609E-02  0.9037069E-01
       -1   -1    0    0    0  501  0.00000000000E+00  0.00000000000E+00  0.15322232590E+04  0.15322232590E+04  0.50400001928E-02 0.  1.
        1   -1    0    0  501    0  0.00000000000E+00  0.00000000000E+00 -0.27176113923E+03  0.27176113928E+03  0.50400001928E-02 0. -1.
    10030    2    1    2    0    0  0.00000000000E+00  0.00000000000E+00  0.12604621198E+04  0.18039843983E+04  0.12905793094E+04 0.  0.
        1    1    3    3  502    0 -0.23846498555E+03  0.58607338692E+03  0.80732409614E+03  0.10257288923E+04  0.50400001928E-02 0. -1.
       -1    1    3    3    0  502  0.23846498555E+03 -0.58607338692E+03  0.45313802363E+03  0.77825550604E+03  0.50400001928E-02 0.  1.
</event>
<event>
 5   0  0.5957913E-04  0.1322947E+04  0.7818609E-02  0.9011563E-01
       -2   -1    0    0    0  501  0.00000000000E+00  0.00000000000E+00  0.10563357372E+04  0.10563357372E+04  0.25500000920E-02 0.  1.
        2   -1    0    0  501    0  0.00000000000E+00  0.00000000000E+00 -0.41421247254E+03  0.41421247254E+03  0.25500000920E-02 0. -1.
    10030    2    1    2    0    0  0.00000000000E+00  0.00000000000E+00  0.64212326467E+03  0.14705482098E+04  0.13229473724E+04 0.  0.
        1    1    3    3  502    0 -0.53379996485E+03 -0.17176757546E+03 -0.68940853009E+02  0.56497729485E+03  0.50400001928E-02 0. -1.
       -1    1    3    3    0  502  0.53379996485E+03  0.17176757546E+03  0.71106411768E+03  0.90557091491E+03  0.50400001928E-02 0.  1.
</event>
<event>
 5   0  0.5787604E-04  0.1297236E+04  0.7818609E-02  0.9031760E-01
       -2   -1    0    0    0  501  0.00000000000E+00  0.00000000000E+00  0.20573913045E+03  0.20573913047E+03  0.25500000920E-02 0.  1.
        2   -1    0    0  501    0  0.00000000000E+00  0.00000000000E+00 -0.20448478224E+04  0.20448478224E+04  0.25500000920E-02 0. -1.
    10030    2    1    2    0    0  0.00000000000E+00  0.00000000000E+00 -0.18391086920E+04  0.22505869529E+04  0.12972358504E+04 0.  0.
        4    1    3    3  502    0 -0.33238250275E+02 -0.61737872980E+03 -0.57939558207E+03  0.84732646053E+03  0.12699999809E+01 0.  1.
       -4    1    3    3    0  502  0.33238250275E+02  0.61737872980E+03 -0.12597131099E+04  0.14032604924E+04  0.12699999809E+01 0. -1.
</event>
<event>
 5   0  0.5384960E-04  0.1300349E+04  0.7818609E-02  0.9029288E-01
        2   -1    0    0  501    0  0.00000000000E+00  0.00000000000E+00  0.13151315578E+04  0.13151315578E+04  0.25500000920E-02 0. -1.
       -2   -1    0    0    0  501  0.00000000000E+00  0.00000000000E+00 -0.32143322096E+03  0.32143322097E+03  0.25500000920E-02 0.  1.
    10030    2    1    2    0    0  0.00000000000E+00  0.00000000000E+00  0.99369833688E+03  0.16365647788E+04  0.13003491418E+04 0.  0.
        3    1    3    3  502    0  0.59729088585E+03  0.23643167796E+03  0.37054974510E+03  0.74159521604E+03  0.10100000352E+00 0. -1.
       -3    1    3    3    0  502 -0.59729088585E+03 -0.23643167796E+03  0.62314859178E+03  0.89496956278E+03  0.10100000352E+00 0.  1.
</event>
<event>
 5   0  0.3335747E-04  0.1291037E+04  0.7818609E-02  0.9036703E-01
        1   -1    0    0  501    0  0.00000000000E+00  0.00000000000E+00  0.67156334985E+03  0.67156334987E+03  0.50400001928E-02 0.  1.
       -1   -1    0    0    0  501  0.00000000000E+00  0.00000000000E+00 -0.62048359940E+03  0.62048359942E+03  0.50400001928E-02 0. -1.
    10030    2    1    2    0    0  0.00000000000E+00  0.00000000000E+00  0.51079750459E+02  0.12920469493E+04  0.12910368617E+04 0.  0.
        3    1    3    3  502    0 -0.29648346547E+03 -0.71428498358E+02  0.59492222163E+03  0.66853342150E+03  0.10100000352E+00 0.  1.
       -3    1    3    3    0  502  0.29648346547E+03  0.71428498358E+02 -0.54384247117E+03  0.62351352778E+03  0.10100000352E+00 0. -1.
</event>
<event>
 5   0  0.2255875E-04  0.1311945E+04  0.7818609E-02  0.9020146E-01
       -4   -1    0    0    0  501  0.00000000000E+00  0.00000000000E+00  0.67418525772E+03  0.67418645391E+03  0.12699999809E+01 0.  1.
        4   -1    0    0  501    0  0.00000000000E+00  0.00000000000E+00 -0.63824910168E+03  0.63825036521E+03  0.12699999809E+01 0. -1.
    10030    2    1    2    0    0  0.00000000000E+00  0.00000000000E+00  0.35936156044E+02  0.13124368191E+04  0.13119447385E+04 0.  0.
        4    1    3    3  502    0  0.20807434380E+03 -0.10486225355E+03 -0.59545610464E+03  0.63942209081E+03  0.12699999809E+01 0. -1.
       -4    1    3    3    0  502 -0.20807434380E+03  0.10486225355E+03  0.63139226068E+03  0.67301472831E+03  0.12699999809E+01 0.  1.
</event>
<event>
 5   0  0.5957913E-04  0.1300732E+04  0.7818609E-02  0.9028985E-01
        2   -1    0    0  501    0  0.00000000000E+00  0.00000000000E+00  0.76805804574E+03  0.76805804574E+03  0.25500000920E-02 0.  1.
       -2   -1    0    0    0  501  0.00000000000E+00  0.00000000000E+00 -0.55070808092E+03  0.55070808093E+03  0.25500000920E-02 0. -1.
    10030    2    1    2    0    0  0.00000000000E+00  0.00000000000E+00  0.21734996482E+03  0.13187661267E+04  0.13007317516E+04 0.  0.
        1    1    3    3  502    0 -0.44439713353E+03 -0.25866113699E+03  0.51241903048E+03  0.72592538109E+03  0.50400001928E-02 0.  1.
       -1    1    3    3    0  502  0.44439713353E+03  0.25866113699E+03 -0.29506906566E+03  0.59284074558E+03  0.50400001928E-02 0. -1.
</event>
<event>
 5   0  0.5787604E-04  0.1287951E+04  0.7818609E-02  0.9039175E-01
       -2   -1    0    0    0  501  0.00000000000E+00  0.00000000000E+00  0.16676674694E+04  0.16676674694E+04  0.25500000920E-02 0.  1.
        2   -1    0    0  501    0  0.00000000000E+00  0.00000000000E+00 -0.24867339611E+03  0.24867339612E+03  0.25500000920E-02 0. -1.
    10030    2    1    2    0    0  0.00000000000E+00  0.00000000000E+00  0.14189940733E+04  0.19163408656E+04  0.12879511376E+04 0.  0.
        4    1    3    3  502    0  0.31231971102E+03 -0.38712241475E+03  0.13180740915E+04  0.14088038506E+04  0.12699999809E+01 0.  1.
       -4    1    3    3    0  502 -0.31231971102E+03  0.38712241475E+03  0.10091998179E+03  0.50753701493E+03  0.12699999809E+01 0. -1.
</event>
<event>
 5   0  0.5384960E-04  0.1296179E+04  0.7818609E-02  0.9032601E-01
       -2   -1    0    0    0  501  0.00000000000E+00  0.00000000000E+00  0.25092060441E+03  0.25092060443E+03  0.25500000920E-02 0.  1.
        2   -1    0    0  501    0  0.00000000000E+00  0.00000000000E+00 -0.16739152303E+04  0.16739152303E+04  0.25500000920E-02 0. -1.
    10030    2    1    2    0    0  0.00000000000E+00  0.00000000000E+00 -0.14229946259E+04  0.19248358347E+04  0.12961787243E+04 0.  0.
        3    1    3    3  502    0  0.35850574811E+03  0.12885250139E+03  0.67092380955E+02  0.38682132351E+03  0.10100000352E+00 0.  1.
       -3    1    3    3    0  502 -0.35850574811E+03 -0.12885250139E+03 -0.14900870068E+04  0.15380145112E+04  0.10100000352E+00 0. -1.
</event>
<event>
 5   0  0.3403833E-04  0.1280690E+04  0.7818609E-02  0.9045020E-01
        1   -1    0    0  501    0  0.00000000000E+00  0.00000000000E+00  0.10415134243E+04  0.10415134244E+04  0.50400001928E-02 0. -1.
       -1   -1    0    0    0  501  0.00000000000E+00  0.00000000000E+00 -0.39369792198E+03  0.39369792201E+03  0.50400001928E-02 0.  1.
    10030    2    1    2    0    0  0.00000000000E+00  0.00000000000E+00  0.64781550237E+03  0.14352113464E+04  0.12806899249E+04 0.  0.
        1    1    3    3  502    0  0.45302436495E+03 -0.24093227946E+03 -0.10541017289E+03  0.52382319832E+03  0.50400001928E-02 0.  1.
       -1    1    3    3    0  502 -0.45302436495E+03  0.24093227946E+03  0.75322567525E+03  0.91138814805E+03  0.50400001928E-02 0. -1.
</event>
<event>
 5   0  0.6052864E-04  0.1301589E+04  0.7818609E-02  0.9028306E-01
        2   -1    0    0  501    0  0.00000000000E+00  0.00000000000E+00  0.98253582424E+03  0.98253582425E+03  0.25500000920E-02 0.  1.
       -2   -1    0    0    0  501  0.00000000000E+00  0.00000000000E+00 -0.43106167976E+03  0.43106167977E+03  0.25500000920E-02 0. -1.
    10030    2    1    2    0    0  0.00000000000E+00  0.00000000000E+00  0.55147414448E+03  0.14135975040E+04  0.13015890947E+04 0.  0.
        2    1    3    3  502    0 -0.40914140635E+03 -0.46824084057E+03  0.48432573536E+03  0.78817358057E+03  0.25500000920E-02 0.  1.
       -2    1    3    3    0  502  0.40914140635E+03  0.46824084057E+03  0.67148409126E+02  0.62542392345E+03  0.25500000920E-02 0. -1.
</event>
<event>
 5   0  0.3274879E-04  0.1292710E+04  0.7818609E-02  0.9035366E-01
        1   -1    0    0  501    0  0.00000000000E+00  0.00000000000E+00  0.85143978893E+03  0.85143978895E+03  0.50400001928E-02 0. -1.
       -1   -1    0    0    0  501  0.00000000000E+00  0.00000000000E+00 -0.49066874646E+03  0.49066874649E+03  0.50400001928E-02 0.  1.
    10030    2    1    2    0    0  0.00000000000E+00  0.00000000000E+00  0.36077104248E+03  0.13421085354E+04  0.12927101670E+04 0.  0.
        4    1    3    3  502    0 -0.78968312496E+02  0.63578357111E+03  0.91580142277E+02  0.64718257009E+03  0.12699999809E+01 0. -1.
       -4    1    3    3    0  502  0.78968312496E+02 -0.63578357111E+03  0.26919090020E+03  0.69492596535E+03  0.12699999809E+01 0.  1.
</event>
<event>
 5   0  0.3263679E-04  0.1301149E+04  0.7818609E-02  0.9028654E-01
        1   -1    0    0  501    0  0.00000000000E+00  0.00000000000E+00  0.56435591149E+03  0.56435591151E+03  0.50400001928E-02 0.  1.
       -1   -1    0    0    0  501  0.00000000000E+00  0.00000000000E+00 -0.74996522290E+03  0.74996522291E+03  0.50400001928E-02 0. -1.
    10030    2    1    2    0    0  0.00000000000E+00  0.00000000000E+00 -0.18560931141E+03  0.13143211344E+04  0.13011491951E+04 0.  0.
        2    1    3    3  502    0 -0.27913175872E+03  0.48764512488E+03 -0.42404964284E+03  0.70393920628E+03  0.25500000920E-02 0. -1.
       -2    1    3    3    0  502  0.27913175872E+03 -0.48764512488E+03  0.23844033143E+03  0.61038192814E+03  0.25500000920E-02 0.  1.
</event>
<event>
 5   0  0.6007125E-04  0.1211448E+04  0.7818609E-02  0.9102895E-01
        2   -1    0    0  501    0  0.00000000000E+00  0.00000000000E+00  0.11183038056E+04  0.11183038056E+04  0.25500000920E-02 0.  1.
       -2   -1    0    0    0  501  0.00000000000E+00  0.00000000000E+00 -0.32808763598E+03  0.32808763599E+03  0.25500000920E-02 0. -1.
    10030    2    1    2    0    0  0.00000000000E+00  0.00000000000E+00  0.79021616966E+03  0.14463914416E+04  0.12114481448E+04 0.  0.
        5    1    3    3  502    0  0.47382872505E+03  0.30791322323E+03  0.65547194219E+03  0.86544195110E+03  0.46999998093E+01 0.  1.
       -5    1    3    3    0  502 -0.47382872505E+03 -0.30791322323E+03  0.13474422746E+03  0.58094949053E+03  0.46999998093E+01 0. -1.
</event>
<event>
 5   0  0.3403833E-04  0.1302268E+04  0.7818609E-02  0.9027769E-01
       -1   -1    0    0    0  501  0.00000000000E+00  0.00000000000E+00  0.73090427797E+03  0.73090427798E+03  0.50400001928E-02 0. -1.
        1   -1    0    0  501    0  0.00000000000E+00  0.00000000000E+00 -0.58006953298E+03  0.58006953300E+03  0.50400001928E-02 0.  1.
    10030    2    1    2    0    0  0.00000000000E+00  0.00000000000E+00  0.15083474498E+03  0.13109738110E+04  0.13022677193E+04 0.  0.
        1    1    3    3  502    0  0.11242029852E+03 -0.63750098316E+03  0.47377657851E+01  0.64735482813E+03  0.50400001928E-02 0. -1.
       -1    1    3    3    0  502 -0.11242029852E+03  0.63750098316E+03  0.14609697920E+03  0.66361898286E+03  0.50400001928E-02 0.  1.
</event>
<event>
 5   0  0.5787604E-04  0.1278020E+04  0.7818609E-02  0.9047179E-01
       -2   -1    0    0    0  501  0.00000000000E+00  0.00000000000E+00  0.17704120487E+03  0.17704120489E+03  0.25500000920E-02 0. -1.
        2   -1    0    0  501    0  0.00000000000E+00  0.00000000000E+00 -0.23064341555E+04  0.23064341555E+04  0.25500000920E-02 0.  1.
    10030    2    1    2    0    0  0.00000000000E+00  0.00000000000E+00 -0.21293929506E+04  0.24834753604E+04  0.12780201593E+04 0.  0.
        4    1    3    3  502    0  0.41702529656E+03 -0.14885404384E+02 -0.20051041157E+04  0.20480663566E+04  0.12699999809E+01 0.  1.
       -4    1    3    3    0  502 -0.41702529656E+03  0.14885404384E+02 -0.12428883497E+03  0.43540900385E+03  0.12699999809E+01 0. -1.
</event>
<event>
 5   0  0.3337520E-04  0.1300289E+04  0.7818609E-02  0.9029336E-01
       -1   -1    0    0    0  501  0.00000000000E+00  0.00000000000E+00  0.10660485231E+04  0.10660485231E+04  0.50400001928E-02 0.  1.
        1   -1    0    0  501    0  0.00000000000E+00  0.00000000000E+00 -0.39649980209E+03  0.39649980213E+03  0.50400001928E-02 0. -1.
    10030    2    1    2    0    0  0.00000000000E+00  0.00000000000E+00  0.66954872098E+03  0.14625483252E+04  0.13002892424E+04 0.  0.
        5    1    3    3  502    0  0.45170141390E+02  0.30355709929E+02  0.10634627932E+04  0.10648647864E+04  0.46999998093E+01 0.  1.
       -5    1    3    3    0  502 -0.45170141390E+02 -0.30355709929E+02 -0.39391407219E+03  0.39768353884E+03  0.46999998093E+01 0. -1.
</event>
<event>
 5   0  0.5384960E-04  0.1298976E+04  0.7818609E-02  0.9030378E-01
       -2   -1    0    0    0  501  0.00000000000E+00  0.00000000000E+00  0.53706941356E+03  0.53706941357E+03  0.25500000920E-02 0. -1.
        2   -1    0    0  501    0  0.00000000000E+00  0.00000000000E+00 -0.78543754055E+03  0.78543754056E+03  0.25500000920E-02 0.  1.
    10030    2    1    2    0    0  0.00000000000E+00  0.00000000000E+00 -0.24836812699E+03  0.13225069541E+04  0.12989757185E+04 0.  0.
        3    1    3    3  502    0 -0.39528565098E+03  0.44171855869E+03  0.14608370407E+03  0.61049692035E+03  0.10100000352E+00 0. -1.
       -3    1    3    3    0  502  0.39528565098E+03 -0.44171855869E+03 -0.39445183106E+03  0.71201003377E+03  0.10100000352E+00 0.  1.
</event>
<event>
 5   0  0.5384960E-04  0.1312016E+04  0.7818609E-02  0.9020090E-01
       -2   -1    0    0    0  501  0.00000000000E+00  0.00000000000E+00  0.52357489721E+03  0.52357489721E+03  0.25500000920E-02 0. -1.
        2   -1    0    0  501    0  0.00000000000E+00  0.00000000000E+00 -0.82193900983E+03  0.82193900983E+03  0.25500000920E-02 0.  1.
    10030    2    1    2    0    0  0.00000000000E+00  0.00000000000E+00 -0.29836411262E+03  0.13455139070E+04  0.13120162081E+04 0.  0.
        3    1    3    3  502    0  0.26185847187E+03 -0.44304924602E+02 -0.76434181923E+03  0.80916698676E+03  0.10100000352E+00 0.  1.
       -3    1    3    3    0  502 -0.26185847187E+03  0.44304924602E+02  0.46597770661E+03  0.53634692028E+03  0.10100000352E+00 0. -1.
</event>
<event>
 5   0  0.3335747E-04  0.1299036E+04  0.7818609E-02  0.9030330E-01
        1   -1    0    0  501    0  0.00000000000E+00  0.00000000000E+00  0.62095590753E+03  0.62095590755E+03  0.50400001928E-02 0. -1.
       -1   -1    0    0    0  501  0.00000000000E+00  0.00000000000E+00 -0.67939371564E+03  0.67939371566E+03  0.50400001928E-02 0.  1.
    10030    2    1    2    0    0  0.00000000000E+00  0.00000000000E+00 -0.58437808106E+02  0.13003496232E+04  0.12990358598E+04 0.  0.
        3    1    3    3  502    0  0.49375715325E+03  0.34116143461E+03  0.21939950758E+03  0.63900188182E+03  0.10100000352E+00 0. -1.
       -3    1    3    3    0  502 -0.49375715325E+03 -0.34116143461E+03 -0.27783731568E+03  0.66134774139E+03  0.10100000352E+00 0.  1.
</event>
<event>
 5   0  0.6052864E-04  0.1308126E+04  0.7818609E-02  0.9023146E-01
        2   -1    0    0  501    0  0.00000000000E+00  0.00000000000E+00  0.13229119040E+04  0.13229119040E+04  0.25500000920E-02 0.  1.
       -2   -1    0    0    0  501  0.00000000000E+00  0.00000000000E+00 -0.32337639532E+03  0.32337639533E+03  0.25500000920E-02 0. -1.
    10030    2    1    2    0    0  0.00000000000E+00  0.00000000000E+00  0.99953550868E+03  0.16462882993E+04  0.13081261145E+04 0.  0.
        2    1    3    3  502    0 -0.40108651155E+03 -0.51647878513E+03  0.48298858794E+03  0.81295676473E+03  0.25500000920E-02 0.  1.
       -2    1    3    3    0  502  0.40108651155E+03  0.51647878513E+03  0.51654692074E+03  0.83333153460E+03  0.25500000920E-02 0. -1.
</event>
<event>
 5   0  0.5787604E-04  0.1295589E+04  0.7818609E-02  0.9033071E-01
       -2   -1    0    0    0  501  0.00000000000E+00  0.00000000000E+00  0.23966690580E+03  0.23966690581E+03  0.25500000920E-02 0. -1.
        2   -1    0    0  501    0  0.00000000000E+00  0.00000000000E+00 -0.17509193400E+04  0.17509193400E+04  0.25500000920E-02 0.  1.
    10030    2    1    2    0    0  0.00000000000E+00  0.00000000000E+00 -0.15112524342E+04  0.19905862458E+04  0.12955885466E+04 0.  0.
        4    1    3    3  502    0  0.35663358710E+03 -0.47866244579E+03 -0.11422784712E+04  0.12888393892E+04  0.12699999809E+01 0.  1.
       -4    1    3    3    0  502 -0.35663358710E+03  0.47866244579E+03 -0.36897396294E+03  0.70174685656E+03  0.12699999809E+01 0. -1.
</event>
<event>
 5   0  0.5787604E-04  0.1301854E+04  0.7818609E-02  0.9028097E-01
        2   -1    0    0  501    0  0.00000000000E+00  0.00000000000E+00  0.35959627782E+03  0.35959627783E+03  0.25500000920E-02 0. -1.
       -2   -1    0    0    0  501  0.00000000000E+00  0.00000000000E+00 -0.11782816367E+04  0.11782816367E+04  0.25500000920E-02 0.  1.
    10030    2    1    2    0    0  0.00000000000E+00  0.00000000000E+00 -0.81868535892E+03  0.15378779146E+04  0.13018535875E+04 0.  0.
        4    1    3    3  502    0 -0.36751841859E+02 -0.12931402651E+03 -0.11617022079E+04  0.11694556203E+04  0.12699999809E+01 0.  1.
       -4    1    3    3    0  502  0.36751841859E+02  0.12931402651E+03  0.34301684893E+03  0.36842229423E+03  0.12699999809E+01 0. -1.
</event>
<event>
 5   0  0.3263679E-04  0.1300727E+04  0.7818609E-02  0.9028989E-01
        1   -1    0    0  501    0  0.00000000000E+00  0.00000000000E+00  0.64286136424E+03  0.64286136426E+03  0.50400001928E-02 0.  1.
       -1   -1    0    0    0  501  0.00000000000E+00  0.00000000000E+00 -0.65795283694E+03  0.65795283696E+03  0.50400001928E-02 0. -1.
    10030    2    1    2    0    0  0.00000000000E+00  0.00000000000E+00 -0.15091472698E+02  0.13008142012E+04  0.13007266560E+04 0.  0.
        2    1    3    3  502    0 -0.58026707309E+03  0.25759416484E+03 -0.14865033721E+03  0.65204413396E+03  0.25500000920E-02 0. -1.
       -2    1    3    3    0  502  0.58026707309E+03 -0.25759416484E+03  0.13355886451E+03  0.64877006725E+03  0.25500000920E-02 0.  1.
</event>
<event>
 5   0  0.3335747E-04  0.1300249E+04  0.7818609E-02  0.9029367E-01
       -1   -1    0    0    0  501  0.00000000000E+00  0.00000000000E+00  0.54753470929E+03  0.54753470931E+03  0.50400001928E-02 0.  1.
        1   -1    0    0  501    0  0.00000000000E+00  0.00000000000E+00 -0.77193665227E+03  0.77193665229E+03  0.50400001928E-02 0. -1.
    10030    2    1    2    0    0  0.00000000000E+00  0.00000000000E+00 -0.22440194299E+03  0.13194713616E+04  0.13002493769E+04 0.  0.
        3    1    3    3  502    0 -0.48884278836E+03 -0.43314747599E+02 -0.54490659762E+03  0.73332574578E+03  0.10100000352E+00 0. -1.
       -3    1    3    3    0  502  0.48884278836E+03  0.43314747599E+02  0.32050465464E+03  0.58614561581E+03  0.10100000352E+00 0.  1.
</event>
<event>
 5   0  0.3403833E-04  0.1294869E+04  0.7818609E-02  0.9033644E-01
       -1   -1    0    0    0  501  0.00000000000E+00  0.00000000000E+00  0.88839073084E+03  0.88839073086E+03  0.50400001928E-02 0.  1.
        1   -1    0    0  501    0  0.00000000000E+00  0.00000000000E+00 -0.47183216665E+03  0.47183216668E+03  0.50400001928E-02 0. -1.
    10030    2    1    2    0    0  0.00000000000E+00  0.00000000000E+00  0.41655856419E+03  0.13602228975E+04  0.12948688326E+04 0.  0.
        1    1    3    3  502    0  0.31910935618E+03  0.52796308746E+03  0.19063404817E+01  0.61691120681E+03  0.50400001928E-02 0. -1.
       -1    1    3    3    0  502 -0.31910935618E+03 -0.52796308746E+03  0.41465222371E+03  0.74331169073E+03  0.50400001928E-02 0.  1.
</event>
<event>
 5   0  0.3263679E-04  0.1306970E+04  0.7818609E-02  0.9024056E-01
       -1   -1    0    0    0  501  0.00000000000E+00  0.00000000000E+00  0.43012447058E+03  0.43012447061E+03  0.50400001928E-02 0. -1.
        1   -1    0    0  501    0  0.00000000000E+00  0.00000000000E+00 -0.99283537146E+03  0.99283537147E+03  0.50400001928E-02 0.  1.
    10030    2    1    2    0    0  0.00000000000E+00  0.00000000000E+00 -0.56271090088E+03  0.14229598421E+04  0.13069702193E+04 0.  0.
        2    1    3    3  502    0  0.23288565771E+03  0.96717998846E+02  0.37501783129E+03  0.45191644655E+03  0.25500000920E-02 0. -1.
       -2    1    3    3    0  502 -0.23288565771E+03 -0.96717998846E+02 -0.93772873217E+03  0.97104339553E+03  0.25500000920E-02 0.  1.
</event>
<event>
 5   0  0.3403833E-04  0.1307017E+04  0.7818609E-02  0.9024019E-01
        1   -1    0    0  501    0  0.00000000000E+00  0.00000000000E+00  0.86378101976E+03  0.86378101977E+03  0.50400001928E-02 0. -1.
       -1   -1    0    0    0  501  0.00000000000E+00  0.00000000000E+00 -0.49442302091E+03  0.49442302094E+03  0.50400001928E-02 0.  1.
    10030    2    1    2    0    0  0.00000000000E+00  0.00000000000E+00  0.36935799885E+03  0.13582040407E+04  0.13070167883E+04 0.  0.
        1    1    3    3  502    0 -0.22970639828E+03  0.25493014679E+03 -0.39326667673E+03  0.52193207241E+03  0.50400001928E-02 0.  1.
       -1    1    3    3    0  502  0.22970639828E+03 -0.25493014679E+03  0.76262467558E+03  0.83627196831E+03  0.50400001928E-02 0. -1.
</event>
<event>
 5   0  0.6052864E-04  0.1278519E+04  0.7818609E-02  0.9046776E-01
        2   -1    0    0  501    0  0.00000000000E+00  0.00000000000E+00  0.21696222908E+04  0.21696222908E+04  0.25500000920E-02 0. -1.
       -2   -1    0    0    0  501  0.00000000000E+00  0.00000000000E+00 -0.18835186012E+03  0.18835186014E+03  0.25500000920E-02 0.  1.
    10030    2    1    2    0    0  0.00000000000E+00  0.00000000000E+00  0.19812704306E+04  0.23579741509E+04  0.12785185087E+04 0.  0.
        2    1    3    3  502    0 -0.31403670764E+03  0.26047699667E+03  0.83011765792E+02  0.41636315016E+03  0.25500000920E-02 0.  1.
       -2    1    3    3    0  502  0.31403670764E+03 -0.26047699667E+03  0.18982586648E+04  0.19416110007E+04  0.25500000920E-02 0. -1.
</event>
<event>
 5   0  0.3274879E-04  0.1300690E+04  0.7818609E-02  0.9029018E-01
       -1   -1    0    0    0  501  0.00000000000E+00  0.00000000000E+00  0.27240348462E+03  0.27240348467E+03  0.50400001928E-02 0.  1.
        1   -1    0    0  501    0  0.00000000000E+00  0.00000000000E+00 -0.15526560490E+04  0.15526560490E+04  0.50400001928E-02 0. -1.
    10030    2    1    2    0    0  0.00000000000E+00  0.00000000000E+00 -0.12802525644E+04  0.18250595337E+04  0.13006904601E+04 0.  0.
        4    1    3    3  502    0  0.11694009931E+03 -0.32799659093E+03  0.13057119563E+03  0.37189676056E+03  0.12699999809E+01 0.  1.
       -4    1    3    3    0  502 -0.11694009931E+03  0.32799659093E+03 -0.14108237600E+04  0.14531627731E+04  0.12699999809E+01 0. -1.
</event>
<event>
 5   0  0.5787604E-04  0.1295385E+04  0.7818609E-02  0.9033233E-01
        2   -1    0    0  501    0  0.00000000000E+00  0.00000000000E+00  0.29427740904E+04  0.29427740904E+04  0.25500000920E-02 0.  1.
       -2   -1    0    0    0  501  0.00000000000E+00  0.00000000000E+00 -0.14255453260E+03  0.14255453262E+03  0.25500000920E-02 0. -1.
    10030    2    1    2    0    0  0.00000000000E+00  0.00000000000E+00  0.28002195578E+04  0.30853286230E+04  0.12953853250E+04 0.  0.
        4    1    3    3  502    0 -0.46802164831E+03  0.56304654575E+02  0.34218532528E+03  0.58250054691E+03  0.12699999809E+01 0. -1.
       -4    1    3    3    0  502  0.46802164831E+03 -0.56304654575E+02  0.24580342325E+04  0.25028280761E+04  0.12699999809E+01 0.  1.
</event>
<event>
 5   0  0.3274879E-04  0.1297698E+04  0.7818609E-02  0.9031392E-01
       -1   -1    0    0    0  501  0.00000000000E+00  0.00000000000E+00  0.15173076170E+03  0.15173076178E+03  0.50400001928E-02 0. -1.
        1   -1    0    0  501    0  0.00000000000E+00  0.00000000000E+00 -0.27746861514E+04  0.27746861514E+04  0.50400001928E-02 0.  1.
    10030    2    1    2    0    0  0.00000000000E+00  0.00000000000E+00 -0.26229553897E+04  0.29264169132E+04  0.12976983368E+04 0.  0.
        4    1    3    3  502    0  0.50938725864E+03  0.35411881927E+03 -0.88284520244E+03  0.10790239950E+04  0.12699999809E+01 0.  1.
       -4    1    3    3    0  502 -0.50938725864E+03 -0.35411881927E+03 -0.17401101873E+04  0.18473929182E+04  0.12699999809E+01 0. -1.
</event>
<event>
 5   0  0.3335747E-04  0.1299903E+04  0.7818609E-02  0.9029642E-01
        1   -1    0    0  501    0  0.00000000000E+00  0.00000000000E+00  0.55197963269E+03  0.55197963271E+03  0.50400001928E-02 0.  1.
       -1   -1    0    0    0  501  0.00000000000E+00  0.00000000000E+00 -0.76531300561E+03  0.76531300562E+03  0.50400001928E-02 0. -1.
    10030    2    1    2    0    0  0.00000000000E+00  0.00000000000E+00 -0.21333337292E+03  0.13172926383E+04  0.12999033683E+04 0.  0.
        3    1    3    3  502    0  0.10586468060E+03  0.30483921560E+03  0.46506399096E+03  0.56605547772E+03  0.10100000352E+00 0.  1.
       -3    1    3    3    0  502 -0.10586468060E+03 -0.30483921560E+03 -0.67839736388E+03  0.75123716061E+03  0.10100000352E+00 0. -1.
</event>
<event>
 5   0  0.6052864E-04  0.1300923E+04  0.7818609E-02  0.9028833E-01
       -2   -1    0    0    0  501  0.00000000000E+00  0.00000000000E+00  0.52668239604E+03  0.52668239605E+03  0.25500000920E-02 0.  1.
        2   -1    0    0  501    0  0.00000000000E+00  0.00000000000E+00 -0.80333132600E+03  0.80333132600E+03  0.25500000920E-02 0. -1.
    10030    2    1    2    0    0  0.00000000000E+00  0.00000000000E+00 -0.27664892996E+03  0.13300137220E+04  0.13009234683E+04 0.  0.
        2    1    3    3  502    0 -0.17796334536E+03  0.60457577552E+03 -0.30291397720E+03  0.69924223144E+03  0.25500000920E-02 0. -1.
       -2    1    3    3    0  502  0.17796334536E+03 -0.60457577552E+03  0.26265047245E+02  0.63077149060E+03  0.25500000920E-02 0.  1.
</event>
<event>
 5   0  0.5957913E-04  0.1292556E+04  0.7818609E-02  0.9035489E-01
        2   -1    0    0  501    0  0.00000000000E+00  0.00000000000E+00  0.12901630298E+04  0.12901630298E+04  0.25500000920E-02 0.  1.
       -2   -1    0    0    0  501  0.00000000000E+00  0.00000000000E+00 -0.32373824413E+03  0.32373824414E+03  0.25500000920E-02 0. -1.
    10030    2    1    2    0    0  0.00000000000E+00  0.00000000000E+00  0.96642478568E+03  0.16139012739E+04  0.12925557844E+04 0.  0.
        1    1    3    3  502    0  0.62788176177E+02  0.13000689327E+03 -0.30334505239E+03  0.33594994895E+03  0.50400001928E-02 0. -1.
       -1    1    3    3    0  502 -0.62788176177E+02 -0.13000689327E+03  0.12697698381E+04  0.12779513250E+04  0.50400001928E-02 0.  1.
</event>
<event>
 5   0  0.6007125E-04  0.1296890E+04  0.7818609E-02  0.9032035E-01
       -2   -1    0    0    0  501  0.00000000000E+00  0.00000000000E+00  0.64660576557E+03  0.64660576558E+03  0.25500000920E-02 0. -1.
        2   -1    0    0  501    0  0.00000000000E+00  0.00000000000E+00 -0.65028944248E+03  0.65028944249E+03  0.25500000920E-02 0.  1.
    10030    2    1    2    0    0  0.00000000000E+00  0.00000000000E+00 -0.36836769110E+01  0.12968952081E+04  0.12968899765E+04 0.  0.
        5    1    3    3  502    0  0.28328495508E+03  0.34001831992E+03  0.47207566613E+03  0.64710149761E+03  0.46999998093E+01 0. -1.
       -5    1    3    3    0  502 -0.28328495508E+03 -0.34001831992E+03 -0.47575934304E+03  0.64979371046E+03  0.46999998093E+01 0.  1.
</event>
<event>
 5   0  0.3274879E-04  0.1298805E+04  0.7818609E-02  0.9030513E-01
       -1   -1    0    0    0  501  0.00000000000E+00  0.00000000000E+00  0.73049210188E+03  0.73049210190E+03  0.50400001928E-02 0. -1.
        1   -1    0    0  501    0  0.00000000000E+00  0.00000000000E+00 -0.57731457622E+03  0.57731457624E+03  0.50400001928E-02 0.  1.
    10030    2    1    2    0    0  0.00000000000E+00  0.00000000000E+00  0.15317752566E+03  0.13078066781E+04  0.12988052021E+04 0.  0.
        4    1    3    3  502    0 -0.48534596040E+03  0.40858623075E+03 -0.63003618881E+02  0.63755351001E+03  0.12699999809E+01 0.  1.
       -4    1    3    3    0  502  0.48534596040E+03 -0.40858623075E+03  0.21618114454E+03  0.67025316813E+03  0.12699999809E+01 0. -1.
</event>
<event>
 5   0  0.3403833E-04  0.1299301E+04  0.7818609E-02  0.9030120E-01
       -1   -1    0    0    0  501  0.00000000000E+00  0.00000000000E+00  0.27944289670E+03  0.27944289675E+03  0.50400001928E-02 0. -1.
        1   -1    0    0  501    0  0.00000000000E+00  0.00000000000E+00 -0.15103103417E+04  0.15103103417E+04  0.50400001928E-02 0.  1.
    10030    2    1    2    0    0  0.00000000000E+00  0.00000000000E+00 -0.12308674450E+04  0.17897532384E+04  0.12993005762E+04 0.  0.
        1    1    3    3  502    0  0.34322616024E+03 -0.31601642311E+03 -0.12381601917E+04  0.13231444505E+04  0.50400001928E-02 0.  1.
       -1    1    3    3    0  502 -0.34322616024E+03  0.31601642311E+03  0.72927467029E+01  0.46660878788E+03  0.50400001928E-02 0. -1.
</event>
<event>
 5   0  0.3335747E-04  0.1353720E+04  0.7818609E-02  0.8988017E-01
        1   -1    0    0  501    0  0.00000000000E+00  0.00000000000E+00  0.78397680410E+03  0.78397680412E+03  0.50400001928E-02 0. -1.
       -1   -1    0    0    0  501  0.00000000000E+00  0.00000000000E+00 -0.58437872336E+03  0.58437872338E+03  0.50400001928E-02 0.  1.
    10030    2    1    2    0    0  0.00000000000E+00  0.00000000000E+00  0.19959808074E+03  0.13683555275E+04  0.13537198587E+04 0.  0.
        3    1    3    3  502    0 -0.16121864957E+03  0.39860709755E+03  0.62819368519E+03  0.76125316912E+03  0.10100000352E+00 0. -1.
       -3    1    3    3    0  502  0.16121864957E+03 -0.39860709755E+03 -0.42859560445E+03  0.60710235837E+03  0.10100000352E+00 0.  1.
</event>
<event>
 5   0  0.5384960E-04  0.1301817E+04  0.7818609E-02  0.9028125E-01
        2   -1    0    0  501    0  0.00000000000E+00  0.00000000000E+00  0.10858190885E+04  0.10858190885E+04  0.25500000920E-02 0. -1.
       -2   -1    0    0    0  501  0.00000000000E+00  0.00000000000E+00 -0.39019577452E+03  0.39019577452E+03  0.25500000920E-02 0.  1.
    10030    2    1    2    0    0  0.00000000000E+00  0.00000000000E+00  0.69562331398E+03  0.14760148630E+04  0.13018172225E+04 0.  0.
        3    1    3    3  502    0 -0.24067773343E+03  0.35381689845E+02 -0.33671771927E+03  0.41539916708E+03  0.10100000352E+00 0.  1.
       -3    1    3    3    0  502  0.24067773343E+03 -0.35381689845E+02  0.10323410332E+04  0.10606156959E+04  0.10100000352E+00 0. -1.
</event>
<event>
 5   0  0.6052864E-04  0.1299420E+04  0.7818609E-02  0.9030025E-01
       -2   -1    0    0    0  501  0.00000000000E+00  0.00000000000E+00  0.68864603702E+03  0.68864603702E+03  0.25500000920E-02 0. -1.
        2   -1    0    0  501    0  0.00000000000E+00  0.00000000000E+00 -0.61297534530E+03  0.61297534531E+03  0.25500000920E-02 0.  1.
    10030    2    1    2    0    0  0.00000000000E+00  0.00000000000E+00  0.75670691715E+02  0.13016213823E+04  0.12994199357E+04 0.  0.
        2    1    3    3  502    0  0.58873704724E+03 -0.19369319874E+03  0.23308780993E+03  0.66216183307E+03  0.25500000920E-02 0. -1.
       -2    1    3    3    0  502 -0.58873704724E+03  0.19369319874E+03 -0.15741711821E+03  0.63945954926E+03  0.25500000920E-02 0.  1.
</event>
<event>
 5   0  0.2255875E-04  0.1292607E+04  0.7818609E-02  0.9035449E-01
       -4   -1    0    0    0  501  0.00000000000E+00  0.00000000000E+00  0.39752273790E+03  0.39752476659E+03  0.12699999809E+01 0.  1.
        4   -1    0    0  501    0  0.00000000000E+00  0.00000000000E+00 -0.10507726228E+04  0.10507733903E+04  0.12699999809E+01 0. -1.
    10030    2    1    2    0    0  0.00000000000E+00  0.00000000000E+00 -0.65324988490E+03  0.14482981569E+04  0.12926067225E+04 0.  0.
        4    1    3    3  502    0  0.36373967584E+03 -0.42651717111E+03  0.33809277033E+02  0.56157646777E+03  0.12699999809E+01 0.  1.
       -4    1    3    3    0  502 -0.36373967584E+03  0.42651717111E+03 -0.68705916193E+03  0.88672168910E+03  0.12699999809E+01 0. -1.
</event>
<event>
 5   0  0.3263679E-04  0.1300635E+04  0.7818609E-02  0.9029062E-01
        1   -1    0    0  501    0  0.00000000000E+00  0.00000000000E+00  0.29083374535E+03  0.29083374539E+03  0.50400001928E-02 0.  1.
       -1   -1    0    0    0  501  0.00000000000E+00  0.00000000000E+00 -0.14541385298E+04  0.14541385298E+04  0.50400001928E-02 0. -1.
    10030    2    1    2    0    0  0.00000000000E+00  0.00000000000E+00 -0.11633047845E+04  0.17449722752E+04  0.13006345450E+04 0.  0.
        2    1    3    3  502    0 -0.46649751948E+03  0.44121897906E+03 -0.71990184997E+03  0.96465164529E+03  0.25500000920E-02 0.  1.
       -2    1    3    3    0  502  0.46649751948E+03 -0.44121897906E+03 -0.44340293451E+03  0.78032062994E+03  0.25500000920E-02 0. -1.
</event>
<event>
 5   0  0.5787604E-04  0.1298641E+04  0.7818609E-02  0.9030644E-01
        2   -1    0    0  501    0  0.00000000000E+00  0.00000000000E+00  0.46506196583E+03  0.46506196584E+03  0.25500000920E-02 0.  1.
       -2   -1    0    0    0  501  0.00000000000E+00  0.00000000000E+00 -0.90658238003E+03  0.90658238004E+03  0.25500000920E-02 0. -1.
    10030    2    1    2    0    0  0.00000000000E+00  0.00000000000E+00 -0.44152041421E+03  0.13716443459E+04  0.12986408031E+04 0.  0.
        4    1    3    3  502    0  0.29368202109E+03  0.11354392153E+03  0.37903064644E+03  0.49275470112E+03  0.12699999809E+01 0.  1.
       -4    1    3    3    0  502 -0.29368202109E+03 -0.11354392153E+03 -0.82055106065E+03  0.87888964476E+03  0.12699999809E+01 0. -1.
</event>
<event>
 5   0  0.3335747E-04  0.1299614E+04  0.7818609E-02  0.9029871E-01
        1   -1    0    0  501    0  0.00000000000E+00  0.00000000000E+00  0.20560846251E+04  0.20560846251E+04  0.50400001928E-02 0. -1.
       -1   -1    0    0    0  501  0.00000000000E+00  0.00000000000E+00 -0.20536565345E+03  0.20536565351E+03  0.50400001928E-02 0.  1.
    10030    2    1    2    0    0  0.00000000000E+00  0.00000000000E+00  0.18507189717E+04  0.22614502787E+04  0.12996140391E+04 0.  0.
        3    1    3    3  502    0 -0.31835835284E+03 -0.39111764787E+03  0.21229441968E+03  0.54716906540E+03  0.10100000352E+00 0.  1.
       -3    1    3    3    0  502  0.31835835284E+03  0.39111764787E+03  0.16384245520E+04  0.17142812133E+04  0.10100000352E+00 0. -1.
</event>
<event>
 5   0  0.5957913E-04  0.1300255E+04  0.7818609E-02  0.9029363E-01
        2   -1    0    0  501    0  0.00000000000E+00  0.00000000000E+00  0.12280972760E+04  0.12280972760E+04  0.25500000920E-02 0. -1.
       -2   -1    0    0    0  501  0.00000000000E+00  0.00000000000E+00 -0.34416311797E+03  0.34416311797E+03  0.25500000920E-02 0.  1.
    10030    2    1    2    0    0  0.00000000000E+00  0.00000000000E+00  0.88393415804E+03  0.15722603940E+04  0.13002550330E+04 0.  0.
        1    1    3    3  502    0  0.59759626634E+03  0.24977761648E+03  0.37404059496E+03  0.74794152308E+03  0.50400001928E-02 0.  1.
       -1    1    3    3    0  502 -0.59759626634E+03 -0.24977761648E+03  0.50989356308E+03  0.82431887090E+03  0.50400001928E-02 0. -1.
</event>
<event>
 5   0  0.2255875E-04  0.1298959E+04  0.7818609E-02  0.9030391E-01
        4   -1    0    0  501    0  0.00000000000E+00  0.00000000000E+00  0.26074315722E+03  0.26074625009E+03  0.12699999809E+01 0.  1.
       -4   -1    0    0    0  501  0.00000000000E+00  0.00000000000E+00 -0.16177623148E+04  0.16177628133E+04  0.12699999809E+01 0. -1.
    10030    2    1    2    0    0  0.00000000000E+00  0.00000000000E+00 -0.13570191576E+04  0.18785090634E+04  0.12989593170E+04 0.  0.
        1    1    3    3  502    0  0.61151489724E+03  0.11452338095E+03 -0.94812429190E+03  0.11340219342E+04  0.50400001928E-02 0.  1.
       -1    1    3    3    0  502 -0.61151489724E+03 -0.11452338095E+03 -0.40889486570E+03  0.74448712920E+03  0.50400001928E-02 0. -1.
</event>
<event>
 5   0  0.3274879E-04  0.1301917E+04  0.7818609E-02  0.9028046E-01
       -1   -1    0    0    0  501  0.00000000000E+00  0.00000000000E+00  0.68666815864E+03  0.68666815865E+03  0.50400001928E-02 0. -1.
        1   -1    0    0  501    0  0.00000000000E+00  0.00000000000E+00 -0.61710631926E+03  0.61710631928E+03  0.50400001928E-02 0.  1.
    10030    2    1    2    0    0  0.00000000000E+00  0.00000000000E+00  0.69561839374E+02  0.13037744779E+04  0.13019174474E+04 0.  0.
        4    1    3    3  502    0  0.32160160800E+03  0.53782627747E+03 -0.14171163185E+03  0.64247062074E+03  0.12699999809E+01 0.  1.
       -4    1    3    3    0  502 -0.32160160800E+03 -0.53782627747E+03  0.21127347122E+03  0.66130385720E+03  0.12699999809E+01 0. -1.
</event>
<event>
 5   0  0.5787604E-04  0.1297091E+04  0.7818609E-02  0.9031875E-01
        2   -1    0    0  501    0  0.00000000000E+00  0.00000000000E+00  0.18291158517E+04  0.18291158517E+04  0.25500000920E-02 0.  1.
       -2   -1    0    0    0  501  0.00000000000E+00  0.00000000000E+00 -0.22995336504E+03  0.22995336506E+03  0.25500000920E-02 0. -1.
    10030    2    1    2    0    0  0.00000000000E+00  0.00000000000E+00  0.15991624867E+04  0.20590692168E+04  0.12970911227E+04 0.  0.
        4    1    3    3  502    0  0.21290116433E+03  0.22971100349E+03  0.17011023039E+04  0.17296949766E+04  0.12699999809E+01 0.  1.
       -4    1    3    3    0  502 -0.21290116433E+03 -0.22971100349E+03 -0.10193981717E+03  0.32937424022E+03  0.12699999809E+01 0. -1.
</event>
<event>
 5   0  0.6052864E-04  0.1300191E+04  0.7818609E-02  0.9029414E-01
        2   -1    0    0  501    0  0.00000000000E+00  0.00000000000E+00  0.85636086802E+03  0.85636086803E+03  0.25500000920E-02 0.  1.
       -2   -1    0    0    0  501  0.00000000000E+00  0.00000000000E+00 -0.49351162864E+03  0.49351162864E+03  0.25500000920E-02 0. -1.
    10030    2    1    2    0    0  0.00000000000E+00  0.00000000000E+00  0.36284923939E+03  0.13498724967E+04  0.13001908270E+04 0.  0.
        2    1    3    3  502    0  0.42200181069E+03 -0.37065158748E+03 -0.15843043532E+03  0.58358232527E+03  0.25500000920E-02 0. -1.
       -2    1    3    3    0  502 -0.42200181069E+03  0.37065158748E+03  0.52127967470E+03  0.76629017140E+03  0.25500000920E-02 0.  1.
</event>
<event>
 5   0  0.3337520E-04  0.1300590E+04  0.7818609E-02  0.9029098E-01
       -1   -1    0    0    0  501  0.00000000000E+00  0.00000000000E+00  0.29053141752E+03  0.29053141756E+03  0.50400001928E-02 0.  1.
        1   -1    0    0  501    0  0.00000000000E+00  0.00000000000E+00 -0.14555509363E+04  0.14555509363E+04  0.50400001928E-02 0. -1.
    10030    2    1    2    0    0  0.00000000000E+00  0.00000000000E+00 -0.11650195188E+04  0.17460823539E+04  0.13005895230E+04 0.  0.
        5    1    3    3  502    0  0.53754911850E+03  0.32392019938E+03 -0.81104724809E+03  0.10255257574E+04  0.46999998093E+01 0. -1.
       -5    1    3    3    0  502 -0.53754911850E+03 -0.32392019938E+03 -0.35397227071E+03  0.72055659653E+03  0.46999998093E+01 0.  1.
</event>
<event>
 5   0  0.6007125E-04  0.1299651E+04  0.7818609E-02  0.9029842E-01
        2   -1    0    0  501    0  0.00000000000E+00  0.00000000000E+00  0.10878680770E+04  0.10878680770E+04  0.25500000920E-02 0. -1.
       -2   -1    0    0    0  501  0.00000000000E+00  0.00000000000E+00 -0.38816608582E+03  0.38816608583E+03  0.25500000920E-02 0.  1.
    10030    2    1    2    0    0  0.00000000000E+00  0.00000000000E+00  0.69970199115E+03  0.14760341628E+04  0.12996514815E+04 0.  0.
        5    1    3    3  502    0  0.47654585232E+03 -0.41586634180E+03  0.18059267124E+03  0.65778154923E+03  0.46999998093E+01 0.  1.
       -5    1    3    3    0  502 -0.47654585232E+03  0.41586634180E+03  0.51910931990E+03  0.81825261357E+03  0.46999998093E+01 0. -1.
</event>
<event>
 5   0  0.6052864E-04  0.1303033E+04  0.7818609E-02  0.9027164E-01
        2   -1    0    0  501    0  0.00000000000E+00  0.00000000000E+00  0.29492695839E+03  0.29492695840E+03  0.25500000920E-02 0.  1.
       -2   -1    0    0    0  501  0.00000000000E+00  0.00000000000E+00 -0.14392493589E+04  0.14392493589E+04  0.25500000920E-02 0. -1.
    10030    2    1    2    0    0  0.00000000000E+00  0.00000000000E+00 -0.11443224005E+04  0.17341763173E+04  0.13030325181E+04 0.  0.
        2    1    3    3  502    0 -0.50614326452E+03 -0.40358344117E+03 -0.67007648601E+03  0.93169903688E+03  0.25500000920E-02 0. -1.
       -2    1    3    3    0  502  0.50614326452E+03  0.40358344117E+03 -0.47424591452E+03  0.80247728046E+03  0.25500000920E-02 0.  1.
</event>
<event>
 5   0  0.6007125E-04  0.1297890E+04  0.7818609E-02  0.9031240E-01
       -2   -1    0    0    0  501  0.00000000000E+00  0.00000000000E+00  0.37888034345E+03  0.37888034346E+03  0.25500000920E-02 0. -1.
        2   -1    0    0  501    0  0.00000000000E+00  0.00000000000E+00 -0.11115105434E+04  0.11115105434E+04  0.25500000920E-02 0.  1.
    10030    2    1    2    0    0  0.00000000000E+00  0.00000000000E+00 -0.73263019996E+03  0.14903908869E+04  0.12978898204E+04 0.  0.
        5    1    3    3  502    0 -0.34290430236E+03  0.54613496145E+03 -0.44960302725E+03  0.78613722008E+03  0.46999998093E+01 0.  1.
       -5    1    3    3    0  502  0.34290430236E+03 -0.54613496145E+03 -0.28302717271E+03  0.70425366679E+03  0.46999998093E+01 0. -1.
</event>
<event>
 5   0  0.3335747E-04  0.1297223E+04  0.7818609E-02  0.9031770E-01
        1   -1    0    0  501    0  0.00000000000E+00  0.00000000000E+00  0.94783190156E+03  0.94783190157E+03  0.50400001928E-02 0. -1.
       -1   -1    0    0    0  501  0.00000000000E+00  0.00000000000E+00 -0.44385192470E+03  0.44385192473E+03  0.50400001928E-02 0.  1.
    10030    2    1    2    0    0  0.00000000000E+00  0.00000000000E+00  0.50397997686E+03  0.13916838263E+04  0.12972232095E+04 0.  0.
        3    1    3    3  502    0 -0.12051180554E+03  0.43800124088E+03 -0.24467798635E+03  0.51598014447E+03  0.10100000352E+00 0.  1.
       -3    1    3    3    0  502  0.12051180554E+03 -0.43800124088E+03  0.74865796321E+03  0.87570368182E+03  0.10100000352E+00 0. -1.
</event>
<event>
 5   0  0.5957913E-04  0.1302737E+04  0.7818609E-02  0.9027397E-01
       -2   -1    0    0    0  501  0.00000000000E+00  0.00000000000E+00  0.29750830635E+03  0.29750830636E+03  0.25500000920E-02 0. -1.
        2   -1    0    0  501    0  0.00000000000E+00  0.00000000000E+00 -0.14261149122E+04  0.14261149122E+04  0.25500000920E-02 0.  1.
    10030    2    1    2    0    0  0.00000000000E+00  0.00000000000E+00 -0.11286066058E+04  0.17236232186E+04  0.13027371680E+04 0.  0.
        1    1    3    3  502    0 -0.41438729104E+03 -0.38972540606E+03 -0.14449260948E+03  0.58692489581E+03  0.50400001928E-02 0. -1.
       -1    1    3    3    0  502  0.41438729104E+03  0.38972540606E+03 -0.98411399636E+03  0.11366983228E+04  0.50400001928E-02 0.  1.
</event>
<event>
 5   0  0.3335747E-04  0.1298800E+04  0.7818609E-02  0.9030517E-01
        1   -1    0    0  501    0  0.00000000000E+00  0.00000000000E+00  0.62818428646E+03  0.62818428648E+03  0.50400001928E-02 0.  1.
       -1   -1    0    0    0  501  0.00000000000E+00  0.00000000000E+00 -0.67133238435E+03  0.67133238437E+03  0.50400001928E-02 0. -1.
    10030    2    1    2    0    0  0.00000000000E+00  0.00000000000E+00 -0.43148097890E+02  0.12995166709E+04  0.12988001461E+04 0.  0.
        3    1    3    3  502    0  0.19718139044E+02  0.24940862354E+03 -0.62117669679E+03  0.66966705559E+03  0.10100000352E+00 0. -1.
       -3    1    3    3    0  502 -0.19718139044E+02 -0.24940862354E+03  0.57802859890E+03  0.62984961527E+03  0.10100000352E+00 0.  1.
</event>
<event>
 5   0  0.6052864E-04  0.1297531E+04  0.7818609E-02  0.9031525E-01
       -2   -1    0    0    0  501  0.00000000000E+00  0.00000000000E+00  0.31941040592E+03  0.31941040593E+03  0.25500000920E-02 0. -1.
        2   -1    0    0  501    0  0.00000000000E+00  0.00000000000E+00 -0.13177305732E+04  0.13177305732E+04  0.25500000920E-02 0.  1.
    10030    2    1    2    0    0  0.00000000000E+00  0.00000000000E+00 -0.99832016727E+03  0.16371409791E+04  0.12975312825E+04 0.  0.
        2    1    3    3  502    0  0.62297173051E+03  0.12410793311E+02 -0.27117652243E+03  0.67954728395E+03  0.25500000920E-02 0.  1.
       -2    1    3    3    0  502 -0.62297173051E+03 -0.12410793311E+02 -0.72714364484E+03  0.95759369517E+03  0.25500000920E-02 0. -1.
</event>
<event>
 5   0  0.5384960E-04  0.1300620E+04  0.7818609E-02  0.9029073E-01
       -2   -1    0    0    0  501  0.00000000000E+00  0.00000000000E+00  0.50682198788E+03  0.50682198789E+03  0.25500000920E-02 0.  1.
        2   -1    0    0  501    0  0.00000000000E+00  0.00000000000E+00 -0.83442171803E+03  0.83442171803E+03  0.25500000920E-02 0. -1.
    10030    2    1    2    0    0  0.00000000000E+00  0.00000000000E+00 -0.32759973014E+03  0.13412437059E+04  0.13006202734E+04 0.  0.
        3    1    3    3  502    0  0.57898557771E+03  0.13535062335E+03  0.10778723104E+03  0.60428651136E+03  0.10100000352E+00 0.  1.
       -3    1    3    3    0  502 -0.57898557771E+03 -0.13535062335E+03 -0.43538696118E+03  0.73695719456E+03  0.10100000352E+00 0. -1.
</event>
<event>
 5   0  0.5957913E-04  0.1300811E+04  0.7818609E-02  0.9028922E-01
       -2   -1    0    0    0  501  0.00000000000E+00  0.00000000000E+00  0.56476697122E+03  0.56476697122E+03  0.25500000920E-02 0.  1.
        2   -1    0    0  501    0  0.00000000000E+00  0.00000000000E+00 -0.74903000511E+03  0.74903000511E+03  0.25500000920E-02 0. -1.
    10030    2    1    2    0    0  0.00000000000E+00  0.00000000000E+00 -0.18426303389E+03  0.13137969763E+04  0.13008111429E+04 0.  0.
        1    1    3    3  502    0 -0.52194082140E+03  0.65928739166E+02  0.29412400144E+03  0.60272526738E+03  0.50400001928E-02 0.  1.
       -1    1    3    3    0  502  0.52194082140E+03 -0.65928739166E+02 -0.47838703533E+03  0.71107170896E+03  0.50400001928E-02 0. -1.
</event>
<event>
 5   0  0.6007125E-04  0.1300957E+04  0.7818609E-02  0.9028806E-01
        2   -1    0    0  501    0  0.00000000000E+00  0.00000000000E+00  0.12033455866E+04  0.12033455866E+04  0.25500000920E-02 0. -1.
       -2   -1    0    0    0  501  0.00000000000E+00  0.00000000000E+00 -0.35162182209E+03  0.35162182210E+03  0.25500000920E-02 0.  1.
    10030    2    1    2    0    0  0.00000000000E+00  0.00000000000E+00  0.85172376447E+03  0.15549674087E+04  0.13009574440E+04 0.  0.
        5    1    3    3  502    0 -0.41559408337E+03 -0.43699275279E+03  0.71721671116E+03  0.93707150682E+03  0.46999998093E+01 0. -1.
       -5    1    3    3    0  502  0.41559408337E+03  0.43699275279E+03  0.13450705331E+03  0.61789590184E+03  0.46999998093E+01 0.  1.
</event>
<event>
 5   0  0.3274879E-04  0.1295126E+04  0.7818609E-02  0.9033439E-01
       -1   -1    0    0    0  501  0.00000000000E+00  0.00000000000E+00  0.60659206253E+03  0.60659206255E+03  0.50400001928E-02 0.  1.
        1   -1    0    0  501    0  0.00000000000E+00  0.00000000000E+00 -0.69130147507E+03  0.69130147509E+03  0.50400001928E-02 0. -1.
    10030    2    1    2    0    0  0.00000000000E+00  0.00000000000E+00 -0.84709412541E+02  0.12978935376E+04  0.12951262295E+04 0.  0.
        4    1    3    3  502    0 -0.36957994839E+03 -0.53062494723E+03 -0.76840469059E+02  0.65119754565E+03  0.12699999809E+01 0.  1.
       -4    1    3    3    0  502  0.36957994839E+03  0.53062494723E+03 -0.78689434820E+01  0.64669599198E+03  0.12699999809E+01 0. -1.
</event>
<event>
 5   0  0.3337520E-04  0.1305947E+04  0.7818609E-02  0.9024863E-01
        1   -1    0    0  501    0  0.00000000000E+00  0.00000000000E+00  0.22271084158E+04  0.22271084158E+04  0.50400001928E-02 0. -1.
       -1   -1    0    0    0  501  0.00000000000E+00  0.00000000000E+00 -0.19144742495E+03  0.19144742501E+03  0.50400001928E-02 0.  1.
    10030    2    1    2    0    0  0.00000000000E+00  0.00000000000E+00  0.20356609908E+04  0.24185558408E+04  0.13059466626E+04 0.  0.
        5    1    3    3  502    0 -0.28919934282E+03 -0.14270511365E+03 -0.33635515776E+02  0.32427526466E+03  0.46999998093E+01 0.  1.
       -5    1    3    3    0  502  0.28919934282E+03  0.14270511365E+03  0.20692965066E+04  0.20942805761E+04  0.46999998093E+01 0. -1.
</event>
<event>
 5   0  0.2255875E-04  0.1296191E+04  0.7818609E-02  0.9032591E-01
        3   -1    0    0  501    0  0.00000000000E+00  0.00000000000E+00  0.14318289819E+04  0.14318289855E+04  0.10100000352E+00 0.  1.
       -3   -1    0    0    0  501  0.00000000000E+00  0.00000000000E+00 -0.29335068526E+03  0.29335070264E+03  0.10100000352E+00 0. -1.
    10030    2    1    2    0    0  0.00000000000E+00  0.00000000000E+00  0.11384782967E+04  0.17251796881E+04  0.12961913919E+04 0.  0.
        3    1    3    3  502    0  0.32149534332E+03 -0.21894714234E+03 -0.12072101747E+03  0.40727224455E+03  0.10100000352E+00 0. -1.
       -3    1    3    3    0  502 -0.32149534332E+03  0.21894714234E+03  0.12591993142E+04  0.13179074436E+04  0.10100000352E+00 0.  1.
</event>
<event>
 5   0  0.5787604E-04  0.1302092E+04  0.7818609E-02  0.9027908E-01
        2   -1    0    0  501    0  0.00000000000E+00  0.00000000000E+00  0.10614489782E+04  0.10614489782E+04  0.25500000920E-02 0. -1.
       -2   -1    0    0    0  501  0.00000000000E+00  0.00000000000E+00 -0.39932261588E+03  0.39932261589E+03  0.25500000920E-02 0.  1.
    10030    2    1    2    0    0  0.00000000000E+00  0.00000000000E+00  0.66212636235E+03  0.14607715941E+04  0.13020915215E+04 0.  0.
        4    1    3    3  502    0 -0.12155035072E+03 -0.16363091909E+03  0.10247258055E+04  0.10448034048E+04  0.12699999809E+01 0. -1.
       -4    1    3    3    0  502  0.12155035072E+03  0.16363091909E+03 -0.36259944313E+03  0.41596818928E+03  0.12699999809E+01 0.  1.
</event>
<event>
 5   0  0.3274879E-04  0.1300021E+04  0.7818609E-02  0.9029549E-01
       -1   -1    0    0    0  501  0.00000000000E+00  0.00000000000E+00  0.84034708558E+03  0.84034708560E+03  0.50400001928E-02 0.  1.
        1   -1    0    0  501    0  0.00000000000E+00  0.00000000000E+00 -0.50278439763E+03  0.50278439765E+03  0.50400001928E-02 0. -1.
    10030    2    1    2    0    0  0.00000000000E+00  0.00000000000E+00  0.33756268796E+03  0.13431314832E+04  0.13000206202E+04 0.  0.
        4    1    3    3  502    0  0.62236886631E+03 -0.10999640871E+02 -0.24637428495E+02  0.62295474445E+03  0.12699999809E+01 0.  1.
       -4    1    3    3    0  502 -0.62236886631E+03  0.10999640871E+02  0.36220011645E+03  0.72017673880E+03  0.12699999809E+01 0. -1.
</event>
<event>
 5   0  0.2255875E-04  0.1236650E+04  0.7818609E-02  0.9081369E-01
        3   -1    0    0  501    0  0.00000000000E+00  0.00000000000E+00  0.16026980594E+04  0.16026980626E+04  0.10100000352E+00 0. -1.
       -3   -1    0    0    0  501  0.00000000000E+00  0.00000000000E+00 -0.23855118381E+03  0.23855120519E+03  0.10100000352E+00 0.  1.
    10030    2    1    2    0    0  0.00000000000E+00  0.00000000000E+00  0.13641468756E+04  0.18412492678E+04  0.12366495736E+04 0.  0.
        3    1    3    3  502    0  0.11428138779E+03  0.38203096459E+02  0.15850474125E+04  0.15896210310E+04  0.10100000352E+00 0. -1.
       -3    1    3    3    0  502 -0.11428138779E+03 -0.38203096459E+02 -0.22090053686E+03  0.25162823681E+03  0.10100000352E+00 0.  1.
</event>
<event>
 5   0  0.3403833E-04  0.1300646E+04  0.7818609E-02  0.9029053E-01
       -1   -1    0    0    0  501  0.00000000000E+00  0.00000000000E+00  0.28525111182E+03  0.28525111187E+03  0.50400001928E-02 0.  1.
        1   -1    0    0  501    0  0.00000000000E+00  0.00000000000E+00 -0.14826226111E+04  0.14826226111E+04  0.50400001928E-02 0. -1.
    10030    2    1    2    0    0  0.00000000000E+00  0.00000000000E+00 -0.11973714993E+04  0.17678737230E+04  0.13006456063E+04 0.  0.
        1    1    3    3  502    0  0.38870477899E+03 -0.52134759337E+03 -0.59188554452E+03  0.87933111861E+03  0.50400001928E-02 0.  1.
       -1    1    3    3    0  502 -0.38870477899E+03  0.52134759337E+03 -0.60548595474E+03  0.88854260435E+03  0.50400001928E-02 0. -1.
</event>
<event>
 5   0  0.5957913E-04  0.1299906E+04  0.7818609E-02  0.9029639E-01
       -2   -1    0    0    0  501  0.00000000000E+00  0.00000000000E+00  0.79862215407E+03  0.79862215408E+03  0.25500000920E-02 0.  1.
        2   -1    0    0  501    0  0.00000000000E+00  0.00000000000E+00 -0.52896002545E+03  0.52896002546E+03  0.25500000920E-02 0. -1.
    10030    2    1    2    0    0  0.00000000000E+00  0.00000000000E+00  0.26966212862E+03  0.13275821795E+04  0.12999064504E+04 0.  0.
        1    1    3    3  502    0 -0.35479297361E+03  0.40349507938E+03  0.50833988005E+03  0.73965922348E+03  0.50400001928E-02 0.  1.
       -1    1    3    3    0  502  0.35479297361E+03 -0.40349507938E+03 -0.23867775143E+03  0.58792295606E+03  0.50400001928E-02 0. -1.
</event>
<event>
 5   0  0.3337520E-04  0.1293597E+04  0.7818609E-02  0.9034659E-01
        1   -1    0    0  501    0  0.00000000000E+00  0.00000000000E+00  0.87891064284E+03  0.87891064286E+03  0.50400001928E-02 0. -1.
       -1   -1    0    0    0  501  0.00000000000E+00  0.00000000000E+00 -0.47598476206E+03  0.47598476209E+03  0.50400001928E-02 0.  1.
    10030    2    1    2    0    0  0.00000000000E+00  0.00000000000E+00  0.40292588078E+03  0.13548954049E+04  0.12935966500E+04 0.  0.
        5    1    3    3  502    0 -0.54482262394E+03 -0.28162104386E+03 -0.13656740868E+02  0.61347428672E+03  0.46999998093E+01 0.  1.
       -5    1    3    3    0  502  0.54482262394E+03  0.28162104386E+03  0.41658262165E+03  0.74142111823E+03  0.46999998093E+01 0. -1.
</event>
<event>
 5   0  0.5787604E-04  0.1280503E+04  0.7818609E-02  0.9045171E-01
        2   -1    0    0  501    0  0.00000000000E+00  0.00000000000E+00  0.43297734039E+03  0.43297734040E+03  0.25500000920E-02 0.  1.
       -2   -1    0    0    0  501  0.00000000000E+00  0.00000000000E+00 -0.94675111679E+03  0.94675111680E+03  0.25500000920E-02 0. -1.
    10030    2    1    2    0    0  0.00000000000E+00  0.00000000000E+00 -0.51377377640E+03  0.13797284572E+04  0.12805026834E+04 0.  0.
        4    1    3    3  502    0  0.42830807826E+02  0.43621405935E+03 -0.75974451524E+03  0.87711488701E+03  0.12699999809E+01 0.  1.
       -4    1    3    3    0  502 -0.42830807826E+02 -0.43621405935E+03  0.24597073884E+03  0.50261357019E+03  0.12699999809E+01 0. -1.
</event>
<event>
 5   0  0.5957913E-04  0.1305438E+04  0.7818609E-02  0.9025264E-01
       -2   -1    0    0    0  501  0.00000000000E+00  0.00000000000E+00  0.35490634040E+03  0.35490634041E+03  0.25500000920E-02 0.  1.
        2   -1    0    0  501    0  0.00000000000E+00  0.00000000000E+00 -0.12004356847E+04  0.12004356847E+04  0.25500000920E-02 0. -1.
    10030    2    1    2    0    0  0.00000000000E+00  0.00000000000E+00 -0.84552934426E+03  0.15553420251E+04  0.13054382187E+04 0.  0.
        1    1    3    3  502    0 -0.12831756050E+02 -0.50414745398E+03  0.70944366713E+02  0.50927636163E+03  0.50400001928E-02 0.  1.
       -1    1    3    3    0  502  0.12831756050E+02  0.50414745398E+03 -0.91647371097E+03  0.10460656634E+04  0.50400001928E-02 0. -1.
</event>
<event>
 5   0  0.5384960E-04  0.1279245E+04  0.7818609E-02  0.9046188E-01
       -2   -1    0    0    0  501  0.00000000000E+00  0.00000000000E+00  0.36187112778E+03  0.36187112779E+03  0.25500000920E-02 0. -1.
        2   -1    0    0  501    0  0.00000000000E+00  0.00000000000E+00 -0.11305594574E+04  0.11305594574E+04  0.25500000920E-02 0.  1.
    10030    2    1    2    0    0  0.00000000000E+00  0.00000000000E+00 -0.76868832966E+03  0.14924305852E+04  0.12792448177E+04 0.  0.
        3    1    3    3  502    0 -0.38913882540E+02 -0.29487365994E+02  0.35969396157E+03  0.36299249468E+03  0.10100000352E+00 0. -1.
       -3    1    3    3    0  502  0.38913882540E+02  0.29487365994E+02 -0.11283822912E+04  0.11294380905E+04  0.10100000352E+00 0.  1.
</event>
<event>
 5   0  0.6052864E-04  0.1270871E+04  0.7818609E-02  0.9052989E-01
        2   -1    0    0  501    0  0.00000000000E+00  0.00000000000E+00  0.80685572570E+03  0.80685572570E+03  0.25500000920E-02 0. -1.
       -2   -1    0    0    0  501  0.00000000000E+00  0.00000000000E+00 -0.50043424393E+03  0.50043424393E+03  0.25500000920E-02 0.  1.
    10030    2    1    2    0    0  0.00000000000E+00  0.00000000000E+00  0.30642148177E+03  0.13072899696E+04  0.12708709377E+04 0.  0.
        2    1    3    3  502    0 -0.23999978606E+03  0.31413037211E+03 -0.35853999344E+03  0.53369346530E+03  0.25500000920E-02 0.  1.
       -2    1    3    3    0  502  0.23999978606E+03 -0.31413037211E+03  0.66496147522E+03  0.77359650434E+03  0.25500000920E-02 0. -1.
</event>
<event>
 5   0  0.5957913E-04  0.1300893E+04  0.7818609E-02  0.9028857E-01
       -2   -1    0    0    0  501  0.00000000000E+00  0.00000000000E+00  0.39540450550E+03  0.39540450551E+03  0.25500000920E-02 0. -1.
        2   -1    0    0  501    0  0.00000000000E+00  0.00000000000E+00 -0.10699946095E+04  0.10699946095E+04  0.25500000920E-02 0.  1.
    10030    2    1    2    0    0  0.00000000000E+00  0.00000000000E+00 -0.67459010403E+03  0.14653991150E+04  0.13008930617E+04 0.  0.
        1    1    3    3  502    0  0.67671549441E+02 -0.12606925840E+03  0.37745700844E+03  0.40366655765E+03  0.50400001928E-02 0. -1.
       -1    1    3    3    0  502 -0.67671549441E+02  0.12606925840E+03 -0.10520471125E+04  0.10617325574E+04  0.50400001928E-02 0.  1.
</event>
<event>
 5   0  0.5384960E-04  0.1295195E+04  0.7818609E-02  0.9033385E-01
        2   -1    0    0  501    0  0.00000000000E+00  0.00000000000E+00  0.16953007161E+04  0.16953007161E+04  0.25500000920E-02 0. -1.
       -2   -1    0    0    0  501  0.00000000000E+00  0.00000000000E+00 -0.24737929001E+03  0.24737929002E+03  0.25500000920E-02 0.  1.
    10030    2    1    2    0    0  0.00000000000E+00  0.00000000000E+00  0.14479214261E+04  0.19426800061E+04  0.12951946379E+04 0.  0.
        3    1    3    3  502    0 -0.54335063284E+03 -0.69330213582E+02  0.12421275328E+04  0.13575409411E+04  0.10100000352E+00 0. -1.
       -3    1    3    3    0  502  0.54335063284E+03  0.69330213582E+02  0.20579389326E+03  0.58513906504E+03  0.10100000352E+00 0.  1.
</event>
<event>
 5   0  0.6052864E-04  0.1297567E+04  0.7818609E-02  0.9031496E-01
        2   -1    0    0  501    0  0.00000000000E+00  0.00000000000E+00  0.41626323710E+03  0.41626323710E+03  0.25500000920E-02 0.  1.
       -2   -1    0    0    0  501  0.00000000000E+00  0.00000000000E+00 -0.10111878909E+04  0.10111878909E+04  0.25500000920E-02 0. -1.
    10030    2    1    2    0    0  0.00000000000E+00  0.00000000000E+00 -0.59492465376E+03  0.14274511280E+04  0.12975674854E+04 0.  0.
        2    1    3    3  502    0  0.26324789733E+03 -0.44588621250E+02 -0.94794741203E+03  0.98483089745E+03  0.25500000920E-02 0. -1.
       -2    1    3    3    0  502 -0.26324789733E+03  0.44588621250E+02  0.35302275827E+03  0.44262023051E+03  0.25500000920E-02 0.  1.
</event>
<event>
 5   0  0.3335747E-04  0.1302101E+04  0.7818609E-02  0.9027901E-01
        1   -1    0    0  501    0  0.00000000000E+00  0.00000000000E+00  0.57305152537E+03  0.57305152539E+03  0.50400001928E-02 0.  1.
       -1   -1    0    0    0  501  0.00000000000E+00  0.00000000000E+00 -0.73966568386E+03  0.73966568387E+03  0.50400001928E-02 0. -1.
    10030    2    1    2    0    0  0.00000000000E+00  0.00000000000E+00 -0.16661415848E+03  0.13127172093E+04  0.13021006849E+04 0.  0.
        3    1    3    3  502    0 -0.34354901679E+03  0.55302641395E+03 -0.84867849493E+02  0.65655670246E+03  0.10100000352E+00 0. -1.
       -3    1    3    3    0  502  0.34354901679E+03 -0.55302641395E+03 -0.81746308989E+02  0.65616050681E+03  0.10100000352E+00 0.  1.
</event>
<event>
 5   0  0.3403833E-04  0.1304099E+04  0.7818609E-02  0.9026321E-01
        1   -1    0    0  501    0  0.00000000000E+00  0.00000000000E+00  0.53717374883E+03  0.53717374885E+03  0.50400001928E-02 0.  1.
       -1   -1    0    0    0  501  0.00000000000E+00  0.00000000000E+00 -0.79149193389E+03  0.79149193391E+03  0.50400001928E-02 0. -1.
    10030    2    1    2    0    0  0.00000000000E+00  0.00000000000E+00 -0.25431818506E+03  0.13286656828E+04  0.13040992130E+04 0.  0.
        1    1    3    3  502    0  0.12518703390E+03  0.34504266368E+03  0.42192028864E+03  0.55923426505E+03  0.50400001928E-02 0.  1.
       -1    1    3    3    0  502 -0.12518703390E+03 -0.34504266368E+03 -0.67623847370E+03  0.76943141771E+03  0.50400001928E-02 0. -1.
</event>
<event>
 5   0  0.5787604E-04  0.1321601E+04  0.7818609E-02  0.9012609E-01
        2   -1    0    0  501    0  0.00000000000E+00  0.00000000000E+00  0.72397920226E+03  0.72397920226E+03  0.25500000920E-02 0.  1.
       -2   -1    0    0    0  501  0.00000000000E+00  0.00000000000E+00 -0.60313519316E+03  0.60313519317E+03  0.25500000920E-02 0. -1.
    10030    2    1    2    0    0  0.00000000000E+00  0.00000000000E+00  0.12084400910E+03  0.13271143954E+04  0.13216010533E+04 0.  0.
        4    1    3    3  502    0  0.33637046565E+03 -0.19167898237E+02  0.63125032448E+03  0.71553552221E+03  0.12699999809E+01 0.  1.
       -4    1    3    3    0  502 -0.33637046565E+03  0.19167898237E+02 -0.51040631539E+03  0.61157887322E+03  0.12699999809E+01 0. -1.
</event>
<event>
 5   0  0.6007125E-04  0.1303753E+04  0.7818609E-02  0.9026594E-01
       -2   -1    0    0    0  501  0.00000000000E+00  0.00000000000E+00  0.25088705619E+03  0.25088705620E+03  0.25500000920E-02 0.  1.
        2   -1    0    0  501    0  0.00000000000E+00  0.00000000000E+00 -0.16937626386E+04  0.16937626386E+04  0.25500000920E-02 0. -1.
    10030    2    1    2    0    0  0.00000000000E+00  0.00000000000E+00 -0.14428755824E+04  0.19446496948E+04  0.13037532317E+04 0.  0.
        5    1    3    3  502    0  0.20982258294E+03 -0.37567189636E+03 -0.14518027183E+04  0.15142351577E+04  0.46999998093E+01 0. -1.
       -5    1    3    3    0  502 -0.20982258294E+03  0.37567189636E+03  0.89271358260E+01  0.43041453714E+03  0.46999998093E+01 0.  1.
</event>
<event>
 5   0  0.6007125E-04  0.1291501E+04  0.7818609E-02  0.9036332E-01
       -2   -1    0    0    0  501  0.00000000000E+00  0.00000000000E+00  0.24669964610E+04  0.24669964610E+04  0.25500000920E-02 0.  1.
        2   -1    0    0  501    0  0.00000000000E+00  0.00000000000E+00 -0.16902898054E+03  0.16902898056E+03  0.25500000920E-02 0. -1.
    10030    2    1    2    0    0  0.00000000000E+00  0.00000000000E+00  0.22979674805E+04  0.26360254416E+04  0.12915012920E+04 0.  0.
        5    1    3    3  502    0 -0.72567571582E+02 -0.10757135178E+03  0.24400768591E+04  0.24435291724E+04  0.46999998093E+01 0.  1.
       -5    1    3    3    0  502  0.72567571582E+02  0.10757135178E+03 -0.14210937859E+03  0.19249626919E+03  0.46999998093E+01 0. -1.
</event>
<event>
 5   0  0.3274879E-04  0.1304207E+04  0.7818609E-02  0.9026236E-01
        1   -1    0    0  501    0  0.00000000000E+00  0.00000000000E+00  0.12855561087E+04  0.12855561087E+04  0.50400001928E-02 0.  1.
       -1   -1    0    0    0  501  0.00000000000E+00  0.00000000000E+00 -0.33078209353E+03  0.33078209357E+03  0.50400001928E-02 0. -1.
    10030    2    1    2    0    0  0.00000000000E+00  0.00000000000E+00  0.95477401518E+03  0.16163382023E+04  0.13042069484E+04 0.  0.
        4    1    3    3  502    0  0.19597326633E+03 -0.36859563693E+02  0.12468412723E+04  0.12626871821E+04  0.12699999809E+01 0.  1.
       -4    1    3    3    0  502 -0.19597326633E+03  0.36859563693E+02 -0.29206725710E+03  0.35365102025E+03  0.12699999809E+01 0. -1.
</event>
<event>
 5   0  0.3337520E-04  0.1305516E+04  0.7818609E-02  0.9025202E-01
       -1   -1    0    0    0  501  0.00000000000E+00  0.00000000000E+00  0.97826789201E+03  0.97826789202E+03  0.50400001928E-02 0. -1.
        1   -1    0    0  501    0  0.00000000000E+00  0.00000000000E+00 -0.43555850082E+03  0.43555850085E+03  0.50400001928E-02 0.  1.
    10030    2    1    2    0    0  0.00000000000E+00  0.00000000000E+00  0.54270939119E+03  0.14138263929E+04  0.13055158313E+04 0.  0.
        5    1    3    3  502    0  0.39465327028E+03 -0.44061603777E+03  0.57025488359E+03  0.82164859809E+03  0.46999998093E+01 0. -1.
       -5    1    3    3    0  502 -0.39465327028E+03  0.44061603777E+03 -0.27545492403E+02  0.59217779478E+03  0.46999998093E+01 0.  1.
</event>
<event>
 5   0  0.5957913E-04  0.1299494E+04  0.7818609E-02  0.9029967E-01
        2   -1    0    0  501    0  0.00000000000E+00  0.00000000000E+00  0.68984174240E+03  0.68984174241E+03  0.25500000920E-02 0. -1.
       -2   -1    0    0    0  501  0.00000000000E+00  0.00000000000E+00 -0.61198264407E+03  0.61198264407E+03  0.25500000920E-02 0.  1.
    10030    2    1    2    0    0  0.00000000000E+00  0.00000000000E+00  0.77859098334E+02  0.13018243865E+04  0.12994940146E+04 0.  0.
        1    1    3    3  502    0  0.39555694243E+03  0.16605045916E+03  0.52779351176E+03  0.68015001343E+03  0.50400001928E-02 0. -1.
       -1    1    3    3    0  502 -0.39555694243E+03 -0.16605045916E+03 -0.44993441342E+03  0.62167437305E+03  0.50400001928E-02 0.  1.
</event>
<event>
 5   0  0.5787604E-04  0.1298886E+04  0.7818609E-02  0.9030449E-01
       -2   -1    0    0    0  501  0.00000000000E+00  0.00000000000E+00  0.76268145662E+03  0.76268145663E+03  0.25500000920E-02 0. -1.
        2   -1    0    0  501    0  0.00000000000E+00  0.00000000000E+00 -0.55301792717E+03  0.55301792718E+03  0.25500000920E-02 0.  1.
    10030    2    1    2    0    0  0.00000000000E+00  0.00000000000E+00  0.20966352945E+03  0.13156993838E+04  0.12988864742E+04 0.  0.
        4    1    3    3  502    0  0.53274831108E+03  0.31801296619E+03 -0.89542403892E+02  0.62687515872E+03  0.12699999809E+01 0.  1.
       -4    1    3    3    0  502 -0.53274831108E+03 -0.31801296619E+03  0.29920593334E+03  0.68882422509E+03  0.12699999809E+01 0. -1.
</event>
<event>
 5   0  0.6052864E-04  0.1294703E+04  0.7818609E-02  0.9033776E-01
       -2   -1    0    0    0  501  0.00000000000E+00  0.00000000000E+00  0.82346660962E+03  0.82346660963E+03  0.25500000920E-02 0.  1.
        2   -1    0    0  501    0  0.00000000000E+00  0.00000000000E+00 -0.50890217583E+03  0.50890217583E+03  0.25500000920E-02 0. -1.
    10030    2    1    2    0    0  0.00000000000E+00  0.00000000000E+00  0.31456443380E+03  0.13323687855E+04  0.12947029765E+04 0.  0.
        2    1    3    3  502    0  0.17780937847E+03  0.45746429766E+03  0.59166909778E+03  0.76874058042E+03  0.25500000920E-02 0.  1.
       -2    1    3    3    0  502 -0.17780937847E+03 -0.45746429766E+03 -0.27710466399E+03  0.56362820504E+03  0.25500000920E-02 0. -1.
</event>
<event>
 5   0  0.6052864E-04  0.1296313E+04  0.7818609E-02  0.9032494E-01
       -2   -1    0    0    0  501  0.00000000000E+00  0.00000000000E+00  0.77241072627E+03  0.77241072628E+03  0.25500000920E-02 0.  1.
        2   -1    0    0  501    0  0.00000000000E+00  0.00000000000E+00 -0.54389061303E+03  0.54389061303E+03  0.25500000920E-02 0. -1.
    10030    2    1    2    0    0  0.00000000000E+00  0.00000000000E+00  0.22852011324E+03  0.13163013393E+04  0.12963131465E+04 0.  0.
        2    1    3    3  502    0 -0.47123492452E+03 -0.41356334164E+03 -0.52621100438E+02  0.62917880754E+03  0.25500000920E-02 0. -1.
       -2    1    3    3    0  502  0.47123492452E+03  0.41356334164E+03  0.28114121368E+03  0.68712253177E+03  0.25500000920E-02 0.  1.
</event>
<event>
 5   0  0.2255875E-04  0.1297864E+04  0.7818609E-02  0.9031261E-01
       -4   -1    0    0    0  501  0.00000000000E+00  0.00000000000E+00  0.39363250154E+03  0.39363455028E+03  0.12699999809E+01 0. -1.
        4   -1    0    0  501    0  0.00000000000E+00  0.00000000000E+00 -0.10698061818E+04  0.10698069356E+04  0.12699999809E+01 0.  1.
    10030    2    1    2    0    0  0.00000000000E+00  0.00000000000E+00 -0.67617368022E+03  0.14634414859E+04  0.12978636819E+04 0.  0.
        4    1    3    3  502    0  0.53733781777E+03  0.11099140040E+03  0.52614833049E+02  0.55119955998E+03  0.12699999809E+01 0. -1.
       -4    1    3    3    0  502 -0.53733781777E+03 -0.11099140040E+03 -0.72878851327E+03  0.91224192589E+03  0.12699999809E+01 0.  1.
</event>
<event>
 5   0  0.3403833E-04  0.1335171E+04  0.7818609E-02  0.9002130E-01
        1   -1    0    0  501    0  0.00000000000E+00  0.00000000000E+00  0.19514854381E+04  0.19514854381E+04  0.50400001928E-02 0.  1.
       -1   -1    0    0    0  501  0.00000000000E+00  0.00000000000E+00 -0.22837481206E+03  0.22837481211E+03  0.50400001928E-02 0. -1.
    10030    2    1    2    0    0  0.00000000000E+00  0.00000000000E+00  0.17231106260E+04  0.21798602502E+04  0.13351705812E+04 0.  0.
        1    1    3    3  502    0  0.60411765178E+03 -0.18917832885E+03  0.12075973798E+04  0.13634654410E+04  0.50400001928E-02 0.  1.
       -1    1    3    3    0  502 -0.60411765178E+03  0.18917832885E+03  0.51551324624E+03  0.81639480913E+03  0.50400001928E-02 0. -1.
</event>
<event>
 5   0  0.6007125E-04  0.1304596E+04  0.7818609E-02  0.9025929E-01
       -2   -1    0    0    0  501  0.00000000000E+00  0.00000000000E+00  0.31208199634E+03  0.31208199635E+03  0.25500000920E-02 0.  1.
        2   -1    0    0  501    0  0.00000000000E+00  0.00000000000E+00 -0.13633994158E+04  0.13633994158E+04  0.25500000920E-02 0. -1.
    10030    2    1    2    0    0  0.00000000000E+00  0.00000000000E+00 -0.10513174194E+04  0.16754814121E+04  0.13045955872E+04 0.  0.
        5    1    3    3  502    0 -0.22089364421E+03  0.11988743209E+02  0.26241165180E+03  0.34324873928E+03  0.46999998093E+01 0.  1.
       -5    1    3    3    0  502  0.22089364421E+03 -0.11988743209E+02 -0.13137290712E+04  0.13322326729E+04  0.46999998093E+01 0. -1.
</event>
<event>
 5   0  0.5957913E-04  0.1278696E+04  0.7818609E-02  0.9046632E-01
       -2   -1    0    0    0  501  0.00000000000E+00  0.00000000000E+00  0.56949030266E+03  0.56949030267E+03  0.25500000920E-02 0. -1.
        2   -1    0    0  501    0  0.00000000000E+00  0.00000000000E+00 -0.71777472699E+03  0.71777472699E+03  0.25500000920E-02 0.  1.
    10030    2    1    2    0    0  0.00000000000E+00  0.00000000000E+00 -0.14828442433E+03  0.12872650297E+04  0.12786958145E+04 0.  0.
        1    1    3    3  502    0  0.34406146897E+03  0.14632998449E+03  0.44796137338E+03  0.58348963218E+03  0.50400001928E-02 0. -1.
       -1    1    3    3    0  502 -0.34406146897E+03 -0.14632998449E+03 -0.59624579771E+03  0.70377539748E+03  0.50400001928E-02 0.  1.
</event>
<event>
 5   0  0.3274879E-04  0.1303073E+04  0.7818609E-02  0.9027132E-01
        1   -1    0    0  501    0  0.00000000000E+00  0.00000000000E+00  0.74680190484E+03  0.74680190485E+03  0.50400001928E-02 0.  1.
       -1   -1    0    0    0  501  0.00000000000E+00  0.00000000000E+00 -0.56842325019E+03  0.56842325021E+03  0.50400001928E-02 0. -1.
    10030    2    1    2    0    0  0.00000000000E+00  0.00000000000E+00  0.17837865465E+03  0.13152251551E+04  0.13030726243E+04 0.  0.
        4    1    3    3  502    0 -0.36855978017E+03  0.48732286355E+03 -0.13914616864E+03  0.62664436010E+03  0.12699999809E+01 0. -1.
       -4    1    3    3    0  502  0.36855978017E+03 -0.48732286355E+03  0.31752482329E+03  0.68858079497E+03  0.12699999809E+01 0.  1.
</event>
<event>
 5   0  0.3335747E-04  0.1300862E+04  0.7818609E-02  0.9028882E-01
       -1   -1    0    0    0  501  0.00000000000E+00  0.00000000000E+00  0.38615914078E+03  0.38615914082E+03  0.50400001928E-02 0. -1.
        1   -1    0    0  501    0  0.00000000000E+00  0.00000000000E+00 -0.10955596741E+04  0.10955596741E+04  0.50400001928E-02 0.  1.
    10030    2    1    2    0    0  0.00000000000E+00  0.00000000000E+00 -0.70940053333E+03  0.14817188149E+04  0.13008618412E+04 0.  0.
        3    1    3    3  502    0  0.32342759746E+03  0.53047889507E+03 -0.57393620604E+03  0.84582270466E+03  0.10100000352E+00 0.  1.
       -3    1    3    3    0  502 -0.32342759746E+03 -0.53047889507E+03 -0.13546432730E+03  0.63589611029E+03  0.10100000352E+00 0. -1.
</event>
<event>
 5   0  0.6007125E-04  0.1300436E+04  0.7818609E-02  0.9029220E-01
       -2   -1    0    0    0  501  0.00000000000E+00  0.00000000000E+00  0.31838587006E+03  0.31838587007E+03  0.25500000920E-02 0. -1.
        2   -1    0    0  501    0  0.00000000000E+00  0.00000000000E+00 -0.13278956875E+04  0.13278956875E+04  0.25500000920E-02 0.  1.
    10030    2    1    2    0    0  0.00000000000E+00  0.00000000000E+00 -0.10095098174E+04  0.16462815575E+04  0.13004356559E+04 0.  0.
        5    1    3    3  502    0  0.32947346823E+03  0.29424504013E+03 -0.11087428935E+04  0.11935098675E+04  0.46999998093E+01 0.  1.
       -5    1    3    3    0  502 -0.32947346823E+03 -0.29424504013E+03  0.99233076109E+02  0.45277169004E+03  0.46999998093E+01 0. -1.
</event>
<event>
 5   0  0.6007125E-04  0.1299324E+04  0.7818609E-02  0.9030101E-01
        2   -1    0    0  501    0  0.00000000000E+00  0.00000000000E+00  0.86898624718E+03  0.86898624719E+03  0.25500000920E-02 0. -1.
       -2   -1    0    0    0  501  0.00000000000E+00  0.00000000000E+00 -0.48569340529E+03  0.48569340529E+03  0.25500000920E-02 0.  1.
    10030    2    1    2    0    0  0.00000000000E+00  0.00000000000E+00  0.38329284189E+03  0.13546796525E+04  0.12993242698E+04 0.  0.
        5    1    3    3  502    0  0.17619510265E+03  0.56796320320E+03 -0.81053389508E+02  0.60018218595E+03  0.46999998093E+01 0.  1.
       -5    1    3    3    0  502 -0.17619510265E+03 -0.56796320320E+03  0.46434623140E+03  0.75449746653E+03  0.46999998093E+01 0. -1.
</event>
<event>
 5   0  0.6052864E-04  0.1299386E+04  0.7818609E-02  0.9030052E-01
       -2   -1    0    0    0  501  0.00000000000E+00  0.00000000000E+00  0.16840340437E+03  0.16840340439E+03  0.25500000920E-02 0.  1.
        2   -1    0    0  501    0  0.00000000000E+00  0.00000000000E+00 -0.25064872524E+04  0.25064872524E+04  0.25500000920E-02 0. -1.
    10030    2    1    2    0    0  0.00000000000E+00  0.00000000000E+00 -0.23380838480E+04  0.26748906568E+04  0.12993859878E+04 0.  0.
        2    1    3    3  502    0 -0.54618680132E+03 -0.21554971922E+03 -0.17414579226E+04  0.18377860049E+04  0.25500000920E-02 0. -1.
       -2    1    3    3    0  502  0.54618680132E+03  0.21554971922E+03 -0.59662592537E+03  0.83710465189E+03  0.25500000920E-02 0.  1.
</event>
<event>
 5   0  0.5787604E-04  0.1322964E+04  0.7818609E-02  0.9011550E-01
       -2   -1    0    0    0  501  0.00000000000E+00  0.00000000000E+00  0.22896122551E+03  0.22896122552E+03  0.25500000920E-02 0.  1.
        2   -1    0    0  501    0  0.00000000000E+00  0.00000000000E+00 -0.19110601763E+04  0.19110601763E+04  0.25500000920E-02 0. -1.
    10030    2    1    2    0    0  0.00000000000E+00  0.00000000000E+00 -0.16820989507E+04  0.21400214018E+04  0.13229643684E+04 0.  0.
        4    1    3    3  502    0  0.53627231924E+02  0.19250123516E+03  0.17896542557E+03  0.26825890851E+03  0.12699999809E+01 0.  1.
       -4    1    3    3    0  502 -0.53627231924E+02 -0.19250123516E+03 -0.18610643763E+04  0.18717624933E+04  0.12699999809E+01 0. -1.
</event>
<event>
 5   0  0.3403833E-04  0.1297401E+04  0.7818609E-02  0.9031629E-01
        1   -1    0    0  501    0  0.00000000000E+00  0.00000000000E+00  0.85019896966E+03  0.85019896968E+03  0.50400001928E-02 0.  1.
       -1   -1    0    0    0  501  0.00000000000E+00  0.00000000000E+00 -0.49495731197E+03  0.49495731199E+03  0.50400001928E-02 0. -1.
    10030    2    1    2    0    0  0.00000000000E+00  0.00000000000E+00  0.35524165770E+03  0.13451562817E+04  0.12974007811E+04 0.  0.
        1    1    3    3  502    0  0.51869943185E+03 -0.19486802776E+03  0.52736442786E+03  0.76494175507E+03  0.50400001928E-02 0.  1.
       -1    1    3    3    0  502 -0.51869943185E+03  0.19486802776E+03 -0.17212277016E+03  0.58021452660E+03  0.50400001928E-02 0. -1.
</event>
<event>
 5   0  0.3403833E-04  0.1302873E+04  0.7818609E-02  0.9027290E-01
       -1   -1    0    0    0  501  0.00000000000E+00  0.00000000000E+00  0.30001264481E+03  0.30001264485E+03  0.50400001928E-02 0. -1.
        1   -1    0    0  501    0  0.00000000000E+00  0.00000000000E+00 -0.14145048559E+04  0.14145048559E+04  0.50400001928E-02 0.  1.
    10030    2    1    2    0    0  0.00000000000E+00  0.00000000000E+00 -0.11144922111E+04  0.17145175007E+04  0.13028727382E+04 0.  0.
        1    1    3    3  502    0 -0.22234852272E+03 -0.60570435184E+03 -0.43915665427E+03  0.78049676131E+03  0.50400001928E-02 0. -1.
       -1    1    3    3    0  502  0.22234852272E+03  0.60570435184E+03 -0.67533555679E+03  0.93402073943E+03  0.50400001928E-02 0.  1.
</event>
<event>
 5   0  0.3335747E-04  0.1292522E+04  0.7818609E-02  0.9035516E-01
        1   -1    0    0  501    0  0.00000000000E+00  0.00000000000E+00  0.82467784140E+03  0.82467784142E+03  0.50400001928E-02 0.  1.
       -1   -1    0    0    0  501  0.00000000000E+00  0.00000000000E+00 -0.50644436756E+03  0.50644436758E+03  0.50400001928E-02 0. -1.
    10030    2    1    2    0    0  0.00000000000E+00  0.00000000000E+00  0.31823347384E+03  0.13311222090E+04  0.12925222595E+04 0.  0.
        3    1    3    3  502    0 -0.36688256699E+03 -0.87846570027E+02  0.69950947566E+03  0.79475364394E+03  0.10100000352E+00 0.  1.
       -3    1    3    3    0  502  0.36688256699E+03  0.87846570027E+02 -0.38127600181E+03  0.53636856506E+03  0.10100000352E+00 0. -1.
</event>
<event>
 5   0  0.5957913E-04  0.1295336E+04  0.7818609E-02  0.9033272E-01
       -2   -1    0    0    0  501  0.00000000000E+00  0.00000000000E+00  0.29699056323E+03  0.29699056324E+03  0.25500000920E-02 0. -1.
        2   -1    0    0  501    0  0.00000000000E+00  0.00000000000E+00 -0.14124144363E+04  0.14124144363E+04  0.25500000920E-02 0.  1.
    10030    2    1    2    0    0  0.00000000000E+00  0.00000000000E+00 -0.11154238730E+04  0.17094049995E+04  0.12953358776E+04 0.  0.
        1    1    3    3  502    0  0.57429495337E+03  0.27832834250E+03 -0.70342791020E+03  0.94978533605E+03  0.50400001928E-02 0. -1.
       -1    1    3    3    0  502 -0.57429495337E+03 -0.27832834250E+03 -0.41199596284E+03  0.75961966347E+03  0.50400001928E-02 0.  1.
</event>
<event>
 5   0  0.2255875E-04  0.1299503E+04  0.7818609E-02  0.9029959E-01
       -3   -1    0    0    0  501  0.00000000000E+00  0.00000000000E+00  0.85430619500E+03  0.85430620097E+03  0.10100000352E+00 0.  1.
        3   -1    0    0  501    0  0.00000000000E+00  0.00000000000E+00 -0.49417549083E+03  0.49417550115E+03  0.10100000352E+00 0. -1.
    10030    2    1    2    0    0  0.00000000000E+00  0.00000000000E+00  0.36013070417E+03  0.13484817021E+04  0.12995032808E+04 0.  0.
        4    1    3    3  502    0  0.61604406116E+03 -0.15700163981E+03  0.31934710564E+03  0.71143797128E+03  0.12699999809E+01 0.  1.
       -4    1    3    3    0  502 -0.61604406116E+03  0.15700163981E+03  0.40783598529E+02  0.63704373084E+03  0.12699999809E+01 0. -1.
</event>
<event>
 5   0  0.5787604E-04  0.1298053E+04  0.7818609E-02  0.9031111E-01
        2   -1    0    0  501    0  0.00000000000E+00  0.00000000000E+00  0.70701985096E+03  0.70701985096E+03  0.25500000920E-02 0. -1.
       -2   -1    0    0    0  501  0.00000000000E+00  0.00000000000E+00 -0.59578963163E+03  0.59578963163E+03  0.25500000920E-02 0.  1.
    10030    2    1    2    0    0  0.00000000000E+00  0.00000000000E+00  0.11123021933E+03  0.13028094826E+04  0.12980525360E+04 0.  0.
        4    1    3    3  502    0 -0.81452228979E+02  0.34271248374E+03  0.60272484319E+03  0.69811543574E+03  0.12699999809E+01 0. -1.
       -4    1    3    3    0  502  0.81452228979E+02 -0.34271248374E+03 -0.49149462386E+03  0.60469404686E+03  0.12699999809E+01 0.  1.
</event>
<event>
 5   0  0.3274879E-04  0.1299604E+04  0.7818609E-02  0.9029879E-01
        1   -1    0    0  501    0  0.00000000000E+00  0.00000000000E+00  0.50511943189E+03  0.50511943191E+03  0.50400001928E-02 0. -1.
       -1   -1    0    0    0  501  0.00000000000E+00  0.00000000000E+00 -0.83592594552E+03  0.83592594554E+03  0.50400001928E-02 0.  1.
    10030    2    1    2    0    0  0.00000000000E+00  0.00000000000E+00 -0.33080651363E+03  0.13410453775E+04  0.12996036915E+04 0.  0.
        4    1    3    3  502    0 -0.42834705637E+03  0.92888207090E+02  0.32961416364E+03  0.54841273644E+03  0.12699999809E+01 0. -1.
       -4    1    3    3    0  502  0.42834705637E+03 -0.92888207090E+02 -0.66042067728E+03  0.79263264101E+03  0.12699999809E+01 0.  1.
</event>
<event>
 5   0  0.3337520E-04  0.1294710E+04  0.7818609E-02  0.9033771E-01
       -1   -1    0    0    0  501  0.00000000000E+00  0.00000000000E+00  0.41531801134E+03  0.41531801137E+03  0.50400001928E-02 0. -1.
        1   -1    0    0  501    0  0.00000000000E+00  0.00000000000E+00 -0.10090301410E+04  0.10090301410E+04  0.50400001928E-02 0.  1.
    10030    2    1    2    0    0  0.00000000000E+00  0.00000000000E+00 -0.59371212967E+03  0.14243481524E+04  0.12947098387E+04 0.  0.
        5    1    3    3  502    0  0.59864514881E+03  0.11883134928E+03 -0.59499776631E+02  0.61323667306E+03  0.46999998093E+01 0. -1.
       -5    1    3    3    0  502 -0.59864514881E+03 -0.11883134928E+03 -0.53421235304E+03  0.81111147933E+03  0.46999998093E+01 0.  1.
</event>
<event>
 5   0  0.5957913E-04  0.1300576E+04  0.7818609E-02  0.9029108E-01
        2   -1    0    0  501    0  0.00000000000E+00  0.00000000000E+00  0.26816022092E+03  0.26816022093E+03  0.25500000920E-02 0.  1.
       -2   -1    0    0    0  501  0.00000000000E+00  0.00000000000E+00 -0.15769480645E+04  0.15769480645E+04  0.25500000920E-02 0. -1.
    10030    2    1    2    0    0  0.00000000000E+00  0.00000000000E+00 -0.13087878436E+04  0.18451082854E+04  0.13005763974E+04 0.  0.
        1    1    3    3  502    0 -0.24898013168E+03  0.19036262630E+03  0.15394003315E+03  0.34917985236E+03  0.50400001928E-02 0.  1.
       -1    1    3    3    0  502  0.24898013168E+03 -0.19036262630E+03 -0.14627278767E+04  0.14959284331E+04  0.50400001928E-02 0. -1.
</event>
<event>
 5   0  0.3335747E-04  0.1303754E+04  0.7818609E-02  0.9026593E-01
        1   -1    0    0  501    0  0.00000000000E+00  0.00000000000E+00  0.12269379044E+04  0.12269379044E+04  0.50400001928E-02 0. -1.
       -1   -1    0    0    0  501  0.00000000000E+00  0.00000000000E+00 -0.34634500278E+03  0.34634500282E+03  0.50400001928E-02 0.  1.
    10030    2    1    2    0    0  0.00000000000E+00  0.00000000000E+00  0.88059290163E+03  0.15732829072E+04  0.13037542897E+04 0.  0.
        3    1    3    3  502    0 -0.79141034084E+02 -0.53491723132E+03  0.96610825354E+00  0.54074087251E+03  0.10100000352E+00 0.  1.
       -3    1    3    3    0  502  0.79141034084E+02  0.53491723132E+03  0.87962679338E+03  0.10325420347E+04  0.10100000352E+00 0. -1.
</event>
<event>
 5   0  0.6052864E-04  0.1316168E+04  0.7818609E-02  0.9016841E-01
        2   -1    0    0  501    0  0.00000000000E+00  0.00000000000E+00  0.14800446003E+04  0.14800446003E+04  0.25500000920E-02 0. -1.
       -2   -1    0    0    0  501  0.00000000000E+00  0.00000000000E+00 -0.29260913983E+03  0.29260913985E+03  0.25500000920E-02 0.  1.
    10030    2    1    2    0    0  0.00000000000E+00  0.00000000000E+00  0.11874354605E+04  0.17726537402E+04  0.13161680401E+04 0.  0.
        2    1    3    3  502    0  0.26578467785E+03 -0.18733955173E+03 -0.17684873141E+03  0.37015277444E+03  0.25500000920E-02 0.  1.
       -2    1    3    3    0  502 -0.26578467785E+03  0.18733955173E+03  0.13642841919E+04  0.14025009657E+04  0.25500000920E-02 0. -1.
</event>
<event>
 5   0  0.6052864E-04  0.1296804E+04  0.7818609E-02  0.9032103E-01
       -2   -1    0    0    0  501  0.00000000000E+00  0.00000000000E+00  0.20573655508E+03  0.20573655510E+03  0.25500000920E-02 0. -1.
        2   -1    0    0  501    0  0.00000000000E+00  0.00000000000E+00 -0.20435126299E+04  0.20435126299E+04  0.25500000920E-02 0.  1.
    10030    2    1    2    0    0  0.00000000000E+00  0.00000000000E+00 -0.18377760749E+04  0.22492491850E+04  0.12968041468E+04 0.  0.
        2    1    3    3  502    0  0.10135457824E+03 -0.30886720910E+03  0.54191850753E+02  0.32955797681E+03  0.25500000920E-02 0. -1.
       -2    1    3    3    0  502 -0.10135457824E+03  0.30886720910E+03 -0.18919679256E+04  0.19196912082E+04  0.25500000920E-02 0.  1.
</event>
<event>
 5   0  0.5787604E-04  0.1301419E+04  0.7818609E-02  0.9028441E-01
        2   -1    0    0  501    0  0.00000000000E+00  0.00000000000E+00  0.10701745657E+04  0.10701745657E+04  0.25500000920E-02 0. -1.
       -2   -1    0    0    0  501  0.00000000000E+00  0.00000000000E+00 -0.39565758855E+03  0.39565758856E+03  0.25500000920E-02 0.  1.
    10030    2    1    2    0    0  0.00000000000E+00  0.00000000000E+00  0.67451697719E+03  0.14658321543E+04  0.13014187459E+04 0.  0.
        4    1    3    3  502    0  0.39087698537E+03 -0.34316800006E+02 -0.24741475857E+03  0.46387297411E+03  0.12699999809E+01 0.  1.
       -4    1    3    3    0  502 -0.39087698537E+03  0.34316800006E+02  0.92193173576E+03  0.10019591802E+04  0.12699999809E+01 0. -1.
</event>
<event>
 5   0  0.5384960E-04  0.1299900E+04  0.7818609E-02  0.9029644E-01
       -2   -1    0    0    0  501  0.00000000000E+00  0.00000000000E+00  0.24785866836E+03  0.24785866837E+03  0.25500000920E-02 0. -1.
        2   -1    0    0  501    0  0.00000000000E+00  0.00000000000E+00 -0.17043393478E+04  0.17043393478E+04  0.25500000920E-02 0.  1.
    10030    2    1    2    0    0  0.00000000000E+00  0.00000000000E+00 -0.14564806795E+04  0.19521980162E+04  0.12999004288E+04 0.  0.
        3    1    3    3  502    0 -0.44291628653E+03  0.33386566038E+03 -0.21940921627E+03  0.59647424960E+03  0.10100000352E+00 0. -1.
       -3    1    3    3    0  502  0.44291628653E+03 -0.33386566038E+03 -0.12370714632E+04  0.13557237666E+04  0.10100000352E+00 0.  1.
</event>
<event>
 5   0  0.5957913E-04  0.1304625E+04  0.7818609E-02  0.9025906E-01
        2   -1    0    0  501    0  0.00000000000E+00  0.00000000000E+00  0.52726387602E+03  0.52726387602E+03  0.25500000920E-02 0. -1.
       -2   -1    0    0    0  501  0.00000000000E+00  0.00000000000E+00 -0.80701826852E+03  0.80701826852E+03  0.25500000920E-02 0.  1.
    10030    2    1    2    0    0  0.00000000000E+00  0.00000000000E+00 -0.27975439250E+03  0.13342821445E+04  0.13046249734E+04 0.  0.
        1    1    3    3  502    0  0.24100260942E+03  0.38287575479E+03 -0.62049118850E+03  0.76790977099E+03  0.50400001928E-02 0.  1.
       -1    1    3    3    0  502 -0.24100260942E+03 -0.38287575479E+03  0.34073679600E+03  0.56637237355E+03  0.50400001928E-02 0. -1.
</event>
<event>
 5   0  0.6007125E-04  0.1302841E+04  0.7818609E-02  0.9027315E-01
        2   -1    0    0  501    0  0.00000000000E+00  0.00000000000E+00  0.66765817548E+03  0.66765817549E+03  0.25500000920E-02 0.  1.
       -2   -1    0    0    0  501  0.00000000000E+00  0.00000000000E+00 -0.63557757631E+03  0.63557757632E+03  0.25500000920E-02 0. -1.
    10030    2    1    2    0    0  0.00000000000E+00  0.00000000000E+00  0.32080599168E+02  0.13032357518E+04  0.13028408421E+04 0.  0.
        5    1    3    3  502    0  0.35404035498E+03 -0.54652882126E+03 -0.93981451465E+00  0.65119989149E+03  0.46999998093E+01 0.  1.
       -5    1    3    3    0  502 -0.35404035498E+03  0.54652882126E+03  0.33020413683E+02  0.65203586032E+03  0.46999998093E+01 0. -1.
</event>
<event>
 5   0  0.3274879E-04  0.1298631E+04  0.7818609E-02  0.9030651E-01
       -1   -1    0    0    0  501  0.00000000000E+00  0.00000000000E+00  0.52239733174E+03  0.52239733177E+03  0.50400001928E-02 0. -1.
        1   -1    0    0  501    0  0.00000000000E+00  0.00000000000E+00 -0.80706884867E+03  0.80706884868E+03  0.50400001928E-02 0.  1.
    10030    2    1    2    0    0  0.00000000000E+00  0.00000000000E+00 -0.28467151692E+03  0.13294661805E+04  0.12986309916E+04 0.  0.
        4    1    3    3  502    0  0.47610413226E+03  0.42866662879E+03 -0.34095536619E+02  0.64155618765E+03  0.12699999809E+01 0. -1.
       -4    1    3    3    0  502 -0.47610413226E+03 -0.42866662879E+03 -0.25057598030E+03  0.68790999280E+03  0.12699999809E+01 0.  1.
</event>
<event>
 5   0  0.3337520E-04  0.1298035E+04  0.7818609E-02  0.9031125E-01
        1   -1    0    0  501    0  0.00000000000E+00  0.00000000000E+00  0.22427511347E+04  0.22427511347E+04  0.50400001928E-02 0.  1.
       -1   -1    0    0    0  501  0.00000000000E+00  0.00000000000E+00 -0.18781551574E+03  0.18781551581E+03  0.50400001928E-02 0. -1.
    10030    2    1    2    0    0  0.00000000000E+00  0.00000000000E+00  0.20549356190E+04  0.24305666505E+04  0.12980346084E+04 0.  0.
        5    1    3    3  502    0  0.63144328442E+03 -0.55335166804E+02  0.76653294496E+03  0.99467454367E+03  0.46999998093E+01 0.  1.
       -5    1    3    3    0  502 -0.63144328442E+03  0.55335166804E+02  0.12884026740E+04  0.14358921069E+04  0.46999998093E+01 0. -1.
</event>
<event>
 5   0  0.5787604E-04  0.1312447E+04  0.7818609E-02  0.9019752E-01
       -2   -1    0    0    0  501  0.00000000000E+00  0.00000000000E+00  0.94294775314E+03  0.94294775314E+03  0.25500000920E-02 0.  1.
        2   -1    0    0  501    0  0.00000000000E+00  0.00000000000E+00 -0.45668443392E+03  0.45668443393E+03  0.25500000920E-02 0. -1.
    10030    2    1    2    0    0  0.00000000000E+00  0.00000000000E+00  0.48626331922E+03  0.13996321871E+04  0.13124474250E+04 0.  0.
        4    1    3    3  502    0 -0.13454885083E+03 -0.12953538645E+03 -0.42774054758E+03  0.46674018312E+03  0.12699999809E+01 0. -1.
       -4    1    3    3    0  502  0.13454885083E+03  0.12953538645E+03  0.91400386680E+03  0.93289200394E+03  0.12699999809E+01 0.  1.
</event>
<event>
 5   0  0.6052864E-04  0.1300179E+04  0.7818609E-02  0.9029424E-01
        2   -1    0    0  501    0  0.00000000000E+00  0.00000000000E+00  0.13524201678E+04  0.13524201678E+04  0.25500000920E-02 0. -1.
       -2   -1    0    0    0  501  0.00000000000E+00  0.00000000000E+00 -0.31248873437E+03  0.31248873438E+03  0.25500000920E-02 0.  1.
    10030    2    1    2    0    0  0.00000000000E+00  0.00000000000E+00  0.10399314335E+04  0.16649089022E+04  0.13001785517E+04 0.  0.
        2    1    3    3  502    0  0.58335159732E+03 -0.10211902842E+02  0.88712704063E+03  0.10617898828E+04  0.25500000920E-02 0. -1.
       -2    1    3    3    0  502 -0.58335159732E+03  0.10211902842E+02  0.15280439283E+03  0.60311901938E+03  0.25500000920E-02 0.  1.
</event>
<event>
 5   0  0.3337520E-04  0.1299303E+04  0.7818609E-02  0.9030118E-01
       -1   -1    0    0    0  501  0.00000000000E+00  0.00000000000E+00  0.13922130738E+04  0.13922130738E+04  0.50400001928E-02 0.  1.
        1   -1    0    0  501    0  0.00000000000E+00  0.00000000000E+00 -0.30314839431E+03  0.30314839435E+03  0.50400001928E-02 0. -1.
    10030    2    1    2    0    0  0.00000000000E+00  0.00000000000E+00  0.10890646795E+04  0.16953614682E+04  0.12993031331E+04 0.  0.
        5    1    3    3  502    0 -0.30357611182E+03 -0.30211555594E+03  0.11818860120E+04  0.12571033769E+04  0.46999998093E+01 0.  1.
       -5    1    3    3    0  502  0.30357611182E+03  0.30211555594E+03 -0.92821332509E+02  0.43825809128E+03  0.46999998093E+01 0. -1.
</event>
<event>
 5   0  0.3263679E-04  0.1300315E+04  0.7818609E-02  0.9029316E-01
       -1   -1    0    0    0  501  0.00000000000E+00  0.00000000000E+00  0.27984051850E+03  0.27984051855E+03  0.50400001928E-02 0.  1.
        1   -1    0    0  501    0  0.00000000000E+00  0.00000000000E+00 -0.15105196248E+04  0.15105196248E+04  0.50400001928E-02 0. -1.
    10030    2    1    2    0    0  0.00000000000E+00  0.00000000000E+00 -0.12306791063E+04  0.17903601434E+04  0.13003147235E+04 0.  0.
        2    1    3    3  502    0 -0.51293294540E+03 -0.26547472018E+03 -0.10263926583E+04  0.11777346571E+04  0.25500000920E-02 0. -1.
       -2    1    3    3    0  502  0.51293294540E+03  0.26547472018E+03 -0.20428644794E+03  0.61262548621E+03  0.25500000920E-02 0.  1.
</event>
<event>
 5   0  0.6007125E-04  0.1297806E+04  0.7818609E-02  0.9031307E-01
        2   -1    0    0  501    0  0.00000000000E+00  0.00000000000E+00  0.74490978046E+03  0.74490978047E+03  0.25500000920E-02 0. -1.
       -2   -1    0    0    0  501  0.00000000000E+00  0.00000000000E+00 -0.56527006548E+03  0.56527006549E+03  0.25500000920E-02 0.  1.
    10030    2    1    2    0    0  0.00000000000E+00  0.00000000000E+00  0.17963971498E+03  0.13101798460E+04  0.12978061494E+04 0.  0.
        5    1    3    3  502    0  0.15630668279E+03  0.73229142973E+02 -0.54165077737E+03  0.56850852332E+03  0.46999998093E+01 0.  1.
       -5    1    3    3    0  502 -0.15630668279E+03 -0.73229142973E+02  0.72129049235E+03  0.74167132264E+03  0.46999998093E+01 0. -1.
</event>
<event>
 5   0  0.3263679E-04  0.1301855E+04  0.7818609E-02  0.9028096E-01
       -1   -1    0    0    0  501  0.00000000000E+00  0.00000000000E+00  0.33016212243E+03  0.33016212247E+03  0.50400001928E-02 0.  1.
        1   -1    0    0  501    0  0.00000000000E+00  0.00000000000E+00 -0.12833283917E+04  0.12833283917E+04  0.50400001928E-02 0. -1.
    10030    2    1    2    0    0  0.00000000000E+00  0.00000000000E+00 -0.95316626925E+03  0.16134905142E+04  0.13018547163E+04 0.  0.
        2    1    3    3  502    0 -0.21399124614E+03 -0.60157124897E+03 -0.63348179553E+03  0.89943282478E+03  0.25500000920E-02 0. -1.
       -2    1    3    3    0  502  0.21399124614E+03  0.60157124897E+03 -0.31968447372E+03  0.71405768938E+03  0.25500000920E-02 0.  1.
</event>
<event>
 5   0  0.3335747E-04  0.1299625E+04  0.7818609E-02  0.9029863E-01
       -1   -1    0    0    0  501  0.00000000000E+00  0.00000000000E+00  0.56759467420E+03  0.56759467422E+03  0.50400001928E-02 0. -1.
        1   -1    0    0  501    0  0.00000000000E+00  0.00000000000E+00 -0.74393987145E+03  0.74393987147E+03  0.50400001928E-02 0.  1.
    10030    2    1    2    0    0  0.00000000000E+00  0.00000000000E+00 -0.17634519725E+03  0.13115345457E+04  0.12996250367E+04 0.  0.
        3    1    3    3  502    0  0.55609155189E+03  0.33292543433E+03 -0.41063562413E+02  0.64943312609E+03  0.10100000352E+00 0. -1.
       -3    1    3    3    0  502 -0.55609155189E+03 -0.33292543433E+03 -0.13528163484E+03  0.66210141960E+03  0.10100000352E+00 0.  1.
</event>
<event>
 5   0  0.3403833E-04  0.1297052E+04  0.7818609E-02  0.9031906E-01
        1   -1    0    0  501    0  0.00000000000E+00  0.00000000000E+00  0.50317012437E+03  0.50317012439E+03  0.50400001928E-02 0.  1.
       -1   -1    0    0    0  501  0.00000000000E+00  0.00000000000E+00 -0.83587286028E+03  0.83587286029E+03  0.50400001928E-02 0. -1.
    10030    2    1    2    0    0  0.00000000000E+00  0.00000000000E+00 -0.33270273591E+03  0.13390429847E+04  0.12970524293E+04 0.  0.
        1    1    3    3  502    0 -0.56490567552E+03 -0.25997322529E+03  0.23677643910E+02  0.62230629994E+03  0.50400001928E-02 0. -1.
       -1    1    3    3    0  502  0.56490567552E+03  0.25997322529E+03 -0.35638037982E+03  0.71673668474E+03  0.50400001928E-02 0.  1.
</event>
<event>
 5   0  0.5957913E-04  0.1299638E+04  0.7818609E-02  0.9029852E-01
        2   -1    0    0  501    0  0.00000000000E+00  0.00000000000E+00  0.94816732733E+03  0.94816732733E+03  0.25500000920E-02 0. -1.
       -2   -1    0    0    0  501  0.00000000000E+00  0.00000000000E+00 -0.44534864431E+03  0.44534864432E+03  0.25500000920E-02 0.  1.
    10030    2    1    2    0    0  0.00000000000E+00  0.00000000000E+00  0.50281868302E+03  0.13935159716E+04  0.12996384633E+04 0.  0.
        1    1    3    3  502    0 -0.50724089106E+03  0.29601356397E+03 -0.46794371560E+02  0.58915792861E+03  0.50400001928E-02 0.  1.
       -1    1    3    3    0  502  0.50724089106E+03 -0.29601356397E+03  0.54961305458E+03  0.80435804304E+03  0.50400001928E-02 0. -1.
</event>
<event>
 5   0  0.2255875E-04  0.1253617E+04  0.7818609E-02  0.9067178E-01
       -3   -1    0    0    0  501  0.00000000000E+00  0.00000000000E+00  0.28280970113E+03  0.28280971917E+03  0.10100000352E+00 0. -1.
        3   -1    0    0  501    0  0.00000000000E+00  0.00000000000E+00 -0.13892340216E+04  0.13892340252E+04  0.10100000352E+00 0.  1.
    10030    2    1    2    0    0  0.00000000000E+00  0.00000000000E+00 -0.11064243204E+04  0.16720437444E+04  0.12536169696E+04 0.  0.
        4    1    3    3  502    0  0.43820657175E+03  0.41832697866E+03 -0.76771713128E+03  0.97796404186E+03  0.12699999809E+01 0.  1.
       -4    1    3    3    0  502 -0.43820657175E+03 -0.41832697866E+03 -0.33870718915E+03  0.69407970255E+03  0.12699999809E+01 0. -1.
</event>
<event>
 5   0  0.5384960E-04  0.1299625E+04  0.7818609E-02  0.9029863E-01
        2   -1    0    0  501    0  0.00000000000E+00  0.00000000000E+00  0.20370887642E+04  0.20370887642E+04  0.25500000920E-02 0.  1.
       -2   -1    0    0    0  501  0.00000000000E+00  0.00000000000E+00 -0.20728416548E+03  0.20728416550E+03  0.25500000920E-02 0. -1.
    10030    2    1    2    0    0  0.00000000000E+00  0.00000000000E+00  0.18298045987E+04  0.22443729297E+04  0.12996249375E+04 0.  0.
        3    1    3    3  502    0 -0.57130417802E+03  0.12028081558E+03  0.42219388675E+03  0.72048846391E+03  0.10100000352E+00 0. -1.
       -3    1    3    3    0  502  0.57130417802E+03 -0.12028081558E+03  0.14076107119E+04  0.15238844657E+04  0.10100000352E+00 0.  1.
</event>
<event>
 5   0  0.6007125E-04  0.1304049E+04  0.7818609E-02  0.9026360E-01
       -2   -1    0    0    0  501  0.00000000000E+00  0.00000000000E+00  0.86062421406E+03  0.86062421406E+03  0.25500000920E-02 0. -1.
        2   -1    0    0  501    0  0.00000000000E+00  0.00000000000E+00 -0.49398559831E+03  0.49398559832E+03  0.25500000920E-02 0.  1.
    10030    2    1    2    0    0  0.00000000000E+00  0.00000000000E+00  0.36663861574E+03  0.13546098124E+04  0.13040490287E+04 0.  0.
        5    1    3    3  502    0  0.47958904530E+03  0.11270237471E+03 -0.26033053584E+03  0.55722666440E+03  0.46999998093E+01 0.  1.
       -5    1    3    3    0  502 -0.47958904530E+03 -0.11270237471E+03  0.62696915159E+03  0.79738314797E+03  0.46999998093E+01 0. -1.
</event>
<event>
 5   0  0.5787604E-04  0.1295485E+04  0.7818609E-02  0.9033153E-01
       -2   -1    0    0    0  501  0.00000000000E+00  0.00000000000E+00  0.29872031329E+03  0.29872031330E+03  0.25500000920E-02 0. -1.
        2   -1    0    0  501    0  0.00000000000E+00  0.00000000000E+00 -0.14045599325E+04  0.14045599325E+04  0.25500000920E-02 0.  1.
    10030    2    1    2    0    0  0.00000000000E+00  0.00000000000E+00 -0.11058396192E+04  0.17032802458E+04  0.12954853655E+04 0.  0.
        4    1    3    3  502    0 -0.88868316165E+02  0.63961217526E+03 -0.61954250098E+03  0.89489431542E+03  0.12699999809E+01 0. -1.
       -4    1    3    3    0  502  0.88868316165E+02 -0.63961217526E+03 -0.48629711824E+03  0.80838593040E+03  0.12699999809E+01 0.  1.
</event>
<event>
 5   0  0.5957913E-04  0.1311470E+04  0.7818609E-02  0.9020518E-01
        2   -1    0    0  501    0  0.00000000000E+00  0.00000000000E+00  0.10571036967E+04  0.10571036967E+04  0.25500000920E-02 0.  1.
       -2   -1    0    0    0  501  0.00000000000E+00  0.00000000000E+00 -0.40676110108E+03  0.40676110109E+03  0.25500000920E-02 0. -1.
    10030    2    1    2    0    0  0.00000000000E+00  0.00000000000E+00  0.65034259563E+03  0.14638647978E+04  0.13114704170E+04 0.  0.
        1    1    3    3  502    0 -0.60747430744E+03  0.16939759962E+03  0.52567807156E+03  0.82101036284E+03  0.50400001928E-02 0. -1.
       -1    1    3    3    0  502  0.60747430744E+03 -0.16939759962E+03  0.12466452407E+03  0.64285443496E+03  0.50400001928E-02 0.  1.
</event>
<event>
 5   0  0.3263679E-04  0.1300394E+04  0.7818609E-02  0.9029253E-01
       -1   -1    0    0    0  501  0.00000000000E+00  0.00000000000E+00  0.45452349691E+03  0.45452349694E+03  0.50400001928E-02 0.  1.
        1   -1    0    0  501    0  0.00000000000E+00  0.00000000000E+00 -0.93010858793E+03  0.93010858794E+03  0.50400001928E-02 0. -1.
    10030    2    1    2    0    0  0.00000000000E+00  0.00000000000E+00 -0.47558509102E+03  0.13846320849E+04  0.13003941063E+04 0.  0.
        2    1    3    3  502    0  0.48400965491E+03 -0.43415440790E+03 -0.23875201116E+03  0.69264559393E+03  0.25500000920E-02 0. -1.
       -2    1    3    3    0  502 -0.48400965491E+03  0.43415440790E+03 -0.23683307986E+03  0.69198649096E+03  0.25500000920E-02 0.  1.
</event>
<event>
 5   0  0.3335747E-04  0.1300236E+04  0.7818609E-02  0.9029378E-01
        1   -1    0    0  501    0  0.00000000000E+00  0.00000000000E+00  0.18097446893E+04  0.18097446893E+04  0.50400001928E-02 0. -1.
       -1   -1    0    0    0  501  0.00000000000E+00  0.00000000000E+00 -0.23354310545E+03  0.23354310550E+03  0.50400001928E-02 0.  1.
    10030    2    1    2    0    0  0.00000000000E+00  0.00000000000E+00  0.15762015839E+04  0.20432877948E+04  0.13002359707E+04 0.  0.
        3    1    3    3  502    0  0.19823595615E+03  0.41310345535E+03  0.63343548344E+02  0.46256283298E+03  0.10100000352E+00 0.  1.
       -3    1    3    3    0  502 -0.19823595615E+03 -0.41310345535E+03  0.15128580355E+04  0.15807249618E+04  0.10100000352E+00 0. -1.
</event>
<event>
 5   0  0.2255875E-04  0.1302156E+04  0.7818609E-02  0.9027857E-01
       -3   -1    0    0    0  501  0.00000000000E+00  0.00000000000E+00  0.65416189142E+03  0.65416189922E+03  0.10100000352E+00 0.  1.
        3   -1    0    0  501    0  0.00000000000E+00  0.00000000000E+00 -0.64800828559E+03  0.64800829347E+03  0.10100000352E+00 0. -1.
    10030    2    1    2    0    0  0.00000000000E+00  0.00000000000E+00  0.61536058275E+01  0.13021701927E+04  0.13021556527E+04 0.  0.
        5    1    3    3  502    0  0.41901983181E+02 -0.64055449991E+03 -0.10561848794E+03  0.65057144000E+03  0.46999998093E+01 0.  1.
       -5    1    3    3    0  502 -0.41901983181E+02  0.64055449991E+03  0.11177209377E+03  0.65159875268E+03  0.46999998093E+01 0. -1.
</event>
<event>
 5   0  0.5384960E-04  0.1302790E+04  0.7818609E-02  0.9027355E-01
       -2   -1    0    0    0  501  0.00000000000E+00  0.00000000000E+00  0.78721239291E+03  0.78721239291E+03  0.25500000920E-02 0. -1.
        2   -1    0    0  501    0  0.00000000000E+00  0.00000000000E+00 -0.53901022722E+03  0.53901022723E+03  0.25500000920E-02 0.  1.
    10030    2    1    2    0    0  0.00000000000E+00  0.00000000000E+00  0.24820216569E+03  0.13262226201E+04  0.13027901301E+04 0.  0.
        3    1    3    3  502    0 -0.63178967008E+02 -0.51305869670E+02  0.78201620107E+03  0.78623992717E+03  0.10100000352E+00 0. -1.
       -3    1    3    3    0  502  0.63178967008E+02  0.51305869670E+02 -0.53381403539E+03  0.53998269297E+03  0.10100000352E+00 0.  1.
</event>
<event>
 5   0  0.5384960E-04  0.1322379E+04  0.7818609E-02  0.9012005E-01
       -2   -1    0    0    0  501  0.00000000000E+00  0.00000000000E+00  0.26310482982E+03  0.26310482984E+03  0.25500000920E-02 0. -1.
        2   -1    0    0  501    0  0.00000000000E+00  0.00000000000E+00 -0.16615861409E+04  0.16615861409E+04  0.25500000920E-02 0.  1.
    10030    2    1    2    0    0  0.00000000000E+00  0.00000000000E+00 -0.13984813110E+04  0.19246909707E+04  0.13223786732E+04 0.  0.
        3    1    3    3  502    0  0.23305902785E+03 -0.61693220559E+03 -0.76827186108E+03  0.10125035899E+04  0.10100000352E+00 0. -1.
       -3    1    3    3    0  502 -0.23305902785E+03  0.61693220559E+03 -0.63020944997E+03  0.91218738085E+03  0.10100000352E+00 0.  1.
</event>
<event>
 5   0  0.3263679E-04  0.1291437E+04  0.7818609E-02  0.9036383E-01
       -1   -1    0    0    0  501  0.00000000000E+00  0.00000000000E+00  0.65337141156E+03  0.65337141158E+03  0.50400001928E-02 0.  1.
        1   -1    0    0  501    0  0.00000000000E+00  0.00000000000E+00 -0.63815523365E+03  0.63815523367E+03  0.50400001928E-02 0. -1.
    10030    2    1    2    0    0  0.00000000000E+00  0.00000000000E+00  0.15216177909E+02  0.12915266453E+04  0.12914370071E+04 0.  0.
        2    1    3    3  502    0 -0.55804877725E+02  0.24222537901E+03 -0.58839054583E+03  0.63874153853E+03  0.25500000920E-02 0. -1.
       -2    1    3    3    0  502  0.55804877725E+02 -0.24222537901E+03  0.60360672374E+03  0.65278510673E+03  0.25500000920E-02 0.  1.
</event>
<event>
 5   0  0.3403833E-04  0.1293094E+04  0.7818609E-02  0.9035060E-01
       -1   -1    0    0    0  501  0.00000000000E+00  0.00000000000E+00  0.69280293971E+03  0.69280293973E+03  0.50400001928E-02 0.  1.
        1   -1    0    0  501    0  0.00000000000E+00  0.00000000000E+00 -0.60337904372E+03  0.60337904374E+03  0.50400001928E-02 0. -1.
    10030    2    1    2    0    0  0.00000000000E+00  0.00000000000E+00  0.89423895990E+02  0.12961819835E+04  0.12930936165E+04 0.  0.
        1    1    3    3  502    0  0.18056602028E+02  0.17057535571E+03  0.66957931994E+03  0.69120073681E+03  0.50400001928E-02 0.  1.
       -1    1    3    3    0  502 -0.18056602028E+02 -0.17057535571E+03 -0.58015542395E+03  0.60498124666E+03  0.50400001928E-02 0. -1.
</event>
<event>
 5   0  0.6007125E-04  0.1321734E+04  0.7818609E-02  0.9012505E-01
       -2   -1    0    0    0  501  0.00000000000E+00  0.00000000000E+00  0.44918585674E+03  0.44918585675E+03  0.25500000920E-02 0. -1.
        2   -1    0    0  501    0  0.00000000000E+00  0.00000000000E+00 -0.97230456636E+03  0.97230456636E+03  0.25500000920E-02 0.  1.
    10030    2    1    2    0    0  0.00000000000E+00  0.00000000000E+00 -0.52311870962E+03  0.14214904231E+04  0.13217344055E+04 0.  0.
        5    1    3    3  502    0 -0.54478137135E+03 -0.22502812050E+03 -0.58294240844E+03  0.82901648906E+03  0.46999998093E+01 0.  1.
       -5    1    3    3    0  502  0.54478137135E+03  0.22502812050E+03  0.59823698813E+02  0.59247393405E+03  0.46999998093E+01 0. -1.
</event>
<event>
 5   0  0.3274879E-04  0.1304720E+04  0.7818609E-02  0.9025830E-01
       -1   -1    0    0    0  501  0.00000000000E+00  0.00000000000E+00  0.49015539953E+03  0.49015539956E+03  0.50400001928E-02 0.  1.
        1   -1    0    0  501    0  0.00000000000E+00  0.00000000000E+00 -0.86824231751E+03  0.86824231752E+03  0.50400001928E-02 0. -1.
    10030    2    1    2    0    0  0.00000000000E+00  0.00000000000E+00 -0.37808691798E+03  0.13583977171E+04  0.13047201387E+04 0.  0.
        4    1    3    3  502    0 -0.35211216655E+03 -0.48984231433E+03  0.69452340881E+02  0.60725094590E+03  0.12699999809E+01 0.  1.
       -4    1    3    3    0  502  0.35211216655E+03  0.48984231433E+03 -0.44753925886E+03  0.75114677118E+03  0.12699999809E+01 0. -1.
</event>
<event>
 5   0  0.3403833E-04  0.1297118E+04  0.7818609E-02  0.9031854E-01
        1   -1    0    0  501    0  0.00000000000E+00  0.00000000000E+00  0.81391070477E+03  0.81391070478E+03  0.50400001928E-02 0.  1.
       -1   -1    0    0    0  501  0.00000000000E+00  0.00000000000E+00 -0.51679948924E+03  0.51679948927E+03  0.50400001928E-02 0. -1.
    10030    2    1    2    0    0  0.00000000000E+00  0.00000000000E+00  0.29711121553E+03  0.13307101941E+04  0.12971177842E+04 0.  0.
        1    1    3    3  502    0  0.17381050143E+03  0.19762545466E+03 -0.45955406832E+03  0.52958082713E+03  0.50400001928E-02 0. -1.
       -1    1    3    3    0  502 -0.17381050143E+03 -0.19762545466E+03  0.75666528384E+03  0.80112936692E+03  0.50400001928E-02 0.  1.
</event>
<event>
 5   0  0.5787604E-04  0.1287814E+04  0.7818609E-02  0.9039285E-01
        2   -1    0    0  501    0  0.00000000000E+00  0.00000000000E+00  0.83309483857E+03  0.83309483858E+03  0.25500000920E-02 0.  1.
       -2   -1    0    0    0  501  0.00000000000E+00  0.00000000000E+00 -0.49768181946E+03  0.49768181947E+03  0.25500000920E-02 0. -1.
    10030    2    1    2    0    0  0.00000000000E+00  0.00000000000E+00  0.33541301911E+03  0.13307766580E+04  0.12878138919E+04 0.  0.
        4    1    3    3  502    0 -0.55728178644E+03 -0.70517973342E+02 -0.15756226099E+03  0.58340659325E+03  0.12699999809E+01 0. -1.
       -4    1    3    3    0  502  0.55728178644E+03  0.70517973342E+02  0.49297528010E+03  0.74737006479E+03  0.12699999809E+01 0.  1.
</event>
<event>
 5   0  0.3403833E-04  0.1269974E+04  0.7818609E-02  0.9053721E-01
       -1   -1    0    0    0  501  0.00000000000E+00  0.00000000000E+00  0.21248582514E+03  0.21248582520E+03  0.50400001928E-02 0. -1.
        1   -1    0    0  501    0  0.00000000000E+00  0.00000000000E+00 -0.18975773450E+04  0.18975773450E+04  0.50400001928E-02 0.  1.
    10030    2    1    2    0    0  0.00000000000E+00  0.00000000000E+00 -0.16850915199E+04  0.21100631702E+04  0.12699736816E+04 0.  0.
        1    1    3    3  502    0  0.24505760180E+03 -0.62313373232E+02 -0.18103216800E+04  0.18278951747E+04  0.50400001928E-02 0.  1.
       -1    1    3    3    0  502 -0.24505760180E+03  0.62313373232E+02  0.12523016008E+03  0.28216799554E+03  0.50400001928E-02 0. -1.
</event>
<event>
 5   0  0.3403833E-04  0.1300197E+04  0.7818609E-02  0.9029409E-01
       -1   -1    0    0    0  501  0.00000000000E+00  0.00000000000E+00  0.64212514048E+03  0.64212514050E+03  0.50400001928E-02 0. -1.
        1   -1    0    0  501    0  0.00000000000E+00  0.00000000000E+00 -0.65817102038E+03  0.65817102040E+03  0.50400001928E-02 0.  1.
    10030    2    1    2    0    0  0.00000000000E+00  0.00000000000E+00 -0.16045879899E+02  0.13002961609E+04  0.13001971527E+04 0.  0.
        1    1    3    3  502    0  0.36252889019E+02 -0.64639073627E+03  0.51082347513E+02  0.64941871096E+03  0.50400001928E-02 0. -1.
       -1    1    3    3    0  502 -0.36252889019E+02  0.64639073627E+03 -0.67128227413E+02  0.65087744994E+03  0.50400001928E-02 0.  1.
</event>
<event>
 5   0  0.3403833E-04  0.1320695E+04  0.7818609E-02  0.9013313E-01
        1   -1    0    0  501    0  0.00000000000E+00  0.00000000000E+00  0.12883639461E+04  0.12883639461E+04  0.50400001928E-02 0.  1.
       -1   -1    0    0    0  501  0.00000000000E+00  0.00000000000E+00 -0.33845950737E+03  0.33845950741E+03  0.50400001928E-02 0. -1.
    10030    2    1    2    0    0  0.00000000000E+00  0.00000000000E+00  0.94990443871E+03  0.16268234535E+04  0.13206953116E+04 0.  0.
        1    1    3    3  502    0  0.35614188755E+03 -0.55589674547E+03  0.49240681219E+03  0.82360348736E+03  0.50400001928E-02 0.  1.
       -1    1    3    3    0  502 -0.35614188755E+03  0.55589674547E+03  0.45749762652E+03  0.80321996613E+03  0.50400001928E-02 0. -1.
</event>
<event>
 5   0  0.3337520E-04  0.1295141E+04  0.7818609E-02  0.9033427E-01
       -1   -1    0    0    0  501  0.00000000000E+00  0.00000000000E+00  0.37602254969E+03  0.37602254973E+03  0.50400001928E-02 0. -1.
        1   -1    0    0  501    0  0.00000000000E+00  0.00000000000E+00 -0.11152193362E+04  0.11152193362E+04  0.50400001928E-02 0.  1.
    10030    2    1    2    0    0  0.00000000000E+00  0.00000000000E+00 -0.73919678650E+03  0.14912418859E+04  0.12951411016E+04 0.  0.
        5    1    3    3  502    0  0.27785846762E+03  0.47901382502E+03 -0.75607869191E+03  0.93719616461E+03  0.46999998093E+01 0.  1.
       -5    1    3    3    0  502 -0.27785846762E+03 -0.47901382502E+03  0.16881905415E+02  0.55404572132E+03  0.46999998093E+01 0. -1.
</event>
<event>
 5   0  0.3337520E-04  0.1298934E+04  0.7818609E-02  0.9030411E-01
       -1   -1    0    0    0  501  0.00000000000E+00  0.00000000000E+00  0.13451811815E+04  0.13451811815E+04  0.50400001928E-02 0.  1.
        1   -1    0    0  501    0  0.00000000000E+00  0.00000000000E+00 -0.31356897131E+03  0.31356897135E+03  0.50400001928E-02 0. -1.
    10030    2    1    2    0    0  0.00000000000E+00  0.00000000000E+00  0.10316122102E+04  0.16587501528E+04  0.12989335308E+04 0.  0.
        5    1    3    3  502    0 -0.53755837751E+02  0.63797629230E+03  0.65500333502E+03  0.91594481194E+03  0.46999998093E+01 0.  1.
       -5    1    3    3    0  502  0.53755837751E+02 -0.63797629230E+03  0.37660887514E+03  0.74280534090E+03  0.46999998093E+01 0. -1.
</event>
<event>
 5   0  0.3263679E-04  0.1299683E+04  0.7818609E-02  0.9029817E-01
       -1   -1    0    0    0  501  0.00000000000E+00  0.00000000000E+00  0.51729094806E+03  0.51729094808E+03  0.50400001928E-02 0.  1.
        1   -1    0    0  501    0  0.00000000000E+00  0.00000000000E+00 -0.81635649540E+03  0.81635649542E+03  0.50400001928E-02 0. -1.
    10030    2    1    2    0    0  0.00000000000E+00  0.00000000000E+00 -0.29906554735E+03  0.13336474435E+04  0.12996827697E+04 0.  0.
        2    1    3    3  502    0 -0.83597076029E+01  0.50718213053E+03  0.26727209734E+03  0.57335675828E+03  0.25500000920E-02 0.  1.
       -2    1    3    3    0  502  0.83597076029E+01 -0.50718213053E+03 -0.56633764469E+03  0.76029068522E+03  0.25500000920E-02 0. -1.
</event>
<event>
 5   0  0.3263679E-04  0.1300428E+04  0.7818609E-02  0.9029226E-01
        1   -1    0    0  501    0  0.00000000000E+00  0.00000000000E+00  0.45515543211E+03  0.45515543214E+03  0.50400001928E-02 0.  1.
       -1   -1    0    0    0  501  0.00000000000E+00  0.00000000000E+00 -0.92886588425E+03  0.92886588426E+03  0.50400001928E-02 0. -1.
    10030    2    1    2    0    0  0.00000000000E+00  0.00000000000E+00 -0.47371045214E+03  0.13840213164E+04  0.13004281648E+04 0.  0.
        2    1    3    3  502    0  0.12632789144E+03  0.71778019633E+01  0.44192604920E+03  0.45968346714E+03  0.25500000920E-02 0.  1.
       -2    1    3    3    0  502 -0.12632789144E+03 -0.71778019633E+01 -0.91563650134E+03  0.92433784926E+03  0.25500000920E-02 0. -1.
</event>
<event>
 5   0  0.3263679E-04  0.1299716E+04  0.7818609E-02  0.9029791E-01
        1   -1    0    0  501    0  0.00000000000E+00  0.00000000000E+00  0.17049686551E+04  0.17049686551E+04  0.50400001928E-02 0. -1.
       -1   -1    0    0    0  501  0.00000000000E+00  0.00000000000E+00 -0.24769678688E+03  0.24769678694E+03  0.50400001928E-02 0.  1.
    10030    2    1    2    0    0  0.00000000000E+00  0.00000000000E+00  0.14572718682E+04  0.19526654420E+04  0.12997157499E+04 0.  0.
        2    1    3    3  502    0 -0.55578351818E+02 -0.41402934814E+02 -0.24212880343E+03  0.25185216628E+03  0.25500000920E-02 0.  1.
       -2    1    3    3    0  502  0.55578351818E+02  0.41402934814E+02  0.16994006716E+04  0.17008132757E+04  0.25500000920E-02 0. -1.
</event>
<event>
 5   0  0.5384960E-04  0.1295542E+04  0.7818609E-02  0.9033108E-01
       -2   -1    0    0    0  501  0.00000000000E+00  0.00000000000E+00  0.19486234176E+03  0.19486234178E+03  0.25500000920E-02 0. -1.
        2   -1    0    0  501    0  0.00000000000E+00  0.00000000000E+00 -0.21533535504E+04  0.21533535504E+04  0.25500000920E-02 0.  1.
    10030    2    1    2    0    0  0.00000000000E+00  0.00000000000E+00 -0.19584912086E+04  0.23482158921E+04  0.12955423814E+04 0.  0.
        3    1    3    3  502    0  0.57294614495E+03  0.29203665095E+03 -0.83820738085E+03  0.10564773135E+04  0.10100000352E+00 0.  1.
       -3    1    3    3    0  502 -0.57294614495E+03 -0.29203665095E+03 -0.11202838277E+04  0.12917385786E+04  0.10100000352E+00 0. -1.
</event>
<event>
 5   0  0.3403833E-04  0.1299167E+04  0.7818609E-02  0.9030226E-01
        1   -1    0    0  501    0  0.00000000000E+00  0.00000000000E+00  0.44393300511E+03  0.44393300514E+03  0.50400001928E-02 0. -1.
       -1   -1    0    0    0  501  0.00000000000E+00  0.00000000000E+00 -0.95050069707E+03  0.95050069709E+03  0.50400001928E-02 0.  1.
    10030    2    1    2    0    0  0.00000000000E+00  0.00000000000E+00 -0.50656769196E+03  0.13944337022E+04  0.12991668574E+04 0.  0.
        1    1    3    3  502    0  0.34388067083E+03  0.35702499649E+03  0.19730719421E+03  0.53352684356E+03  0.50400001928E-02 0. -1.
       -1    1    3    3    0  502 -0.34388067083E+03 -0.35702499649E+03 -0.70387488617E+03  0.86090685866E+03  0.50400001928E-02 0.  1.
</event>
<event>
 5   0  0.3337520E-04  0.1296450E+04  0.7818609E-02  0.9032385E-01
        1   -1    0    0  501    0  0.00000000000E+00  0.00000000000E+00  0.66860177984E+03  0.66860177986E+03  0.50400001928E-02 0. -1.
       -1   -1    0    0    0  501  0.00000000000E+00  0.00000000000E+00 -0.62846964440E+03  0.62846964442E+03  0.50400001928E-02 0.  1.
    10030    2    1    2    0    0  0.00000000000E+00  0.00000000000E+00  0.40132135438E+02  0.12970714243E+04  0.12964504199E+04 0.  0.
        5    1    3    3  502    0 -0.47423788538E+03 -0.33299001161E+03 -0.27057250264E+03  0.63954318771E+03  0.46999998093E+01 0.  1.
       -5    1    3    3    0  502  0.47423788538E+03  0.33299001161E+03  0.31070463808E+03  0.65752823657E+03  0.46999998093E+01 0. -1.
</event>
<event>
 5   0  0.5384960E-04  0.1305592E+04  0.7818609E-02  0.9025142E-01
       -2   -1    0    0    0  501  0.00000000000E+00  0.00000000000E+00  0.26435657060E+03  0.26435657061E+03  0.25500000920E-02 0.  1.
        2   -1    0    0  501    0  0.00000000000E+00  0.00000000000E+00 -0.16119993476E+04  0.16119993476E+04  0.25500000920E-02 0. -1.
    10030    2    1    2    0    0  0.00000000000E+00  0.00000000000E+00 -0.13476427770E+04  0.18763559183E+04  0.13055920027E+04 0.  0.
        3    1    3    3  502    0 -0.30173710437E+03  0.39967192708E+03 -0.71993080017E+02  0.50593076920E+03  0.10100000352E+00 0.  1.
       -3    1    3    3    0  502  0.30173710437E+03 -0.39967192708E+03 -0.12756496970E+04  0.13704251491E+04  0.10100000352E+00 0. -1.
</event>
<event>
 5   0  0.3274879E-04  0.1300321E+04  0.7818609E-02  0.9029310E-01
        1   -1    0    0  501    0  0.00000000000E+00  0.00000000000E+00  0.60972656968E+03  0.60972656970E+03  0.50400001928E-02 0.  1.
       -1   -1    0    0    0  501  0.00000000000E+00  0.00000000000E+00 -0.69327617250E+03  0.69327617251E+03  0.50400001928E-02 0. -1.
    10030    2    1    2    0    0  0.00000000000E+00  0.00000000000E+00 -0.83549602815E+02  0.13030027422E+04  0.13003213488E+04 0.  0.
        4    1    3    3  502    0 -0.15382569840E+03 -0.15075967203E+03  0.57293657024E+03  0.61208557459E+03  0.12699999809E+01 0.  1.
       -4    1    3    3    0  502  0.15382569840E+03  0.15075967203E+03 -0.65648617306E+03  0.69091716762E+03  0.12699999809E+01 0. -1.
</event>
<event>
 5   0  0.5787604E-04  0.1290879E+04  0.7818609E-02  0.9036830E-01
        2   -1    0    0  501    0  0.00000000000E+00  0.00000000000E+00  0.61241420737E+03  0.61241420737E+03  0.25500000920E-02 0. -1.
       -2   -1    0    0    0  501  0.00000000000E+00  0.00000000000E+00 -0.68024582847E+03  0.68024582847E+03  0.25500000920E-02 0.  1.
    10030    2    1    2    0    0  0.00000000000E+00  0.00000000000E+00 -0.67831621101E+02  0.12926600358E+04  0.12908790956E+04 0.  0.
        4    1    3    3  502    0  0.19450262482E+03 -0.25250732083E+03  0.52810656079E+03  0.61683820454E+03  0.12699999809E+01 0. -1.
       -4    1    3    3    0  502 -0.19450262482E+03  0.25250732083E+03 -0.59593818189E+03  0.67582183130E+03  0.12699999809E+01 0.  1.
</event>
<event>
 5   0  0.5957913E-04  0.1306682E+04  0.7818609E-02  0.9024283E-01
        2   -1    0    0  501    0  0.00000000000E+00  0.00000000000E+00  0.89097797040E+03  0.89097797040E+03  0.25500000920E-02 0. -1.
       -2   -1    0    0    0  501  0.00000000000E+00  0.00000000000E+00 -0.47908537588E+03  0.47908537589E+03  0.25500000920E-02 0.  1.
    10030    2    1    2    0    0  0.00000000000E+00  0.00000000000E+00  0.41189259452E+03  0.13700633463E+04  0.13066820820E+04 0.  0.
        1    1    3    3  502    0 -0.54418824036E+03  0.13619300669E+03 -0.14520935465E+03  0.57946107093E+03  0.50400001928E-02 0.  1.
       -1    1    3    3    0  502  0.54418824036E+03 -0.13619300669E+03  0.55710194916E+03  0.79060227536E+03  0.50400001928E-02 0. -1.
</event>
<event>
 5   0  0.3335747E-04  0.1301913E+04  0.7818609E-02  0.9028050E-01
        1   -1    0    0  501    0  0.00000000000E+00  0.00000000000E+00  0.81066201901E+03  0.81066201902E+03  0.50400001928E-02 0.  1.
       -1   -1    0    0    0  501  0.00000000000E+00  0.00000000000E+00 -0.52271367416E+03  0.52271367418E+03  0.50400001928E-02 0. -1.
    10030    2    1    2    0    0  0.00000000000E+00  0.00000000000E+00  0.28794834485E+03  0.13333756932E+04  0.13019126276E+04 0.  0.
        3    1    3    3  502    0  0.53545714526E+03  0.19608992006E+03  0.46553400936E+03  0.73613010754E+03  0.10100000352E+00 0.  1.
       -3    1    3    3    0  502 -0.53545714526E+03 -0.19608992006E+03 -0.17758566451E+03  0.59724558567E+03  0.10100000352E+00 0. -1.
</event>
<event>
 5   0  0.5384960E-04  0.1298441E+04  0.7818609E-02  0.9030802E-01
        2   -1    0    0  501    0  0.00000000000E+00  0.00000000000E+00  0.16433510917E+04  0.16433510917E+04  0.25500000920E-02 0. -1.
       -2   -1    0    0    0  501  0.00000000000E+00  0.00000000000E+00 -0.25648030860E+03  0.25648030861E+03  0.25500000920E-02 0.  1.
    10030    2    1    2    0    0  0.00000000000E+00  0.00000000000E+00  0.13868707831E+04  0.18998314003E+04  0.12984409038E+04 0.  0.
        3    1    3    3  502    0  0.33090232852E+03  0.75154088795E+01 -0.12375730335E+03  0.35336767357E+03  0.10100000352E+00 0.  1.
       -3    1    3    3    0  502 -0.33090232852E+03 -0.75154088795E+01  0.15106280864E+04  0.15464637267E+04  0.10100000352E+00 0. -1.
</event>
<event>
 5   0  0.3274879E-04  0.1320842E+04  0.7818609E-02  0.9013199E-01
        1   -1    0    0  501    0  0.00000000000E+00  0.00000000000E+00  0.88357932630E+03  0.88357932631E+03  0.50400001928E-02 0.  1.
       -1   -1    0    0    0  501  0.00000000000E+00  0.00000000000E+00 -0.49362367916E+03  0.49362367919E+03  0.50400001928E-02 0. -1.
    10030    2    1    2    0    0  0.00000000000E+00  0.00000000000E+00  0.38995564714E+03  0.13772030055E+04  0.13208416679E+04 0.  0.
        4    1    3    3  502    0 -0.50462124657E+03  0.23267965438E+02 -0.24858033438E+03  0.56300781189E+03  0.12699999809E+01 0. -1.
       -4    1    3    3    0  502  0.50462124657E+03 -0.23267965438E+02  0.63853598152E+03  0.81419519361E+03  0.12699999809E+01 0.  1.
</event>
<event>
 5   0  0.6052864E-04  0.1313162E+04  0.7818609E-02  0.9019192E-01
       -2   -1    0    0    0  501  0.00000000000E+00  0.00000000000E+00  0.30754181659E+03  0.30754181660E+03  0.25500000920E-02 0. -1.
        2   -1    0    0  501    0  0.00000000000E+00  0.00000000000E+00 -0.14017561726E+04  0.14017561726E+04  0.25500000920E-02 0.  1.
    10030    2    1    2    0    0  0.00000000000E+00  0.00000000000E+00 -0.10942143560E+04  0.17092979892E+04  0.13131620460E+04 0.  0.
        2    1    3    3  502    0  0.18092465405E+03 -0.19637806128E+03  0.23367587997E+03  0.35482740915E+03  0.25500000920E-02 0. -1.
       -2    1    3    3    0  502 -0.18092465405E+03  0.19637806128E+03 -0.13278902360E+04  0.13544705801E+04  0.25500000920E-02 0.  1.
</event>
<event>
 5   0  0.3274879E-04  0.1299747E+04  0.7818609E-02  0.9029766E-01
       -1   -1    0    0    0  501  0.00000000000E+00  0.00000000000E+00  0.35114636708E+03  0.35114636712E+03  0.50400001928E-02 0. -1.
        1   -1    0    0  501    0  0.00000000000E+00  0.00000000000E+00 -0.12027335331E+04  0.12027335331E+04  0.50400001928E-02 0.  1.
    10030    2    1    2    0    0  0.00000000000E+00  0.00000000000E+00 -0.85158716598E+03  0.15538799002E+04  0.12997469150E+04 0.  0.
        4    1    3    3  502    0  0.42326700726E+03  0.35711032359E+03 -0.83236200232E+03  0.99975539931E+03  0.12699999809E+01 0.  1.
       -4    1    3    3    0  502 -0.42326700726E+03 -0.35711032359E+03 -0.19225163657E+02  0.55412450088E+03  0.12699999809E+01 0. -1.
</event>
<event>
 5   0  0.3274879E-04  0.1299082E+04  0.7818609E-02  0.9030293E-01
       -1   -1    0    0    0  501  0.00000000000E+00  0.00000000000E+00  0.12349712911E+04  0.12349712912E+04  0.50400001928E-02 0.  1.
        1   -1    0    0  501    0  0.00000000000E+00  0.00000000000E+00 -0.34163026545E+03  0.34163026548E+03  0.50400001928E-02 0. -1.
    10030    2    1    2    0    0  0.00000000000E+00  0.00000000000E+00  0.89334102569E+03  0.15766015566E+04  0.12990820914E+04 0.  0.
        4    1    3    3  502    0  0.98745343735E+02  0.14642688928E+03 -0.31192956968E+03  0.35845940656E+03  0.12699999809E+01 0. -1.
       -4    1    3    3    0  502 -0.98745343735E+02 -0.14642688928E+03  0.12052705954E+04  0.12181421501E+04  0.12699999809E+01 0.  1.
</event>
<event>
 5   0  0.3263679E-04  0.1297872E+04  0.7818609E-02  0.9031255E-01
       -1   -1    0    0    0  501  0.00000000000E+00  0.00000000000E+00  0.37543798023E+03  0.37543798026E+03  0.50400001928E-02 0.  1.
        1   -1    0    0  501    0  0.00000000000E+00  0.00000000000E+00 -0.11216707170E+04  0.11216707170E+04  0.50400001928E-02 0. -1.
    10030    2    1    2    0    0  0.00000000000E+00  0.00000000000E+00 -0.74623273676E+03  0.14971086973E+04  0.12978717787E+04 0.  0.
        2    1    3    3  502    0  0.10478262241E+03  0.55483179657E+03 -0.74205956437E+03  0.93245381522E+03  0.25500000920E-02 0. -1.
       -2    1    3    3    0  502 -0.10478262241E+03 -0.55483179657E+03 -0.41731723914E+01  0.56465488204E+03  0.25500000920E-02 0.  1.
</event>
<event>
 5   0  0.6052864E-04  0.1302025E+04  0.7818609E-02  0.9027961E-01
       -2   -1    0    0    0  501  0.00000000000E+00  0.00000000000E+00  0.27636113777E+03  0.27636113778E+03  0.25500000920E-02 0. -1.
        2   -1    0    0  501    0  0.00000000000E+00  0.00000000000E+00 -0.15335631363E+04  0.15335631363E+04  0.25500000920E-02 0.  1.
    10030    2    1    2    0    0  0.00000000000E+00  0.00000000000E+00 -0.12572019985E+04  0.18099242741E+04  0.13020249663E+04 0.  0.
        2    1    3    3  502    0 -0.26707483014E+03 -0.20907215676E+03 -0.14010390335E+04  0.14415098006E+04  0.25500000920E-02 0.  1.
       -2    1    3    3    0  502  0.26707483014E+03  0.20907215676E+03  0.14383703502E+03  0.36841447349E+03  0.25500000920E-02 0. -1.
</event>
<event>
 5   0  0.5957913E-04  0.1293732E+04  0.7818609E-02  0.9034551E-01
        2   -1    0    0  501    0  0.00000000000E+00  0.00000000000E+00  0.13087074118E+04  0.13087074118E+04  0.25500000920E-02 0.  1.
       -2   -1    0    0    0  501  0.00000000000E+00  0.00000000000E+00 -0.31973184887E+03  0.31973184888E+03  0.25500000920E-02 0. -1.
    10030    2    1    2    0    0  0.00000000000E+00  0.00000000000E+00  0.98897556293E+03  0.16284392607E+04  0.12937317194E+04 0.  0.
        1    1    3    3  502    0 -0.29765819752E+03  0.58424053723E+02 -0.22465781902E+03  0.37747173176E+03  0.50400001928E-02 0. -1.
       -1    1    3    3    0  502  0.29765819752E+03 -0.58424053723E+02  0.12136333820E+04  0.12509675289E+04  0.50400001928E-02 0.  1.
</event>
<event>
 5   0  0.6007125E-04  0.1313860E+04  0.7818609E-02  0.9018646E-01
       -2   -1    0    0    0  501  0.00000000000E+00  0.00000000000E+00  0.81817352885E+03  0.81817352886E+03  0.25500000920E-02 0. -1.
        2   -1    0    0  501    0  0.00000000000E+00  0.00000000000E+00 -0.52746389993E+03  0.52746389994E+03  0.25500000920E-02 0.  1.
    10030    2    1    2    0    0  0.00000000000E+00  0.00000000000E+00  0.29070962892E+03  0.13456374288E+04  0.13138599626E+04 0.  0.
        5    1    3    3  502    0  0.27617053134E+03  0.51656097940E+03 -0.15920848652E+03  0.60702128463E+03  0.46999998093E+01 0.  1.
       -5    1    3    3    0  502 -0.27617053134E+03 -0.51656097940E+03  0.44991811543E+03  0.73861614416E+03  0.46999998093E+01 0. -1.
</event>
<event>
 5   0  0.5957913E-04  0.1303090E+04  0.7818609E-02  0.9027118E-01
        2   -1    0    0  501    0  0.00000000000E+00  0.00000000000E+00  0.10805011509E+04  0.10805011509E+04  0.25500000920E-02 0. -1.
       -2   -1    0    0    0  501  0.00000000000E+00  0.00000000000E+00 -0.39288334980E+03  0.39288334981E+03  0.25500000920E-02 0.  1.
    10030    2    1    2    0    0  0.00000000000E+00  0.00000000000E+00  0.68761780107E+03  0.14733845007E+04  0.13030900378E+04 0.  0.
        1    1    3    3  502    0 -0.43913443227E+03  0.38919027163E+03  0.66402003012E+03  0.88613244922E+03  0.50400001928E-02 0. -1.
       -1    1    3    3    0  502  0.43913443227E+03 -0.38919027163E+03  0.23597770944E+02  0.58725205147E+03  0.50400001928E-02 0.  1.
</event>
<event>
 5   0  0.3403833E-04  0.1298554E+04  0.7818609E-02  0.9030712E-01
        1   -1    0    0  501    0  0.00000000000E+00  0.00000000000E+00  0.73592994266E+03  0.73592994268E+03  0.50400001928E-02 0. -1.
       -1   -1    0    0    0  501  0.00000000000E+00  0.00000000000E+00 -0.57282737576E+03  0.57282737578E+03  0.50400001928E-02 0.  1.
    10030    2    1    2    0    0  0.00000000000E+00  0.00000000000E+00  0.16310256690E+03  0.13087573185E+04  0.12985543005E+04 0.  0.
        1    1    3    3  502    0  0.22804494807E+03 -0.60411322797E+03  0.13168878991E+02  0.64585657073E+03  0.50400001928E-02 0.  1.
       -1    1    3    3    0  502 -0.22804494807E+03  0.60411322797E+03  0.14993368791E+03  0.66290074774E+03  0.50400001928E-02 0. -1.
</event>
<event>
 5   0  0.6007125E-04  0.1299425E+04  0.7818609E-02  0.9030021E-01
       -2   -1    0    0    0  501  0.00000000000E+00  0.00000000000E+00  0.27671414844E+03  0.27671414845E+03  0.25500000920E-02 0.  1.
        2   -1    0    0  501    0  0.00000000000E+00  0.00000000000E+00 -0.15254971161E+04  0.15254971161E+04  0.25500000920E-02 0. -1.
    10030    2    1    2    0    0  0.00000000000E+00  0.00000000000E+00 -0.12487829677E+04  0.18022112646E+04  0.12994254660E+04 0.  0.
        5    1    3    3  502    0 -0.22975030054E+03 -0.15908044174E+03  0.18907862735E+03  0.33743829786E+03  0.46999998093E+01 0.  1.
       -5    1    3    3    0  502  0.22975030054E+03  0.15908044174E+03 -0.14378615950E+04  0.14647729667E+04  0.46999998093E+01 0. -1.
</event>
<event>
 5   0  0.2255875E-04  0.1300075E+04  0.7818609E-02  0.9029506E-01
       -3   -1    0    0    0  501  0.00000000000E+00  0.00000000000E+00  0.18144387834E+04  0.18144387862E+04  0.10100000352E+00 0. -1.
        3   -1    0    0  501    0  0.00000000000E+00  0.00000000000E+00 -0.23288129639E+03  0.23288131829E+03  0.10100000352E+00 0.  1.
    10030    2    1    2    0    0  0.00000000000E+00  0.00000000000E+00  0.15815574870E+04  0.20473201045E+04  0.13000752000E+04 0.  0.
        2    1    3    3  502    0  0.40493505435E+03 -0.19289276790E+03  0.49851532519E+02  0.45129280235E+03  0.25500000920E-02 0.  1.
       -2    1    3    3    0  502 -0.40493505435E+03  0.19289276790E+03  0.15317059545E+04  0.15960273021E+04  0.25500000920E-02 0. -1.
</event>
<event>
 5   0  0.5787604E-04  0.1303426E+04  0.7818609E-02  0.9026853E-01
        2   -1    0    0  501    0  0.00000000000E+00  0.00000000000E+00  0.70740759815E+03  0.70740759816E+03  0.25500000920E-02 0. -1.
       -2   -1    0    0    0  501  0.00000000000E+00  0.00000000000E+00 -0.60040316720E+03  0.60040316720E+03  0.25500000920E-02 0.  1.
    10030    2    1    2    0    0  0.00000000000E+00  0.00000000000E+00  0.10700443095E+03  0.13078107654E+04  0.13034258896E+04 0.  0.
        4    1    3    3  502    0  0.22454283002E+03 -0.41307799129E+03  0.50632438742E+03  0.69095506916E+03  0.12699999809E+01 0. -1.
       -4    1    3    3    0  502 -0.22454283002E+03  0.41307799129E+03 -0.39931995647E+03  0.61685569620E+03  0.12699999809E+01 0.  1.
</event>
<event>
 5   0  0.5787604E-04  0.1297119E+04  0.7818609E-02  0.9031853E-01
        2   -1    0    0  501    0  0.00000000000E+00  0.00000000000E+00  0.15228656349E+04  0.15228656349E+04  0.25500000920E-02 0.  1.
       -2   -1    0    0    0  501  0.00000000000E+00  0.00000000000E+00 -0.27620909071E+03  0.27620909072E+03  0.25500000920E-02 0. -1.
    10030    2    1    2    0    0  0.00000000000E+00  0.00000000000E+00  0.12466565442E+04  0.17990747257E+04  0.12971188570E+04 0.  0.
        4    1    3    3  502    0 -0.20805358682E+02  0.23440259088E+03  0.14615611851E+04  0.14803851351E+04  0.12699999809E+01 0.  1.
       -4    1    3    3    0  502  0.20805358682E+02 -0.23440259088E+03 -0.21490464087E+03  0.31868959055E+03  0.12699999809E+01 0. -1.
</event>
<event>
 5   0  0.2255875E-04  0.1334483E+04  0.7818609E-02  0.9002658E-01
       -4   -1    0    0    0  501  0.00000000000E+00  0.00000000000E+00  0.44043188146E+03  0.44043371250E+03  0.12699999809E+01 0.  1.
        4   -1    0    0  501    0  0.00000000000E+00  0.00000000000E+00 -0.10108469866E+04  0.10108477844E+04  0.12699999809E+01 0. -1.
    10030    2    1    2    0    0  0.00000000000E+00  0.00000000000E+00 -0.57041510515E+03  0.14512814969E+04  0.13344828928E+04 0.  0.
        5    1    3    3  502    0  0.20687931551E+03 -0.33028023163E+02 -0.97413386272E+03  0.99641797154E+03  0.46999998093E+01 0. -1.
       -5    1    3    3    0  502 -0.20687931551E+03  0.33028023163E+02  0.40371875757E+03  0.45486352537E+03  0.46999998093E+01 0.  1.
</event>
<event>
 5   0  0.3403833E-04  0.1269041E+04  0.7818609E-02  0.9054482E-01
        1   -1    0    0  501    0  0.00000000000E+00  0.00000000000E+00  0.20385300085E+04  0.20385300085E+04  0.50400001928E-02 0. -1.
       -1   -1    0    0    0  501  0.00000000000E+00  0.00000000000E+00 -0.19750334412E+03  0.19750334418E+03  0.50400001928E-02 0.  1.
    10030    2    1    2    0    0  0.00000000000E+00  0.00000000000E+00  0.18410266643E+04  0.22360333527E+04  0.12690413608E+04 0.  0.
        1    1    3    3  502    0 -0.59282697294E+03  0.18527529055E+03  0.69182313140E+03  0.92972576510E+03  0.50400001928E-02 0.  1.
       -1    1    3    3    0  502  0.59282697294E+03 -0.18527529055E+03  0.11492035329E+04  0.13063075876E+04  0.50400001928E-02 0. -1.
</event>
<event>
 5   0  0.3337520E-04  0.1301425E+04  0.7818609E-02  0.9028436E-01
        1   -1    0    0  501    0  0.00000000000E+00  0.00000000000E+00  0.13947988845E+04  0.13947988846E+04  0.50400001928E-02 0.  1.
       -1   -1    0    0    0  501  0.00000000000E+00  0.00000000000E+00 -0.30357554503E+03  0.30357554507E+03  0.50400001928E-02 0. -1.
    10030    2    1    2    0    0  0.00000000000E+00  0.00000000000E+00  0.10912233395E+04  0.16983744296E+04  0.13014251137E+04 0.  0.
        5    1    3    3  502    0  0.14971137562E+02 -0.37371249515E+03 -0.14926188871E+03  0.40272368370E+03  0.46999998093E+01 0. -1.
       -5    1    3    3    0  502 -0.14971137562E+02  0.37371249515E+03  0.12404852282E+04  0.12956507459E+04  0.46999998093E+01 0.  1.
</event>
<event>
 5   0  0.5787604E-04  0.1301641E+04  0.7818609E-02  0.9028265E-01
       -2   -1    0    0    0  501  0.00000000000E+00  0.00000000000E+00  0.42553336459E+03  0.42553336460E+03  0.25500000920E-02 0. -1.
        2   -1    0    0  501    0  0.00000000000E+00  0.00000000000E+00 -0.99537954692E+03  0.99537954693E+03  0.25500000920E-02 0.  1.
    10030    2    1    2    0    0  0.00000000000E+00  0.00000000000E+00 -0.56984618233E+03  0.14209129115E+04  0.13016408224E+04 0.  0.
        4    1    3    3  502    0  0.60286313692E+01  0.65010158281E+03 -0.25222543134E+03  0.69734331106E+03  0.12699999809E+01 0.  1.
       -4    1    3    3    0  502 -0.60286313692E+01 -0.65010158281E+03 -0.31762075099E+03  0.72356960047E+03  0.12699999809E+01 0. -1.
</event>
<event>
 5   0  0.6007125E-04  0.1293882E+04  0.7818609E-02  0.9034431E-01
       -2   -1    0    0    0  501  0.00000000000E+00  0.00000000000E+00  0.54802473457E+03  0.54802473458E+03  0.25500000920E-02 0.  1.
        2   -1    0    0  501    0  0.00000000000E+00  0.00000000000E+00 -0.76371174705E+03  0.76371174705E+03  0.25500000920E-02 0. -1.
    10030    2    1    2    0    0  0.00000000000E+00  0.00000000000E+00 -0.21568701248E+03  0.13117364816E+04  0.12938824173E+04 0.  0.
        5    1    3    3  502    0  0.16697633750E+03  0.46168099247E+03  0.31925395220E+03  0.58564119740E+03  0.46999998093E+01 0.  1.
       -5    1    3    3    0  502 -0.16697633750E+03 -0.46168099247E+03 -0.53494096468E+03  0.72609528423E+03  0.46999998093E+01 0. -1.
</event>
<event>
 5   0  0.5957913E-04  0.1299438E+04  0.7818609E-02  0.9030011E-01
        2   -1    0    0  501    0  0.00000000000E+00  0.00000000000E+00  0.12419357825E+04  0.12419357825E+04  0.25500000920E-02 0.  1.
       -2   -1    0    0    0  501  0.00000000000E+00  0.00000000000E+00 -0.33990054367E+03  0.33990054368E+03  0.25500000920E-02 0. -1.
    10030    2    1    2    0    0  0.00000000000E+00  0.00000000000E+00  0.90203523881E+03  0.15818363262E+04  0.12994377979E+04 0.  0.
        1    1    3    3  502    0 -0.27454401595E+03 -0.17922705545E+01  0.11678517572E+04  0.11996896915E+04  0.50400001928E-02 0.  1.
       -1    1    3    3    0  502  0.27454401595E+03  0.17922705545E+01 -0.26581651841E+03  0.38214663470E+03  0.50400001928E-02 0. -1.
</event>
<event>
 5   0  0.5957913E-04  0.1299238E+04  0.7818609E-02  0.9030170E-01
        2   -1    0    0  501    0  0.00000000000E+00  0.00000000000E+00  0.14413399739E+04  0.14413399739E+04  0.25500000920E-02 0.  1.
       -2   -1    0    0    0  501  0.00000000000E+00  0.00000000000E+00 -0.29278652528E+03  0.29278652529E+03  0.25500000920E-02 0. -1.
    10030    2    1    2    0    0  0.00000000000E+00  0.00000000000E+00  0.11485534487E+04  0.17341264992E+04  0.12992381194E+04 0.  0.
        1    1    3    3  502    0 -0.64823630088E+02 -0.51442257152E+03  0.10966513211E+04  0.12130444366E+04  0.50400001928E-02 0.  1.
       -1    1    3    3    0  502  0.64823630088E+02  0.51442257152E+03  0.51902127568E+02  0.52108206262E+03  0.50400001928E-02 0. -1.
</event>
<event>
 5   0  0.3337520E-04  0.1300177E+04  0.7818609E-02  0.9029425E-01
        1   -1    0    0  501    0  0.00000000000E+00  0.00000000000E+00  0.13416052997E+04  0.13416052997E+04  0.50400001928E-02 0. -1.
       -1   -1    0    0    0  501  0.00000000000E+00  0.00000000000E+00 -0.31500683720E+03  0.31500683724E+03  0.50400001928E-02 0.  1.
    10030    2    1    2    0    0  0.00000000000E+00  0.00000000000E+00  0.10265984625E+04  0.16566121369E+04  0.13001766684E+04 0.  0.
        5    1    3    3  502    0 -0.39944374466E+03  0.24641818701E+03  0.10864027498E+04  0.11834569079E+04  0.46999998093E+01 0. -1.
       -5    1    3    3    0  502  0.39944374466E+03 -0.24641818701E+03 -0.59804287287E+02  0.47315522908E+03  0.46999998093E+01 0.  1.
</event>
<event>
 5   0  0.3337520E-04  0.1302291E+04  0.7818609E-02  0.9027750E-01
        1   -1    0    0  501    0  0.00000000000E+00  0.00000000000E+00  0.38442388475E+03  0.38442388478E+03  0.50400001928E-02 0.  1.
       -1   -1    0    0    0  501  0.00000000000E+00  0.00000000000E+00 -0.11029244919E+04  0.11029244920E+04  0.50400001928E-02 0. -1.
    10030    2    1    2    0    0  0.00000000000E+00  0.00000000000E+00 -0.71850060719E+03  0.14873483767E+04  0.13022910854E+04 0.  0.
        5    1    3    3  502    0  0.24553112434E+03  0.19452083540E+03  0.29269304642E+03  0.42873674656E+03  0.46999998093E+01 0.  1.
       -5    1    3    3    0  502 -0.24553112434E+03 -0.19452083540E+03 -0.10111936536E+04  0.10586116302E+04  0.46999998093E+01 0. -1.
</event>
<event>
 5   0  0.5787604E-04  0.1302271E+04  0.7818609E-02  0.9027766E-01
        2   -1    0    0  501    0  0.00000000000E+00  0.00000000000E+00  0.12766985328E+04  0.12766985328E+04  0.25500000920E-02 0. -1.
       -2   -1    0    0    0  501  0.00000000000E+00  0.00000000000E+00 -0.33208910641E+03  0.33208910642E+03  0.25500000920E-02 0.  1.
    10030    2    1    2    0    0  0.00000000000E+00  0.00000000000E+00  0.94460942643E+03  0.16087876393E+04  0.13022713618E+04 0.  0.
        4    1    3    3  502    0 -0.10327976367E+03  0.14832639418E+03  0.12450866203E+04  0.12581374065E+04  0.12699999809E+01 0. -1.
       -4    1    3    3    0  502  0.10327976367E+03 -0.14832639418E+03 -0.30047719385E+03  0.35065023273E+03  0.12699999809E+01 0.  1.
</event>
<event>
 5   0  0.3274879E-04  0.1301367E+04  0.7818609E-02  0.9028481E-01
       -1   -1    0    0    0  501  0.00000000000E+00  0.00000000000E+00  0.82231853997E+03  0.82231853998E+03  0.50400001928E-02 0.  1.
        1   -1    0    0  501    0  0.00000000000E+00  0.00000000000E+00 -0.51487263929E+03  0.51487263932E+03  0.50400001928E-02 0. -1.
    10030    2    1    2    0    0  0.00000000000E+00  0.00000000000E+00  0.30744590068E+03  0.13371911793E+04  0.13013674608E+04 0.  0.
        4    1    3    3  502    0  0.31987256854E+03 -0.17334480402E+03  0.70803662410E+03  0.79604293549E+03  0.12699999809E+01 0.  1.
       -4    1    3    3    0  502 -0.31987256854E+03  0.17334480402E+03 -0.40059072342E+03  0.54114824381E+03  0.12699999809E+01 0. -1.
</event>
<event>
 5   0  0.5787604E-04  0.1297145E+04  0.7818609E-02  0.9031832E-01
        2   -1    0    0  501    0  0.00000000000E+00  0.00000000000E+00  0.20565904980E+04  0.20565904980E+04  0.25500000920E-02 0.  1.
       -2   -1    0    0    0  501  0.00000000000E+00  0.00000000000E+00 -0.20453579686E+03  0.20453579688E+03  0.25500000920E-02 0. -1.
    10030    2    1    2    0    0  0.00000000000E+00  0.00000000000E+00  0.18520547011E+04  0.22611262948E+04  0.12971451366E+04 0.  0.
        4    1    3    3  502    0  0.25602221571E+03  0.38637763027E+03  0.17168319467E+04  0.17782993545E+04  0.12699999809E+01 0.  1.
       -4    1    3    3    0  502 -0.25602221571E+03 -0.38637763027E+03  0.13522275441E+03  0.48282694034E+03  0.12699999809E+01 0. -1.
</event>
<event>
 5   0  0.3335747E-04  0.1305205E+04  0.7818609E-02  0.9025447E-01
        1   -1    0    0  501    0  0.00000000000E+00  0.00000000000E+00  0.71789841881E+03  0.71789841883E+03  0.50400001928E-02 0.  1.
       -1   -1    0    0    0  501  0.00000000000E+00  0.00000000000E+00 -0.59324585294E+03  0.59324585297E+03  0.50400001928E-02 0. -1.
    10030    2    1    2    0    0  0.00000000000E+00  0.00000000000E+00  0.12465256586E+03  0.13111442718E+04  0.13052053629E+04 0.  0.
        3    1    3    3  502    0 -0.44935527381E+03  0.11376787648E+03 -0.39914066586E+03  0.61169974102E+03  0.10100000352E+00 0. -1.
       -3    1    3    3    0  502  0.44935527381E+03 -0.11376787648E+03  0.52379323172E+03  0.69944453077E+03  0.10100000352E+00 0.  1.
</event>
<event>
 5   0  0.3274879E-04  0.1303503E+04  0.7818609E-02  0.9026792E-01
        1   -1    0    0  501    0  0.00000000000E+00  0.00000000000E+00  0.21940169877E+04  0.21940169877E+04  0.50400001928E-02 0.  1.
       -1   -1    0    0    0  501  0.00000000000E+00  0.00000000000E+00 -0.19360839671E+03  0.19360839678E+03  0.50400001928E-02 0. -1.
    10030    2    1    2    0    0  0.00000000000E+00  0.00000000000E+00  0.20004085910E+04  0.23876253845E+04  0.13035031437E+04 0.  0.
        4    1    3    3  502    0 -0.19405073050E+03  0.52957920764E+03  0.15984403114E+04  0.16950288686E+04  0.12699999809E+01 0.  1.
       -4    1    3    3    0  502  0.19405073050E+03 -0.52957920764E+03  0.40196827954E+03  0.69259651589E+03  0.12699999809E+01 0. -1.
</event>
<event>
 5   0  0.3263679E-04  0.1296419E+04  0.7818609E-02  0.9032410E-01
       -1   -1    0    0    0  501  0.00000000000E+00  0.00000000000E+00  0.49354098529E+03  0.49354098531E+03  0.50400001928E-02 0.  1.
        1   -1    0    0  501    0  0.00000000000E+00  0.00000000000E+00 -0.85134832976E+03  0.85134832977E+03  0.50400001928E-02 0. -1.
    10030    2    1    2    0    0  0.00000000000E+00  0.00000000000E+00 -0.35780734447E+03  0.13448893151E+04  0.12964185952E+04 0.  0.
        2    1    3    3  502    0  0.42892525718E+03 -0.48591609175E+03 -0.16939760464E+03  0.66991557149E+03  0.25500000920E-02 0.  1.
       -2    1    3    3    0  502 -0.42892525718E+03  0.48591609175E+03 -0.18840973983E+03  0.67497374359E+03  0.25500000920E-02 0. -1.
</event>
<event>
 5   0  0.5957913E-04  0.1300729E+04  0.7818609E-02  0.9028987E-01
       -2   -1    0    0    0  501  0.00000000000E+00  0.00000000000E+00  0.41840618400E+03  0.41840618400E+03  0.25500000920E-02 0.  1.
        2   -1    0    0  501    0  0.00000000000E+00  0.00000000000E+00 -0.10109169242E+04  0.10109169242E+04  0.25500000920E-02 0. -1.
    10030    2    1    2    0    0  0.00000000000E+00  0.00000000000E+00 -0.59251074024E+03  0.14293231082E+04  0.13007288612E+04 0.  0.
        1    1    3    3  502    0  0.27660021434E+03 -0.27722449467E+03  0.27432113768E+03  0.47813511231E+03  0.50400001928E-02 0.  1.
       -1    1    3    3    0  502 -0.27660021434E+03  0.27722449467E+03 -0.86683187791E+03  0.95118799594E+03  0.50400001928E-02 0. -1.
</event>
<event>
 5   0  0.3403833E-04  0.1298066E+04  0.7818609E-02  0.9031100E-01
       -1   -1    0    0    0  501  0.00000000000E+00  0.00000000000E+00  0.11301470104E+04  0.11301470104E+04  0.50400001928E-02 0.  1.
        1   -1    0    0  501    0  0.00000000000E+00  0.00000000000E+00 -0.37273381423E+03  0.37273381426E+03  0.50400001928E-02 0. -1.
    10030    2    1    2    0    0  0.00000000000E+00  0.00000000000E+00  0.75741319615E+03  0.15028808247E+04  0.12980662631E+04 0.  0.
        1    1    3    3  502    0  0.39878162376E+02  0.56002629391E+02  0.11259193546E+04  0.11280163809E+04  0.50400001928E-02 0.  1.
       -1    1    3    3    0  502 -0.39878162376E+02 -0.56002629391E+02 -0.36850615850E+03  0.37486444378E+03  0.50400001928E-02 0. -1.
</event>
<event>
 5   0  0.5957913E-04  0.1296843E+04  0.7818609E-02  0.9032072E-01
       -2   -1    0    0    0  501  0.00000000000E+00  0.00000000000E+00  0.23916451551E+03  0.23916451552E+03  0.25500000920E-02 0.  1.
        2   -1    0    0  501    0  0.00000000000E+00  0.00000000000E+00 -0.17579977070E+04  0.17579977070E+04  0.25500000920E-02 0. -1.
    10030    2    1    2    0    0  0.00000000000E+00  0.00000000000E+00 -0.15188331915E+04  0.19971622225E+04  0.12968433520E+04 0.  0.
        1    1    3    3  502    0  0.27608798418E+02 -0.61369266352E+03 -0.43981279029E+03  0.75552380607E+03  0.50400001928E-02 0.  1.
       -1    1    3    3    0  502 -0.27608798418E+02  0.61369266352E+03 -0.10790204012E+04  0.12416384165E+04  0.50400001928E-02 0. -1.
</event>
<event>
 5   0  0.6052864E-04  0.1296780E+04  0.7818609E-02  0.9032122E-01
        2   -1    0    0  501    0  0.00000000000E+00  0.00000000000E+00  0.19592073633E+04  0.19592073633E+04  0.25500000920E-02 0. -1.
       -2   -1    0    0    0  501  0.00000000000E+00  0.00000000000E+00 -0.21458163340E+03  0.21458163342E+03  0.25500000920E-02 0.  1.
    10030    2    1    2    0    0  0.00000000000E+00  0.00000000000E+00  0.17446257299E+04  0.21737889967E+04  0.12967804999E+04 0.  0.
        2    1    3    3  502    0 -0.30164714494E+03  0.49220280217E+03  0.13671905373E+04  0.14840702691E+04  0.25500000920E-02 0. -1.
       -2    1    3    3    0  502  0.30164714494E+03 -0.49220280217E+03  0.37743519259E+03  0.68971872754E+03  0.25500000920E-02 0.  1.
</event>
<event>
 5   0  0.5787604E-04  0.1301222E+04  0.7818609E-02  0.9028597E-01
       -2   -1    0    0    0  501  0.00000000000E+00  0.00000000000E+00  0.15946211040E+03  0.15946211042E+03  0.25500000920E-02 0. -1.
        2   -1    0    0  501    0  0.00000000000E+00  0.00000000000E+00 -0.26545154568E+04  0.26545154568E+04  0.25500000920E-02 0.  1.
    10030    2    1    2    0    0  0.00000000000E+00  0.00000000000E+00 -0.24950533464E+04  0.28139775672E+04  0.13012219440E+04 0.  0.
        4    1    3    3  502    0  0.18234744675E+03 -0.44762380090E+03 -0.21893614382E+04  0.22420800116E+04  0.12699999809E+01 0.  1.
       -4    1    3    3    0  502 -0.18234744675E+03  0.44762380090E+03 -0.30569190820E+03  0.57189755561E+03  0.12699999809E+01 0. -1.
</event>
<event>
 5   0  0.3263679E-04  0.1304515E+04  0.7818609E-02  0.9025992E-01
        1   -1    0    0  501    0  0.00000000000E+00  0.00000000000E+00  0.94778796135E+03  0.94778796137E+03  0.50400001928E-02 0. -1.
       -1   -1    0    0    0  501  0.00000000000E+00  0.00000000000E+00 -0.44887657651E+03  0.44887657654E+03  0.50400001928E-02 0.  1.
    10030    2    1    2    0    0  0.00000000000E+00  0.00000000000E+00  0.49891138484E+03  0.13966645379E+04  0.13045149526E+04 0.  0.
        2    1    3    3  502    0 -0.35457462676E+03  0.82740829039E+02 -0.32994757074E+03  0.49135995988E+03  0.25500000920E-02 0.  1.
       -2    1    3    3    0  502  0.35457462676E+03 -0.82740829039E+02  0.82885895558E+03  0.90530457802E+03  0.25500000920E-02 0. -1.
</event>
<event>
 5   0  0.3403833E-04  0.1297072E+04  0.7818609E-02  0.9031890E-01
       -1   -1    0    0    0  501  0.00000000000E+00  0.00000000000E+00  0.47341159843E+03  0.47341159846E+03  0.50400001928E-02 0.  1.
        1   -1    0    0  501    0  0.00000000000E+00  0.00000000000E+00 -0.88844276352E+03  0.88844276353E+03  0.50400001928E-02 0. -1.
    10030    2    1    2    0    0  0.00000000000E+00  0.00000000000E+00 -0.41503116509E+03  0.13618543620E+04  0.12970722552E+04 0.  0.
        1    1    3    3  502    0  0.63463016357E+03  0.54088980093E+02 -0.33575527710E+03  0.72000879745E+03  0.50400001928E-02 0.  1.
       -1    1    3    3    0  502 -0.63463016357E+03 -0.54088980093E+02 -0.79275887989E+02  0.64184556454E+03  0.50400001928E-02 0. -1.
</event>
<event>
 5   0  0.5787604E-04  0.1289093E+04  0.7818609E-02  0.9038260E-01
        2   -1    0    0  501    0  0.00000000000E+00  0.00000000000E+00  0.66567258358E+03  0.66567258358E+03  0.25500000920E-02 0.  1.
       -2   -1    0    0    0  501  0.00000000000E+00  0.00000000000E+00 -0.62409049846E+03  0.62409049847E+03  0.25500000920E-02 0. -1.
    10030    2    1    2    0    0  0.00000000000E+00  0.00000000000E+00  0.41582085115E+02  0.12897630820E+04  0.12890926026E+04 0.  0.
        4    1    3    3  502    0  0.16949768930E+03  0.96778093364E+02 -0.59381084713E+03  0.62506671732E+03  0.12699999809E+01 0. -1.
       -4    1    3    3    0  502 -0.16949768930E+03 -0.96778093364E+02  0.63539293224E+03  0.66469636473E+03  0.12699999809E+01 0.  1.
</event>
<event>
 5   0  0.5384960E-04  0.1301968E+04  0.7818609E-02  0.9028006E-01
        2   -1    0    0  501    0  0.00000000000E+00  0.00000000000E+00  0.11435251087E+04  0.11435251088E+04  0.25500000920E-02 0. -1.
       -2   -1    0    0    0  501  0.00000000000E+00  0.00000000000E+00 -0.37059126269E+03  0.37059126270E+03  0.25500000920E-02 0.  1.
    10030    2    1    2    0    0  0.00000000000E+00  0.00000000000E+00  0.77293384606E+03  0.15141163714E+04  0.13019683775E+04 0.  0.
        3    1    3    3  502    0  0.58082167555E+03  0.12542861220E+03  0.77258824959E+02  0.59921205911E+03  0.10100000352E+00 0.  1.
       -3    1    3    3    0  502 -0.58082167555E+03 -0.12542861220E+03  0.69567502110E+03  0.91490431234E+03  0.10100000352E+00 0. -1.
</event>
<event>
 5   0  0.2255875E-04  0.1295154E+04  0.7818609E-02  0.9033417E-01
        4   -1    0    0  501    0  0.00000000000E+00  0.00000000000E+00  0.98493100491E+03  0.98493182370E+03  0.12699999809E+01 0. -1.
       -4   -1    0    0    0  501  0.00000000000E+00  0.00000000000E+00 -0.42576994305E+03  0.42577183715E+03  0.12699999809E+01 0.  1.
    10030    2    1    2    0    0  0.00000000000E+00  0.00000000000E+00  0.55916106186E+03  0.14107036608E+04  0.12951539390E+04 0.  0.
        5    1    3    3  502    0  0.57291306489E+02  0.17782130009E+02  0.98188086712E+03  0.98372283960E+03  0.46999998093E+01 0. -1.
       -5    1    3    3    0  502 -0.57291306489E+02 -0.17782130009E+02 -0.42271980526E+03  0.42698082124E+03  0.46999998093E+01 0.  1.
</event>
<event>
 5   0  0.2255875E-04  0.1295216E+04  0.7818609E-02  0.9033367E-01
       -3   -1    0    0    0  501  0.00000000000E+00  0.00000000000E+00  0.11387442673E+04  0.11387442718E+04  0.10100000352E+00 0. -1.
        3   -1    0    0  501    0  0.00000000000E+00  0.00000000000E+00 -0.36829722725E+03  0.36829724110E+03  0.10100000352E+00 0.  1.
    10030    2    1    2    0    0  0.00000000000E+00  0.00000000000E+00  0.77044704003E+03  0.15070415128E+04  0.12952163835E+04 0.  0.
        1    1    3    3  502    0 -0.55247495383E+03  0.28976882138E+03  0.18301498473E+03  0.65014539075E+03  0.50400001928E-02 0. -1.
       -1    1    3    3    0  502  0.55247495383E+03 -0.28976882138E+03  0.58743205529E+03  0.85689612210E+03  0.50400001928E-02 0.  1.
</event>
<event>
 5   0  0.3335747E-04  0.1300811E+04  0.7818609E-02  0.9028923E-01
       -1   -1    0    0    0  501  0.00000000000E+00  0.00000000000E+00  0.90564216219E+03  0.90564216220E+03  0.50400001928E-02 0.  1.
        1   -1    0    0  501    0  0.00000000000E+00  0.00000000000E+00 -0.46710170585E+03  0.46710170588E+03  0.50400001928E-02 0. -1.
    10030    2    1    2    0    0  0.00000000000E+00  0.00000000000E+00  0.43854045634E+03  0.13727438681E+04  0.13008105148E+04 0.  0.
        3    1    3    3  502    0 -0.13393681669E+03 -0.21994978602E+03 -0.41100918450E+03  0.48502117395E+03  0.10100000352E+00 0. -1.
       -3    1    3    3    0  502  0.13393681669E+03  0.21994978602E+03  0.84954964084E+03  0.88772269414E+03  0.10100000352E+00 0.  1.
</event>
<event>
 5   0  0.6052864E-04  0.1298212E+04  0.7818609E-02  0.9030985E-01
        2   -1    0    0  501    0  0.00000000000E+00  0.00000000000E+00  0.80461740058E+03  0.80461740059E+03  0.25500000920E-02 0.  1.
       -2   -1    0    0    0  501  0.00000000000E+00  0.00000000000E+00 -0.52365054309E+03  0.52365054310E+03  0.25500000920E-02 0. -1.
    10030    2    1    2    0    0  0.00000000000E+00  0.00000000000E+00  0.28096685749E+03  0.13282679437E+04  0.12982115988E+04 0.  0.
        2    1    3    3  502    0 -0.19544354404E+03  0.42785761325E+02 -0.49131572700E+03  0.53049028632E+03  0.25500000920E-02 0. -1.
       -2    1    3    3    0  502  0.19544354404E+03 -0.42785761325E+02  0.77228258449E+03  0.79777765737E+03  0.25500000920E-02 0.  1.
</event>
<event>
 5   0  0.5787604E-04  0.1300880E+04  0.7818609E-02  0.9028868E-01
        2   -1    0    0  501    0  0.00000000000E+00  0.00000000000E+00  0.17916804162E+04  0.17916804162E+04  0.25500000920E-02 0.  1.
       -2   -1    0    0    0  501  0.00000000000E+00  0.00000000000E+00 -0.23613150014E+03  0.23613150015E+03  0.25500000920E-02 0. -1.
    10030    2    1    2    0    0  0.00000000000E+00  0.00000000000E+00  0.15555489161E+04  0.20278119163E+04  0.13008799859E+04 0.  0.
        4    1    3    3  502    0  0.33502199539E+03  0.53601560038E+03  0.53872286054E+03  0.83052778077E+03  0.12699999809E+01 0.  1.
       -4    1    3    3    0  502 -0.33502199539E+03 -0.53601560038E+03  0.10168260555E+04  0.11972841356E+04  0.12699999809E+01 0. -1.
</event>
<event>
 5   0  0.3403833E-04  0.1311799E+04  0.7818609E-02  0.9020261E-01
       -1   -1    0    0    0  501  0.00000000000E+00  0.00000000000E+00  0.71582554818E+03  0.71582554820E+03  0.50400001928E-02 0.  1.
        1   -1    0    0  501    0  0.00000000000E+00  0.00000000000E+00 -0.60098995069E+03  0.60098995071E+03  0.50400001928E-02 0. -1.
    10030    2    1    2    0    0  0.00000000000E+00  0.00000000000E+00  0.11483559749E+03  0.13168154989E+04  0.13117987055E+04 0.  0.
        1    1    3    3  502    0 -0.11612642425E+03 -0.47698162680E+03  0.49406079111E+03  0.69648609753E+03  0.50400001928E-02 0.  1.
       -1    1    3    3    0  502  0.11612642425E+03  0.47698162680E+03 -0.37922519362E+03  0.62032940138E+03  0.50400001928E-02 0. -1.
</event>
<event>
 5   0  0.3403833E-04  0.1301821E+04  0.7818609E-02  0.9028122E-01
        1   -1    0    0  501    0  0.00000000000E+00  0.00000000000E+00  0.43939247032E+03  0.43939247034E+03  0.50400001928E-02 0.  1.
       -1   -1    0    0    0  501  0.00000000000E+00  0.00000000000E+00 -0.96425125589E+03  0.96425125591E+03  0.50400001928E-02 0. -1.
    10030    2    1    2    0    0  0.00000000000E+00  0.00000000000E+00 -0.52485878558E+03  0.14036437263E+04  0.13018214031E+04 0.  0.
        1    1    3    3  502    0 -0.49322350343E+03 -0.35418547008E+03 -0.96391367213E+01  0.60729703156E+03  0.50400001928E-02 0.  1.
       -1    1    3    3    0  502  0.49322350343E+03  0.35418547008E+03 -0.51521964886E+03  0.79634669469E+03  0.50400001928E-02 0. -1.
</event>
<event>
 5   0  0.5384960E-04  0.1301163E+04  0.7818609E-02  0.9028643E-01
        2   -1    0    0  501    0  0.00000000000E+00  0.00000000000E+00  0.67815972932E+03  0.67815972933E+03  0.25500000920E-02 0.  1.
       -2   -1    0    0    0  501  0.00000000000E+00  0.00000000000E+00 -0.62412515206E+03  0.62412515206E+03  0.25500000920E-02 0. -1.
    10030    2    1    2    0    0  0.00000000000E+00  0.00000000000E+00  0.54034577264E+02  0.13022848814E+04  0.13011633936E+04 0.  0.
        3    1    3    3  502    0  0.29300645384E+03 -0.44579351603E+03 -0.34569042782E+03  0.63567800262E+03  0.10100000352E+00 0.  1.
       -3    1    3    3    0  502 -0.29300645384E+03  0.44579351603E+03  0.39972500509E+03  0.66660687877E+03  0.10100000352E+00 0. -1.
</event>
<event>
 5   0  0.3274879E-04  0.1299421E+04  0.7818609E-02  0.9030025E-01
       -1   -1    0    0    0  501  0.00000000000E+00  0.00000000000E+00  0.63081461396E+03  0.63081461398E+03  0.50400001928E-02 0. -1.
        1   -1    0    0  501    0  0.00000000000E+00  0.00000000000E+00 -0.66917195085E+03  0.66917195087E+03  0.50400001928E-02 0.  1.
    10030    2    1    2    0    0  0.00000000000E+00  0.00000000000E+00 -0.38357336884E+02  0.12999865648E+04  0.12994205568E+04 0.  0.
        4    1    3    3  502    0 -0.47574640675E+03  0.44110187330E+03  0.15712400153E+02  0.64896378834E+03  0.12699999809E+01 0. -1.
       -4    1    3    3    0  502  0.47574640675E+03 -0.44110187330E+03 -0.54069737038E+02  0.65102277650E+03  0.12699999809E+01 0.  1.
</event>
<event>
 5   0  0.3403833E-04  0.1303439E+04  0.7818609E-02  0.9026843E-01
       -1   -1    0    0    0  501  0.00000000000E+00  0.00000000000E+00  0.45321710191E+03  0.45321710194E+03  0.50400001928E-02 0.  1.
        1   -1    0    0  501    0  0.00000000000E+00  0.00000000000E+00 -0.93716235943E+03  0.93716235944E+03  0.50400001928E-02 0. -1.
    10030    2    1    2    0    0  0.00000000000E+00  0.00000000000E+00 -0.48394525751E+03  0.13903794614E+04  0.13034385426E+04 0.  0.
        1    1    3    3  502    0  0.15940031427E+03 -0.40998231436E+03 -0.75492621282E+03  0.87373196411E+03  0.50400001928E-02 0. -1.
       -1    1    3    3    0  502 -0.15940031427E+03  0.40998231436E+03  0.27098095530E+03  0.51664749728E+03  0.50400001928E-02 0.  1.
</event>
<event>
 5   0  0.2255875E-04  0.1299378E+04  0.7818609E-02  0.9030059E-01
        3   -1    0    0  501    0  0.00000000000E+00  0.00000000000E+00  0.38666689639E+03  0.38666690958E+03  0.10100000352E+00 0.  1.
       -3   -1    0    0    0  501  0.00000000000E+00  0.00000000000E+00 -0.10916255599E+04  0.10916255646E+04  0.10100000352E+00 0. -1.
    10030    2    1    2    0    0  0.00000000000E+00  0.00000000000E+00 -0.70495866354E+03  0.14782924742E+04  0.12993775133E+04 0.  0.
        3    1    3    3  502    0 -0.58959984218E+03  0.10899677164E+03 -0.67857780598E+02  0.60341773152E+03  0.10100000352E+00 0.  1.
       -3    1    3    3    0  502  0.58959984218E+03 -0.10899677164E+03 -0.63710088295E+03  0.87487474268E+03  0.10100000352E+00 0. -1.
</event>
<event>
 5   0  0.3403833E-04  0.1310099E+04  0.7818609E-02  0.9021595E-01
       -1   -1    0    0    0  501  0.00000000000E+00  0.00000000000E+00  0.72044174360E+03  0.72044174362E+03  0.50400001928E-02 0. -1.
        1   -1    0    0  501    0  0.00000000000E+00  0.00000000000E+00 -0.59559236668E+03  0.59559236671E+03  0.50400001928E-02 0.  1.
    10030    2    1    2    0    0  0.00000000000E+00  0.00000000000E+00  0.12484937692E+03  0.13160341103E+04  0.13100986271E+04 0.  0.
        1    1    3    3  502    0  0.39516355110E+03 -0.46408621992E+03  0.30342694029E+03  0.68088042986E+03  0.50400001928E-02 0.  1.
       -1    1    3    3    0  502 -0.39516355110E+03  0.46408621992E+03 -0.17857756338E+03  0.63515368047E+03  0.50400001928E-02 0. -1.
</event>
<event>
 5   0  0.3335747E-04  0.1296196E+04  0.7818609E-02  0.9032587E-01
        1   -1    0    0  501    0  0.00000000000E+00  0.00000000000E+00  0.10203336649E+04  0.10203336649E+04  0.50400001928E-02 0. -1.
       -1   -1    0    0    0  501  0.00000000000E+00  0.00000000000E+00 -0.41166036284E+03  0.41166036287E+03  0.50400001928E-02 0.  1.
    10030    2    1    2    0    0  0.00000000000E+00  0.00000000000E+00  0.60867330207E+03  0.14319940278E+04  0.12961958598E+04 0.  0.
        3    1    3    3  502    0  0.36663495913E+03 -0.52289404352E+03  0.42631981843E+03  0.76784632043E+03  0.10100000352E+00 0. -1.
       -3    1    3    3    0  502 -0.36663495913E+03  0.52289404352E+03  0.18235348364E+03  0.66414770737E+03  0.10100000352E+00 0.  1.
</event>
<event>
 5   0  0.6007125E-04  0.1305386E+04  0.7818609E-02  0.9025305E-01
       -2   -1    0    0    0  501  0.00000000000E+00  0.00000000000E+00  0.10747980176E+04  0.10747980176E+04  0.25500000920E-02 0. -1.
        2   -1    0    0  501    0  0.00000000000E+00  0.00000000000E+00 -0.39636109938E+03  0.39636109939E+03  0.25500000920E-02 0.  1.
    10030    2    1    2    0    0  0.00000000000E+00  0.00000000000E+00  0.67843691817E+03  0.14711591169E+04  0.13053859565E+04 0.  0.
        5    1    3    3  502    0 -0.23545240108E+03 -0.18598399851E+03 -0.31400730233E+03  0.43433921857E+03  0.46999998093E+01 0.  1.
       -5    1    3    3    0  502  0.23545240108E+03  0.18598399851E+03  0.99244422050E+03  0.10368198984E+04  0.46999998093E+01 0. -1.
</event>
<event>
 5   0  0.3274879E-04  0.1296345E+04  0.7818609E-02  0.9032469E-01
       -1   -1    0    0    0  501  0.00000000000E+00  0.00000000000E+00  0.11386832251E+04  0.11386832251E+04  0.50400001928E-02 0. -1.
        1   -1    0    0  501    0  0.00000000000E+00  0.00000000000E+00 -0.36895899553E+03  0.36895899557E+03  0.50400001928E-02 0.  1.
    10030    2    1    2    0    0  0.00000000000E+00  0.00000000000E+00  0.76972422952E+03  0.15076422206E+04  0.12963447365E+04 0.  0.
        4    1    3    3  502    0 -0.24966666784E+03 -0.47914934812E+03 -0.31561923105E+02  0.54121651003E+03  0.12699999809E+01 0.  1.
       -4    1    3    3    0  502  0.24966666784E+03  0.47914934812E+03  0.80128615263E+03  0.96642571061E+03  0.12699999809E+01 0. -1.
</event>
<event>
 5   0  0.3403833E-04  0.1301668E+04  0.7818609E-02  0.9028243E-01
       -1   -1    0    0    0  501  0.00000000000E+00  0.00000000000E+00  0.32545781289E+03  0.32545781293E+03  0.50400001928E-02 0.  1.
        1   -1    0    0  501    0  0.00000000000E+00  0.00000000000E+00 -0.13015050616E+04  0.13015050616E+04  0.50400001928E-02 0. -1.
    10030    2    1    2    0    0  0.00000000000E+00  0.00000000000E+00 -0.97604724870E+03  0.16269628745E+04  0.13016681464E+04 0.  0.
        1    1    3    3  502    0 -0.15519599760E+03 -0.62737478428E+03 -0.58403132442E+03  0.87107835787E+03  0.50400001928E-02 0. -1.
       -1    1    3    3    0  502  0.15519599760E+03  0.62737478428E+03 -0.39201592428E+03  0.75588451667E+03  0.50400001928E-02 0.  1.
</event>
<event>
 5   0  0.3403833E-04  0.1293078E+04  0.7818609E-02  0.9035073E-01
        1   -1    0    0  501    0  0.00000000000E+00  0.00000000000E+00  0.15901285623E+04  0.15901285624E+04  0.50400001928E-02 0.  1.
       -1   -1    0    0    0  501  0.00000000000E+00  0.00000000000E+00 -0.26287966883E+03  0.26287966888E+03  0.50400001928E-02 0. -1.
    10030    2    1    2    0    0  0.00000000000E+00  0.00000000000E+00  0.13272488935E+04  0.18530082312E+04  0.12930776774E+04 0.  0.
        1    1    3    3  502    0 -0.31833159698E+03 -0.45110551201E+03  0.11457276722E+04  0.12718188108E+04  0.50400001928E-02 0. -1.
       -1    1    3    3    0  502  0.31833159698E+03  0.45110551201E+03  0.18152122129E+03  0.58118942042E+03  0.50400001928E-02 0.  1.
</event>
<event>
 5   0  0.6007125E-04  0.1301437E+04  0.7818609E-02  0.9028426E-01
        2   -1    0    0  501    0  0.00000000000E+00  0.00000000000E+00  0.42726762708E+03  0.42726762709E+03  0.25500000920E-02 0.  1.
       -2   -1    0    0    0  501  0.00000000000E+00  0.00000000000E+00 -0.99102880725E+03  0.99102880725E+03  0.25500000920E-02 0. -1.
    10030    2    1    2    0    0  0.00000000000E+00  0.00000000000E+00 -0.56376118017E+03  0.14182964343E+04  0.13014369395E+04 0.  0.
        5    1    3    3  502    0 -0.51127641221E+03 -0.19658282559E+03 -0.66465086876E+03  0.86129625817E+03  0.46999998093E+01 0. -1.
       -5    1    3    3    0  502  0.51127641221E+03  0.19658282559E+03  0.10088968859E+03  0.55700017617E+03  0.46999998093E+01 0.  1.
</event>
<event>
 5   0  0.5787604E-04  0.1288748E+04  0.7818609E-02  0.9038536E-01
       -2   -1    0    0    0  501  0.00000000000E+00  0.00000000000E+00  0.42447053340E+03  0.42447053341E+03  0.25500000920E-02 0. -1.
        2   -1    0    0  501    0  0.00000000000E+00  0.00000000000E+00 -0.97820180755E+03  0.97820180755E+03  0.25500000920E-02 0.  1.
    10030    2    1    2    0    0  0.00000000000E+00  0.00000000000E+00 -0.55373127415E+03  0.14026723410E+04  0.12887479863E+04 0.  0.
        4    1    3    3  502    0  0.61451217291E+03 -0.11398933522E+01 -0.48788522939E+03  0.78464012131E+03  0.12699999809E+01 0. -1.
       -4    1    3    3    0  502 -0.61451217291E+03  0.11398933522E+01 -0.65846044759E+02  0.61803221965E+03  0.12699999809E+01 0.  1.
</event>
<event>
 5   0  0.3337520E-04  0.1296835E+04  0.7818609E-02  0.9032079E-01
        1   -1    0    0  501    0  0.00000000000E+00  0.00000000000E+00  0.30570063891E+03  0.30570063895E+03  0.50400001928E-02 0. -1.
       -1   -1    0    0    0  501  0.00000000000E+00  0.00000000000E+00 -0.13753497669E+04  0.13753497669E+04  0.50400001928E-02 0.  1.
    10030    2    1    2    0    0  0.00000000000E+00  0.00000000000E+00 -0.10696491279E+04  0.16810504058E+04  0.12968350743E+04 0.  0.
        5    1    3    3  502    0 -0.53751749867E+03  0.25829964956E+03 -0.86474908111E+03  0.10504555362E+04  0.46999998093E+01 0. -1.
       -5    1    3    3    0  502  0.53751749867E+03 -0.25829964956E+03 -0.20490004683E+03  0.63059486957E+03  0.46999998093E+01 0.  1.
</event>
<event>
 5   0  0.5787604E-04  0.1309234E+04  0.7818609E-02  0.9022274E-01
       -2   -1    0    0    0  501  0.00000000000E+00  0.00000000000E+00  0.74185872875E+03  0.74185872876E+03  0.25500000920E-02 0. -1.
        2   -1    0    0  501    0  0.00000000000E+00  0.00000000000E+00 -0.57763504644E+03  0.57763504645E+03  0.25500000920E-02 0.  1.
    10030    2    1    2    0    0  0.00000000000E+00  0.00000000000E+00  0.16422368231E+03  0.13194937752E+04  0.13092342819E+04 0.  0.
        4    1    3    3  502    0  0.46272320192E+03  0.84630907132E+02 -0.37669927540E+03  0.60264343440E+03  0.12699999809E+01 0.  1.
       -4    1    3    3    0  502 -0.46272320192E+03 -0.84630907132E+02  0.54092295771E+03  0.71685034081E+03  0.12699999809E+01 0. -1.
</event>
<event>
 5   0  0.3335747E-04  0.1298276E+04  0.7818609E-02  0.9030934E-01
        1   -1    0    0  501    0  0.00000000000E+00  0.00000000000E+00  0.13956047945E+04  0.13956047945E+04  0.50400001928E-02 0. -1.
       -1   -1    0    0    0  501  0.00000000000E+00  0.00000000000E+00 -0.30193360933E+03  0.30193360938E+03  0.50400001928E-02 0.  1.
    10030    2    1    2    0    0  0.00000000000E+00  0.00000000000E+00  0.10936711851E+04  0.16975384038E+04  0.12982757686E+04 0.  0.
        3    1    3    3  502    0  0.49112943947E+03  0.39821191587E+03  0.73899902593E+03  0.97257412406E+03  0.10100000352E+00 0. -1.
       -3    1    3    3    0  502 -0.49112943947E+03 -0.39821191587E+03  0.35467215920E+03  0.72496427979E+03  0.10100000352E+00 0.  1.
</event>
<event>
 5   0  0.6052864E-04  0.1296997E+04  0.7818609E-02  0.9031950E-01
        2   -1    0    0  501    0  0.00000000000E+00  0.00000000000E+00  0.12617875175E+04  0.12617875175E+04  0.25500000920E-02 0.  1.
       -2   -1    0    0    0  501  0.00000000000E+00  0.00000000000E+00 -0.33329699598E+03  0.33329699599E+03  0.25500000920E-02 0. -1.
    10030    2    1    2    0    0  0.00000000000E+00  0.00000000000E+00  0.92849052150E+03  0.15950845135E+04  0.12969965137E+04 0.  0.
        2    1    3    3  502    0 -0.21653306614E+03  0.50585858087E+03  0.88629455638E+03  0.10432149890E+04  0.25500000920E-02 0.  1.
       -2    1    3    3    0  502  0.21653306614E+03 -0.50585858087E+03  0.42195965124E+02  0.55186952448E+03  0.25500000920E-02 0. -1.
</event>
<event>
 5   0  0.5957913E-04  0.1269989E+04  0.7818609E-02  0.9053708E-01
        2   -1    0    0  501    0  0.00000000000E+00  0.00000000000E+00  0.16774715753E+04  0.16774715753E+04  0.25500000920E-02 0. -1.
       -2   -1    0    0    0  501  0.00000000000E+00  0.00000000000E+00 -0.24037256342E+03  0.24037256343E+03  0.25500000920E-02 0.  1.
    10030    2    1    2    0    0  0.00000000000E+00  0.00000000000E+00  0.14370990119E+04  0.19178441388E+04  0.12699892010E+04 0.  0.
        1    1    3    3  502    0 -0.40322424790E+03 -0.12785872264E+03  0.33799230688E+01  0.42302372387E+03  0.50400001928E-02 0.  1.
       -1    1    3    3    0  502  0.40322424790E+03  0.12785872264E+03  0.14337190889E+04  0.14948204149E+04  0.50400001928E-02 0. -1.
</event>
<event>
 5   0  0.3274879E-04  0.1300098E+04  0.7818609E-02  0.9029487E-01
       -1   -1    0    0    0  501  0.00000000000E+00  0.00000000000E+00  0.21426617284E+03  0.21426617290E+03  0.50400001928E-02 0. -1.
        1   -1    0    0  501    0  0.00000000000E+00  0.00000000000E+00 -0.19721436333E+04  0.19721436333E+04  0.50400001928E-02 0.  1.
    10030    2    1    2    0    0  0.00000000000E+00  0.00000000000E+00 -0.17578774605E+04  0.21864098062E+04  0.13000979481E+04 0.  0.
        4    1    3    3  502    0  0.57390807572E+03 -0.25177548399E+03 -0.11692531420E+04  0.13266182182E+04  0.12699999809E+01 0. -1.
       -4    1    3    3    0  502 -0.57390807572E+03  0.25177548399E+03 -0.58862431844E+03  0.85979158805E+03  0.12699999809E+01 0.  1.
</event>
<event>
 5   0  0.5957913E-04  0.1290772E+04  0.7818609E-02  0.9036915E-01
       -2   -1    0    0    0  501  0.00000000000E+00  0.00000000000E+00  0.15509391540E+03  0.15509391542E+03  0.25500000920E-02 0. -1.
        2   -1    0    0  501    0  0.00000000000E+00  0.00000000000E+00 -0.26856174032E+04  0.26856174032E+04  0.25500000920E-02 0.  1.
    10030    2    1    2    0    0  0.00000000000E+00  0.00000000000E+00 -0.25305234878E+04  0.28407113186E+04  0.12907717356E+04 0.  0.
        1    1    3    3  502    0  0.20228759193E+02 -0.15032644555E+03  0.11530902309E+03  0.19053454742E+03  0.50400001928E-02 0. -1.
       -1    1    3    3    0  502 -0.20228759193E+02  0.15032644555E+03 -0.26458325109E+04  0.26501767712E+04  0.50400001928E-02 0.  1.
</event>
<event>
 5   0  0.2255875E-04  0.1306306E+04  0.7818609E-02  0.9024580E-01
       -4   -1    0    0    0  501  0.00000000000E+00  0.00000000000E+00  0.49059952145E+03  0.49060116526E+03  0.12699999809E+01 0.  1.
        4   -1    0    0  501    0  0.00000000000E+00  0.00000000000E+00 -0.86956249818E+03  0.86956342560E+03  0.12699999809E+01 0. -1.
    10030    2    1    2    0    0  0.00000000000E+00  0.00000000000E+00 -0.37896297672E+03  0.13601645909E+04  0.13063057745E+04 0.  0.
        4    1    3    3  502    0  0.60547000487E+02 -0.16703187844E+01 -0.86663190869E+03  0.86874691786E+03  0.12699999809E+01 0. -1.
       -4    1    3    3    0  502 -0.60547000487E+02  0.16703187844E+01  0.48766893196E+03  0.49141767300E+03  0.12699999809E+01 0.  1.
</event>
<event>
 5   0  0.5787604E-04  0.1300577E+04  0.7818609E-02  0.9029108E-01
        2   -1    0    0  501    0  0.00000000000E+00  0.00000000000E+00  0.25818982956E+04  0.25818982956E+04  0.25500000920E-02 0.  1.
       -2   -1    0    0    0  501  0.00000000000E+00  0.00000000000E+00 -0.16378458194E+03  0.16378458196E+03  0.25500000920E-02 0. -1.
    10030    2    1    2    0    0  0.00000000000E+00  0.00000000000E+00  0.24181137137E+04  0.27456828776E+04  0.13005769996E+04 0.  0.
        4    1    3    3  502    0  0.26579671064E+03  0.32318229029E+03  0.15819310901E+03  0.44734925593E+03  0.12699999809E+01 0. -1.
       -4    1    3    3    0  502 -0.26579671064E+03 -0.32318229029E+03  0.22599206047E+04  0.22983336217E+04  0.12699999809E+01 0.  1.
</event>
<event>
 5   0  0.5384960E-04  0.1297579E+04  0.7818609E-02  0.9031487E-01
       -2   -1    0    0    0  501  0.00000000000E+00  0.00000000000E+00  0.33750103100E+03  0.33750103101E+03  0.25500000920E-02 0. -1.
        2   -1    0    0  501    0  0.00000000000E+00  0.00000000000E+00 -0.12471891299E+04  0.12471891299E+04  0.25500000920E-02 0.  1.
    10030    2    1    2    0    0  0.00000000000E+00  0.00000000000E+00 -0.90968809887E+03  0.15846901609E+04  0.12975786946E+04 0.  0.
        3    1    3    3  502    0 -0.62530383753E+03 -0.59701151536E+01 -0.24371287400E+03  0.67114566724E+03  0.10100000352E+00 0. -1.
       -3    1    3    3    0  502  0.62530383753E+03  0.59701151536E+01 -0.66597522487E+03  0.91354449364E+03  0.10100000352E+00 0.  1.
</event>
<event>
 5   0  0.3263679E-04  0.1313273E+04  0.7818609E-02  0.9019105E-01
        1   -1    0    0  501    0  0.00000000000E+00  0.00000000000E+00  0.78673843112E+03  0.78673843114E+03  0.50400001928E-02 0.  1.
       -1   -1    0    0    0  501  0.00000000000E+00  0.00000000000E+00 -0.54804969062E+03  0.54804969065E+03  0.50400001928E-02 0. -1.
    10030    2    1    2    0    0  0.00000000000E+00  0.00000000000E+00  0.23868874050E+03  0.13347881218E+04  0.13132733970E+04 0.  0.
        2    1    3    3  502    0 -0.36843341432E+03  0.71460047809E+01  0.67173448387E+03  0.76617325913E+03  0.25500000920E-02 0.  1.
       -2    1    3    3    0  502  0.36843341432E+03 -0.71460047809E+01 -0.43304574338E+03  0.56861486266E+03  0.25500000920E-02 0. -1.
</event>
<event>
 5   0  0.3274879E-04  0.1307468E+04  0.7818609E-02  0.9023664E-01
        1   -1    0    0  501    0  0.00000000000E+00  0.00000000000E+00  0.14554490210E+04  0.14554490210E+04  0.50400001928E-02 0. -1.
       -1   -1    0    0    0  501  0.00000000000E+00  0.00000000000E+00 -0.29363315789E+03  0.29363315793E+03  0.50400001928E-02 0.  1.
    10030    2    1    2    0    0  0.00000000000E+00  0.00000000000E+00  0.11618158631E+04  0.17490821789E+04  0.13074679227E+04 0.  0.
        4    1    3    3  502    0  0.33599794199E+03 -0.51642456732E+03  0.87331711807E+03  0.10687718898E+04  0.12699999809E+01 0.  1.
       -4    1    3    3    0  502 -0.33599794199E+03  0.51642456732E+03  0.28849874503E+03  0.68031028916E+03  0.12699999809E+01 0. -1.
</event>
<event>
 5   0  0.3335747E-04  0.1299052E+04  0.7818609E-02  0.9030318E-01
       -1   -1    0    0    0  501  0.00000000000E+00  0.00000000000E+00  0.77010774603E+03  0.77010774604E+03  0.50400001928E-02 0.  1.
        1   -1    0    0  501    0  0.00000000000E+00  0.00000000000E+00 -0.54782440872E+03  0.54782440875E+03  0.50400001928E-02 0. -1.
    10030    2    1    2    0    0  0.00000000000E+00  0.00000000000E+00  0.22228333730E+03  0.13179321548E+04  0.12990516859E+04 0.  0.
        3    1    3    3  502    0 -0.31848682077E+03  0.77166916737E+02  0.68009107590E+03  0.75492547298E+03  0.10100000352E+00 0.  1.
       -3    1    3    3    0  502  0.31848682077E+03 -0.77166916737E+02 -0.45780773859E+03  0.56300668181E+03  0.10100000352E+00 0. -1.
</event>
<event>
 5   0  0.3335747E-04  0.1300652E+04  0.7818609E-02  0.9029048E-01
       -1   -1    0    0    0  501  0.00000000000E+00  0.00000000000E+00  0.27522441374E+03  0.27522441378E+03  0.50400001928E-02 0. -1.
        1   -1    0    0  501    0  0.00000000000E+00  0.00000000000E+00 -0.15366517388E+04  0.15366517388E+04  0.50400001928E-02 0.  1.
    10030    2    1    2    0    0  0.00000000000E+00  0.00000000000E+00 -0.12614273251E+04  0.18118761526E+04  0.13006522579E+04 0.  0.
        3    1    3    3  502    0 -0.57857098521E+03  0.11369844720E+03 -0.10128579043E+04  0.11719867177E+04  0.10100000352E+00 0.  1.
       -3    1    3    3    0  502  0.57857098521E+03 -0.11369844720E+03 -0.24856942076E+03  0.63988943495E+03  0.10100000352E+00 0. -1.
</event>
<event>
 5   0  0.5957913E-04  0.1294472E+04  0.7818609E-02  0.9033960E-01
       -2   -1    0    0    0  501  0.00000000000E+00  0.00000000000E+00  0.20769771721E+03  0.20769771723E+03  0.25500000920E-02 0. -1.
        2   -1    0    0  501    0  0.00000000000E+00  0.00000000000E+00 -0.20169440991E+04  0.20169440991E+04  0.25500000920E-02 0.  1.
    10030    2    1    2    0    0  0.00000000000E+00  0.00000000000E+00 -0.18092463819E+04  0.22246418164E+04  0.12944723792E+04 0.  0.
        1    1    3    3  502    0  0.56162999315E+03  0.13668216279E+03 -0.40415490934E+03  0.70530238451E+03  0.50400001928E-02 0. -1.
       -1    1    3    3    0  502 -0.56162999315E+03 -0.13668216279E+03 -0.14050914726E+04  0.15193394319E+04  0.50400001928E-02 0.  1.
</event>
<event>
 5   0  0.5384960E-04  0.1299083E+04  0.7818609E-02  0.9030292E-01
       -2   -1    0    0    0  501  0.00000000000E+00  0.00000000000E+00  0.22373641737E+03  0.22373641738E+03  0.25500000920E-02 0. -1.
        2   -1    0    0  501    0  0.00000000000E+00  0.00000000000E+00 -0.18857205634E+04  0.18857205634E+04  0.25500000920E-02 0.  1.
    10030    2    1    2    0    0  0.00000000000E+00  0.00000000000E+00 -0.16619841460E+04  0.21094569807E+04  0.12990833122E+04 0.  0.
        3    1    3    3  502    0  0.27453006776E+03 -0.31123166548E+03 -0.19622016088E+02  0.41547195022E+03  0.10100000352E+00 0. -1.
       -3    1    3    3    0  502 -0.27453006776E+03  0.31123166548E+03 -0.16423621299E+04  0.16939850305E+04  0.10100000352E+00 0.  1.
</event>
<event>
 5   0  0.6052864E-04  0.1298292E+04  0.7818609E-02  0.9030921E-01
        2   -1    0    0  501    0  0.00000000000E+00  0.00000000000E+00  0.85732855771E+03  0.85732855771E+03  0.25500000920E-02 0. -1.
       -2   -1    0    0    0  501  0.00000000000E+00  0.00000000000E+00 -0.49151571352E+03  0.49151571352E+03  0.25500000920E-02 0.  1.
    10030    2    1    2    0    0  0.00000000000E+00  0.00000000000E+00  0.36581284419E+03  0.13488442712E+04  0.12982918898E+04 0.  0.
        2    1    3    3  502    0 -0.53387219353E+03  0.68800751839E+02  0.55985239489E+03  0.77665163783E+03  0.25500000920E-02 0. -1.
       -2    1    3    3    0  502  0.53387219353E+03 -0.68800751839E+02 -0.19403955070E+03  0.57219263340E+03  0.25500000920E-02 0.  1.
</event>
<event>
 5   0  0.3403833E-04  0.1298617E+04  0.7818609E-02  0.9030663E-01
        1   -1    0    0  501    0  0.00000000000E+00  0.00000000000E+00  0.20656120963E+04  0.20656120963E+04  0.50400001928E-02 0. -1.
       -1   -1    0    0    0  501  0.00000000000E+00  0.00000000000E+00 -0.20410482071E+03  0.20410482077E+03  0.50400001928E-02 0.  1.
    10030    2    1    2    0    0  0.00000000000E+00  0.00000000000E+00  0.18615072756E+04  0.22697169171E+04  0.12986167820E+04 0.  0.
        1    1    3    3  502    0 -0.78417542247E+01 -0.63410377112E+03  0.11745213457E+04  0.13347844309E+04  0.50400001928E-02 0. -1.
       -1    1    3    3    0  502  0.78417542247E+01  0.63410377112E+03  0.68698592992E+03  0.93493248612E+03  0.50400001928E-02 0.  1.
</event>
<event>
 5   0  0.6052864E-04  0.1298947E+04  0.7818609E-02  0.9030401E-01
        2   -1    0    0  501    0  0.00000000000E+00  0.00000000000E+00  0.14740719348E+04  0.14740719348E+04  0.25500000920E-02 0.  1.
       -2   -1    0    0    0  501  0.00000000000E+00  0.00000000000E+00 -0.28615667520E+03  0.28615667522E+03  0.25500000920E-02 0. -1.
    10030    2    1    2    0    0  0.00000000000E+00  0.00000000000E+00  0.11879152596E+04  0.17602286100E+04  0.12989465330E+04 0.  0.
        2    1    3    3  502    0 -0.38787473065E+03  0.14770572473E+03 -0.82994717115E+02  0.42326340602E+03  0.25500000920E-02 0. -1.
       -2    1    3    3    0  502  0.38787473065E+03 -0.14770572473E+03  0.12709099767E+04  0.13369652040E+04  0.25500000920E-02 0.  1.
</event>
<event>
 5   0  0.3403833E-04  0.1319214E+04  0.7818609E-02  0.9014466E-01
        1   -1    0    0  501    0  0.00000000000E+00  0.00000000000E+00  0.84800247370E+03  0.84800247372E+03  0.50400001928E-02 0. -1.
       -1   -1    0    0    0  501  0.00000000000E+00  0.00000000000E+00 -0.51306613842E+03  0.51306613844E+03  0.50400001928E-02 0.  1.
    10030    2    1    2    0    0  0.00000000000E+00  0.00000000000E+00  0.33493633529E+03  0.13610686122E+04  0.13192139396E+04 0.  0.
        1    1    3    3  502    0 -0.24704211458E+03 -0.24693345499E+03 -0.40981550029E+03  0.53847440224E+03  0.50400001928E-02 0.  1.
       -1    1    3    3    0  502  0.24704211458E+03  0.24693345499E+03  0.74475183558E+03  0.82259420992E+03  0.50400001928E-02 0. -1.
</event>
<event>
 5   0  0.3337520E-04  0.1295929E+04  0.7818609E-02  0.9032800E-01
       -1   -1    0    0    0  501  0.00000000000E+00  0.00000000000E+00  0.68626232742E+03  0.68626232743E+03  0.50400001928E-02 0.  1.
        1   -1    0    0  501    0  0.00000000000E+00  0.00000000000E+00 -0.61180376409E+03  0.61180376411E+03  0.50400001928E-02 0. -1.
    10030    2    1    2    0    0  0.00000000000E+00  0.00000000000E+00  0.74458563326E+02  0.12980660915E+04  0.12959288176E+04 0.  0.
        5    1    3    3  502    0  0.58456653806E+03 -0.27242722770E+03 -0.25332940311E+02  0.64544440480E+03  0.46999998093E+01 0. -1.
       -5    1    3    3    0  502 -0.58456653806E+03  0.27242722770E+03  0.99791503637E+02  0.65262168675E+03  0.46999998093E+01 0.  1.
</event>
<event>
 5   0  0.5787604E-04  0.1300829E+04  0.7818609E-02  0.9028908E-01
       -2   -1    0    0    0  501  0.00000000000E+00  0.00000000000E+00  0.28082341925E+03  0.28082341927E+03  0.25500000920E-02 0.  1.
        2   -1    0    0  501    0  0.00000000000E+00  0.00000000000E+00 -0.15064224691E+04  0.15064224691E+04  0.25500000920E-02 0. -1.
    10030    2    1    2    0    0  0.00000000000E+00  0.00000000000E+00 -0.12255990499E+04  0.17872458884E+04  0.13008285185E+04 0.  0.
        4    1    3    3  502    0 -0.46217972146E+03  0.24925603332E+03 -0.85492791598E+02  0.53202377334E+03  0.12699999809E+01 0.  1.
       -4    1    3    3    0  502  0.46217972146E+03 -0.24925603332E+03 -0.11401062583E+04  0.12552221151E+04  0.12699999809E+01 0. -1.
</event>
<event>
 5   0  0.3403833E-04  0.1305427E+04  0.7818609E-02  0.9025272E-01
        1   -1    0    0  501    0  0.00000000000E+00  0.00000000000E+00  0.82019751498E+03  0.82019751499E+03  0.50400001928E-02 0. -1.
       -1   -1    0    0    0  501  0.00000000000E+00  0.00000000000E+00 -0.51942995018E+03  0.51942995021E+03  0.50400001928E-02 0.  1.
    10030    2    1    2    0    0  0.00000000000E+00  0.00000000000E+00  0.30076756479E+03  0.13396274652E+04  0.13054273697E+04 0.  0.
        1    1    3    3  502    0  0.40220845244E+03  0.31493367832E+03 -0.26656138552E+03  0.57620294448E+03  0.50400001928E-02 0.  1.
       -1    1    3    3    0  502 -0.40220845244E+03 -0.31493367832E+03  0.56732895031E+03  0.76342452072E+03  0.50400001928E-02 0. -1.
</event>
<event>
 5   0  0.3337520E-04  0.1314720E+04  0.7818609E-02  0.9017973E-01
       -1   -1    0    0    0  501  0.00000000000E+00  0.00000000000E+00  0.12639296533E+04  0.12639296533E+04  0.50400001928E-02 0.  1.
        1   -1    0    0  501    0  0.00000000000E+00  0.00000000000E+00 -0.34188776380E+03  0.34188776384E+03  0.50400001928E-02 0. -1.
    10030    2    1    2    0    0  0.00000000000E+00  0.00000000000E+00  0.92204188949E+03  0.16058174171E+04  0.13147198680E+04 0.  0.
        5    1    3    3  502    0 -0.46593801042E+03 -0.45692446562E+03  0.55736409005E+03  0.85822783439E+03  0.46999998093E+01 0.  1.
       -5    1    3    3    0  502  0.46593801042E+03  0.45692446562E+03  0.36467779944E+03  0.74758958275E+03  0.46999998093E+01 0. -1.
</event>
<event>
 5   0  0.3403833E-04  0.1293916E+04  0.7818609E-02  0.9034404E-01
        1   -1    0    0  501    0  0.00000000000E+00  0.00000000000E+00  0.96199581540E+03  0.96199581542E+03  0.50400001928E-02 0.  1.
       -1   -1    0    0    0  501  0.00000000000E+00  0.00000000000E+00 -0.43508957213E+03  0.43508957216E+03  0.50400001928E-02 0. -1.
    10030    2    1    2    0    0  0.00000000000E+00  0.00000000000E+00  0.52690624327E+03  0.13970853876E+04  0.12939155270E+04 0.  0.
        1    1    3    3  502    0  0.47898449620E+03  0.22345532776E+03  0.66629097539E+03  0.85047168972E+03  0.50400001928E-02 0.  1.
       -1    1    3    3    0  502 -0.47898449620E+03 -0.22345532776E+03 -0.13938473212E+03  0.54661369785E+03  0.50400001928E-02 0. -1.
</event>
<event>
 5   0  0.3263679E-04  0.1322256E+04  0.7818609E-02  0.9012100E-01
       -1   -1    0    0    0  501  0.00000000000E+00  0.00000000000E+00  0.64795277998E+03  0.64795278000E+03  0.50400001928E-02 0.  1.
        1   -1    0    0  501    0  0.00000000000E+00  0.00000000000E+00 -0.67457147803E+03  0.67457147805E+03  0.50400001928E-02 0. -1.
    10030    2    1    2    0    0  0.00000000000E+00  0.00000000000E+00 -0.26618698049E+02  0.13225242581E+04  0.13222563511E+04 0.  0.
        2    1    3    3  502    0  0.66068029887E+02 -0.62934494186E+03 -0.20479114275E+03  0.66511611962E+03  0.25500000920E-02 0. -1.
       -2    1    3    3    0  502 -0.66068029887E+02  0.62934494186E+03  0.17817244470E+03  0.65740813843E+03  0.25500000920E-02 0.  1.
</event>
<event>
 5   0  0.3263679E-04  0.1306211E+04  0.7818609E-02  0.9024654E-01
       -1   -1    0    0    0  501  0.00000000000E+00  0.00000000000E+00  0.48731510456E+03  0.48731510458E+03  0.50400001928E-02 0. -1.
        1   -1    0    0  501    0  0.00000000000E+00  0.00000000000E+00 -0.87530028976E+03  0.87530028977E+03  0.50400001928E-02 0.  1.
    10030    2    1    2    0    0  0.00000000000E+00  0.00000000000E+00 -0.38798518520E+03  0.13626153944E+04  0.13062113952E+04 0.  0.
        2    1    3    3  502    0  0.33672414168E+03  0.54423504279E+03 -0.32989523668E+03  0.72000402539E+03  0.25500000920E-02 0. -1.
       -2    1    3    3    0  502 -0.33672414168E+03 -0.54423504279E+03 -0.58089948528E+02  0.64261136896E+03  0.25500000920E-02 0.  1.
</event>
<event>
 5   0  0.3337520E-04  0.1270363E+04  0.7818609E-02  0.9053403E-01
       -1   -1    0    0    0  501  0.00000000000E+00  0.00000000000E+00  0.10030253518E+04  0.10030253518E+04  0.50400001928E-02 0. -1.
        1   -1    0    0  501    0  0.00000000000E+00  0.00000000000E+00 -0.40223859378E+03  0.40223859381E+03  0.50400001928E-02 0.  1.
    10030    2    1    2    0    0  0.00000000000E+00  0.00000000000E+00  0.60078675805E+03  0.14052639456E+04  0.12703629514E+04 0.  0.
        5    1    3    3  502    0  0.77004622202E+02  0.36685462119E+03  0.86760229100E+03  0.94512848347E+03  0.46999998093E+01 0. -1.
       -5    1    3    3    0  502 -0.77004622202E+02 -0.36685462119E+03 -0.26681553295E+03  0.46013546217E+03  0.46999998093E+01 0.  1.
</event>
<event>
 5   0  0.5957913E-04  0.1299698E+04  0.7818609E-02  0.9029805E-01
       -2   -1    0    0    0  501  0.00000000000E+00  0.00000000000E+00  0.41569833323E+03  0.41569833324E+03  0.25500000920E-02 0.  1.
        2   -1    0    0  501    0  0.00000000000E+00  0.00000000000E+00 -0.10158901935E+04  0.10158901935E+04  0.25500000920E-02 0. -1.
    10030    2    1    2    0    0  0.00000000000E+00  0.00000000000E+00 -0.60019186030E+03  0.14315885268E+04  0.12996982114E+04 0.  0.
        1    1    3    3  502    0 -0.50216441375E+03 -0.31456385416E+03 -0.59397450805E+03  0.83900252266E+03  0.50400001928E-02 0. -1.
       -1    1    3    3    0  502  0.50216441375E+03  0.31456385416E+03 -0.62173522519E+01  0.59258600412E+03  0.50400001928E-02 0.  1.
</event>
<event>
 5   0  0.3263679E-04  0.1295379E+04  0.7818609E-02  0.9033238E-01
       -1   -1    0    0    0  501  0.00000000000E+00  0.00000000000E+00  0.83568442774E+03  0.83568442776E+03  0.50400001928E-02 0.  1.
        1   -1    0    0  501    0  0.00000000000E+00  0.00000000000E+00 -0.50198552762E+03  0.50198552765E+03  0.50400001928E-02 0. -1.
    10030    2    1    2    0    0  0.00000000000E+00  0.00000000000E+00  0.33369890012E+03  0.13376699554E+04  0.12953786912E+04 0.  0.
        2    1    3    3  502    0 -0.52733292740E+01 -0.56966660390E+03 -0.15135630852E+03  0.58945447639E+03  0.25500000920E-02 0. -1.
       -2    1    3    3    0  502  0.52733292740E+01  0.56966660390E+03  0.48505520864E+03  0.74821547901E+03  0.25500000920E-02 0.  1.
</event>
<event>
 5   0  0.5384960E-04  0.1301474E+04  0.7818609E-02  0.9028397E-01
       -2   -1    0    0    0  501  0.00000000000E+00  0.00000000000E+00  0.51063931857E+03  0.51063931858E+03  0.25500000920E-02 0.  1.
        2   -1    0    0  501    0  0.00000000000E+00  0.00000000000E+00 -0.82927098004E+03  0.82927098004E+03  0.25500000920E-02 0. -1.
    10030    2    1    2    0    0  0.00000000000E+00  0.00000000000E+00 -0.31863166147E+03  0.13399102986E+04  0.13014735774E+04 0.  0.
        3    1    3    3  502    0 -0.48600217697E+03  0.26863445078E+03  0.18996122561E+03  0.58689680661E+03  0.10100000352E+00 0.  1.
       -3    1    3    3    0  502  0.48600217697E+03 -0.26863445078E+03 -0.50859288707E+03  0.75301349201E+03  0.10100000352E+00 0. -1.
</event>
<event>
 5   0  0.3274879E-04  0.1294593E+04  0.7818609E-02  0.9033864E-01
        1   -1    0    0  501    0  0.00000000000E+00  0.00000000000E+00  0.11321476557E+04  0.11321476557E+04  0.50400001928E-02 0.  1.
       -1   -1    0    0    0  501  0.00000000000E+00  0.00000000000E+00 -0.37008667335E+03  0.37008667339E+03  0.50400001928E-02 0. -1.
    10030    2    1    2    0    0  0.00000000000E+00  0.00000000000E+00  0.76206098230E+03  0.15022343290E+04  0.12945930012E+04 0.  0.
        4    1    3    3  502    0  0.51195781520E+03  0.18452382587E+03 -0.25671809544E+02  0.54480317690E+03  0.12699999809E+01 0. -1.
       -4    1    3    3    0  502 -0.51195781520E+03 -0.18452382587E+03  0.78773279184E+03  0.95743115215E+03  0.12699999809E+01 0.  1.
</event>
<event>
 5   0  0.5957913E-04  0.1304396E+04  0.7818609E-02  0.9026086E-01
        2   -1    0    0  501    0  0.00000000000E+00  0.00000000000E+00  0.11093614429E+04  0.11093614429E+04  0.25500000920E-02 0.  1.
       -2   -1    0    0    0  501  0.00000000000E+00  0.00000000000E+00 -0.38342995011E+03  0.38342995012E+03  0.25500000920E-02 0. -1.
    10030    2    1    2    0    0  0.00000000000E+00  0.00000000000E+00  0.72593149284E+03  0.14927913931E+04  0.13043962630E+04 0.  0.
        1    1    3    3  502    0  0.10368739906E+02  0.61556177919E+03  0.11661097721E+03  0.62659551132E+03  0.50400001928E-02 0.  1.
       -1    1    3    3    0  502 -0.10368739906E+02 -0.61556177919E+03  0.60932051563E+03  0.86619588175E+03  0.50400001928E-02 0. -1.
</event>
<event>
 5   0  0.3335747E-04  0.1326587E+04  0.7818609E-02  0.9008743E-01
        1   -1    0    0  501    0  0.00000000000E+00  0.00000000000E+00  0.68134210654E+03  0.68134210656E+03  0.50400001928E-02 0. -1.
       -1   -1    0    0    0  501  0.00000000000E+00  0.00000000000E+00 -0.64572326777E+03  0.64572326779E+03  0.50400001928E-02 0.  1.
    10030    2    1    2    0    0  0.00000000000E+00  0.00000000000E+00  0.35618838770E+02  0.13270653744E+04  0.13265872780E+04 0.  0.
        3    1    3    3  502    0 -0.43164218884E+02 -0.58850478984E+03  0.32083343451E+03  0.67166594402E+03  0.10100000352E+00 0. -1.
       -3    1    3    3    0  502  0.43164218884E+02  0.58850478984E+03 -0.28521459574E+03  0.65539943033E+03  0.10100000352E+00 0.  1.
</event>
<event>
 5   0  0.5787604E-04  0.1292186E+04  0.7818609E-02  0.9035785E-01
        2   -1    0    0  501    0  0.00000000000E+00  0.00000000000E+00  0.11593962817E+04  0.11593962817E+04  0.25500000920E-02 0. -1.
       -2   -1    0    0    0  501  0.00000000000E+00  0.00000000000E+00 -0.36004588985E+03  0.36004588986E+03  0.25500000920E-02 0.  1.
    10030    2    1    2    0    0  0.00000000000E+00  0.00000000000E+00  0.79935039186E+03  0.15194421716E+04  0.12921855377E+04 0.  0.
        4    1    3    3  502    0 -0.47904144592E+03 -0.43116840944E+03  0.34646985587E+03  0.73173074155E+03  0.12699999809E+01 0.  1.
       -4    1    3    3    0  502  0.47904144592E+03  0.43116840944E+03  0.45288053599E+03  0.78771143003E+03  0.12699999809E+01 0. -1.
</event>
<event>
 5   0  0.2255875E-04  0.1299462E+04  0.7818609E-02  0.9029992E-01
       -3   -1    0    0    0  501  0.00000000000E+00  0.00000000000E+00  0.10767590809E+04  0.10767590856E+04  0.10100000352E+00 0.  1.
        3   -1    0    0  501    0  0.00000000000E+00  0.00000000000E+00 -0.39205620543E+03  0.39205621844E+03  0.10100000352E+00 0. -1.
    10030    2    1    2    0    0  0.00000000000E+00  0.00000000000E+00  0.68470287544E+03  0.14688153041E+04  0.12994615692E+04 0.  0.
        1    1    3    3  502    0 -0.21242886821E+03 -0.49821300440E+03 -0.63320483917E+02  0.54529964746E+03  0.50400001928E-02 0. -1.
       -1    1    3    3    0  502  0.21242886821E+03  0.49821300440E+03  0.74802335936E+03  0.92351565660E+03  0.50400001928E-02 0.  1.
</event>
<event>
 5   0  0.5787604E-04  0.1306740E+04  0.7818609E-02  0.9024238E-01
        2   -1    0    0  501    0  0.00000000000E+00  0.00000000000E+00  0.12403654207E+04  0.12403654207E+04  0.25500000920E-02 0.  1.
       -2   -1    0    0    0  501  0.00000000000E+00  0.00000000000E+00 -0.34416636845E+03  0.34416636846E+03  0.25500000920E-02 0. -1.
    10030    2    1    2    0    0  0.00000000000E+00  0.00000000000E+00  0.89619905229E+03  0.15845317892E+04  0.13067395493E+04 0.  0.
        4    1    3    3  502    0 -0.13925574329E+03  0.60708686263E+03  0.68739321472E+03  0.92760857335E+03  0.12699999809E+01 0.  1.
       -4    1    3    3    0  502  0.13925574329E+03 -0.60708686263E+03  0.20880583758E+03  0.65692321585E+03  0.12699999809E+01 0. -1.
</event>
<event>
 5   0  0.6007125E-04  0.1296447E+04  0.7818609E-02  0.9032388E-01
       -2   -1    0    0    0  501  0.00000000000E+00  0.00000000000E+00  0.37495277257E+03  0.37495277258E+03  0.25500000920E-02 0. -1.
        2   -1    0    0  501    0  0.00000000000E+00  0.00000000000E+00 -0.11206571584E+04  0.11206571584E+04  0.25500000920E-02 0.  1.
    10030    2    1    2    0    0  0.00000000000E+00  0.00000000000E+00 -0.74570438581E+03  0.14956099310E+04  0.12964466956E+04 0.  0.
        5    1    3    3  502    0  0.63417387407E+03 -0.12920512252E+03 -0.41446187320E+03  0.76855136496E+03  0.46999998093E+01 0. -1.
       -5    1    3    3    0  502 -0.63417387407E+03  0.12920512252E+03 -0.33124251260E+03  0.72705856600E+03  0.46999998093E+01 0.  1.
</event>
<event>
 5   0  0.6052864E-04  0.1298741E+04  0.7818609E-02  0.9030564E-01
        2   -1    0    0  501    0  0.00000000000E+00  0.00000000000E+00  0.24365196286E+04  0.24365196286E+04  0.25500000920E-02 0. -1.
       -2   -1    0    0    0  501  0.00000000000E+00  0.00000000000E+00 -0.17306732920E+03  0.17306732922E+03  0.25500000920E-02 0.  1.
    10030    2    1    2    0    0  0.00000000000E+00  0.00000000000E+00  0.22634522994E+04  0.26095869578E+04  0.12987408436E+04 0.  0.
        2    1    3    3  502    0 -0.94762956257E+02 -0.11757264701E+03 -0.13729728638E+03  0.20409284666E+03  0.25500000920E-02 0.  1.
       -2    1    3    3    0  502  0.94762956257E+02  0.11757264701E+03  0.24007495858E+04  0.24054941112E+04  0.25500000920E-02 0. -1.
</event>
<event>
 5   0  0.5384960E-04  0.1336386E+04  0.7818609E-02  0.9001198E-01
       -2   -1    0    0    0  501  0.00000000000E+00  0.00000000000E+00  0.39688301611E+03  0.39688301611E+03  0.25500000920E-02 0. -1.
        2   -1    0    0  501    0  0.00000000000E+00  0.00000000000E+00 -0.11249712659E+04  0.11249712659E+04  0.25500000920E-02 0.  1.
    10030    2    1    2    0    0  0.00000000000E+00  0.00000000000E+00 -0.72808824976E+03  0.15218542820E+04  0.13363861553E+04 0.  0.
        3    1    3    3  502    0  0.11378055967E+03 -0.36831927916E+03  0.25748215263E+03  0.46357542675E+03  0.10100000352E+00 0. -1.
       -3    1    3    3    0  502 -0.11378055967E+03  0.36831927916E+03 -0.98557040239E+03  0.10582788552E+04  0.10100000352E+00 0.  1.
</event>
<event>
 5   0  0.5384960E-04  0.1285125E+04  0.7818609E-02  0.9041445E-01
       -2   -1    0    0    0  501  0.00000000000E+00  0.00000000000E+00  0.37576745300E+03  0.37576745301E+03  0.25500000920E-02 0. -1.
        2   -1    0    0  501    0  0.00000000000E+00  0.00000000000E+00 -0.10987814380E+04  0.10987814380E+04  0.25500000920E-02 0.  1.
    10030    2    1    2    0    0  0.00000000000E+00  0.00000000000E+00 -0.72301398502E+03  0.14745488910E+04  0.12851245891E+04 0.  0.
        3    1    3    3  502    0  0.16627587646E+03 -0.49796538168E+03  0.63602049648E+02  0.52883118229E+03  0.10100000352E+00 0. -1.
       -3    1    3    3    0  502 -0.16627587646E+03  0.49796538168E+03 -0.78661603467E+03  0.94571770875E+03  0.10100000352E+00 0.  1.
</event>
<event>
 5   0  0.6052864E-04  0.1308247E+04  0.7818609E-02  0.9023051E-01
        2   -1    0    0  501    0  0.00000000000E+00  0.00000000000E+00  0.78929136752E+03  0.78929136752E+03  0.25500000920E-02 0.  1.
       -2   -1    0    0    0  501  0.00000000000E+00  0.00000000000E+00 -0.54210317259E+03  0.54210317259E+03  0.25500000920E-02 0. -1.
    10030    2    1    2    0    0  0.00000000000E+00  0.00000000000E+00  0.24718819493E+03  0.13313945401E+04  0.13082466961E+04 0.  0.
        2    1    3    3  502    0  0.10735192016E+03 -0.53248642269E+00 -0.53307682247E+03  0.54377901482E+03  0.25500000920E-02 0. -1.
       -2    1    3    3    0  502 -0.10735192016E+03  0.53248642269E+00  0.78026501740E+03  0.78761552530E+03  0.25500000920E-02 0.  1.
</event>
<event>
 5   0  0.2255875E-04  0.1299203E+04  0.7818609E-02  0.9030197E-01
       -3   -1    0    0    0  501  0.00000000000E+00  0.00000000000E+00  0.14220510674E+04  0.14220510710E+04  0.10100000352E+00 0.  1.
        3   -1    0    0  501    0  0.00000000000E+00  0.00000000000E+00 -0.29674183101E+03  0.29674184820E+03  0.10100000352E+00 0. -1.
    10030    2    1    2    0    0  0.00000000000E+00  0.00000000000E+00  0.11253092364E+04  0.17187929192E+04  0.12992029178E+04 0.  0.
        2    1    3    3  502    0  0.14495927364E+02  0.47714633439E+03 -0.20203737901E+02  0.47779383353E+03  0.25500000920E-02 0. -1.
       -2    1    3    3    0  502 -0.14495927364E+02 -0.47714633439E+03  0.11455129743E+04  0.12409990857E+04  0.25500000920E-02 0.  1.
</event>
<event>
 5   0  0.6007125E-04  0.1332261E+04  0.7818609E-02  0.9004366E-01
        2   -1    0    0  501    0  0.00000000000E+00  0.00000000000E+00  0.13992457148E+04  0.13992457148E+04  0.25500000920E-02 0. -1.
       -2   -1    0    0    0  501  0.00000000000E+00  0.00000000000E+00 -0.31712070898E+03  0.31712070899E+03  0.25500000920E-02 0.  1.
    10030    2    1    2    0    0  0.00000000000E+00  0.00000000000E+00  0.10821250058E+04  0.17163664238E+04  0.13322609251E+04 0.  0.
        5    1    3    3  502    0 -0.58641216575E+03  0.29598028652E+03  0.68350184727E+03  0.94798756498E+03  0.46999998093E+01 0.  1.
       -5    1    3    3    0  502  0.58641216575E+03 -0.29598028652E+03  0.39862315857E+03  0.76837885883E+03  0.46999998093E+01 0. -1.
</event>
<event>
 5   0  0.5384960E-04  0.1315930E+04  0.7818609E-02  0.9017027E-01
       -2   -1    0    0    0  501  0.00000000000E+00  0.00000000000E+00  0.35429262911E+03  0.35429262912E+03  0.25500000920E-02 0. -1.
        2   -1    0    0  501    0  0.00000000000E+00  0.00000000000E+00 -0.12219216430E+04  0.12219216430E+04  0.25500000920E-02 0.  1.
    10030    2    1    2    0    0  0.00000000000E+00  0.00000000000E+00 -0.86762901385E+03  0.15762142721E+04  0.13159298332E+04 0.  0.
        3    1    3    3  502    0 -0.26691129847E+03  0.37876303674E+03 -0.99334603937E+03  0.10961019311E+04  0.10100000352E+00 0.  1.
       -3    1    3    3    0  502  0.26691129847E+03 -0.37876303674E+03  0.12571702552E+03  0.48011234097E+03  0.10100000352E+00 0. -1.
</event>
<event>
 5   0  0.3274879E-04  0.1299562E+04  0.7818609E-02  0.9029912E-01
        1   -1    0    0  501    0  0.00000000000E+00  0.00000000000E+00  0.21811912981E+04  0.21811912981E+04  0.50400001928E-02 0.  1.
       -1   -1    0    0    0  501  0.00000000000E+00  0.00000000000E+00 -0.19357109123E+03  0.19357109130E+03  0.50400001928E-02 0. -1.
    10030    2    1    2    0    0  0.00000000000E+00  0.00000000000E+00  0.19876202068E+04  0.23747623894E+04  0.12995623569E+04 0.  0.
        4    1    3    3  502    0 -0.62483340532E+03  0.17722816910E+03  0.95784513762E+03  0.11572793651E+04  0.12699999809E+01 0. -1.
       -4    1    3    3    0  502  0.62483340532E+03 -0.17722816910E+03  0.10297750692E+04  0.12174830243E+04  0.12699999809E+01 0.  1.
</event>
<event>
 5   0  0.5957913E-04  0.1300511E+04  0.7818609E-02  0.9029160E-01
        2   -1    0    0  501    0  0.00000000000E+00  0.00000000000E+00  0.17931495644E+04  0.17931495644E+04  0.25500000920E-02 0.  1.
       -2   -1    0    0    0  501  0.00000000000E+00  0.00000000000E+00 -0.23580419555E+03  0.23580419556E+03  0.25500000920E-02 0. -1.
    10030    2    1    2    0    0  0.00000000000E+00  0.00000000000E+00  0.15573453688E+04  0.20289537599E+04  0.13005109619E+04 0.  0.
        1    1    3    3  502    0 -0.51981729564E+03  0.38902707441E+03  0.83449154103E+03  0.10573212461E+04  0.50400001928E-02 0. -1.
       -1    1    3    3    0  502  0.51981729564E+03 -0.38902707441E+03  0.72285382779E+03  0.97163251379E+03  0.50400001928E-02 0.  1.
</event>
<event>
 5   0  0.6052864E-04  0.1298928E+04  0.7818609E-02  0.9030416E-01
        2   -1    0    0  501    0  0.00000000000E+00  0.00000000000E+00  0.14400691215E+04  0.14400691215E+04  0.25500000920E-02 0.  1.
       -2   -1    0    0    0  501  0.00000000000E+00  0.00000000000E+00 -0.29290482647E+03  0.29290482648E+03  0.25500000920E-02 0. -1.
    10030    2    1    2    0    0  0.00000000000E+00  0.00000000000E+00  0.11471642950E+04  0.17329739480E+04  0.12989275517E+04 0.  0.
        2    1    3    3  502    0  0.19725191085E+03 -0.61874217107E+03  0.58329546843E+03  0.87291683114E+03  0.25500000920E-02 0. -1.
       -2    1    3    3    0  502 -0.19725191085E+03  0.61874217107E+03  0.56386882660E+03  0.86005711683E+03  0.25500000920E-02 0.  1.
</event>
<event>
 5   0  0.3263679E-04  0.1302465E+04  0.7818609E-02  0.9027613E-01
       -1   -1    0    0    0  501  0.00000000000E+00  0.00000000000E+00  0.54094991322E+03  0.54094991325E+03  0.50400001928E-02 0. -1.
        1   -1    0    0  501    0  0.00000000000E+00  0.00000000000E+00 -0.78399772274E+03  0.78399772275E+03  0.50400001928E-02 0.  1.
    10030    2    1    2    0    0  0.00000000000E+00  0.00000000000E+00 -0.24304780951E+03  0.13249476360E+04  0.13024645870E+04 0.  0.
        2    1    3    3  502    0  0.49655766768E+03  0.37557484955E+03 -0.31581165254E+03  0.69811387669E+03  0.25500000920E-02 0.  1.
       -2    1    3    3    0  502 -0.49655766768E+03 -0.37557484955E+03  0.72763843026E+02  0.62683375931E+03  0.25500000920E-02 0. -1.
</event>
<event>
 5   0  0.6007125E-04  0.1298535E+04  0.7818609E-02  0.9030728E-01
        2   -1    0    0  501    0  0.00000000000E+00  0.00000000000E+00  0.16930772784E+04  0.16930772784E+04  0.25500000920E-02 0. -1.
       -2   -1    0    0    0  501  0.00000000000E+00  0.00000000000E+00 -0.24898334295E+03  0.24898334297E+03  0.25500000920E-02 0.  1.
    10030    2    1    2    0    0  0.00000000000E+00  0.00000000000E+00  0.14440939355E+04  0.19420606214E+04  0.12985346213E+04 0.  0.
        5    1    3    3  502    0 -0.20641598304E+03 -0.14595905441E+03 -0.17232198781E+03  0.30598784469E+03  0.46999998093E+01 0.  1.
       -5    1    3    3    0  502  0.20641598304E+03  0.14595905441E+03  0.16164159233E+04  0.16360727767E+04  0.46999998093E+01 0. -1.
</event>
<event>
 5   0  0.3335747E-04  0.1293771E+04  0.7818609E-02  0.9034519E-01
        1   -1    0    0  501    0  0.00000000000E+00  0.00000000000E+00  0.17707376123E+04  0.17707376123E+04  0.50400001928E-02 0.  1.
       -1   -1    0    0    0  501  0.00000000000E+00  0.00000000000E+00 -0.23632019556E+03  0.23632019561E+03  0.50400001928E-02 0. -1.
    10030    2    1    2    0    0  0.00000000000E+00  0.00000000000E+00  0.15344174167E+04  0.20070578079E+04  0.12937713227E+04 0.  0.
        3    1    3    3  502    0 -0.59832055594E+03  0.44942281242E+02  0.11422754526E+04  0.12902714893E+04  0.10100000352E+00 0.  1.
       -3    1    3    3    0  502  0.59832055594E+03 -0.44942281242E+02  0.39214196413E+03  0.71678631860E+03  0.10100000352E+00 0. -1.
</event>
<event>
 5   0  0.3335747E-04  0.1305613E+04  0.7818609E-02  0.9025126E-01
       -1   -1    0    0    0  501  0.00000000000E+00  0.00000000000E+00  0.36259952806E+03  0.36259952809E+03  0.50400001928E-02 0. -1.
        1   -1    0    0  501    0  0.00000000000E+00  0.00000000000E+00 -0.11752810492E+04  0.11752810492E+04  0.50400001928E-02 0.  1.
    10030    2    1    2    0    0  0.00000000000E+00  0.00000000000E+00 -0.81268152115E+03  0.15378805773E+04  0.13056130419E+04 0.  0.
        3    1    3    3  502    0  0.16486164055E+03 -0.62516968626E+03 -0.30006940038E+03  0.71278198096E+03  0.10100000352E+00 0.  1.
       -3    1    3    3    0  502 -0.16486164055E+03  0.62516968626E+03 -0.51261212077E+03  0.82509859635E+03  0.10100000352E+00 0. -1.
</event>
<event>
 5   0  0.3274879E-04  0.1302775E+04  0.7818609E-02  0.9027367E-01
        1   -1    0    0  501    0  0.00000000000E+00  0.00000000000E+00  0.12916539306E+04  0.12916539306E+04  0.50400001928E-02 0. -1.
       -1   -1    0    0    0  501  0.00000000000E+00  0.00000000000E+00 -0.32849800088E+03  0.32849800092E+03  0.50400001928E-02 0.  1.
    10030    2    1    2    0    0  0.00000000000E+00  0.00000000000E+00  0.96315592972E+03  0.16201519315E+04  0.13027750904E+04 0.  0.
        4    1    3    3  502    0  0.48144364196E+03 -0.42900335915E+03  0.59604644040E+03  0.87812575100E+03  0.12699999809E+01 0.  1.
       -4    1    3    3    0  502 -0.48144364196E+03  0.42900335915E+03  0.36710948931E+03  0.74202618053E+03  0.12699999809E+01 0. -1.
</event>
<event>
 5   0  0.5787604E-04  0.1274132E+04  0.7818609E-02  0.9050334E-01
        2   -1    0    0  501    0  0.00000000000E+00  0.00000000000E+00  0.13095892228E+04  0.13095892228E+04  0.25500000920E-02 0.  1.
       -2   -1    0    0    0  501  0.00000000000E+00  0.00000000000E+00 -0.30990883787E+03  0.30990883788E+03  0.25500000920E-02 0. -1.
    10030    2    1    2    0    0  0.00000000000E+00  0.00000000000E+00  0.99968038489E+03  0.16194980606E+04  0.12741322916E+04 0.  0.
        4    1    3    3  502    0  0.43457585232E+03 -0.10634073966E+03  0.10763005890E+04  0.11655853015E+04  0.12699999809E+01 0.  1.
       -4    1    3    3    0  502 -0.43457585232E+03  0.10634073966E+03 -0.76620204095E+02  0.45391275913E+03  0.12699999809E+01 0. -1.
</event>
<event>
 5   0  0.6052864E-04  0.1305809E+04  0.7818609E-02  0.9024971E-01
       -2   -1    0    0    0  501  0.00000000000E+00  0.00000000000E+00  0.43801993713E+03  0.43801993714E+03  0.25500000920E-02 0.  1.
        2   -1    0    0  501    0  0.00000000000E+00  0.00000000000E+00 -0.97320718066E+03  0.97320718067E+03  0.25500000920E-02 0. -1.
    10030    2    1    2    0    0  0.00000000000E+00  0.00000000000E+00 -0.53518724353E+03  0.14112271178E+04  0.13058087886E+04 0.  0.
        2    1    3    3  502    0  0.62865133923E+02 -0.17307091957E+03  0.40937723260E+03  0.44888226390E+03  0.25500000920E-02 0.  1.
       -2    1    3    3    0  502 -0.62865133923E+02  0.17307091957E+03 -0.94456447613E+03  0.96234485391E+03  0.25500000920E-02 0. -1.
</event>
<event>
 5   0  0.5787604E-04  0.1301805E+04  0.7818609E-02  0.9028135E-01
        2   -1    0    0  501    0  0.00000000000E+00  0.00000000000E+00  0.12183493776E+04  0.12183493776E+04  0.25500000920E-02 0. -1.
       -2   -1    0    0    0  501  0.00000000000E+00  0.00000000000E+00 -0.34774425913E+03  0.34774425914E+03  0.25500000920E-02 0.  1.
    10030    2    1    2    0    0  0.00000000000E+00  0.00000000000E+00  0.87060511845E+03  0.15660936367E+04  0.13018049035E+04 0.  0.
        4    1    3    3  502    0  0.15115123227E+03 -0.13169276826E+03 -0.30967761455E+03  0.36890583904E+03  0.12699999809E+01 0.  1.
       -4    1    3    3    0  502 -0.15115123227E+03  0.13169276826E+03  0.11802827330E+04  0.11971877977E+04  0.12699999809E+01 0. -1.
</event>
<event>
 5   0  0.5957913E-04  0.1288771E+04  0.7818609E-02  0.9038517E-01
        2   -1    0    0  501    0  0.00000000000E+00  0.00000000000E+00  0.43928606285E+03  0.43928606285E+03  0.25500000920E-02 0.  1.
       -2   -1    0    0    0  501  0.00000000000E+00  0.00000000000E+00 -0.94524498634E+03  0.94524498634E+03  0.25500000920E-02 0. -1.
    10030    2    1    2    0    0  0.00000000000E+00  0.00000000000E+00 -0.50595892349E+03  0.13845310492E+04  0.12887714281E+04 0.  0.
        1    1    3    3  502    0  0.22045302828E+03 -0.31144959250E+03 -0.81082372283E+03  0.89612247817E+03  0.50400001928E-02 0. -1.
       -1    1    3    3    0  502 -0.22045302828E+03  0.31144959250E+03  0.30486479934E+03  0.48840857103E+03  0.50400001928E-02 0.  1.
</event>
<event>
 5   0  0.5384960E-04  0.1305199E+04  0.7818609E-02  0.9025452E-01
        2   -1    0    0  501    0  0.00000000000E+00  0.00000000000E+00  0.10908673398E+04  0.10908673398E+04  0.25500000920E-02 0.  1.
       -2   -1    0    0    0  501  0.00000000000E+00  0.00000000000E+00 -0.39041057764E+03  0.39041057765E+03  0.25500000920E-02 0. -1.
    10030    2    1    2    0    0  0.00000000000E+00  0.00000000000E+00  0.70045676214E+03  0.14812779174E+04  0.13051990626E+04 0.  0.
        3    1    3    3  502    0 -0.38084550092E+03 -0.16807916687E+03 -0.22015884933E+03  0.47091807254E+03  0.10100000352E+00 0. -1.
       -3    1    3    3    0  502  0.38084550092E+03  0.16807916687E+03  0.92061561147E+03  0.10103598449E+04  0.10100000352E+00 0.  1.
</event>
<event>
 5   0  0.3403833E-04  0.1289459E+04  0.7818609E-02  0.9037966E-01
       -1   -1    0    0    0  501  0.00000000000E+00  0.00000000000E+00  0.10484664277E+04  0.10484664277E+04  0.50400001928E-02 0.  1.
        1   -1    0    0  501    0  0.00000000000E+00  0.00000000000E+00 -0.39646133270E+03  0.39646133273E+03  0.50400001928E-02 0. -1.
    10030    2    1    2    0    0  0.00000000000E+00  0.00000000000E+00  0.65200509499E+03  0.14449277604E+04  0.12894594173E+04 0.  0.
        1    1    3    3  502    0 -0.89478524963E+02 -0.23095725878E+03  0.99302682910E+03  0.10234500208E+04  0.50400001928E-02 0.  1.
       -1    1    3    3    0  502  0.89478524963E+02  0.23095725878E+03 -0.34102173411E+03  0.42147773959E+03  0.50400001928E-02 0. -1.
</event>
<event>
 5   0  0.6052864E-04  0.1298394E+04  0.7818609E-02  0.9030840E-01
        2   -1    0    0  501    0  0.00000000000E+00  0.00000000000E+00  0.11608088685E+04  0.11608088685E+04  0.25500000920E-02 0. -1.
       -2   -1    0    0    0  501  0.00000000000E+00  0.00000000000E+00 -0.36307140424E+03  0.36307140425E+03  0.25500000920E-02 0.  1.
    10030    2    1    2    0    0  0.00000000000E+00  0.00000000000E+00  0.79773746424E+03  0.15238802727E+04  0.12983936321E+04 0.  0.
        2    1    3    3  502    0 -0.55355224893E+03 -0.24361680856E+03  0.67583215095E+03  0.90692796736E+03  0.25500000920E-02 0. -1.
       -2    1    3    3    0  502  0.55355224893E+03  0.24361680856E+03  0.12190531329E+03  0.61695230539E+03  0.25500000920E-02 0.  1.
</event>
<event>
 5   0  0.3263679E-04  0.1314267E+04  0.7818609E-02  0.9018327E-01
        1   -1    0    0  501    0  0.00000000000E+00  0.00000000000E+00  0.66040225616E+03  0.66040225618E+03  0.50400001928E-02 0.  1.
       -1   -1    0    0    0  501  0.00000000000E+00  0.00000000000E+00 -0.65388108269E+03  0.65388108271E+03  0.50400001928E-02 0. -1.
    10030    2    1    2    0    0  0.00000000000E+00  0.00000000000E+00  0.65211734716E+01  0.13142833389E+04  0.13142671605E+04 0.  0.
        2    1    3    3  502    0 -0.49872553443E+03  0.16634845502E+03  0.39750594391E+03  0.65909782478E+03  0.25500000920E-02 0.  1.
       -2    1    3    3    0  502  0.49872553443E+03 -0.16634845502E+03 -0.39098477044E+03  0.65518551411E+03  0.25500000920E-02 0. -1.
</event>
<event>
 5   0  0.5787604E-04  0.1245270E+04  0.7818609E-02  0.9074129E-01
        2   -1    0    0  501    0  0.00000000000E+00  0.00000000000E+00  0.79748960013E+03  0.79748960014E+03  0.25500000920E-02 0. -1.
       -2   -1    0    0    0  501  0.00000000000E+00  0.00000000000E+00 -0.48611826323E+03  0.48611826324E+03  0.25500000920E-02 0.  1.
    10030    2    1    2    0    0  0.00000000000E+00  0.00000000000E+00  0.31137133690E+03  0.12836078634E+04  0.12452698653E+04 0.  0.
        4    1    3    3  502    0 -0.23998641773E+03  0.52672212108E+03  0.39218999719E+03  0.69917399861E+03  0.12699999809E+01 0. -1.
       -4    1    3    3    0  502  0.23998641773E+03 -0.52672212108E+03 -0.80818660292E+02  0.58443386477E+03  0.12699999809E+01 0.  1.
</event>
<event>
 5   0  0.5787604E-04  0.1297973E+04  0.7818609E-02  0.9031174E-01
       -2   -1    0    0    0  501  0.00000000000E+00  0.00000000000E+00  0.26312477519E+03  0.26312477520E+03  0.25500000920E-02 0. -1.
        2   -1    0    0  501    0  0.00000000000E+00  0.00000000000E+00 -0.16006989208E+04  0.16006989208E+04  0.25500000920E-02 0.  1.
    10030    2    1    2    0    0  0.00000000000E+00  0.00000000000E+00 -0.13375741456E+04  0.18638236960E+04  0.12979731025E+04 0.  0.
        4    1    3    3  502    0  0.51002279846E+03 -0.11964102796E+02 -0.92766328083E+02  0.51853022981E+03  0.12699999809E+01 0. -1.
       -4    1    3    3    0  502 -0.51002279846E+03  0.11964102796E+02 -0.12448078175E+04  0.13452934662E+04  0.12699999809E+01 0.  1.
</event>
<event>
 5   0  0.3274879E-04  0.1287691E+04  0.7818609E-02  0.9039384E-01
        1   -1    0    0  501    0  0.00000000000E+00  0.00000000000E+00  0.67980267101E+03  0.67980267103E+03  0.50400001928E-02 0. -1.
       -1   -1    0    0    0  501  0.00000000000E+00  0.00000000000E+00 -0.60979040483E+03  0.60979040485E+03  0.50400001928E-02 0.  1.
    10030    2    1    2    0    0  0.00000000000E+00  0.00000000000E+00  0.70012266175E+02  0.12895930759E+04  0.12876911835E+04 0.  0.
        4    1    3    3  502    0 -0.60040690075E+03  0.52826054490E+02 -0.19172722551E+03  0.63248713853E+03  0.12699999809E+01 0.  1.
       -4    1    3    3    0  502  0.60040690075E+03 -0.52826054490E+02  0.26173949169E+03  0.65710593736E+03  0.12699999809E+01 0. -1.
</event>
<event>
 5   0  0.3335747E-04  0.1299805E+04  0.7818609E-02  0.9029720E-01
       -1   -1    0    0    0  501  0.00000000000E+00  0.00000000000E+00  0.66024986549E+03  0.66024986551E+03  0.50400001928E-02 0.  1.
        1   -1    0    0  501    0  0.00000000000E+00  0.00000000000E+00 -0.63971726819E+03  0.63971726821E+03  0.50400001928E-02 0. -1.
    10030    2    1    2    0    0  0.00000000000E+00  0.00000000000E+00  0.20532597301E+02  0.12999671337E+04  0.12998049704E+04 0.  0.
        3    1    3    3  502    0  0.32348084087E+03  0.56328457470E+03  0.31336997550E+02  0.65031637233E+03  0.10100000352E+00 0. -1.
       -3    1    3    3    0  502 -0.32348084087E+03 -0.56328457470E+03 -0.10804400249E+02  0.64965076139E+03  0.10100000352E+00 0.  1.
</event>
<event>
 5   0  0.5384960E-04  0.1289403E+04  0.7818609E-02  0.9038011E-01
        2   -1    0    0  501    0  0.00000000000E+00  0.00000000000E+00  0.11401268875E+04  0.11401268875E+04  0.25500000920E-02 0. -1.
       -2   -1    0    0    0  501  0.00000000000E+00  0.00000000000E+00 -0.36455601283E+03  0.36455601284E+03  0.25500000920E-02 0.  1.
    10030    2    1    2    0    0  0.00000000000E+00  0.00000000000E+00  0.77557087464E+03  0.15046829003E+04  0.12894031367E+04 0.  0.
        3    1    3    3  502    0  0.11630401056E+02 -0.77887951004E+02  0.11344929097E+04  0.11372229207E+04  0.10100000352E+00 0. -1.
       -3    1    3    3    0  502 -0.11630401056E+02  0.77887951004E+02 -0.35892203504E+03  0.36745997956E+03  0.10100000352E+00 0.  1.
</event>
<event>
 5   0  0.3337520E-04  0.1298243E+04  0.7818609E-02  0.9030960E-01
        1   -1    0    0  501    0  0.00000000000E+00  0.00000000000E+00  0.12850852195E+04  0.12850852195E+04  0.50400001928E-02 0. -1.
       -1   -1    0    0    0  501  0.00000000000E+00  0.00000000000E+00 -0.32788384067E+03  0.32788384071E+03  0.50400001928E-02 0.  1.
    10030    2    1    2    0    0  0.00000000000E+00  0.00000000000E+00  0.95720137879E+03  0.16129690602E+04  0.12982429316E+04 0.  0.
        5    1    3    3  502    0 -0.52912286136E+03 -0.28728747676E+03  0.17724805213E+03  0.62764963052E+03  0.46999998093E+01 0.  1.
       -5    1    3    3    0  502  0.52912286136E+03  0.28728747676E+03  0.77995332665E+03  0.98531942966E+03  0.46999998093E+01 0. -1.
</event>
<event>
 5   0  0.3274879E-04  0.1299384E+04  0.7818609E-02  0.9030054E-01
        1   -1    0    0  501    0  0.00000000000E+00  0.00000000000E+00  0.69435783802E+03  0.69435783804E+03  0.50400001928E-02 0. -1.
       -1   -1    0    0    0  501  0.00000000000E+00  0.00000000000E+00 -0.60789912707E+03  0.60789912709E+03  0.50400001928E-02 0.  1.
    10030    2    1    2    0    0  0.00000000000E+00  0.00000000000E+00  0.86458710948E+02  0.13022569651E+04  0.12993837364E+04 0.  0.
        4    1    3    3  502    0 -0.42554403074E+03  0.47380725747E+03  0.17203151839E+03  0.65967984322E+03  0.12699999809E+01 0. -1.
       -4    1    3    3    0  502  0.42554403074E+03 -0.47380725747E+03 -0.85572807438E+02  0.64257712191E+03  0.12699999809E+01 0.  1.
</event>
<event>
 5   0  0.5787604E-04  0.1297341E+04  0.7818609E-02  0.9031677E-01
        2   -1    0    0  501    0  0.00000000000E+00  0.00000000000E+00  0.38773419041E+03  0.38773419042E+03  0.25500000920E-02 0.  1.
       -2   -1    0    0    0  501  0.00000000000E+00  0.00000000000E+00 -0.10852107713E+04  0.10852107713E+04  0.25500000920E-02 0. -1.
    10030    2    1    2    0    0  0.00000000000E+00  0.00000000000E+00 -0.69747658087E+03  0.14729449617E+04  0.12973408493E+04 0.  0.
        4    1    3    3  502    0  0.45350916579E+03 -0.39800538051E+03 -0.78406816870E+02  0.60846371149E+03  0.12699999809E+01 0.  1.
       -4    1    3    3    0  502 -0.45350916579E+03  0.39800538051E+03 -0.61906976400E+03  0.86448125021E+03  0.12699999809E+01 0. -1.
</event>
<event>
 5   0  0.5957913E-04  0.1301177E+04  0.7818609E-02  0.9028632E-01
       -2   -1    0    0    0  501  0.00000000000E+00  0.00000000000E+00  0.31207998099E+03  0.31207998100E+03  0.25500000920E-02 0.  1.
        2   -1    0    0  501    0  0.00000000000E+00  0.00000000000E+00 -0.13562731530E+04  0.13562731530E+04  0.25500000920E-02 0. -1.
    10030    2    1    2    0    0  0.00000000000E+00  0.00000000000E+00 -0.10441931720E+04  0.16683531340E+04  0.13011774665E+04 0.  0.
        1    1    3    3  502    0 -0.13945820315E+03 -0.46042324503E+03 -0.10836705079E+04  0.11856559048E+04  0.50400001928E-02 0. -1.
       -1    1    3    3    0  502  0.13945820315E+03  0.46042324503E+03  0.39477335856E+02  0.48269722919E+03  0.50400001928E-02 0.  1.
</event>
<event>
 5   0  0.3263679E-04  0.1294336E+04  0.7818609E-02  0.9034069E-01
       -1   -1    0    0    0  501  0.00000000000E+00  0.00000000000E+00  0.10041337563E+04  0.10041337563E+04  0.50400001928E-02 0.  1.
        1   -1    0    0  501    0  0.00000000000E+00  0.00000000000E+00 -0.41710222802E+03  0.41710222805E+03  0.50400001928E-02 0. -1.
    10030    2    1    2    0    0  0.00000000000E+00  0.00000000000E+00  0.58703152824E+03  0.14212359843E+04  0.12943360105E+04 0.  0.
        2    1    3    3  502    0  0.59352636193E+03 -0.20540242934E+03  0.46490443368E+03  0.78140887680E+03  0.25500000920E-02 0.  1.
       -2    1    3    3    0  502 -0.59352636193E+03  0.20540242934E+03  0.12212709456E+03  0.63982710752E+03  0.25500000920E-02 0. -1.
</event>
<event>
 5   0  0.6052864E-04  0.1298578E+04  0.7818609E-02  0.9030693E-01
        2   -1    0    0  501    0  0.00000000000E+00  0.00000000000E+00  0.21440255172E+04  0.21440255172E+04  0.25500000920E-02 0. -1.
       -2   -1    0    0    0  501  0.00000000000E+00  0.00000000000E+00 -0.19662847683E+03  0.19662847685E+03  0.25500000920E-02 0.  1.
    10030    2    1    2    0    0  0.00000000000E+00  0.00000000000E+00  0.19473970404E+04  0.23406539941E+04  0.12985784100E+04 0.  0.
        2    1    3    3  502    0 -0.57793438543E+03 -0.25495790518E+03  0.12444586015E+04  0.13955962519E+04  0.25500000920E-02 0.  1.
       -2    1    3    3    0  502  0.57793438543E+03  0.25495790518E+03  0.70293843888E+03  0.94505774222E+03  0.25500000920E-02 0. -1.
</event>
<event>
 5   0  0.2255875E-04  0.1299429E+04  0.7818609E-02  0.9030018E-01
       -3   -1    0    0    0  501  0.00000000000E+00  0.00000000000E+00  0.74137872888E+03  0.74137873576E+03  0.10100000352E+00 0. -1.
        3   -1    0    0  501    0  0.00000000000E+00  0.00000000000E+00 -0.56938336098E+03  0.56938336994E+03  0.10100000352E+00 0.  1.
    10030    2    1    2    0    0  0.00000000000E+00  0.00000000000E+00  0.17199536790E+03  0.13107621057E+04  0.12994286787E+04 0.  0.
        5    1    3    3  502    0  0.47227443775E+03 -0.40505798468E+03  0.27468939261E+03  0.68014077066E+03  0.46999998093E+01 0. -1.
       -5    1    3    3    0  502 -0.47227443775E+03  0.40505798468E+03 -0.10269402471E+03  0.63062133504E+03  0.46999998093E+01 0.  1.
</event>
<event>
 5   0  0.5957913E-04  0.1302331E+04  0.7818609E-02  0.9027718E-01
        2   -1    0    0  501    0  0.00000000000E+00  0.00000000000E+00  0.13272676065E+04  0.13272676065E+04  0.25500000920E-02 0. -1.
       -2   -1    0    0    0  501  0.00000000000E+00  0.00000000000E+00 -0.31946589665E+03  0.31946589666E+03  0.25500000920E-02 0.  1.
    10030    2    1    2    0    0  0.00000000000E+00  0.00000000000E+00  0.10078017099E+04  0.16467335032E+04  0.13023313496E+04 0.  0.
        1    1    3    3  502    0 -0.44923508605E+03 -0.17685513326E+02  0.10995252120E+04  0.11878891496E+04  0.50400001928E-02 0. -1.
       -1    1    3    3    0  502  0.44923508605E+03  0.17685513326E+02 -0.91723502147E+02  0.45884435355E+03  0.50400001928E-02 0.  1.
</event>
<event>
 5   0  0.5384960E-04  0.1297632E+04  0.7818609E-02  0.9031445E-01
       -2   -1    0    0    0  501  0.00000000000E+00  0.00000000000E+00  0.71036854739E+03  0.71036854740E+03  0.25500000920E-02 0.  1.
        2   -1    0    0  501    0  0.00000000000E+00  0.00000000000E+00 -0.59259720149E+03  0.59259720149E+03  0.25500000920E-02 0. -1.
    10030    2    1    2    0    0  0.00000000000E+00  0.00000000000E+00  0.11777134590E+03  0.13029657489E+04  0.12976323258E+04 0.  0.
        3    1    3    3  502    0  0.23828241674E+02 -0.43882950640E+03  0.53815583936E+03  0.69480273346E+03  0.10100000352E+00 0.  1.
       -3    1    3    3    0  502 -0.23828241674E+02  0.43882950640E+03 -0.42038449346E+03  0.60816301542E+03  0.10100000352E+00 0. -1.
</event>
<event>
 5   0  0.6052864E-04  0.1295571E+04  0.7818609E-02  0.9033085E-01
       -2   -1    0    0    0  501  0.00000000000E+00  0.00000000000E+00  0.32064346622E+03  0.32064346623E+03  0.25500000920E-02 0.  1.
        2   -1    0    0  501    0  0.00000000000E+00  0.00000000000E+00 -0.13086997311E+04  0.13086997311E+04  0.25500000920E-02 0. -1.
    10030    2    1    2    0    0  0.00000000000E+00  0.00000000000E+00 -0.98805626493E+03  0.16293431974E+04  0.12955709445E+04 0.  0.
        2    1    3    3  502    0 -0.30409137296E+03  0.44190709885E+03 -0.95072560555E+03  0.10916192670E+04  0.25500000920E-02 0. -1.
       -2    1    3    3    0  502  0.30409137296E+03 -0.44190709885E+03 -0.37330659378E+02  0.53772393033E+03  0.25500000920E-02 0.  1.
</event>
<event>
 5   0  0.3337520E-04  0.1327856E+04  0.7818609E-02  0.9007762E-01
       -1   -1    0    0    0  501  0.00000000000E+00  0.00000000000E+00  0.11105063313E+04  0.11105063313E+04  0.50400001928E-02 0. -1.
        1   -1    0    0  501    0  0.00000000000E+00  0.00000000000E+00 -0.39693618158E+03  0.39693618161E+03  0.50400001928E-02 0.  1.
    10030    2    1    2    0    0  0.00000000000E+00  0.00000000000E+00  0.71357014972E+03  0.15074425129E+04  0.13278556289E+04 0.  0.
        5    1    3    3  502    0  0.57788246502E+03  0.32551921325E+03  0.32335500223E+03  0.73789663845E+03  0.46999998093E+01 0. -1.
       -5    1    3    3    0  502 -0.57788246502E+03 -0.32551921325E+03  0.39021514749E+03  0.76954587446E+03  0.46999998093E+01 0.  1.
</event>
<event>
 5   0  0.5787604E-04  0.1300574E+04  0.7818609E-02  0.9029110E-01
       -2   -1    0    0    0  501  0.00000000000E+00  0.00000000000E+00  0.31382090346E+03  0.31382090347E+03  0.25500000920E-02 0. -1.
        2   -1    0    0  501    0  0.00000000000E+00  0.00000000000E+00 -0.13474990786E+04  0.13474990786E+04  0.25500000920E-02 0.  1.
    10030    2    1    2    0    0  0.00000000000E+00  0.00000000000E+00 -0.10336781751E+04  0.16613199821E+04  0.13005743012E+04 0.  0.
        4    1    3    3  502    0  0.58866726658E+03 -0.17092508351E+03 -0.23953639950E+03  0.65812144358E+03  0.12699999809E+01 0.  1.
       -4    1    3    3    0  502 -0.58866726658E+03  0.17092508351E+03 -0.79414177563E+03  0.10031985385E+04  0.12699999809E+01 0. -1.
</event>
<event>
 5   0  0.3335747E-04  0.1303282E+04  0.7818609E-02  0.9026967E-01
        1   -1    0    0  501    0  0.00000000000E+00  0.00000000000E+00  0.10417519332E+04  0.10417519332E+04  0.50400001928E-02 0.  1.
       -1   -1    0    0    0  501  0.00000000000E+00  0.00000000000E+00 -0.40761712611E+03  0.40761712614E+03  0.50400001928E-02 0. -1.
    10030    2    1    2    0    0  0.00000000000E+00  0.00000000000E+00  0.63413480709E+03  0.14493690593E+04  0.13032819022E+04 0.  0.
        3    1    3    3  502    0 -0.62488513878E+03 -0.17557476019E+03  0.38122252900E+03  0.75275398365E+03  0.10100000352E+00 0.  1.
       -3    1    3    3    0  502  0.62488513878E+03  0.17557476019E+03  0.25291227809E+03  0.69661507570E+03  0.10100000352E+00 0. -1.
</event>
<event>
 5   0  0.3403833E-04  0.1303410E+04  0.7818609E-02  0.9026866E-01
        1   -1    0    0  501    0  0.00000000000E+00  0.00000000000E+00  0.87313088972E+03  0.87313088973E+03  0.50400001928E-02 0. -1.
       -1   -1    0    0    0  501  0.00000000000E+00  0.00000000000E+00 -0.48643248474E+03  0.48643248476E+03  0.50400001928E-02 0.  1.
    10030    2    1    2    0    0  0.00000000000E+00  0.00000000000E+00  0.38669840498E+03  0.13595633745E+04  0.13034097256E+04 0.  0.
        1    1    3    3  502    0 -0.11436974731E+03 -0.54182091823E+03  0.55176424139E+03  0.78172509530E+03  0.50400001928E-02 0. -1.
       -1    1    3    3    0  502  0.11436974731E+03  0.54182091823E+03 -0.16506583641E+03  0.57783827919E+03  0.50400001928E-02 0.  1.
</event>
<event>
 5   0  0.5384960E-04  0.1315723E+04  0.7818609E-02  0.9017189E-01
       -2   -1    0    0    0  501  0.00000000000E+00  0.00000000000E+00  0.54697304006E+03  0.54697304007E+03  0.25500000920E-02 0. -1.
        2   -1    0    0  501    0  0.00000000000E+00  0.00000000000E+00 -0.79123084016E+03  0.79123084016E+03  0.25500000920E-02 0.  1.
    10030    2    1    2    0    0  0.00000000000E+00  0.00000000000E+00 -0.24425780009E+03  0.13382038802E+04  0.13157232810E+04 0.  0.
        3    1    3    3  502    0 -0.16049726356E+03 -0.55454827825E+03 -0.44295269146E+03  0.72766081494E+03  0.10100000352E+00 0. -1.
       -3    1    3    3    0  502  0.16049726356E+03  0.55454827825E+03  0.19869489137E+03  0.61054306529E+03  0.10100000352E+00 0.  1.
</event>
<event>
 5   0  0.3337520E-04  0.1295515E+04  0.7818609E-02  0.9033130E-01
        1   -1    0    0  501    0  0.00000000000E+00  0.00000000000E+00  0.92302988616E+03  0.92302988618E+03  0.50400001928E-02 0. -1.
       -1   -1    0    0    0  501  0.00000000000E+00  0.00000000000E+00 -0.45457859360E+03  0.45457859362E+03  0.50400001928E-02 0.  1.
    10030    2    1    2    0    0  0.00000000000E+00  0.00000000000E+00  0.46845129257E+03  0.13776084798E+04  0.12955147665E+04 0.  0.
        5    1    3    3  502    0  0.31240280157E+03  0.74236175256E+02 -0.36397041597E+03  0.48538961036E+03  0.46999998093E+01 0.  1.
       -5    1    3    3    0  502 -0.31240280157E+03 -0.74236175256E+02  0.83242170853E+03  0.89221886944E+03  0.46999998093E+01 0. -1.
</event>
<event>
 5   0  0.3335747E-04  0.1275629E+04  0.7818609E-02  0.9049118E-01
       -1   -1    0    0    0  501  0.00000000000E+00  0.00000000000E+00  0.88967813835E+03  0.88967813837E+03  0.50400001928E-02 0.  1.
        1   -1    0    0  501    0  0.00000000000E+00  0.00000000000E+00 -0.45725256501E+03  0.45725256504E+03  0.50400001928E-02 0. -1.
    10030    2    1    2    0    0  0.00000000000E+00  0.00000000000E+00  0.43242557335E+03  0.13469307034E+04  0.12756294302E+04 0.  0.
        3    1    3    3  502    0  0.36764082634E+03 -0.31674585267E+03  0.65325623450E+03  0.81377603214E+03  0.10100000352E+00 0.  1.
       -3    1    3    3    0  502 -0.36764082634E+03  0.31674585267E+03 -0.22083066115E+03  0.53315467126E+03  0.10100000352E+00 0. -1.
</event>
<event>
 5   0  0.3274879E-04  0.1305931E+04  0.7818609E-02  0.9024875E-01
       -1   -1    0    0    0  501  0.00000000000E+00  0.00000000000E+00  0.35473218006E+03  0.35473218010E+03  0.50400001928E-02 0.  1.
        1   -1    0    0  501    0  0.00000000000E+00  0.00000000000E+00 -0.12019323569E+04  0.12019323569E+04  0.50400001928E-02 0. -1.
    10030    2    1    2    0    0  0.00000000000E+00  0.00000000000E+00 -0.84720017686E+03  0.15566645370E+04  0.13059312161E+04 0.  0.
        4    1    3    3  502    0 -0.62309678293E+03 -0.96069742810E+01 -0.65602575409E+03  0.90482777244E+03  0.12699999809E+01 0. -1.
       -4    1    3    3    0  502  0.62309678293E+03  0.96069742810E+01 -0.19117442277E+03  0.65183676459E+03  0.12699999809E+01 0.  1.
</event>
<event>
 5   0  0.3337520E-04  0.1301876E+04  0.7818609E-02  0.9028079E-01
        1   -1    0    0  501    0  0.00000000000E+00  0.00000000000E+00  0.81487656081E+03  0.81487656082E+03  0.50400001928E-02 0.  1.
       -1   -1    0    0    0  501  0.00000000000E+00  0.00000000000E+00 -0.51998090412E+03  0.51998090414E+03  0.50400001928E-02 0. -1.
    10030    2    1    2    0    0  0.00000000000E+00  0.00000000000E+00  0.29489565669E+03  0.13348574650E+04  0.13018759555E+04 0.  0.
        5    1    3    3  502    0 -0.11258518958E+03 -0.55468545667E+03 -0.18217232998E+03  0.59460930749E+03  0.46999998093E+01 0. -1.
       -5    1    3    3    0  502  0.11258518958E+03  0.55468545667E+03  0.47706798667E+03  0.74024815748E+03  0.46999998093E+01 0.  1.
</event>
<event>
 5   0  0.3274879E-04  0.1297085E+04  0.7818609E-02  0.9031880E-01
        1   -1    0    0  501    0  0.00000000000E+00  0.00000000000E+00  0.10368276068E+04  0.10368276068E+04  0.50400001928E-02 0.  1.
       -1   -1    0    0    0  501  0.00000000000E+00  0.00000000000E+00 -0.40566762700E+03  0.40566762703E+03  0.50400001928E-02 0. -1.
    10030    2    1    2    0    0  0.00000000000E+00  0.00000000000E+00  0.63115997979E+03  0.14424952338E+04  0.12970850317E+04 0.  0.
        4    1    3    3  502    0 -0.34049969593E+03  0.28148940284E+03 -0.21244110087E+03  0.49021338321E+03  0.12699999809E+01 0. -1.
       -4    1    3    3    0  502  0.34049969593E+03 -0.28148940284E+03  0.84360108066E+03  0.95228185062E+03  0.12699999809E+01 0.  1.
</event>
<event>
 5   0  0.5384960E-04  0.1292496E+04  0.7818609E-02  0.9035537E-01
       -2   -1    0    0    0  501  0.00000000000E+00  0.00000000000E+00  0.12652740672E+03  0.12652740675E+03  0.25500000920E-02 0. -1.
        2   -1    0    0  501    0  0.00000000000E+00  0.00000000000E+00 -0.33007612099E+04  0.33007612099E+04  0.25500000920E-02 0.  1.
    10030    2    1    2    0    0  0.00000000000E+00  0.00000000000E+00 -0.31742338031E+04  0.34272886166E+04  0.12924964312E+04 0.  0.
        3    1    3    3  502    0 -0.32525603575E+03  0.33940034853E+03 -0.41121460343E+03  0.62456508520E+03  0.10100000352E+00 0. -1.
       -3    1    3    3    0  502  0.32525603575E+03 -0.33940034853E+03 -0.27630191997E+04  0.28027235314E+04  0.10100000352E+00 0.  1.
</event>
<event>
 5   0  0.3274879E-04  0.1298299E+04  0.7818609E-02  0.9030915E-01
       -1   -1    0    0    0  501  0.00000000000E+00  0.00000000000E+00  0.78959353305E+03  0.78959353306E+03  0.50400001928E-02 0.  1.
        1   -1    0    0  501    0  0.00000000000E+00  0.00000000000E+00 -0.53368577267E+03  0.53368577270E+03  0.50400001928E-02 0. -1.
    10030    2    1    2    0    0  0.00000000000E+00  0.00000000000E+00  0.25590776037E+03  0.13232793058E+04  0.12982986325E+04 0.  0.
        4    1    3    3  502    0  0.34727227456E+02  0.61233974055E+02 -0.52978257059E+03  0.53444060933E+03  0.12699999809E+01 0. -1.
       -4    1    3    3    0  502 -0.34727227456E+02 -0.61233974055E+02  0.78569033096E+03  0.78883869642E+03  0.12699999809E+01 0.  1.
</event>
<event>
 5   0  0.5384960E-04  0.1296833E+04  0.7818609E-02  0.9032081E-01
        2   -1    0    0  501    0  0.00000000000E+00  0.00000000000E+00  0.77621160752E+03  0.77621160753E+03  0.25500000920E-02 0.  1.
       -2   -1    0    0    0  501  0.00000000000E+00  0.00000000000E+00 -0.54166131445E+03  0.54166131445E+03  0.25500000920E-02 0. -1.
    10030    2    1    2    0    0  0.00000000000E+00  0.00000000000E+00  0.23455029308E+03  0.13178729220E+04  0.12968327566E+04 0.  0.
        3    1    3    3  502    0 -0.41947582214E+02  0.22909440145E+03  0.73223774102E+03  0.76838529658E+03  0.10100000352E+00 0.  1.
       -3    1    3    3    0  502  0.41947582214E+02 -0.22909440145E+03 -0.49768744794E+03  0.54948762540E+03  0.10100000352E+00 0. -1.
</event>
<event>
 5   0  0.5787604E-04  0.1300914E+04  0.7818609E-02  0.9028841E-01
        2   -1    0    0  501    0  0.00000000000E+00  0.00000000000E+00  0.47672652608E+03  0.47672652609E+03  0.25500000920E-02 0. -1.
       -2   -1    0    0    0  501  0.00000000000E+00  0.00000000000E+00 -0.88749920293E+03  0.88749920293E+03  0.25500000920E-02 0.  1.
    10030    2    1    2    0    0  0.00000000000E+00  0.00000000000E+00 -0.41077267685E+03  0.13642257290E+04  0.13009141585E+04 0.  0.
        4    1    3    3  502    0 -0.14825106894E+03  0.63333579279E+03 -0.20492546893E+03  0.68197409525E+03  0.12699999809E+01 0.  1.
       -4    1    3    3    0  502  0.14825106894E+03 -0.63333579279E+03 -0.20584720792E+03  0.68225163377E+03  0.12699999809E+01 0. -1.
</event>
<event>
 5   0  0.3274879E-04  0.1285091E+04  0.7818609E-02  0.9041472E-01
       -1   -1    0    0    0  501  0.00000000000E+00  0.00000000000E+00  0.10061779359E+04  0.10061779359E+04  0.50400001928E-02 0. -1.
        1   -1    0    0  501    0  0.00000000000E+00  0.00000000000E+00 -0.41032973498E+03  0.41032973501E+03  0.50400001928E-02 0.  1.
    10030    2    1    2    0    0  0.00000000000E+00  0.00000000000E+00  0.59584820094E+03  0.14165076709E+04  0.12850910097E+04 0.  0.
        4    1    3    3  502    0 -0.62564776533E+03  0.69795719498E+02  0.15609351625E+03  0.64859337603E+03  0.12699999809E+01 0.  1.
       -4    1    3    3    0  502  0.62564776533E+03 -0.69795719498E+02  0.43975468469E+03  0.76791429491E+03  0.12699999809E+01 0. -1.
</event>
<event>
 5   0  0.3403833E-04  0.1301348E+04  0.7818609E-02  0.9028497E-01
        1   -1    0    0  501    0  0.00000000000E+00  0.00000000000E+00  0.11857374834E+04  0.11857374834E+04  0.50400001928E-02 0.  1.
       -1   -1    0    0    0  501  0.00000000000E+00  0.00000000000E+00 -0.35705769477E+03  0.35705769480E+03  0.50400001928E-02 0. -1.
    10030    2    1    2    0    0  0.00000000000E+00  0.00000000000E+00  0.82867978863E+03  0.15427951782E+04  0.13013480587E+04 0.  0.
        1    1    3    3  502    0  0.60921050381E+03  0.18815779531E+02  0.68438520454E+03  0.91644671407E+03  0.50400001928E-02 0.  1.
       -1    1    3    3    0  502 -0.60921050381E+03 -0.18815779531E+02  0.14429458408E+03  0.62634846414E+03  0.50400001928E-02 0. -1.
</event>
<event>
 5   0  0.6052864E-04  0.1300947E+04  0.7818609E-02  0.9028814E-01
       -2   -1    0    0    0  501  0.00000000000E+00  0.00000000000E+00  0.53021558051E+03  0.53021558051E+03  0.25500000920E-02 0. -1.
        2   -1    0    0  501    0  0.00000000000E+00  0.00000000000E+00 -0.79800742441E+03  0.79800742441E+03  0.25500000920E-02 0.  1.
    10030    2    1    2    0    0  0.00000000000E+00  0.00000000000E+00 -0.26779184390E+03  0.13282230049E+04  0.13009473007E+04 0.  0.
        2    1    3    3  502    0 -0.11420515517E+02 -0.39463898011E+03  0.39390067930E+03  0.55769893128E+03  0.25500000920E-02 0. -1.
       -2    1    3    3    0  502  0.11420515517E+02  0.39463898011E+03 -0.66169252320E+03  0.77052407364E+03  0.25500000920E-02 0.  1.
</event>
<event>
 5   0  0.5384960E-04  0.1274954E+04  0.7818609E-02  0.9049666E-01
        2   -1    0    0  501    0  0.00000000000E+00  0.00000000000E+00  0.18639329656E+04  0.18639329656E+04  0.25500000920E-02 0.  1.
       -2   -1    0    0    0  501  0.00000000000E+00  0.00000000000E+00 -0.21802111992E+03  0.21802111993E+03  0.25500000920E-02 0. -1.
    10030    2    1    2    0    0  0.00000000000E+00  0.00000000000E+00  0.16459118457E+04  0.20819540855E+04  0.12749537288E+04 0.  0.
        3    1    3    3  502    0 -0.39848081898E+03 -0.17970191898E+03  0.65258669546E+02  0.44197109287E+03  0.10100000352E+00 0. -1.
       -3    1    3    3    0  502  0.39848081898E+03  0.17970191898E+03  0.15806531761E+04  0.16399829927E+04  0.10100000352E+00 0.  1.
</event>
<event>
 5   0  0.3274879E-04  0.1305176E+04  0.7818609E-02  0.9025470E-01
       -1   -1    0    0    0  501  0.00000000000E+00  0.00000000000E+00  0.24043130114E+03  0.24043130120E+03  0.50400001928E-02 0. -1.
        1   -1    0    0  501    0  0.00000000000E+00  0.00000000000E+00 -0.17712803178E+04  0.17712803178E+04  0.50400001928E-02 0.  1.
    10030    2    1    2    0    0  0.00000000000E+00  0.00000000000E+00 -0.15308490166E+04  0.20117116190E+04  0.13051762051E+04 0.  0.
        4    1    3    3  502    0 -0.13572543555E+03 -0.27519314908E+03  0.12230450129E+03  0.33032206570E+03  0.12699999809E+01 0. -1.
       -4    1    3    3    0  502  0.13572543555E+03  0.27519314908E+03 -0.16531535179E+04  0.16813895533E+04  0.12699999809E+01 0.  1.
</event>
<event>
 5   0  0.3263679E-04  0.1310159E+04  0.7818609E-02  0.9021548E-01
       -1   -1    0    0    0  501  0.00000000000E+00  0.00000000000E+00  0.30009976794E+03  0.30009976798E+03  0.50400001928E-02 0.  1.
        1   -1    0    0  501    0  0.00000000000E+00  0.00000000000E+00 -0.14299545832E+04  0.14299545833E+04  0.50400001928E-02 0. -1.
    10030    2    1    2    0    0  0.00000000000E+00  0.00000000000E+00 -0.11298548153E+04  0.17300543512E+04  0.13101588280E+04 0.  0.
        2    1    3    3  502    0 -0.28590509382E+02  0.40619062590E+03  0.11268036638E+03  0.42249864706E+03  0.25500000920E-02 0.  1.
       -2    1    3    3    0  502  0.28590509382E+02 -0.40619062590E+03 -0.12425351817E+04  0.13075557042E+04  0.25500000920E-02 0. -1.
</event>
<event>
 5   0  0.3403833E-04  0.1303428E+04  0.7818609E-02  0.9026851E-01
       -1   -1    0    0    0  501  0.00000000000E+00  0.00000000000E+00  0.25470218794E+03  0.25470218799E+03  0.50400001928E-02 0.  1.
        1   -1    0    0  501    0  0.00000000000E+00  0.00000000000E+00 -0.16675592817E+04  0.16675592817E+04  0.50400001928E-02 0. -1.
    10030    2    1    2    0    0  0.00000000000E+00  0.00000000000E+00 -0.14128570938E+04  0.19222614697E+04  0.13034277849E+04 0.  0.
        1    1    3    3  502    0  0.28400530914E+03 -0.54818368177E+03 -0.10142525524E+04  0.11873805644E+04  0.50400001928E-02 0. -1.
       -1    1    3    3    0  502 -0.28400530914E+03  0.54818368177E+03 -0.39860454137E+03  0.73488090532E+03  0.50400001928E-02 0.  1.
</event>
<event>
 5   0  0.6052864E-04  0.1299345E+04  0.7818609E-02  0.9030085E-01
       -2   -1    0    0    0  501  0.00000000000E+00  0.00000000000E+00  0.82457909938E+03  0.82457909938E+03  0.25500000920E-02 0.  1.
        2   -1    0    0  501    0  0.00000000000E+00  0.00000000000E+00 -0.51186659541E+03  0.51186659542E+03  0.25500000920E-02 0. -1.
    10030    2    1    2    0    0  0.00000000000E+00  0.00000000000E+00  0.31271250396E+03  0.13364456948E+04  0.12993452139E+04 0.  0.
        2    1    3    3  502    0  0.18658811727E+03 -0.61499891883E+03  0.58585786946E+02  0.64534571363E+03  0.25500000920E-02 0.  1.
       -2    1    3    3    0  502 -0.18658811727E+03  0.61499891883E+03  0.25412671702E+03  0.69109998117E+03  0.25500000920E-02 0. -1.
</event>
<event>
 5   0  0.3335747E-04  0.1297247E+04  0.7818609E-02  0.9031751E-01
       -1   -1    0    0    0  501  0.00000000000E+00  0.00000000000E+00  0.10487378991E+04  0.10487378991E+04  0.50400001928E-02 0.  1.
        1   -1    0    0  501    0  0.00000000000E+00  0.00000000000E+00 -0.40116075137E+03  0.40116075140E+03  0.50400001928E-02 0. -1.
    10030    2    1    2    0    0  0.00000000000E+00  0.00000000000E+00  0.64757714773E+03  0.14498986505E+04  0.12972470599E+04 0.  0.
        3    1    3    3  502    0  0.59826689968E+01  0.62650961813E+03  0.51135263338E+03  0.80872221424E+03  0.10100000352E+00 0.  1.
       -3    1    3    3    0  502 -0.59826689968E+01 -0.62650961813E+03  0.13622451435E+03  0.64117643628E+03  0.10100000352E+00 0. -1.
</event>
<event>
 5   0  0.3335747E-04  0.1308996E+04  0.7818609E-02  0.9022462E-01
        1   -1    0    0  501    0  0.00000000000E+00  0.00000000000E+00  0.77842007562E+03  0.77842007563E+03  0.50400001928E-02 0.  1.
       -1   -1    0    0    0  501  0.00000000000E+00  0.00000000000E+00 -0.55030386550E+03  0.55030386553E+03  0.50400001928E-02 0. -1.
    10030    2    1    2    0    0  0.00000000000E+00  0.00000000000E+00  0.22811621011E+03  0.13287239412E+04  0.13089959154E+04 0.  0.
        3    1    3    3  502    0 -0.37781294998E+03 -0.21025083375E+03  0.61280782781E+03  0.74998765476E+03  0.10100000352E+00 0.  1.
       -3    1    3    3    0  502  0.37781294998E+03  0.21025083375E+03 -0.38469161770E+03  0.57873628640E+03  0.10100000352E+00 0. -1.
</event>
<event>
 5   0  0.5384960E-04  0.1319291E+04  0.7818609E-02  0.9014406E-01
        2   -1    0    0  501    0  0.00000000000E+00  0.00000000000E+00  0.58903737833E+03  0.58903737834E+03  0.25500000920E-02 0. -1.
       -2   -1    0    0    0  501  0.00000000000E+00  0.00000000000E+00 -0.73871690997E+03  0.73871690997E+03  0.25500000920E-02 0.  1.
    10030    2    1    2    0    0  0.00000000000E+00  0.00000000000E+00 -0.14967953163E+03  0.13277542883E+04  0.13192905245E+04 0.  0.
        3    1    3    3  502    0 -0.14993622545E+03  0.25190024643E+03  0.51988042168E+03  0.59683353533E+03  0.10100000352E+00 0. -1.
       -3    1    3    3    0  502  0.14993622545E+03 -0.25190024643E+03 -0.66955995331E+03  0.73092075298E+03  0.10100000352E+00 0.  1.
</event>
<event>
 5   0  0.5384960E-04  0.1290112E+04  0.7818609E-02  0.9037444E-01
       -2   -1    0    0    0  501  0.00000000000E+00  0.00000000000E+00  0.23817539530E+03  0.23817539531E+03  0.25500000920E-02 0.  1.
        2   -1    0    0  501    0  0.00000000000E+00  0.00000000000E+00 -0.17470189561E+04  0.17470189561E+04  0.25500000920E-02 0. -1.
    10030    2    1    2    0    0  0.00000000000E+00  0.00000000000E+00 -0.15088435608E+04  0.19851943514E+04  0.12901115153E+04 0.  0.
        3    1    3    3  502    0 -0.63460440423E+02 -0.43767087206E+03 -0.14770148048E+04  0.15418027641E+04  0.10100000352E+00 0. -1.
       -3    1    3    3    0  502  0.63460440423E+02  0.43767087206E+03 -0.31828755997E+02  0.44339158726E+03  0.10100000352E+00 0.  1.
</event>
<event>
 5   0  0.3403833E-04  0.1307021E+04  0.7818609E-02  0.9024016E-01
        1   -1    0    0  501    0  0.00000000000E+00  0.00000000000E+00  0.19579762304E+04  0.19579762304E+04  0.50400001928E-02 0. -1.
       -1   -1    0    0    0  501  0.00000000000E+00  0.00000000000E+00 -0.21812115212E+03  0.21812115218E+03  0.50400001928E-02 0.  1.
    10030    2    1    2    0    0  0.00000000000E+00  0.00000000000E+00  0.17398550782E+04  0.21760973825E+04  0.13070210882E+04 0.  0.
        1    1    3    3  502    0 -0.68125854849E+02 -0.64981481249E+03  0.89199074561E+03  0.11056888861E+04  0.50400001928E-02 0.  1.
       -1    1    3    3    0  502  0.68125854849E+02  0.64981481249E+03  0.84786433262E+03  0.10704084964E+04  0.50400001928E-02 0. -1.
</event>
<event>
 5   0  0.5957913E-04  0.1299038E+04  0.7818609E-02  0.9030328E-01
       -2   -1    0    0    0  501  0.00000000000E+00  0.00000000000E+00  0.34846047968E+03  0.34846047969E+03  0.25500000920E-02 0.  1.
        2   -1    0    0  501    0  0.00000000000E+00  0.00000000000E+00 -0.12106822328E+04  0.12106822328E+04  0.25500000920E-02 0. -1.
    10030    2    1    2    0    0  0.00000000000E+00  0.00000000000E+00 -0.86222175315E+03  0.15591427125E+04  0.12990379696E+04 0.  0.
        1    1    3    3  502    0  0.51980641488E+03 -0.33628860209E+03 -0.19534556363E+03  0.64919074400E+03  0.50400001928E-02 0. -1.
       -1    1    3    3    0  502 -0.51980641488E+03  0.33628860209E+03 -0.66687618952E+03  0.90995196852E+03  0.50400001928E-02 0.  1.
</event>
<event>
 5   0  0.3263679E-04  0.1299369E+04  0.7818609E-02  0.9030066E-01
        1   -1    0    0  501    0  0.00000000000E+00  0.00000000000E+00  0.53394503936E+03  0.53394503938E+03  0.50400001928E-02 0. -1.
       -1   -1    0    0    0  501  0.00000000000E+00  0.00000000000E+00 -0.79051203867E+03  0.79051203869E+03  0.50400001928E-02 0.  1.
    10030    2    1    2    0    0  0.00000000000E+00  0.00000000000E+00 -0.25656699932E+03  0.13244570781E+04  0.12993690494E+04 0.  0.
        2    1    3    3  502    0  0.24774097170E+03  0.57285609016E+03  0.55616961702E+02  0.62660428943E+03  0.25500000920E-02 0. -1.
       -2    1    3    3    0  502 -0.24774097170E+03 -0.57285609016E+03 -0.31218396102E+03  0.69785278864E+03  0.25500000920E-02 0.  1.
</event>
<event>
 5   0  0.3403833E-04  0.1297833E+04  0.7818609E-02  0.9031285E-01
       -1   -1    0    0    0  501  0.00000000000E+00  0.00000000000E+00  0.53862287590E+03  0.53862287592E+03  0.50400001928E-02 0.  1.
        1   -1    0    0  501    0  0.00000000000E+00  0.00000000000E+00 -0.78179512807E+03  0.78179512809E+03  0.50400001928E-02 0. -1.
    10030    2    1    2    0    0  0.00000000000E+00  0.00000000000E+00 -0.24317225218E+03  0.13204180040E+04  0.12978331792E+04 0.  0.
        1    1    3    3  502    0  0.53877721686E+03  0.21762140221E+03 -0.41549517598E+03  0.71433619913E+03  0.50400001928E-02 0. -1.
       -1    1    3    3    0  502 -0.53877721686E+03 -0.21762140221E+03  0.17232292380E+03  0.60608180487E+03  0.50400001928E-02 0.  1.
</event>
<event>
 5   0  0.6007125E-04  0.1298416E+04  0.7818609E-02  0.9030822E-01
        2   -1    0    0  501    0  0.00000000000E+00  0.00000000000E+00  0.17931774355E+04  0.17931774355E+04  0.25500000920E-02 0. -1.
       -2   -1    0    0    0  501  0.00000000000E+00  0.00000000000E+00 -0.23504141492E+03  0.23504141494E+03  0.25500000920E-02 0.  1.
    10030    2    1    2    0    0  0.00000000000E+00  0.00000000000E+00  0.15581360206E+04  0.20282188505E+04  0.12984158990E+04 0.  0.
        5    1    3    3  502    0  0.47234485262E+03  0.44533726554E+03  0.77323752807E+03  0.10096302812E+04  0.46999998093E+01 0.  1.
       -5    1    3    3    0  502 -0.47234485262E+03 -0.44533726554E+03  0.78489849254E+03  0.10185885693E+04  0.46999998093E+01 0. -1.
</event>
<event>
 5   0  0.5957913E-04  0.1302470E+04  0.7818609E-02  0.9027609E-01
       -2   -1    0    0    0  501  0.00000000000E+00  0.00000000000E+00  0.25764423954E+03  0.25764423955E+03  0.25500000920E-02 0.  1.
        2   -1    0    0  501    0  0.00000000000E+00  0.00000000000E+00 -0.16460952822E+04  0.16460952822E+04  0.25500000920E-02 0. -1.
    10030    2    1    2    0    0  0.00000000000E+00  0.00000000000E+00 -0.13884510426E+04  0.19037395217E+04  0.13024699109E+04 0.  0.
        1    1    3    3  502    0 -0.37264964147E+03  0.24813696198E+03 -0.13854848982E+04  0.14560247630E+04  0.50400001928E-02 0. -1.
       -1    1    3    3    0  502  0.37264964147E+03 -0.24813696198E+03 -0.29661444423E+01  0.44771475878E+03  0.50400001928E-02 0.  1.
</event>
<event>
 5   0  0.3263679E-04  0.1301365E+04  0.7818609E-02  0.9028483E-01
        1   -1    0    0  501    0  0.00000000000E+00  0.00000000000E+00  0.11837501665E+04  0.11837501665E+04  0.50400001928E-02 0.  1.
       -1   -1    0    0    0  501  0.00000000000E+00  0.00000000000E+00 -0.35766662753E+03  0.35766662757E+03  0.50400001928E-02 0. -1.
    10030    2    1    2    0    0  0.00000000000E+00  0.00000000000E+00  0.82608353896E+03  0.15414167941E+04  0.13013653291E+04 0.  0.
        2    1    3    3  502    0  0.36230415887E+03 -0.10517321777E+03  0.10409874696E+04  0.11072400919E+04  0.25500000920E-02 0.  1.
       -2    1    3    3    0  502 -0.36230415887E+03  0.10517321777E+03 -0.21490393065E+03  0.43417670215E+03  0.25500000920E-02 0. -1.
</event>
<event>
 5   0  0.3263679E-04  0.1302951E+04  0.7818609E-02  0.9027228E-01
       -1   -1    0    0    0  501  0.00000000000E+00  0.00000000000E+00  0.11563950171E+04  0.11563950171E+04  0.50400001928E-02 0.  1.
        1   -1    0    0  501    0  0.00000000000E+00  0.00000000000E+00 -0.36702005051E+03  0.36702005054E+03  0.50400001928E-02 0. -1.
    10030    2    1    2    0    0  0.00000000000E+00  0.00000000000E+00  0.78937496661E+03  0.15234150677E+04  0.13029507399E+04 0.  0.
        2    1    3    3  502    0 -0.32011778703E+03  0.25206966075E+03 -0.19966112392E+03  0.45373899530E+03  0.25500000920E-02 0. -1.
       -2    1    3    3    0  502  0.32011778703E+03 -0.25206966075E+03  0.98903609052E+03  0.10696760724E+04  0.25500000920E-02 0.  1.
</event>
<event>
 5   0  0.6052864E-04  0.1297600E+04  0.7818609E-02  0.9031470E-01
       -2   -1    0    0    0  501  0.00000000000E+00  0.00000000000E+00  0.47079454305E+03  0.47079454306E+03  0.25500000920E-02 0. -1.
        2   -1    0    0  501    0  0.00000000000E+00  0.00000000000E+00 -0.89410907741E+03  0.89410907741E+03  0.25500000920E-02 0.  1.
    10030    2    1    2    0    0  0.00000000000E+00  0.00000000000E+00 -0.42331453436E+03  0.13649036205E+04  0.12976003615E+04 0.  0.
        2    1    3    3  502    0  0.21575556741E+03 -0.17919513157E+02 -0.85499278089E+03  0.88197745391E+03  0.25500000920E-02 0.  1.
       -2    1    3    3    0  502 -0.21575556741E+03  0.17919513157E+02  0.43167824653E+03  0.48292616657E+03  0.25500000920E-02 0. -1.
</event>
<event>
 5   0  0.2255875E-04  0.1306122E+04  0.7818609E-02  0.9024724E-01
       -3   -1    0    0    0  501  0.00000000000E+00  0.00000000000E+00  0.12274902626E+04  0.12274902667E+04  0.10100000352E+00 0.  1.
        3   -1    0    0  501    0  0.00000000000E+00  0.00000000000E+00 -0.34744778596E+03  0.34744780064E+03  0.10100000352E+00 0. -1.
    10030    2    1    2    0    0  0.00000000000E+00  0.00000000000E+00  0.88004247662E+03  0.15749380674E+04  0.13061221824E+04 0.  0.
        1    1    3    3  502    0 -0.64670310731E+03 -0.88222472174E+02  0.41358464187E+03  0.77269681610E+03  0.50400001928E-02 0. -1.
       -1    1    3    3    0  502  0.64670310731E+03  0.88222472174E+02  0.46645783476E+03  0.80224125127E+03  0.50400001928E-02 0.  1.
</event>
<event>
 5   0  0.3335747E-04  0.1299574E+04  0.7818609E-02  0.9029903E-01
        1   -1    0    0  501    0  0.00000000000E+00  0.00000000000E+00  0.69641435120E+03  0.69641435122E+03  0.50400001928E-02 0.  1.
       -1   -1    0    0    0  501  0.00000000000E+00  0.00000000000E+00 -0.60628145169E+03  0.60628145171E+03  0.50400001928E-02 0. -1.
    10030    2    1    2    0    0  0.00000000000E+00  0.00000000000E+00  0.90132899515E+02  0.13026958029E+04  0.12995739361E+04 0.  0.
        3    1    3    3  502    0  0.16500529499E+03  0.16040437242E+03  0.65419947059E+03  0.69349352382E+03  0.10100000352E+00 0.  1.
       -3    1    3    3    0  502 -0.16500529499E+03 -0.16040437242E+03 -0.56406657107E+03  0.60920227911E+03  0.10100000352E+00 0. -1.
</event>
<event>
 5   0  0.6007125E-04  0.1299624E+04  0.7818609E-02  0.9029864E-01
       -2   -1    0    0    0  501  0.00000000000E+00  0.00000000000E+00  0.77123152207E+03  0.77123152208E+03  0.25500000920E-02 0.  1.
        2   -1    0    0  501    0  0.00000000000E+00  0.00000000000E+00 -0.54750803453E+03  0.54750803454E+03  0.25500000920E-02 0. -1.
    10030    2    1    2    0    0  0.00000000000E+00  0.00000000000E+00  0.22372348754E+03  0.13187395566E+04  0.12996237222E+04 0.  0.
        5    1    3    3  502    0  0.17040104577E+03 -0.40618900326E+03  0.59659878739E+03  0.74160516845E+03  0.46999998093E+01 0.  1.
       -5    1    3    3    0  502 -0.17040104577E+03  0.40618900326E+03 -0.37287529984E+03  0.57713438816E+03  0.46999998093E+01 0. -1.
</event>
<event>
 5   0  0.3335747E-04  0.1304171E+04  0.7818609E-02  0.9026264E-01
       -1   -1    0    0    0  501  0.00000000000E+00  0.00000000000E+00  0.96709453621E+03  0.96709453622E+03  0.50400001928E-02 0.  1.
        1   -1    0    0  501    0  0.00000000000E+00  0.00000000000E+00 -0.43968326234E+03  0.43968326236E+03  0.50400001928E-02 0. -1.
    10030    2    1    2    0    0  0.00000000000E+00  0.00000000000E+00  0.52741127387E+03  0.14067777986E+04  0.13041706647E+04 0.  0.
        3    1    3    3  502    0  0.15398498538E+03 -0.35804461718E+03  0.82762526149E+03  0.91480648624E+03  0.10100000352E+00 0.  1.
       -3    1    3    3    0  502 -0.15398498538E+03  0.35804461718E+03 -0.30021398761E+03  0.49197131235E+03  0.10100000352E+00 0. -1.
</event>
<event>
 5   0  0.6052864E-04  0.1294971E+04  0.7818609E-02  0.9033563E-01
       -2   -1    0    0    0  501  0.00000000000E+00  0.00000000000E+00  0.80645036070E+03  0.80645036070E+03  0.25500000920E-02 0.  1.
        2   -1    0    0  501    0  0.00000000000E+00  0.00000000000E+00 -0.51985497303E+03  0.51985497304E+03  0.25500000920E-02 0. -1.
    10030    2    1    2    0    0  0.00000000000E+00  0.00000000000E+00  0.28659538767E+03  0.13263053337E+04  0.12949706260E+04 0.  0.
        2    1    3    3  502    0  0.29435495204E+03  0.36987176980E+02 -0.44614925155E+03  0.53578171275E+03  0.25500000920E-02 0. -1.
       -2    1    3    3    0  502 -0.29435495204E+03 -0.36987176980E+02  0.73274463921E+03  0.79052362100E+03  0.25500000920E-02 0.  1.
</event>
<event>
 5   0  0.6052864E-04  0.1298180E+04  0.7818609E-02  0.9031010E-01
        2   -1    0    0  501    0  0.00000000000E+00  0.00000000000E+00  0.68141976034E+03  0.68141976035E+03  0.25500000920E-02 0.  1.
       -2   -1    0    0    0  501  0.00000000000E+00  0.00000000000E+00 -0.61829392858E+03  0.61829392859E+03  0.25500000920E-02 0. -1.
    10030    2    1    2    0    0  0.00000000000E+00  0.00000000000E+00  0.63125831762E+02  0.12997136889E+04  0.12981798036E+04 0.  0.
        2    1    3    3  502    0  0.52395401367E+03 -0.31977887940E+03  0.24283680484E+03  0.66011821209E+03  0.25500000920E-02 0.  1.
       -2    1    3    3    0  502 -0.52395401367E+03  0.31977887940E+03 -0.17971097307E+03  0.63959547684E+03  0.25500000920E-02 0. -1.
</event>
<event>
 5   0  0.3403833E-04  0.1304271E+04  0.7818609E-02  0.9026185E-01
       -1   -1    0    0    0  501  0.00000000000E+00  0.00000000000E+00  0.11250587367E+04  0.11250587367E+04  0.50400001928E-02 0. -1.
        1   -1    0    0  501    0  0.00000000000E+00  0.00000000000E+00 -0.37800784290E+03  0.37800784294E+03  0.50400001928E-02 0.  1.
    10030    2    1    2    0    0  0.00000000000E+00  0.00000000000E+00  0.74705089375E+03  0.15030665796E+04  0.13042714843E+04 0.  0.
        1    1    3    3  502    0 -0.53097421996E+01  0.64684089696E+03  0.46890286843E+03  0.79893756915E+03  0.50400001928E-02 0.  1.
       -1    1    3    3    0  502  0.53097421996E+01 -0.64684089696E+03  0.27814802532E+03  0.70412901046E+03  0.50400001928E-02 0. -1.
</event>
<event>
 5   0  0.5384960E-04  0.1300232E+04  0.7818609E-02  0.9029381E-01
        2   -1    0    0  501    0  0.00000000000E+00  0.00000000000E+00  0.17501788888E+04  0.17501788888E+04  0.25500000920E-02 0. -1.
       -2   -1    0    0    0  501  0.00000000000E+00  0.00000000000E+00 -0.24149011340E+03  0.24149011341E+03  0.25500000920E-02 0.  1.
    10030    2    1    2    0    0  0.00000000000E+00  0.00000000000E+00  0.15086887754E+04  0.19916690022E+04  0.13002321306E+04 0.  0.
        3    1    3    3  502    0  0.28271188195E+03 -0.33624600792E+03  0.14884224776E+04  0.15518984722E+04  0.10100000352E+00 0. -1.
       -3    1    3    3    0  502 -0.28271188195E+03  0.33624600792E+03  0.20266297812E+02  0.43977053001E+03  0.10100000352E+00 0.  1.
</event>
<event>
 5   0  0.6052864E-04  0.1293642E+04  0.7818609E-02  0.9034622E-01
       -2   -1    0    0    0  501  0.00000000000E+00  0.00000000000E+00  0.10769985454E+04  0.10769985454E+04  0.25500000920E-02 0. -1.
        2   -1    0    0  501    0  0.00000000000E+00  0.00000000000E+00 -0.38846603691E+03  0.38846603692E+03  0.25500000920E-02 0.  1.
    10030    2    1    2    0    0  0.00000000000E+00  0.00000000000E+00  0.68853250850E+03  0.14654645823E+04  0.12936419237E+04 0.  0.
        2    1    3    3  502    0 -0.20121146563E+03  0.94415277384E+02 -0.34384859084E+03  0.40942905605E+03  0.25500000920E-02 0.  1.
       -2    1    3    3    0  502  0.20121146563E+03 -0.94415277384E+02  0.10323810993E+04  0.10560355263E+04  0.25500000920E-02 0. -1.
</event>
<event>
 5   0  0.3335747E-04  0.1297121E+04  0.7818609E-02  0.9031851E-01
        1   -1    0    0  501    0  0.00000000000E+00  0.00000000000E+00  0.84905922777E+03  0.84905922779E+03  0.50400001928E-02 0.  1.
       -1   -1    0    0    0  501  0.00000000000E+00  0.00000000000E+00 -0.49540828066E+03  0.49540828068E+03  0.50400001928E-02 0. -1.
    10030    2    1    2    0    0  0.00000000000E+00  0.00000000000E+00  0.35365094712E+03  0.13444675085E+04  0.12971213856E+04 0.  0.
        3    1    3    3  502    0 -0.25832616636E+02  0.27482244173E+03 -0.43148336432E+03  0.51222319593E+03  0.10100000352E+00 0. -1.
       -3    1    3    3    0  502  0.25832616636E+02 -0.27482244173E+03  0.78513431144E+03  0.83224431254E+03  0.10100000352E+00 0.  1.
</event>
<event>
 5   0  0.3335747E-04  0.1291742E+04  0.7818609E-02  0.9036140E-01
        1   -1    0    0  501    0  0.00000000000E+00  0.00000000000E+00  0.75016542593E+03  0.75016542595E+03  0.50400001928E-02 0.  1.
       -1   -1    0    0    0  501  0.00000000000E+00  0.00000000000E+00 -0.55607640640E+03  0.55607640642E+03  0.50400001928E-02 0. -1.
    10030    2    1    2    0    0  0.00000000000E+00  0.00000000000E+00  0.19408901953E+03  0.13062418324E+04  0.12917419158E+04 0.  0.
        3    1    3    3  502    0  0.31219599775E+03  0.53964619827E+03  0.26765386752E+03  0.67847104826E+03  0.10100000352E+00 0.  1.
       -3    1    3    3    0  502 -0.31219599775E+03 -0.53964619827E+03 -0.73564847991E+02  0.62777078411E+03  0.10100000352E+00 0. -1.
</event>
<event>
 5   0  0.3274879E-04  0.1285986E+04  0.7818609E-02  0.9040753E-01
        1   -1    0    0  501    0  0.00000000000E+00  0.00000000000E+00  0.13195154260E+04  0.13195154260E+04  0.50400001928E-02 0.  1.
       -1   -1    0    0    0  501  0.00000000000E+00  0.00000000000E+00 -0.31332706465E+03  0.31332706469E+03  0.50400001928E-02 0. -1.
    10030    2    1    2    0    0  0.00000000000E+00  0.00000000000E+00  0.10061883614E+04  0.16328424907E+04  0.12859858401E+04 0.  0.
        4    1    3    3  502    0 -0.19413214859E+03  0.29780173299E+03 -0.17720244873E+03  0.39720962226E+03  0.12699999809E+01 0. -1.
       -4    1    3    3    0  502  0.19413214859E+03 -0.29780173299E+03  0.11833908101E+04  0.12356328685E+04  0.12699999809E+01 0.  1.
</event>
<event>
 5   0  0.5384960E-04  0.1329991E+04  0.7818609E-02  0.9006115E-01
       -2   -1    0    0    0  501  0.00000000000E+00  0.00000000000E+00  0.20501097289E+03  0.20501097290E+03  0.25500000920E-02 0. -1.
        2   -1    0    0  501    0  0.00000000000E+00  0.00000000000E+00 -0.21570493472E+04  0.21570493472E+04  0.25500000920E-02 0.  1.
    10030    2    1    2    0    0  0.00000000000E+00  0.00000000000E+00 -0.19520383743E+04  0.23620603201E+04  0.13299906545E+04 0.  0.
        3    1    3    3  502    0 -0.47978065577E+03 -0.36984864839E+03 -0.48886048258E+03  0.77843566336E+03  0.10100000352E+00 0. -1.
       -3    1    3    3    0  502  0.47978065577E+03  0.36984864839E+03 -0.14631778918E+04  0.15836246568E+04  0.10100000352E+00 0.  1.
</event>
<event>
 5   0  0.6052864E-04  0.1309945E+04  0.7818609E-02  0.9021716E-01
       -2   -1    0    0    0  501  0.00000000000E+00  0.00000000000E+00  0.59084977388E+03  0.59084977389E+03  0.25500000920E-02 0.  1.
        2   -1    0    0  501    0  0.00000000000E+00  0.00000000000E+00 -0.72605381575E+03  0.72605381575E+03  0.25500000920E-02 0. -1.
    10030    2    1    2    0    0  0.00000000000E+00  0.00000000000E+00 -0.13520404187E+03  0.13169035896E+04  0.13099446292E+04 0.  0.
        2    1    3    3  502    0  0.40869782429E+03  0.49835239876E+03 -0.18483932787E+03  0.67048833104E+03  0.25500000920E-02 0. -1.
       -2    1    3    3    0  502 -0.40869782429E+03 -0.49835239876E+03  0.49635286005E+02  0.64641525860E+03  0.25500000920E-02 0.  1.
</event>
<event>
 5   0  0.5787604E-04  0.1301957E+04  0.7818609E-02  0.9028014E-01
       -2   -1    0    0    0  501  0.00000000000E+00  0.00000000000E+00  0.21441894975E+03  0.21441894976E+03  0.25500000920E-02 0.  1.
        2   -1    0    0  501    0  0.00000000000E+00  0.00000000000E+00 -0.19763796183E+04  0.19763796183E+04  0.25500000920E-02 0. -1.
    10030    2    1    2    0    0  0.00000000000E+00  0.00000000000E+00 -0.17619606685E+04  0.21907985680E+04  0.13019573604E+04 0.  0.
        4    1    3    3  502    0 -0.51742651036E+03  0.14092630713E+03 -0.15019412759E+04  0.15948102165E+04  0.12699999809E+01 0. -1.
       -4    1    3    3    0  502  0.51742651036E+03 -0.14092630713E+03 -0.26001939264E+03  0.59598835149E+03  0.12699999809E+01 0.  1.
</event>
<event>
 5   0  0.3263679E-04  0.1315741E+04  0.7818609E-02  0.9017175E-01
       -1   -1    0    0    0  501  0.00000000000E+00  0.00000000000E+00  0.14849201953E+04  0.14849201953E+04  0.50400001928E-02 0. -1.
        1   -1    0    0  501    0  0.00000000000E+00  0.00000000000E+00 -0.29145901860E+03  0.29145901865E+03  0.50400001928E-02 0.  1.
    10030    2    1    2    0    0  0.00000000000E+00  0.00000000000E+00  0.11934611767E+04  0.17763792140E+04  0.13157406779E+04 0.  0.
        2    1    3    3  502    0  0.19787115919E+03  0.55975730074E+00  0.14437922646E+04  0.14572883765E+04  0.25500000920E-02 0. -1.
       -2    1    3    3    0  502 -0.19787115919E+03 -0.55975730074E+00 -0.25033108790E+03  0.31909083745E+03  0.25500000920E-02 0.  1.
</event>
<event>
 5   0  0.2255875E-04  0.1300149E+04  0.7818609E-02  0.9029447E-01
       -3   -1    0    0    0  501  0.00000000000E+00  0.00000000000E+00  0.12710338086E+04  0.12710338126E+04  0.10100000352E+00 0.  1.
        3   -1    0    0  501    0  0.00000000000E+00  0.00000000000E+00 -0.33248301251E+03  0.33248302785E+03  0.10100000352E+00 0. -1.
    10030    2    1    2    0    0  0.00000000000E+00  0.00000000000E+00  0.93855079605E+03  0.16035168404E+04  0.13001494763E+04 0.  0.
        2    1    3    3  502    0 -0.59709434529E+02 -0.62377561437E+03  0.68266665833E+03  0.92665797361E+03  0.25500000920E-02 0.  1.
       -2    1    3    3    0  502  0.59709434529E+02  0.62377561437E+03  0.25588413772E+03  0.67685886682E+03  0.25500000920E-02 0. -1.
</event>
<event>
 5   0  0.5957913E-04  0.1297909E+04  0.7818609E-02  0.9031225E-01
       -2   -1    0    0    0  501  0.00000000000E+00  0.00000000000E+00  0.58747512257E+03  0.58747512258E+03  0.25500000920E-02 0.  1.
        2   -1    0    0  501    0  0.00000000000E+00  0.00000000000E+00 -0.71686823500E+03  0.71686823501E+03  0.25500000920E-02 0. -1.
    10030    2    1    2    0    0  0.00000000000E+00  0.00000000000E+00 -0.12939311243E+03  0.13043433576E+04  0.12979094795E+04 0.  0.
        1    1    3    3  502    0  0.55658275739E+02  0.66106523960E+02 -0.71106004557E+03  0.71629205259E+03  0.50400001928E-02 0. -1.
       -1    1    3    3    0  502 -0.55658275739E+02 -0.66106523960E+02  0.58166693314E+03  0.58805130499E+03  0.50400001928E-02 0.  1.
</event>
<event>
 5   0  0.6052864E-04  0.1303005E+04  0.7818609E-02  0.9027185E-01
       -2   -1    0    0    0  501  0.00000000000E+00  0.00000000000E+00  0.33157556611E+03  0.33157556612E+03  0.25500000920E-02 0. -1.
        2   -1    0    0  501    0  0.00000000000E+00  0.00000000000E+00 -0.12801175490E+04  0.12801175490E+04  0.25500000920E-02 0.  1.
    10030    2    1    2    0    0  0.00000000000E+00  0.00000000000E+00 -0.94854198289E+03  0.16116931151E+04  0.13030052970E+04 0.  0.
        2    1    3    3  502    0 -0.56851977341E+03  0.14709071758E+03 -0.82325628929E+03  0.10112375239E+04  0.25500000920E-02 0. -1.
       -2    1    3    3    0  502  0.56851977341E+03 -0.14709071758E+03 -0.12528569359E+03  0.60045559118E+03  0.25500000920E-02 0.  1.
</event>
<event>
 5   0  0.3403833E-04  0.1298785E+04  0.7818609E-02  0.9030529E-01
       -1   -1    0    0    0  501  0.00000000000E+00  0.00000000000E+00  0.64357319960E+03  0.64357319962E+03  0.50400001928E-02 0. -1.
        1   -1    0    0  501    0  0.00000000000E+00  0.00000000000E+00 -0.65526423987E+03  0.65526423988E+03  0.50400001928E-02 0.  1.
    10030    2    1    2    0    0  0.00000000000E+00  0.00000000000E+00 -0.11691040265E+02  0.12988374395E+04  0.12987848220E+04 0.  0.
        1    1    3    3  502    0 -0.16326534138E+03 -0.58812038377E+03 -0.22759612328E+03  0.65141473184E+03  0.50400001928E-02 0.  1.
       -1    1    3    3    0  502  0.16326534138E+03  0.58812038377E+03  0.21590508301E+03  0.64742270766E+03  0.50400001928E-02 0. -1.
</event>
<event>
 5   0  0.3335747E-04  0.1304925E+04  0.7818609E-02  0.9025668E-01
       -1   -1    0    0    0  501  0.00000000000E+00  0.00000000000E+00  0.23800553417E+03  0.23800553422E+03  0.50400001928E-02 0.  1.
        1   -1    0    0  501    0  0.00000000000E+00  0.00000000000E+00 -0.17886459127E+04  0.17886459127E+04  0.50400001928E-02 0. -1.
    10030    2    1    2    0    0  0.00000000000E+00  0.00000000000E+00 -0.15506403785E+04  0.20266514469E+04  0.13049254782E+04 0.  0.
        3    1    3    3  502    0 -0.42289766609E+03  0.20291720613E+03 -0.70952027918E+02  0.47439648923E+03  0.10100000352E+00 0.  1.
       -3    1    3    3    0  502  0.42289766609E+03 -0.20291720613E+03 -0.14796883506E+04  0.15522549576E+04  0.10100000352E+00 0. -1.
</event>
<event>
 5   0  0.3274879E-04  0.1306527E+04  0.7818609E-02  0.9024405E-01
       -1   -1    0    0    0  501  0.00000000000E+00  0.00000000000E+00  0.85113484040E+03  0.85113484042E+03  0.50400001928E-02 0.  1.
        1   -1    0    0  501    0  0.00000000000E+00  0.00000000000E+00 -0.50139338958E+03  0.50139338960E+03  0.50400001928E-02 0. -1.
    10030    2    1    2    0    0  0.00000000000E+00  0.00000000000E+00  0.34974145083E+03  0.13525282300E+04  0.13065272789E+04 0.  0.
        4    1    3    3  502    0  0.48040846713E+03 -0.40533866041E+03 -0.93267270807E+01  0.62863369751E+03  0.12699999809E+01 0.  1.
       -4    1    3    3    0  502 -0.48040846713E+03  0.40533866041E+03  0.35906817791E+03  0.72389453251E+03  0.12699999809E+01 0. -1.
</event>
<event>
 5   0  0.2255875E-04  0.1300203E+04  0.7818609E-02  0.9029404E-01
        3   -1    0    0  501    0  0.00000000000E+00  0.00000000000E+00  0.14517123939E+04  0.14517123974E+04  0.10100000352E+00 0.  1.
       -3   -1    0    0    0  501  0.00000000000E+00  0.00000000000E+00 -0.29112671785E+03  0.29112673537E+03  0.10100000352E+00 0. -1.
    10030    2    1    2    0    0  0.00000000000E+00  0.00000000000E+00  0.11605856760E+04  0.17428391328E+04  0.13002034961E+04 0.  0.
        1    1    3    3  502    0  0.27974071351E+03  0.40512844725E+02  0.13650330630E+04  0.13939911838E+04  0.50400001928E-02 0.  1.
       -1    1    3    3    0  502 -0.27974071351E+03 -0.40512844725E+02 -0.20444738702E+03  0.34884794892E+03  0.50400001928E-02 0. -1.
</event>
<event>
 5   0  0.3403833E-04  0.1298829E+04  0.7818609E-02  0.9030494E-01
        1   -1    0    0  501    0  0.00000000000E+00  0.00000000000E+00  0.10567331082E+04  0.10567331082E+04  0.50400001928E-02 0. -1.
       -1   -1    0    0    0  501  0.00000000000E+00  0.00000000000E+00 -0.39909703121E+03  0.39909703124E+03  0.50400001928E-02 0.  1.
    10030    2    1    2    0    0  0.00000000000E+00  0.00000000000E+00  0.65763607697E+03  0.14558301394E+04  0.12988287744E+04 0.  0.
        1    1    3    3  502    0  0.51813365742E+03  0.21838175999E+03 -0.35400379748E+02  0.56338820271E+03  0.50400001928E-02 0.  1.
       -1    1    3    3    0  502 -0.51813365742E+03 -0.21838175999E+03  0.69303645672E+03  0.89244193672E+03  0.50400001928E-02 0. -1.
</event>
<event>
 5   0  0.5384960E-04  0.1291392E+04  0.7818609E-02  0.9036419E-01
       -2   -1    0    0    0  501  0.00000000000E+00  0.00000000000E+00  0.64410056737E+03  0.64410056738E+03  0.25500000920E-02 0.  1.
        2   -1    0    0  501    0  0.00000000000E+00  0.00000000000E+00 -0.64729576002E+03  0.64729576003E+03  0.25500000920E-02 0. -1.
    10030    2    1    2    0    0  0.00000000000E+00  0.00000000000E+00 -0.31951926511E+01  0.12913963274E+04  0.12913923746E+04 0.  0.
        3    1    3    3  502    0  0.42119996704E+02  0.52985453913E+03  0.36501453130E+03  0.64479108634E+03  0.10100000352E+00 0.  1.
       -3    1    3    3    0  502 -0.42119996704E+02 -0.52985453913E+03 -0.36820972395E+03  0.64660524106E+03  0.10100000352E+00 0. -1.
</event>
<event>
 5   0  0.3263679E-04  0.1305233E+04  0.7818609E-02  0.9025426E-01
       -1   -1    0    0    0  501  0.00000000000E+00  0.00000000000E+00  0.46853402454E+03  0.46853402457E+03  0.50400001928E-02 0.  1.
        1   -1    0    0  501    0  0.00000000000E+00  0.00000000000E+00 -0.90902339061E+03  0.90902339062E+03  0.50400001928E-02 0. -1.
    10030    2    1    2    0    0  0.00000000000E+00  0.00000000000E+00 -0.44048936606E+03  0.13775574152E+04  0.13052331403E+04 0.  0.
        2    1    3    3  502    0  0.25745398497E+03  0.21558577934E+03  0.37035996075E+03  0.49992627773E+03  0.25500000920E-02 0.  1.
       -2    1    3    3    0  502 -0.25745398497E+03 -0.21558577934E+03 -0.81084932681E+03  0.87763113746E+03  0.25500000920E-02 0. -1.
</event>
<event>
 5   0  0.5957913E-04  0.1288283E+04  0.7818609E-02  0.9038908E-01
        2   -1    0    0  501    0  0.00000000000E+00  0.00000000000E+00  0.64140720729E+03  0.64140720729E+03  0.25500000920E-02 0. -1.
       -2   -1    0    0    0  501  0.00000000000E+00  0.00000000000E+00 -0.64688786989E+03  0.64688786990E+03  0.25500000920E-02 0.  1.
    10030    2    1    2    0    0  0.00000000000E+00  0.00000000000E+00 -0.54806626020E+01  0.12882950772E+04  0.12882834192E+04 0.  0.
        1    1    3    3  502    0 -0.28034827701E+03 -0.38288638362E+03  0.43283381454E+03  0.64229451985E+03  0.50400001928E-02 0. -1.
       -1    1    3    3    0  502  0.28034827701E+03  0.38288638362E+03 -0.43831447715E+03  0.64600055734E+03  0.50400001928E-02 0.  1.
</event>
<event>
 5   0  0.3263679E-04  0.1300992E+04  0.7818609E-02  0.9028779E-01
        1   -1    0    0  501    0  0.00000000000E+00  0.00000000000E+00  0.37733789328E+03  0.37733789331E+03  0.50400001928E-02 0.  1.
       -1   -1    0    0    0  501  0.00000000000E+00  0.00000000000E+00 -0.11213954480E+04  0.11213954480E+04  0.50400001928E-02 0. -1.
    10030    2    1    2    0    0  0.00000000000E+00  0.00000000000E+00 -0.74405755469E+03  0.14987333413E+04  0.13009919230E+04 0.  0.
        2    1    3    3  502    0  0.65007811295E+03  0.16941731022E+02 -0.35358175303E+03  0.74020850526E+03  0.25500000920E-02 0.  1.
       -2    1    3    3    0  502 -0.65007811295E+03 -0.16941731022E+02 -0.39047580166E+03  0.75852483603E+03  0.25500000920E-02 0. -1.
</event>
<event>
 5   0  0.3335747E-04  0.1294303E+04  0.7818609E-02  0.9034095E-01
        1   -1    0    0  501    0  0.00000000000E+00  0.00000000000E+00  0.59862831664E+03  0.59862831667E+03  0.50400001928E-02 0. -1.
       -1   -1    0    0    0  501  0.00000000000E+00  0.00000000000E+00 -0.69960801411E+03  0.69960801413E+03  0.50400001928E-02 0.  1.
    10030    2    1    2    0    0  0.00000000000E+00  0.00000000000E+00 -0.10097969746E+03  0.12982363308E+04  0.12943031605E+04 0.  0.
        3    1    3    3  502    0  0.40651612636E+03  0.39160946438E+03 -0.36798265428E+03  0.67381345907E+03  0.10100000352E+00 0.  1.
       -3    1    3    3    0  502 -0.40651612636E+03 -0.39160946438E+03  0.26700295681E+03  0.62442287172E+03  0.10100000352E+00 0. -1.
</event>
<event>
 5   0  0.5787604E-04  0.1301481E+04  0.7818609E-02  0.9028391E-01
        2   -1    0    0  501    0  0.00000000000E+00  0.00000000000E+00  0.14178990212E+04  0.14178990212E+04  0.25500000920E-02 0. -1.
       -2   -1    0    0    0  501  0.00000000000E+00  0.00000000000E+00 -0.29865546338E+03  0.29865546339E+03  0.25500000920E-02 0.  1.
    10030    2    1    2    0    0  0.00000000000E+00  0.00000000000E+00  0.11192435578E+04  0.17165544846E+04  0.13014811396E+04 0.  0.
        4    1    3    3  502    0 -0.59304758926E+03  0.11943963490E+03  0.87586221825E+03  0.10644752265E+04  0.12699999809E+01 0. -1.
       -4    1    3    3    0  502  0.59304758926E+03 -0.11943963490E+03  0.24338133955E+03  0.65207925811E+03  0.12699999809E+01 0.  1.
</event>
<event>
 5   0  0.3274879E-04  0.1297245E+04  0.7818609E-02  0.9031753E-01
        1   -1    0    0  501    0  0.00000000000E+00  0.00000000000E+00  0.10971963893E+04  0.10971963893E+04  0.50400001928E-02 0. -1.
       -1   -1    0    0    0  501  0.00000000000E+00  0.00000000000E+00 -0.38344201760E+03  0.38344201763E+03  0.50400001928E-02 0.  1.
    10030    2    1    2    0    0  0.00000000000E+00  0.00000000000E+00  0.71375437172E+03  0.14806384070E+04  0.12972450767E+04 0.  0.
        4    1    3    3  502    0  0.39145349184E+03 -0.49683593412E+03  0.52080530778E+03  0.81934215271E+03  0.12699999809E+01 0.  1.
       -4    1    3    3    0  502 -0.39145349184E+03  0.49683593412E+03  0.19294906395E+03  0.66129625425E+03  0.12699999809E+01 0. -1.
</event>
<event>
 5   0  0.6052864E-04  0.1307655E+04  0.7818609E-02  0.9023516E-01
       -2   -1    0    0    0  501  0.00000000000E+00  0.00000000000E+00  0.49492177593E+03  0.49492177594E+03  0.25500000920E-02 0.  1.
        2   -1    0    0  501    0  0.00000000000E+00  0.00000000000E+00 -0.86375403559E+03  0.86375403560E+03  0.25500000920E-02 0. -1.
    10030    2    1    2    0    0  0.00000000000E+00  0.00000000000E+00 -0.36883225966E+03  0.13586758115E+04  0.13076554306E+04 0.  0.
        2    1    3    3  502    0  0.23866515896E+02  0.32435830400E+03  0.40491131448E+03  0.51935642150E+03  0.25500000920E-02 0.  1.
       -2    1    3    3    0  502 -0.23866515896E+02 -0.32435830400E+03 -0.77374357414E+03  0.83931939003E+03  0.25500000920E-02 0. -1.
</event>
<event>
 5   0  0.3335747E-04  0.1302380E+04  0.7818609E-02  0.9027680E-01
        1   -1    0    0  501    0  0.00000000000E+00  0.00000000000E+00  0.10832648341E+04  0.10832648341E+04  0.50400001928E-02 0. -1.
       -1   -1    0    0    0  501  0.00000000000E+00  0.00000000000E+00 -0.39145397824E+03  0.39145397827E+03  0.50400001928E-02 0.  1.
    10030    2    1    2    0    0  0.00000000000E+00  0.00000000000E+00  0.69181085583E+03  0.14747188123E+04  0.13023798660E+04 0.  0.
        3    1    3    3  502    0 -0.40536910647E+03 -0.11282645834E+03 -0.21684404512E+03  0.47336589683E+03  0.10100000352E+00 0.  1.
       -3    1    3    3    0  502  0.40536910647E+03  0.11282645834E+03  0.90865490095E+03  0.10013529155E+04  0.10100000352E+00 0. -1.
</event>
<event>
 5   0  0.5384960E-04  0.1298956E+04  0.7818609E-02  0.9030394E-01
        2   -1    0    0  501    0  0.00000000000E+00  0.00000000000E+00  0.13438214670E+04  0.13438214670E+04  0.25500000920E-02 0. -1.
       -2   -1    0    0    0  501  0.00000000000E+00  0.00000000000E+00 -0.31389694631E+03  0.31389694632E+03  0.25500000920E-02 0.  1.
    10030    2    1    2    0    0  0.00000000000E+00  0.00000000000E+00  0.10299245207E+04  0.16577184133E+04  0.12989556650E+04 0.  0.
        3    1    3    3  502    0 -0.47729509756E+03  0.18235569640E+03  0.32784260835E+01  0.51095495736E+03  0.10100000352E+00 0.  1.
       -3    1    3    3    0  502  0.47729509756E+03 -0.18235569640E+03  0.10266460946E+04  0.11467634559E+04  0.10100000352E+00 0. -1.
</event>
<event>
 5   0  0.3263679E-04  0.1297956E+04  0.7818609E-02  0.9031187E-01
        1   -1    0    0  501    0  0.00000000000E+00  0.00000000000E+00  0.15446863992E+04  0.15446863992E+04  0.50400001928E-02 0.  1.
       -1   -1    0    0    0  501  0.00000000000E+00  0.00000000000E+00 -0.27265900544E+03  0.27265900549E+03  0.50400001928E-02 0. -1.
    10030    2    1    2    0    0  0.00000000000E+00  0.00000000000E+00  0.12720273938E+04  0.18173454047E+04  0.12979563280E+04 0.  0.
        2    1    3    3  502    0 -0.64638615600E+03 -0.48161303760E+02  0.59090154485E+03  0.87709703543E+03  0.25500000920E-02 0.  1.
       -2    1    3    3    0  502  0.64638615600E+03  0.48161303760E+02  0.68112584892E+03  0.94024836927E+03  0.25500000920E-02 0. -1.
</event>
<event>
 5   0  0.6052864E-04  0.1267238E+04  0.7818609E-02  0.9055957E-01
        2   -1    0    0  501    0  0.00000000000E+00  0.00000000000E+00  0.71110706065E+03  0.71110706065E+03  0.25500000920E-02 0. -1.
       -2   -1    0    0    0  501  0.00000000000E+00  0.00000000000E+00 -0.56457490273E+03  0.56457490274E+03  0.25500000920E-02 0.  1.
    10030    2    1    2    0    0  0.00000000000E+00  0.00000000000E+00  0.14653215792E+03  0.12756819634E+04  0.12672382564E+04 0.  0.
        2    1    3    3  502    0 -0.52231393683E+02  0.43261065309E+03 -0.38979139109E+03  0.58465154086E+03  0.25500000920E-02 0.  1.
       -2    1    3    3    0  502  0.52231393683E+02 -0.43261065309E+03  0.53632354900E+03  0.69103042254E+03  0.25500000920E-02 0. -1.
</event>
<event>
 5   0  0.5957913E-04  0.1304105E+04  0.7818609E-02  0.9026316E-01
       -2   -1    0    0    0  501  0.00000000000E+00  0.00000000000E+00  0.27156548176E+03  0.27156548178E+03  0.25500000920E-02 0. -1.
        2   -1    0    0  501    0  0.00000000000E+00  0.00000000000E+00 -0.15656355289E+04  0.15656355289E+04  0.25500000920E-02 0.  1.
    10030    2    1    2    0    0  0.00000000000E+00  0.00000000000E+00 -0.12940700471E+04  0.18372010106E+04  0.13041051594E+04 0.  0.
        1    1    3    3  502    0 -0.47256075944E+03 -0.34624584475E+03 -0.24368813622E+03  0.63449488898E+03  0.50400001928E-02 0. -1.
       -1    1    3    3    0  502  0.47256075944E+03  0.34624584475E+03 -0.10503819109E+04  0.12027061217E+04  0.50400001928E-02 0.  1.
</event>
<event>
 5   0  0.3403833E-04  0.1303467E+04  0.7818609E-02  0.9026821E-01
        1   -1    0    0  501    0  0.00000000000E+00  0.00000000000E+00  0.72625650081E+03  0.72625650083E+03  0.50400001928E-02 0.  1.
       -1   -1    0    0    0  501  0.00000000000E+00  0.00000000000E+00 -0.58485727696E+03  0.58485727698E+03  0.50400001928E-02 0. -1.
    10030    2    1    2    0    0  0.00000000000E+00  0.00000000000E+00  0.14139922385E+03  0.13111137778E+04  0.13034667613E+04 0.  0.
        1    1    3    3  502    0 -0.45171961442E+02  0.57614894877E+03  0.37374485991E+03  0.68823930258E+03  0.50400001928E-02 0.  1.
       -1    1    3    3    0  502  0.45171961442E+02 -0.57614894877E+03 -0.23234563606E+03  0.62287447523E+03  0.50400001928E-02 0. -1.
</event>
<event>
 5   0  0.3263679E-04  0.1299478E+04  0.7818609E-02  0.9029979E-01
        1   -1    0    0  501    0  0.00000000000E+00  0.00000000000E+00  0.77545487412E+03  0.77545487413E+03  0.50400001928E-02 0. -1.
       -1   -1    0    0    0  501  0.00000000000E+00  0.00000000000E+00 -0.54440444097E+03  0.54440444099E+03  0.50400001928E-02 0.  1.
    10030    2    1    2    0    0  0.00000000000E+00  0.00000000000E+00  0.23105043315E+03  0.13198593151E+04  0.12994784758E+04 0.  0.
        2    1    3    3  502    0 -0.40052431036E+03  0.51143382339E+03  0.12903031241E+03  0.66229381729E+03  0.25500000920E-02 0.  1.
       -2    1    3    3    0  502  0.40052431036E+03 -0.51143382339E+03  0.10202012074E+03  0.65756549783E+03  0.25500000920E-02 0. -1.
</event>
<event>
 5   0  0.6052864E-04  0.1302689E+04  0.7818609E-02  0.9027435E-01
       -2   -1    0    0    0  501  0.00000000000E+00  0.00000000000E+00  0.64523863182E+03  0.64523863183E+03  0.25500000920E-02 0.  1.
        2   -1    0    0  501    0  0.00000000000E+00  0.00000000000E+00 -0.65750843977E+03  0.65750843977E+03  0.25500000920E-02 0. -1.
    10030    2    1    2    0    0  0.00000000000E+00  0.00000000000E+00 -0.12269807943E+02  0.13027470716E+04  0.13026892893E+04 0.  0.
        2    1    3    3  502    0  0.45797326384E+03 -0.11687577842E+03  0.44204832466E+03  0.64715236174E+03  0.25500000920E-02 0.  1.
       -2    1    3    3    0  502 -0.45797326384E+03  0.11687577842E+03 -0.45431813260E+03  0.65559470985E+03  0.25500000920E-02 0. -1.
</event>
<event>
 5   0  0.5787604E-04  0.1302450E+04  0.7818609E-02  0.9027625E-01
        2   -1    0    0  501    0  0.00000000000E+00  0.00000000000E+00  0.11464018873E+04  0.11464018873E+04  0.25500000920E-02 0. -1.
       -2   -1    0    0    0  501  0.00000000000E+00  0.00000000000E+00 -0.36993480528E+03  0.36993480529E+03  0.25500000920E-02 0.  1.
    10030    2    1    2    0    0  0.00000000000E+00  0.00000000000E+00  0.77646708205E+03  0.15163366926E+04  0.13024499360E+04 0.  0.
        4    1    3    3  502    0  0.11723645990E+03 -0.31581512424E+03 -0.26061220178E+03  0.42591538226E+03  0.12699999809E+01 0.  1.
       -4    1    3    3    0  502 -0.11723645990E+03  0.31581512424E+03  0.10370792838E+04  0.10904213104E+04  0.12699999809E+01 0. -1.
</event>
<event>
 5   0  0.5384960E-04  0.1296433E+04  0.7818609E-02  0.9032399E-01
       -2   -1    0    0    0  501  0.00000000000E+00  0.00000000000E+00  0.23118614880E+03  0.23118614882E+03  0.25500000920E-02 0. -1.
        2   -1    0    0  501    0  0.00000000000E+00  0.00000000000E+00 -0.18175150709E+04  0.18175150709E+04  0.25500000920E-02 0.  1.
    10030    2    1    2    0    0  0.00000000000E+00  0.00000000000E+00 -0.15863289221E+04  0.20487012198E+04  0.12964325045E+04 0.  0.
        3    1    3    3  502    0 -0.49824108876E+03  0.34960430925E+03 -0.44080906477E+03  0.75151846109E+03  0.10100000352E+00 0. -1.
       -3    1    3    3    0  502  0.49824108876E+03 -0.34960430925E+03 -0.11455198574E+04  0.12971827587E+04  0.10100000352E+00 0.  1.
</event>
<event>
 5   0  0.6007125E-04  0.1299285E+04  0.7818609E-02  0.9030133E-01
       -2   -1    0    0    0  501  0.00000000000E+00  0.00000000000E+00  0.79758169823E+03  0.79758169824E+03  0.25500000920E-02 0. -1.
        2   -1    0    0  501    0  0.00000000000E+00  0.00000000000E+00 -0.52914345552E+03  0.52914345552E+03  0.25500000920E-02 0.  1.
    10030    2    1    2    0    0  0.00000000000E+00  0.00000000000E+00  0.26843824272E+03  0.13267251538E+04  0.12992846276E+04 0.  0.
        5    1    3    3  502    0 -0.27361443778E+03 -0.58694449817E+03  0.18672832390E+03  0.67398684071E+03  0.46999998093E+01 0.  1.
       -5    1    3    3    0  502  0.27361443778E+03  0.58694449817E+03  0.81709918816E+02  0.65273831306E+03  0.46999998093E+01 0. -1.
</event>
<event>
 5   0  0.3274879E-04  0.1304863E+04  0.7818609E-02  0.9025718E-01
        1   -1    0    0  501    0  0.00000000000E+00  0.00000000000E+00  0.10970086127E+04  0.10970086127E+04  0.50400001928E-02 0. -1.
       -1   -1    0    0    0  501  0.00000000000E+00  0.00000000000E+00 -0.38802503378E+03  0.38802503381E+03  0.50400001928E-02 0.  1.
    10030    2    1    2    0    0  0.00000000000E+00  0.00000000000E+00  0.70898357893E+03  0.14850336465E+04  0.13048629109E+04 0.  0.
        4    1    3    3  502    0  0.45884459515E+03  0.20041267768E+03 -0.12154745977E+03  0.51524654463E+03  0.12699999809E+01 0.  1.
       -4    1    3    3    0  502 -0.45884459515E+03 -0.20041267768E+03  0.83053103870E+03  0.96978710190E+03  0.12699999809E+01 0. -1.
</event>
<event>
 5   0  0.3335747E-04  0.1296341E+04  0.7818609E-02  0.9032472E-01
       -1   -1    0    0    0  501  0.00000000000E+00  0.00000000000E+00  0.92542829960E+03  0.92542829961E+03  0.50400001928E-02 0.  1.
        1   -1    0    0  501    0  0.00000000000E+00  0.00000000000E+00 -0.45397891726E+03  0.45397891728E+03  0.50400001928E-02 0. -1.
    10030    2    1    2    0    0  0.00000000000E+00  0.00000000000E+00  0.47144938234E+03  0.13794072169E+04  0.12963409081E+04 0.  0.
        3    1    3    3  502    0 -0.54155907528E+03 -0.35324827803E+03  0.18749545153E+03  0.67321997333E+03  0.10100000352E+00 0. -1.
       -3    1    3    3    0  502  0.54155907528E+03  0.35324827803E+03  0.28395393081E+03  0.70618724356E+03  0.10100000352E+00 0.  1.
</event>
<event>
 5   0  0.3274879E-04  0.1294321E+04  0.7818609E-02  0.9034081E-01
        1   -1    0    0  501    0  0.00000000000E+00  0.00000000000E+00  0.64014758982E+03  0.64014758984E+03  0.50400001928E-02 0.  1.
       -1   -1    0    0    0  501  0.00000000000E+00  0.00000000000E+00 -0.65425044669E+03  0.65425044671E+03  0.50400001928E-02 0. -1.
    10030    2    1    2    0    0  0.00000000000E+00  0.00000000000E+00 -0.14102856866E+02  0.12943980366E+04  0.12943212068E+04 0.  0.
        4    1    3    3  502    0  0.27240089803E+03  0.41428597097E+03 -0.42298490294E+03  0.65173073888E+03  0.12699999809E+01 0. -1.
       -4    1    3    3    0  502 -0.27240089803E+03 -0.41428597097E+03  0.40888204608E+03  0.64266729767E+03  0.12699999809E+01 0.  1.
</event>
<event>
 5   0  0.5787604E-04  0.1296805E+04  0.7818609E-02  0.9032103E-01
        2   -1    0    0  501    0  0.00000000000E+00  0.00000000000E+00  0.94093850031E+03  0.94093850032E+03  0.25500000920E-02 0. -1.
       -2   -1    0    0    0  501  0.00000000000E+00  0.00000000000E+00 -0.44681527624E+03  0.44681527624E+03  0.25500000920E-02 0.  1.
    10030    2    1    2    0    0  0.00000000000E+00  0.00000000000E+00  0.49412322408E+03  0.13877537766E+04  0.12968048364E+04 0.  0.
        4    1    3    3  502    0  0.55207033125E+03 -0.19868298520E+03  0.54240187535E+03  0.79903566037E+03  0.12699999809E+01 0. -1.
       -4    1    3    3    0  502 -0.55207033125E+03  0.19868298520E+03 -0.48278651271E+02  0.58871811619E+03  0.12699999809E+01 0.  1.
</event>
<event>
 5   0  0.5787604E-04  0.1301339E+04  0.7818609E-02  0.9028504E-01
       -2   -1    0    0    0  501  0.00000000000E+00  0.00000000000E+00  0.91156952720E+03  0.91156952720E+03  0.25500000920E-02 0.  1.
        2   -1    0    0  501    0  0.00000000000E+00  0.00000000000E+00 -0.46444179373E+03  0.46444179374E+03  0.25500000920E-02 0. -1.
    10030    2    1    2    0    0  0.00000000000E+00  0.00000000000E+00  0.44712773346E+03  0.13760113209E+04  0.13013392891E+04 0.  0.
        4    1    3    3  502    0  0.30940963373E+03 -0.41663590771E+03  0.63857687896E+03  0.82286198374E+03  0.12699999809E+01 0.  1.
       -4    1    3    3    0  502 -0.30940963373E+03  0.41663590771E+03 -0.19144914550E+03  0.55314933720E+03  0.12699999809E+01 0. -1.
</event>
<event>
 5   0  0.3337520E-04  0.1304202E+04  0.7818609E-02  0.9026240E-01
       -1   -1    0    0    0  501  0.00000000000E+00  0.00000000000E+00  0.65547700955E+03  0.65547700957E+03  0.50400001928E-02 0.  1.
        1   -1    0    0  501    0  0.00000000000E+00  0.00000000000E+00 -0.64874229323E+03  0.64874229325E+03  0.50400001928E-02 0. -1.
    10030    2    1    2    0    0  0.00000000000E+00  0.00000000000E+00  0.67347163183E+01  0.13042193028E+04  0.13042019144E+04 0.  0.
        5    1    3    3  502    0  0.47698514635E+03 -0.77833023144E+02  0.44114112304E+03  0.65437022378E+03  0.46999998093E+01 0.  1.
       -5    1    3    3    0  502 -0.47698514635E+03  0.77833023144E+02 -0.43440640673E+03  0.64984907905E+03  0.46999998093E+01 0. -1.
</event>
<event>
 5   0  0.6052864E-04  0.1281178E+04  0.7818609E-02  0.9044626E-01
        2   -1    0    0  501    0  0.00000000000E+00  0.00000000000E+00  0.39479067114E+03  0.39479067114E+03  0.25500000920E-02 0. -1.
       -2   -1    0    0    0  501  0.00000000000E+00  0.00000000000E+00 -0.10394216696E+04  0.10394216696E+04  0.25500000920E-02 0.  1.
    10030    2    1    2    0    0  0.00000000000E+00  0.00000000000E+00 -0.64463099845E+03  0.14342123407E+04  0.12811775498E+04 0.  0.
        2    1    3    3  502    0  0.48238536042E+03 -0.30520962074E+03 -0.64773714952E+03  0.86337243610E+03  0.25500000920E-02 0.  1.
       -2    1    3    3    0  502 -0.48238536042E+03  0.30520962074E+03  0.31061510686E+01  0.57083990463E+03  0.25500000920E-02 0. -1.
</event>
<event>
 5   0  0.3263679E-04  0.1305629E+04  0.7818609E-02  0.9025113E-01
       -1   -1    0    0    0  501  0.00000000000E+00  0.00000000000E+00  0.44431164642E+03  0.44431164645E+03  0.50400001928E-02 0.  1.
        1   -1    0    0  501    0  0.00000000000E+00  0.00000000000E+00 -0.95916167682E+03  0.95916167684E+03  0.50400001928E-02 0. -1.
    10030    2    1    2    0    0  0.00000000000E+00  0.00000000000E+00 -0.51485003041E+03  0.14034733233E+04  0.13056288965E+04 0.  0.
        2    1    3    3  502    0 -0.12659756242E+03  0.76666898556E+01  0.43094068717E+03  0.44921664796E+03  0.25500000920E-02 0.  1.
       -2    1    3    3    0  502  0.12659756242E+03 -0.76666898556E+01 -0.94579071757E+03  0.95425667532E+03  0.25500000920E-02 0. -1.
</event>
<event>
 5   0  0.3335747E-04  0.1312400E+04  0.7818609E-02  0.9019790E-01
        1   -1    0    0  501    0  0.00000000000E+00  0.00000000000E+00  0.96639206062E+03  0.96639206063E+03  0.50400001928E-02 0. -1.
       -1   -1    0    0    0  501  0.00000000000E+00  0.00000000000E+00 -0.44557294225E+03  0.44557294228E+03  0.50400001928E-02 0.  1.
    10030    2    1    2    0    0  0.00000000000E+00  0.00000000000E+00  0.52081911836E+03  0.14119650029E+04  0.13123995639E+04 0.  0.
        3    1    3    3  502    0 -0.63733271135E+03 -0.11497041785E+03  0.14661698270E+03  0.66400883409E+03  0.10100000352E+00 0.  1.
       -3    1    3    3    0  502  0.63733271135E+03  0.11497041785E+03  0.37420213567E+03  0.74795616882E+03  0.10100000352E+00 0. -1.
</event>
<event>
 5   0  0.5384960E-04  0.1297692E+04  0.7818609E-02  0.9031397E-01
       -2   -1    0    0    0  501  0.00000000000E+00  0.00000000000E+00  0.82305167245E+03  0.82305167246E+03  0.25500000920E-02 0.  1.
        2   -1    0    0  501    0  0.00000000000E+00  0.00000000000E+00 -0.51151255337E+03  0.51151255338E+03  0.25500000920E-02 0. -1.
    10030    2    1    2    0    0  0.00000000000E+00  0.00000000000E+00  0.31153911908E+03  0.13345642258E+04  0.12976922016E+04 0.  0.
        3    1    3    3  502    0  0.44316721828E+03  0.20566523009E+03 -0.28333518020E+03  0.56477801371E+03  0.10100000352E+00 0. -1.
       -3    1    3    3    0  502 -0.44316721828E+03 -0.20566523009E+03  0.59487429929E+03  0.76978621213E+03  0.10100000352E+00 0.  1.
</event>
<event>
 5   0  0.5957913E-04  0.1299448E+04  0.7818609E-02  0.9030003E-01
       -2   -1    0    0    0  501  0.00000000000E+00  0.00000000000E+00  0.53970603286E+03  0.53970603287E+03  0.25500000920E-02 0. -1.
        2   -1    0    0  501    0  0.00000000000E+00  0.00000000000E+00 -0.78216843839E+03  0.78216843839E+03  0.25500000920E-02 0.  1.
    10030    2    1    2    0    0  0.00000000000E+00  0.00000000000E+00 -0.24246240553E+03  0.13218744713E+04  0.12994476133E+04 0.  0.
        1    1    3    3  502    0  0.37804405688E+03 -0.35342845764E+03  0.27837419663E+03  0.58764034663E+03  0.50400001928E-02 0. -1.
       -1    1    3    3    0  502 -0.37804405688E+03  0.35342845764E+03 -0.52083660216E+03  0.73423412464E+03  0.50400001928E-02 0.  1.
</event>
<event>
 5   0  0.3274879E-04  0.1219105E+04  0.7818609E-02  0.9096296E-01
        1   -1    0    0  501    0  0.00000000000E+00  0.00000000000E+00  0.93779399578E+03  0.93779399580E+03  0.50400001928E-02 0.  1.
       -1   -1    0    0    0  501  0.00000000000E+00  0.00000000000E+00 -0.39620038224E+03  0.39620038228E+03  0.50400001928E-02 0. -1.
    10030    2    1    2    0    0  0.00000000000E+00  0.00000000000E+00  0.54159361354E+03  0.13339943781E+04  0.12191051466E+04 0.  0.
        4    1    3    3  502    0  0.21119851198E+03  0.40627247819E+03  0.71107141147E+03  0.84574600390E+03  0.12699999809E+01 0. -1.
       -4    1    3    3    0  502 -0.21119851198E+03 -0.40627247819E+03 -0.16947779793E+03  0.48824837418E+03  0.12699999809E+01 0.  1.
</event>
<event>
 5   0  0.3274879E-04  0.1298763E+04  0.7818609E-02  0.9030547E-01
        1   -1    0    0  501    0  0.00000000000E+00  0.00000000000E+00  0.41473499353E+03  0.41473499356E+03  0.50400001928E-02 0.  1.
       -1   -1    0    0    0  501  0.00000000000E+00  0.00000000000E+00 -0.10167846399E+04  0.10167846399E+04  0.50400001928E-02 0. -1.
    10030    2    1    2    0    0  0.00000000000E+00  0.00000000000E+00 -0.60204964633E+03  0.14315196334E+04  0.12987627513E+04 0.  0.
        4    1    3    3  502    0  0.31940824428E+03  0.55414416182E+03 -0.42473463442E+03  0.76778805746E+03  0.12699999809E+01 0. -1.
       -4    1    3    3    0  502 -0.31940824428E+03 -0.55414416182E+03 -0.17731501191E+03  0.66373157597E+03  0.12699999809E+01 0.  1.
</event>
<event>
 5   0  0.3335747E-04  0.1297007E+04  0.7818609E-02  0.9031942E-01
        1   -1    0    0  501    0  0.00000000000E+00  0.00000000000E+00  0.72417971435E+03  0.72417971437E+03  0.50400001928E-02 0. -1.
       -1   -1    0    0    0  501  0.00000000000E+00  0.00000000000E+00 -0.58073554232E+03  0.58073554235E+03  0.50400001928E-02 0.  1.
    10030    2    1    2    0    0  0.00000000000E+00  0.00000000000E+00  0.14344417203E+03  0.13049152567E+04  0.12970071691E+04 0.  0.
        3    1    3    3  502    0 -0.52768358960E+03 -0.18372495914E+03  0.40289782475E+03  0.68886246721E+03  0.10100000352E+00 0. -1.
       -3    1    3    3    0  502  0.52768358960E+03  0.18372495914E+03 -0.25945365272E+03  0.61605278950E+03  0.10100000352E+00 0.  1.
</event>
<event>
 5   0  0.5787604E-04  0.1306737E+04  0.7818609E-02  0.9024240E-01
        2   -1    0    0  501    0  0.00000000000E+00  0.00000000000E+00  0.12104464059E+04  0.12104464059E+04  0.25500000920E-02 0.  1.
       -2   -1    0    0    0  501  0.00000000000E+00  0.00000000000E+00 -0.35267179615E+03  0.35267179616E+03  0.25500000920E-02 0. -1.
    10030    2    1    2    0    0  0.00000000000E+00  0.00000000000E+00  0.85777460978E+03  0.15631182021E+04  0.13067368643E+04 0.  0.
        4    1    3    3  502    0  0.89176112104E+02  0.40404024159E+03 -0.17597800819E+03  0.44963403793E+03  0.12699999809E+01 0. -1.
       -4    1    3    3    0  502 -0.89176112104E+02 -0.40404024159E+03  0.10337526180E+04  0.11134841642E+04  0.12699999809E+01 0.  1.
</event>
<event>
 5   0  0.3337520E-04  0.1302118E+04  0.7818609E-02  0.9027888E-01
       -1   -1    0    0    0  501  0.00000000000E+00  0.00000000000E+00  0.46371471560E+03  0.46371471563E+03  0.50400001928E-02 0.  1.
        1   -1    0    0  501    0  0.00000000000E+00  0.00000000000E+00 -0.91409111797E+03  0.91409111798E+03  0.50400001928E-02 0. -1.
    10030    2    1    2    0    0  0.00000000000E+00  0.00000000000E+00 -0.45037640237E+03  0.13778058336E+04  0.13021175106E+04 0.  0.
        5    1    3    3  502    0 -0.19267659752E+03  0.17564280898E+03 -0.85642176883E+03  0.89524019330E+03  0.46999998093E+01 0. -1.
       -5    1    3    3    0  502  0.19267659752E+03 -0.17564280898E+03  0.40604536647E+03  0.48256564030E+03  0.46999998093E+01 0.  1.
</event>
<event>
 5   0  0.5384960E-04  0.1300182E+04  0.7818609E-02  0.9029421E-01
       -2   -1    0    0    0  501  0.00000000000E+00  0.00000000000E+00  0.18216534861E+03  0.18216534862E+03  0.25500000920E-02 0. -1.
        2   -1    0    0  501    0  0.00000000000E+00  0.00000000000E+00 -0.23199692275E+04  0.23199692275E+04  0.25500000920E-02 0.  1.
    10030    2    1    2    0    0  0.00000000000E+00  0.00000000000E+00 -0.21378038789E+04  0.25021345761E+04  0.13001815306E+04 0.  0.
        3    1    3    3  502    0 -0.21908237724E+03  0.48573919473E+03 -0.35224553155E+03  0.63876175371E+03  0.10100000352E+00 0. -1.
       -3    1    3    3    0  502  0.21908237724E+03 -0.48573919473E+03 -0.17855583473E+04  0.18633728224E+04  0.10100000352E+00 0.  1.
</event>
<event>
 5   0  0.5384960E-04  0.1298600E+04  0.7818609E-02  0.9030676E-01
       -2   -1    0    0    0  501  0.00000000000E+00  0.00000000000E+00  0.18804255063E+04  0.18804255063E+04  0.25500000920E-02 0.  1.
        2   -1    0    0  501    0  0.00000000000E+00  0.00000000000E+00 -0.22419949088E+03  0.22419949089E+03  0.25500000920E-02 0. -1.
    10030    2    1    2    0    0  0.00000000000E+00  0.00000000000E+00  0.16562260155E+04  0.21046249972E+04  0.12985999248E+04 0.  0.
        3    1    3    3  502    0 -0.51851662685E+03  0.64476060509E+02  0.14528114628E+04  0.15439163874E+04  0.10100000352E+00 0.  1.
       -3    1    3    3    0  502  0.51851662685E+03 -0.64476060509E+02  0.20341455270E+03  0.56070860984E+03  0.10100000352E+00 0. -1.
</event>
<event>
 5   0  0.3337520E-04  0.1295916E+04  0.7818609E-02  0.9032810E-01
       -1   -1    0    0    0  501  0.00000000000E+00  0.00000000000E+00  0.24912706085E+04  0.24912706085E+04  0.50400001928E-02 0.  1.
        1   -1    0    0  501    0  0.00000000000E+00  0.00000000000E+00 -0.16852832678E+03  0.16852832686E+03  0.50400001928E-02 0. -1.
    10030    2    1    2    0    0  0.00000000000E+00  0.00000000000E+00  0.23227422817E+04  0.26597989354E+04  0.12959161506E+04 0.  0.
        5    1    3    3  502    0  0.39501659262E+03  0.45573172521E+03  0.67524850913E+03  0.90537956288E+03  0.46999998093E+01 0.  1.
       -5    1    3    3    0  502 -0.39501659262E+03 -0.45573172521E+03  0.16474937726E+04  0.17544193725E+04  0.46999998093E+01 0. -1.
</event>
<event>
 5   0  0.3337520E-04  0.1300689E+04  0.7818609E-02  0.9029019E-01
       -1   -1    0    0    0  501  0.00000000000E+00  0.00000000000E+00  0.27287555873E+03  0.27287555877E+03  0.50400001928E-02 0. -1.
        1   -1    0    0  501    0  0.00000000000E+00  0.00000000000E+00 -0.15499665294E+04  0.15499665294E+04  0.50400001928E-02 0.  1.
    10030    2    1    2    0    0  0.00000000000E+00  0.00000000000E+00 -0.12770909707E+04  0.18228420882E+04  0.13006890217E+04 0.  0.
        5    1    3    3  502    0 -0.99543454433E+02  0.33140105051E+02 -0.15380044222E+04  0.15415858259E+04  0.46999998093E+01 0.  1.
       -5    1    3    3    0  502  0.99543454433E+02 -0.33140105051E+02  0.26091345154E+03  0.28125626228E+03  0.46999998093E+01 0. -1.
</event>
<event>
 5   0  0.5384960E-04  0.1298567E+04  0.7818609E-02  0.9030702E-01
        2   -1    0    0  501    0  0.00000000000E+00  0.00000000000E+00  0.66901101376E+03  0.66901101376E+03  0.25500000920E-02 0. -1.
       -2   -1    0    0    0  501  0.00000000000E+00  0.00000000000E+00 -0.63013797521E+03  0.63013797521E+03  0.25500000920E-02 0.  1.
    10030    2    1    2    0    0  0.00000000000E+00  0.00000000000E+00  0.38873038551E+02  0.12991489890E+04  0.12985672807E+04 0.  0.
        3    1    3    3  502    0 -0.53492075982E+03  0.22733288783E+03 -0.27008692280E+03  0.64091139578E+03  0.10100000352E+00 0. -1.
       -3    1    3    3    0  502  0.53492075982E+03 -0.22733288783E+03  0.30895996135E+03  0.65823759319E+03  0.10100000352E+00 0.  1.
</event>
<event>
 5   0  0.2255875E-04  0.1301997E+04  0.7818609E-02  0.9027983E-01
        3   -1    0    0  501    0  0.00000000000E+00  0.00000000000E+00  0.84772367096E+03  0.84772367698E+03  0.10100000352E+00 0.  1.
       -3   -1    0    0    0  501  0.00000000000E+00  0.00000000000E+00 -0.49992557254E+03  0.49992558274E+03  0.10100000352E+00 0. -1.
    10030    2    1    2    0    0  0.00000000000E+00  0.00000000000E+00  0.34779809842E+03  0.13476492597E+04  0.13019965476E+04 0.  0.
        2    1    3    3  502    0 -0.83124036910E+02 -0.39818690606E+03 -0.35219064131E+03  0.53805266053E+03  0.25500000920E-02 0. -1.
       -2    1    3    3    0  502  0.83124036910E+02  0.39818690606E+03  0.69998873973E+03  0.80959659919E+03  0.25500000920E-02 0.  1.
</event>
<event>
 5   0  0.6052864E-04  0.1301946E+04  0.7818609E-02  0.9028024E-01
        2   -1    0    0  501    0  0.00000000000E+00  0.00000000000E+00  0.10829712510E+04  0.10829712510E+04  0.25500000920E-02 0. -1.
       -2   -1    0    0    0  501  0.00000000000E+00  0.00000000000E+00 -0.39129915795E+03  0.39129915795E+03  0.25500000920E-02 0.  1.
    10030    2    1    2    0    0  0.00000000000E+00  0.00000000000E+00  0.69167209305E+03  0.14742704089E+04  0.13019458339E+04 0.  0.
        2    1    3    3  502    0  0.43675370738E+03 -0.46327066499E+03  0.49940428795E+03  0.80918363353E+03  0.25500000920E-02 0. -1.
       -2    1    3    3    0  502 -0.43675370738E+03  0.46327066499E+03  0.19226780510E+03  0.66508677542E+03  0.25500000920E-02 0.  1.
</event>
<event>
 5   0  0.5957913E-04  0.1302903E+04  0.7818609E-02  0.9027266E-01
       -2   -1    0    0    0  501  0.00000000000E+00  0.00000000000E+00  0.43396754309E+03  0.43396754310E+03  0.25500000920E-02 0. -1.
        2   -1    0    0  501    0  0.00000000000E+00  0.00000000000E+00 -0.97792832428E+03  0.97792832428E+03  0.25500000920E-02 0.  1.
    10030    2    1    2    0    0  0.00000000000E+00  0.00000000000E+00 -0.54396078119E+03  0.14118958674E+04  0.13029031464E+04 0.  0.
        1    1    3    3  502    0  0.18750318667E+03  0.54336975247E+03  0.60228009469E+02  0.57795808331E+03  0.50400001928E-02 0. -1.
       -1    1    3    3    0  502 -0.18750318667E+03 -0.54336975247E+03 -0.60418879065E+03  0.83393778407E+03  0.50400001928E-02 0.  1.
</event>
<event>
 5   0  0.3403833E-04  0.1300618E+04  0.7818609E-02  0.9029075E-01
       -1   -1    0    0    0  501  0.00000000000E+00  0.00000000000E+00  0.23354064159E+03  0.23354064165E+03  0.50400001928E-02 0.  1.
        1   -1    0    0  501    0  0.00000000000E+00  0.00000000000E+00 -0.18108278384E+04  0.18108278384E+04  0.50400001928E-02 0. -1.
    10030    2    1    2    0    0  0.00000000000E+00  0.00000000000E+00 -0.15772871968E+04  0.20443684801E+04  0.13006181534E+04 0.  0.
        1    1    3    3  502    0  0.25945147434E+03 -0.56426872604E+03 -0.48552775959E+03  0.78832193175E+03  0.50400001928E-02 0.  1.
       -1    1    3    3    0  502 -0.25945147434E+03  0.56426872604E+03 -0.10917594373E+04  0.12560465483E+04  0.50400001928E-02 0. -1.
</event>
<event>
 5   0  0.5787604E-04  0.1306803E+04  0.7818609E-02  0.9024187E-01
       -2   -1    0    0    0  501  0.00000000000E+00  0.00000000000E+00  0.31667710968E+03  0.31667710969E+03  0.25500000920E-02 0. -1.
        2   -1    0    0  501    0  0.00000000000E+00  0.00000000000E+00 -0.13481673586E+04  0.13481673586E+04  0.25500000920E-02 0.  1.
    10030    2    1    2    0    0  0.00000000000E+00  0.00000000000E+00 -0.10314902489E+04  0.16648444683E+04  0.13068033402E+04 0.  0.
        4    1    3    3  502    0 -0.14512205675E+03  0.63361860137E+03 -0.43124650655E+03  0.78006929542E+03  0.12699999809E+01 0.  1.
       -4    1    3    3    0  502  0.14512205675E+03 -0.63361860137E+03 -0.60024374235E+03  0.88477517285E+03  0.12699999809E+01 0. -1.
</event>
<event>
 5   0  0.5787604E-04  0.1281663E+04  0.7818609E-02  0.9044235E-01
       -2   -1    0    0    0  501  0.00000000000E+00  0.00000000000E+00  0.49965672985E+03  0.49965672985E+03  0.25500000920E-02 0. -1.
        2   -1    0    0  501    0  0.00000000000E+00  0.00000000000E+00 -0.82189383979E+03  0.82189383980E+03  0.25500000920E-02 0.  1.
    10030    2    1    2    0    0  0.00000000000E+00  0.00000000000E+00 -0.32223710995E+03  0.13215505696E+04  0.12816626518E+04 0.  0.
        4    1    3    3  502    0 -0.25178611729E+03  0.43116697071E+03  0.25308197550E+03  0.55977969302E+03  0.12699999809E+01 0. -1.
       -4    1    3    3    0  502  0.25178611729E+03 -0.43116697071E+03 -0.57531908545E+03  0.76177087663E+03  0.12699999809E+01 0.  1.
</event>
<event>
 5   0  0.5384960E-04  0.1298580E+04  0.7818609E-02  0.9030692E-01
       -2   -1    0    0    0  501  0.00000000000E+00  0.00000000000E+00  0.33033829820E+03  0.33033829821E+03  0.25500000920E-02 0. -1.
        2   -1    0    0  501    0  0.00000000000E+00  0.00000000000E+00 -0.12761983790E+04  0.12761983790E+04  0.25500000920E-02 0.  1.
    10030    2    1    2    0    0  0.00000000000E+00  0.00000000000E+00 -0.94586008077E+03  0.16065366772E+04  0.12985795327E+04 0.  0.
        3    1    3    3  502    0 -0.53664989049E+03  0.35280049231E+03 -0.35481047967E+03  0.73372459345E+03  0.10100000352E+00 0. -1.
       -3    1    3    3    0  502  0.53664989049E+03 -0.35280049231E+03 -0.59104960110E+03  0.87281208373E+03  0.10100000352E+00 0.  1.
</event>
<event>
 5   0  0.3274879E-04  0.1304944E+04  0.7818609E-02  0.9025654E-01
        1   -1    0    0  501    0  0.00000000000E+00  0.00000000000E+00  0.54089105155E+03  0.54089105157E+03  0.50400001928E-02 0.  1.
       -1   -1    0    0    0  501  0.00000000000E+00  0.00000000000E+00 -0.78707085114E+03  0.78707085115E+03  0.50400001928E-02 0. -1.
    10030    2    1    2    0    0  0.00000000000E+00  0.00000000000E+00 -0.24617979959E+03  0.13279619027E+04  0.13049438001E+04 0.  0.
        4    1    3    3  502    0 -0.49448882442E+02  0.60137294375E+03 -0.37570917673E+03  0.71081193562E+03  0.12699999809E+01 0.  1.
       -4    1    3    3    0  502  0.49448882442E+02 -0.60137294375E+03  0.12952937714E+03  0.61714996710E+03  0.12699999809E+01 0. -1.
</event>
<event>
 5   0  0.3263679E-04  0.1307488E+04  0.7818609E-02  0.9023648E-01
       -1   -1    0    0    0  501  0.00000000000E+00  0.00000000000E+00  0.35275968697E+03  0.35275968701E+03  0.50400001928E-02 0. -1.
        1   -1    0    0  501    0  0.00000000000E+00  0.00000000000E+00 -0.12115367289E+04  0.12115367289E+04  0.50400001928E-02 0.  1.
    10030    2    1    2    0    0  0.00000000000E+00  0.00000000000E+00 -0.85877704190E+03  0.15642964159E+04  0.13074881525E+04 0.  0.
        2    1    3    3  502    0 -0.12469741949E+03  0.41061223394E+03  0.16066224636E+03  0.45821851829E+03  0.25500000920E-02 0. -1.
       -2    1    3    3    0  502  0.12469741949E+03 -0.41061223394E+03 -0.10194392883E+04  0.11060778976E+04  0.25500000920E-02 0.  1.
</event>
<event>
 5   0  0.5384960E-04  0.1300821E+04  0.7818609E-02  0.9028914E-01
        2   -1    0    0  501    0  0.00000000000E+00  0.00000000000E+00  0.60693979137E+03  0.60693979138E+03  0.25500000920E-02 0. -1.
       -2   -1    0    0    0  501  0.00000000000E+00  0.00000000000E+00 -0.69699469237E+03  0.69699469238E+03  0.25500000920E-02 0.  1.
    10030    2    1    2    0    0  0.00000000000E+00  0.00000000000E+00 -0.90054900998E+02  0.13039344838E+04  0.13008209918E+04 0.  0.
        3    1    3    3  502    0 -0.21677584275E+03 -0.33581846673E+03  0.46929711349E+03  0.61644594210E+03  0.10100000352E+00 0. -1.
       -3    1    3    3    0  502  0.21677584275E+03  0.33581846673E+03 -0.55935201449E+03  0.68748854166E+03  0.10100000352E+00 0.  1.
</event>
<event>
 5   0  0.5787604E-04  0.1302597E+04  0.7818609E-02  0.9027508E-01
       -2   -1    0    0    0  501  0.00000000000E+00  0.00000000000E+00  0.14452593691E+03  0.14452593694E+03  0.25500000920E-02 0.  1.
        2   -1    0    0  501    0  0.00000000000E+00  0.00000000000E+00 -0.29350425495E+04  0.29350425495E+04  0.25500000920E-02 0. -1.
    10030    2    1    2    0    0  0.00000000000E+00  0.00000000000E+00 -0.27905166126E+04  0.30795684864E+04  0.13025970588E+04 0.  0.
        4    1    3    3  502    0  0.10873379796E+03 -0.63459689438E+03 -0.16275246466E+04  0.17502497952E+04  0.12699999809E+01 0. -1.
       -4    1    3    3    0  502 -0.10873379796E+03  0.63459689438E+03 -0.11629919659E+04  0.13293186913E+04  0.12699999809E+01 0.  1.
</event>
<event>
 5   0  0.5787604E-04  0.1299794E+04  0.7818609E-02  0.9029729E-01
       -2   -1    0    0    0  501  0.00000000000E+00  0.00000000000E+00  0.72380658447E+03  0.72380658447E+03  0.25500000920E-02 0.  1.
        2   -1    0    0  501    0  0.00000000000E+00  0.00000000000E+00 -0.58353444596E+03  0.58353444597E+03  0.25500000920E-02 0. -1.
    10030    2    1    2    0    0  0.00000000000E+00  0.00000000000E+00  0.14027213850E+03  0.13073410304E+04  0.12997939441E+04 0.  0.
        4    1    3    3  502    0 -0.27029798157E+03 -0.55712651861E+03 -0.12827438721E+03  0.63238191616E+03  0.12699999809E+01 0. -1.
       -4    1    3    3    0  502  0.27029798157E+03  0.55712651861E+03  0.26854652571E+03  0.67495911428E+03  0.12699999809E+01 0.  1.
</event>
<event>
 5   0  0.3335747E-04  0.1298476E+04  0.7818609E-02  0.9030774E-01
        1   -1    0    0  501    0  0.00000000000E+00  0.00000000000E+00  0.68558115988E+03  0.68558115990E+03  0.50400001928E-02 0.  1.
       -1   -1    0    0    0  501  0.00000000000E+00  0.00000000000E+00 -0.61482187646E+03  0.61482187648E+03  0.50400001928E-02 0. -1.
    10030    2    1    2    0    0  0.00000000000E+00  0.00000000000E+00  0.70759283420E+02  0.13004030364E+04  0.12984764845E+04 0.  0.
        3    1    3    3  502    0 -0.51986025914E+03  0.20240016808E+03  0.36797141095E+03  0.66829894999E+03  0.10100000352E+00 0.  1.
       -3    1    3    3    0  502  0.51986025914E+03 -0.20240016808E+03 -0.29721212753E+03  0.63210408639E+03  0.10100000352E+00 0. -1.
</event>
<event>
 5   0  0.3403833E-04  0.1301839E+04  0.7818609E-02  0.9028108E-01
        1   -1    0    0  501    0  0.00000000000E+00  0.00000000000E+00  0.79403807644E+03  0.79403807646E+03  0.50400001928E-02 0.  1.
       -1   -1    0    0    0  501  0.00000000000E+00  0.00000000000E+00 -0.53359699610E+03  0.53359699612E+03  0.50400001928E-02 0. -1.
    10030    2    1    2    0    0  0.00000000000E+00  0.00000000000E+00  0.26044108034E+03  0.13276350726E+04  0.13018392104E+04 0.  0.
        1    1    3    3  502    0 -0.60817886113E+02  0.51571881955E+03  0.53046589940E+03  0.74233333925E+03  0.50400001928E-02 0.  1.
       -1    1    3    3    0  502  0.60817886113E+02 -0.51571881955E+03 -0.27002481906E+03  0.58530173333E+03  0.50400001928E-02 0. -1.
</event>
<event>
 5   0  0.3263679E-04  0.1292684E+04  0.7818609E-02  0.9035387E-01
       -1   -1    0    0    0  501  0.00000000000E+00  0.00000000000E+00  0.97699817434E+03  0.97699817435E+03  0.50400001928E-02 0.  1.
        1   -1    0    0  501    0  0.00000000000E+00  0.00000000000E+00 -0.42759340346E+03  0.42759340349E+03  0.50400001928E-02 0. -1.
    10030    2    1    2    0    0  0.00000000000E+00  0.00000000000E+00  0.54940477088E+03  0.14045915778E+04  0.12926839901E+04 0.  0.
        2    1    3    3  502    0 -0.12703045920E+03  0.17813971676E+03 -0.38613180514E+03  0.44381107152E+03  0.25500000920E-02 0. -1.
       -2    1    3    3    0  502  0.12703045920E+03 -0.17813971676E+03  0.93553657602E+03  0.96078050633E+03  0.25500000920E-02 0.  1.
</event>
<event>
 5   0  0.5957913E-04  0.1295979E+04  0.7818609E-02  0.9032760E-01
       -2   -1    0    0    0  501  0.00000000000E+00  0.00000000000E+00  0.37483463986E+03  0.37483463987E+03  0.25500000920E-02 0. -1.
        2   -1    0    0  501    0  0.00000000000E+00  0.00000000000E+00 -0.11202015334E+04  0.11202015334E+04  0.25500000920E-02 0.  1.
    10030    2    1    2    0    0  0.00000000000E+00  0.00000000000E+00 -0.74536689354E+03  0.14950361733E+04  0.12959789170E+04 0.  0.
        1    1    3    3  502    0  0.64108931604E+03 -0.80556523667E+02 -0.42926229071E+03  0.77572609786E+03  0.50400001928E-02 0.  1.
       -1    1    3    3    0  502 -0.64108931604E+03  0.80556523667E+02 -0.31610460282E+03  0.71931007542E+03  0.50400001928E-02 0. -1.
</event>
<event>
 5   0  0.5787604E-04  0.1297187E+04  0.7818609E-02  0.9031799E-01
       -2   -1    0    0    0  501  0.00000000000E+00  0.00000000000E+00  0.64475248740E+03  0.64475248740E+03  0.25500000920E-02 0.  1.
        2   -1    0    0  501    0  0.00000000000E+00  0.00000000000E+00 -0.65245708866E+03  0.65245708866E+03  0.25500000920E-02 0. -1.
    10030    2    1    2    0    0  0.00000000000E+00  0.00000000000E+00 -0.77046012599E+01  0.12972095761E+04  0.12971866956E+04 0.  0.
        4    1    3    3  502    0  0.32513746888E+02 -0.16712319210E+03  0.62200569479E+03  0.64488758891E+03  0.12699999809E+01 0.  1.
       -4    1    3    3    0  502 -0.32513746888E+02  0.16712319210E+03 -0.62971029605E+03  0.65232198716E+03  0.12699999809E+01 0. -1.
</event>
<event>
 5   0  0.3337520E-04  0.1297709E+04  0.7818609E-02  0.9031384E-01
       -1   -1    0    0    0  501  0.00000000000E+00  0.00000000000E+00  0.71988284740E+03  0.71988284741E+03  0.50400001928E-02 0.  1.
        1   -1    0    0  501    0  0.00000000000E+00  0.00000000000E+00 -0.58483459237E+03  0.58483459239E+03  0.50400001928E-02 0. -1.
    10030    2    1    2    0    0  0.00000000000E+00  0.00000000000E+00  0.13504825503E+03  0.13047174398E+04  0.12977093536E+04 0.  0.
        5    1    3    3  502    0 -0.26500549101E+03  0.29254908629E+03 -0.45021061099E+03  0.59876920629E+03  0.46999998093E+01 0. -1.
       -5    1    3    3    0  502  0.26500549101E+03 -0.29254908629E+03  0.58525886602E+03  0.70594823352E+03  0.46999998093E+01 0.  1.
</event>
<event>
 5   0  0.5957913E-04  0.1295377E+04  0.7818609E-02  0.9033239E-01
       -2   -1    0    0    0  501  0.00000000000E+00  0.00000000000E+00  0.46722521051E+03  0.46722521052E+03  0.25500000920E-02 0. -1.
        2   -1    0    0  501    0  0.00000000000E+00  0.00000000000E+00 -0.89785464747E+03  0.89785464748E+03  0.25500000920E-02 0.  1.
    10030    2    1    2    0    0  0.00000000000E+00  0.00000000000E+00 -0.43062943696E+03  0.13650798580E+04  0.12953768976E+04 0.  0.
        1    1    3    3  502    0 -0.27321610717E+02  0.16046263297E+03 -0.87594926495E+03  0.89094435392E+03  0.50400001928E-02 0.  1.
       -1    1    3    3    0  502  0.27321610717E+02 -0.16046263297E+03  0.44531982799E+03  0.47413550407E+03  0.50400001928E-02 0. -1.
</event>
<event>
 5   0  0.3403833E-04  0.1300250E+04  0.7818609E-02  0.9029367E-01
        1   -1    0    0  501    0  0.00000000000E+00  0.00000000000E+00  0.50608030901E+03  0.50608030903E+03  0.50400001928E-02 0. -1.
       -1   -1    0    0    0  501  0.00000000000E+00  0.00000000000E+00 -0.83516875464E+03  0.83516875465E+03  0.50400001928E-02 0.  1.
    10030    2    1    2    0    0  0.00000000000E+00  0.00000000000E+00 -0.32908844563E+03  0.13412490637E+04  0.13002499167E+04 0.  0.
        1    1    3    3  502    0  0.23700039820E+03  0.28427867228E+03 -0.71588699633E+03  0.80590182020E+03  0.50400001928E-02 0.  1.
       -1    1    3    3    0  502 -0.23700039820E+03 -0.28427867228E+03  0.38679855070E+03  0.53534724349E+03  0.50400001928E-02 0. -1.
</event>
<event>
 5   0  0.3337520E-04  0.1294178E+04  0.7818609E-02  0.9034195E-01
       -1   -1    0    0    0  501  0.00000000000E+00  0.00000000000E+00  0.74160565480E+03  0.74160565482E+03  0.50400001928E-02 0.  1.
        1   -1    0    0  501    0  0.00000000000E+00  0.00000000000E+00 -0.56461821951E+03  0.56461821954E+03  0.50400001928E-02 0. -1.
    10030    2    1    2    0    0  0.00000000000E+00  0.00000000000E+00  0.17698743529E+03  0.13062238744E+04  0.12941778308E+04 0.  0.
        5    1    3    3  502    0 -0.19837418676E+03 -0.50186653560E+03  0.44885993410E+03  0.70193993188E+03  0.46999998093E+01 0.  1.
       -5    1    3    3    0  502  0.19837418676E+03  0.50186653560E+03 -0.27187249881E+03  0.60428394248E+03  0.46999998093E+01 0. -1.
</event>
<event>
 5   0  0.3337520E-04  0.1300616E+04  0.7818609E-02  0.9029077E-01
       -1   -1    0    0    0  501  0.00000000000E+00  0.00000000000E+00  0.66678409299E+03  0.66678409301E+03  0.50400001928E-02 0. -1.
        1   -1    0    0  501    0  0.00000000000E+00  0.00000000000E+00 -0.63423927154E+03  0.63423927156E+03  0.50400001928E-02 0.  1.
    10030    2    1    2    0    0  0.00000000000E+00  0.00000000000E+00  0.32544821457E+02  0.13010233646E+04  0.13006162500E+04 0.  0.
        5    1    3    3  502    0  0.17853359978E+02 -0.61230670802E+03  0.23460735843E+03  0.65597328435E+03  0.46999998093E+01 0. -1.
       -5    1    3    3    0  502 -0.17853359978E+02  0.61230670802E+03 -0.20206253698E+03  0.64505008022E+03  0.46999998093E+01 0.  1.
</event>
<event>
 5   0  0.6007125E-04  0.1297248E+04  0.7818609E-02  0.9031750E-01
        2   -1    0    0  501    0  0.00000000000E+00  0.00000000000E+00  0.58298704430E+03  0.58298704430E+03  0.25500000920E-02 0. -1.
       -2   -1    0    0    0  501  0.00000000000E+00  0.00000000000E+00 -0.72165109711E+03  0.72165109711E+03  0.25500000920E-02 0.  1.
    10030    2    1    2    0    0  0.00000000000E+00  0.00000000000E+00 -0.13866405281E+03  0.13046381414E+04  0.12972482262E+04 0.  0.
        5    1    3    3  502    0 -0.27138701760E+03 -0.13298596409E+03 -0.64649584263E+03  0.71366318702E+03  0.46999998093E+01 0.  1.
       -5    1    3    3    0  502  0.27138701760E+03  0.13298596409E+03  0.50783178983E+03  0.59097495440E+03  0.46999998093E+01 0. -1.
</event>
<event>
 5   0  0.6007125E-04  0.1315629E+04  0.7818609E-02  0.9017262E-01
       -2   -1    0    0    0  501  0.00000000000E+00  0.00000000000E+00  0.23291918651E+03  0.23291918652E+03  0.25500000920E-02 0.  1.
        2   -1    0    0  501    0  0.00000000000E+00  0.00000000000E+00 -0.18578125685E+04  0.18578125685E+04  0.25500000920E-02 0. -1.
    10030    2    1    2    0    0  0.00000000000E+00  0.00000000000E+00 -0.16248933820E+04  0.20907317551E+04  0.13156294192E+04 0.  0.
        5    1    3    3  502    0 -0.50700465430E+03  0.29298921623E+03 -0.12886660245E+04  0.14154782277E+04  0.46999998093E+01 0. -1.
       -5    1    3    3    0  502  0.50700465430E+03 -0.29298921623E+03 -0.33622735755E+03  0.67525352741E+03  0.46999998093E+01 0.  1.
</event>
<event>
 5   0  0.5787604E-04  0.1301554E+04  0.7818609E-02  0.9028334E-01
        2   -1    0    0  501    0  0.00000000000E+00  0.00000000000E+00  0.11585290051E+04  0.11585290051E+04  0.25500000920E-02 0. -1.
       -2   -1    0    0    0  501  0.00000000000E+00  0.00000000000E+00 -0.36555894044E+03  0.36555894045E+03  0.25500000920E-02 0.  1.
    10030    2    1    2    0    0  0.00000000000E+00  0.00000000000E+00  0.79297006461E+03  0.15240879455E+04  0.13015538953E+04 0.  0.
        4    1    3    3  502    0 -0.63446042249E+03 -0.12431583266E+03  0.30952821252E+03  0.71680107505E+03  0.12699999809E+01 0. -1.
       -4    1    3    3    0  502  0.63446042249E+03  0.12431583266E+03  0.48344185209E+03  0.80728687045E+03  0.12699999809E+01 0.  1.
</event>
<event>
 5   0  0.3403833E-04  0.1299247E+04  0.7818609E-02  0.9030162E-01
        1   -1    0    0  501    0  0.00000000000E+00  0.00000000000E+00  0.13023573317E+04  0.13023573317E+04  0.50400001928E-02 0. -1.
       -1   -1    0    0    0  501  0.00000000000E+00  0.00000000000E+00 -0.32403622079E+03  0.32403622083E+03  0.50400001928E-02 0.  1.
    10030    2    1    2    0    0  0.00000000000E+00  0.00000000000E+00  0.97832111090E+03  0.16263935525E+04  0.12992473943E+04 0.  0.
        1    1    3    3  502    0  0.32898413810E+03 -0.11311017156E+03 -0.19760306115E+03  0.40008929482E+03  0.50400001928E-02 0.  1.
       -1    1    3    3    0  502 -0.32898413810E+03  0.11311017156E+03  0.11759241721E+04  0.12263042577E+04  0.50400001928E-02 0. -1.
</event>
<event>
 5   0  0.6007125E-04  0.1299951E+04  0.7818609E-02  0.9029604E-01
       -2   -1    0    0    0  501  0.00000000000E+00  0.00000000000E+00  0.28392267732E+03  0.28392267733E+03  0.25500000920E-02 0.  1.
        2   -1    0    0  501    0  0.00000000000E+00  0.00000000000E+00 -0.14879691738E+04  0.14879691738E+04  0.25500000920E-02 0. -1.
    10030    2    1    2    0    0  0.00000000000E+00  0.00000000000E+00 -0.12040464965E+04  0.17718918511E+04  0.12999510631E+04 0.  0.
        5    1    3    3  502    0 -0.47204685014E+02 -0.31353734413E+03  0.17133174473E+03  0.36043113795E+03  0.46999998093E+01 0.  1.
       -5    1    3    3    0  502  0.47204685014E+02  0.31353734413E+03 -0.13753782412E+04  0.14114607132E+04  0.46999998093E+01 0. -1.
</event>
<event>
 5   0  0.3337520E-04  0.1305056E+04  0.7818609E-02  0.9025566E-01
        1   -1    0    0  501    0  0.00000000000E+00  0.00000000000E+00  0.36477133956E+03  0.36477133959E+03  0.50400001928E-02 0.  1.
       -1   -1    0    0    0  501  0.00000000000E+00  0.00000000000E+00 -0.11672862981E+04  0.11672862981E+04  0.50400001928E-02 0. -1.
    10030    2    1    2    0    0  0.00000000000E+00  0.00000000000E+00 -0.80251495850E+03  0.15320576377E+04  0.13050556871E+04 0.  0.
        5    1    3    3  502    0  0.63780776219E+03  0.11274033937E+03 -0.30836495187E+03  0.71737030826E+03  0.46999998093E+01 0. -1.
       -5    1    3    3    0  502 -0.63780776219E+03 -0.11274033937E+03 -0.49415000663E+03  0.81468732940E+03  0.46999998093E+01 0.  1.
</event>
<event>
 5   0  0.5384960E-04  0.1311130E+04  0.7818609E-02  0.9020786E-01
       -2   -1    0    0    0  501  0.00000000000E+00  0.00000000000E+00  0.55801921444E+03  0.55801921445E+03  0.25500000920E-02 0. -1.
        2   -1    0    0  501    0  0.00000000000E+00  0.00000000000E+00 -0.77016192710E+03  0.77016192710E+03  0.25500000920E-02 0.  1.
    10030    2    1    2    0    0  0.00000000000E+00  0.00000000000E+00 -0.21214271265E+03  0.13281811415E+04  0.13111295185E+04 0.  0.
        3    1    3    3  502    0  0.39085574408E+03  0.46859043325E+03 -0.34881231820E+03  0.70286218446E+03  0.10100000352E+00 0.  1.
       -3    1    3    3    0  502 -0.39085574408E+03 -0.46859043325E+03  0.13666960554E+03  0.62531895709E+03  0.10100000352E+00 0. -1.
</event>
<event>
 5   0  0.6007125E-04  0.1296524E+04  0.7818609E-02  0.9032326E-01
       -2   -1    0    0    0  501  0.00000000000E+00  0.00000000000E+00  0.28771196466E+03  0.28771196467E+03  0.25500000920E-02 0. -1.
        2   -1    0    0  501    0  0.00000000000E+00  0.00000000000E+00 -0.14606399955E+04  0.14606399955E+04  0.25500000920E-02 0.  1.
    10030    2    1    2    0    0  0.00000000000E+00  0.00000000000E+00 -0.11729280308E+04  0.17483519602E+04  0.12965239724E+04 0.  0.
        5    1    3    3  502    0  0.46899545231E+03 -0.81076533076E+02 -0.11799404158E+04  0.12723252781E+04  0.46999998093E+01 0.  1.
       -5    1    3    3    0  502 -0.46899545231E+03  0.81076533076E+02  0.70123849382E+01  0.47602668208E+03  0.46999998093E+01 0. -1.
</event>
<event>
 5   0  0.3274879E-04  0.1300658E+04  0.7818609E-02  0.9029043E-01
        1   -1    0    0  501    0  0.00000000000E+00  0.00000000000E+00  0.46126168953E+03  0.46126168955E+03  0.50400001928E-02 0. -1.
       -1   -1    0    0    0  501  0.00000000000E+00  0.00000000000E+00 -0.91689382931E+03  0.91689382933E+03  0.50400001928E-02 0.  1.
    10030    2    1    2    0    0  0.00000000000E+00  0.00000000000E+00 -0.45563213979E+03  0.13781555189E+04  0.13006582900E+04 0.  0.
        4    1    3    3  502    0  0.22603205858E+03 -0.18560309437E+03 -0.84327550594E+03  0.89255486776E+03  0.12699999809E+01 0.  1.
       -4    1    3    3    0  502 -0.22603205858E+03  0.18560309437E+03  0.38764336615E+03  0.48560065112E+03  0.12699999809E+01 0. -1.
</event>
<event>
 5   0  0.5384960E-04  0.1298645E+04  0.7818609E-02  0.9030640E-01
       -2   -1    0    0    0  501  0.00000000000E+00  0.00000000000E+00  0.26443127961E+03  0.26443127963E+03  0.25500000920E-02 0.  1.
        2   -1    0    0  501    0  0.00000000000E+00  0.00000000000E+00 -0.15944395746E+04  0.15944395746E+04  0.25500000920E-02 0. -1.
    10030    2    1    2    0    0  0.00000000000E+00  0.00000000000E+00 -0.13300082950E+04  0.18588708542E+04  0.12986449815E+04 0.  0.
        3    1    3    3  502    0  0.61399906459E+03 -0.62075826513E+01 -0.96724940848E+03  0.11456896673E+04  0.10100000352E+00 0. -1.
       -3    1    3    3    0  502 -0.61399906459E+03  0.62075826513E+01 -0.36275888649E+03  0.71318118689E+03  0.10100000352E+00 0.  1.
</event>
<event>
 5   0  0.6052864E-04  0.1301993E+04  0.7818609E-02  0.9027986E-01
        2   -1    0    0  501    0  0.00000000000E+00  0.00000000000E+00  0.11991867721E+04  0.11991867721E+04  0.25500000920E-02 0. -1.
       -2   -1    0    0    0  501  0.00000000000E+00  0.00000000000E+00 -0.35340314681E+03  0.35340314682E+03  0.25500000920E-02 0.  1.
    10030    2    1    2    0    0  0.00000000000E+00  0.00000000000E+00  0.84578362524E+03  0.15525899189E+04  0.13019929015E+04 0.  0.
        2    1    3    3  502    0 -0.61405494998E+03 -0.44537104007E+02  0.17063582691E+03  0.63887684311E+03  0.25500000920E-02 0.  1.
       -2    1    3    3    0  502  0.61405494998E+03  0.44537104007E+02  0.67514779833E+03  0.91371307577E+03  0.25500000920E-02 0. -1.
</event>
<event>
 5   0  0.5787604E-04  0.1299420E+04  0.7818609E-02  0.9030026E-01
        2   -1    0    0  501    0  0.00000000000E+00  0.00000000000E+00  0.90752330897E+03  0.90752330897E+03  0.25500000920E-02 0. -1.
       -2   -1    0    0    0  501  0.00000000000E+00  0.00000000000E+00 -0.46513716741E+03  0.46513716742E+03  0.25500000920E-02 0.  1.
    10030    2    1    2    0    0  0.00000000000E+00  0.00000000000E+00  0.44238614155E+03  0.13726604764E+04  0.12994195955E+04 0.  0.
        4    1    3    3  502    0  0.20271937930E+03  0.10524858364E+03  0.86370992916E+03  0.89340296940E+03  0.12699999809E+01 0. -1.
       -4    1    3    3    0  502 -0.20271937930E+03 -0.10524858364E+03 -0.42132378761E+03  0.47925750699E+03  0.12699999809E+01 0.  1.
</event>
<event>
 5   0  0.5384960E-04  0.1296328E+04  0.7818609E-02  0.9032482E-01
       -2   -1    0    0    0  501  0.00000000000E+00  0.00000000000E+00  0.39132908522E+03  0.39132908522E+03  0.25500000920E-02 0. -1.
        2   -1    0    0  501    0  0.00000000000E+00  0.00000000000E+00 -0.10735634355E+04  0.10735634355E+04  0.25500000920E-02 0.  1.
    10030    2    1    2    0    0  0.00000000000E+00  0.00000000000E+00 -0.68223435027E+03  0.14648925207E+04  0.12963280405E+04 0.  0.
        3    1    3    3  502    0  0.22646597702E+03 -0.12522589016E+03  0.33041891851E+03  0.41969635956E+03  0.10100000352E+00 0. -1.
       -3    1    3    3    0  502 -0.22646597702E+03  0.12522589016E+03 -0.10126532688E+04  0.10451961612E+04  0.10100000352E+00 0.  1.
</event>
<event>
 5   0  0.5957913E-04  0.1296645E+04  0.7818609E-02  0.9032230E-01
       -2   -1    0    0    0  501  0.00000000000E+00  0.00000000000E+00  0.35634747404E+03  0.35634747404E+03  0.25500000920E-02 0. -1.
        2   -1    0    0  501    0  0.00000000000E+00  0.00000000000E+00 -0.11795291484E+04  0.11795291484E+04  0.25500000920E-02 0.  1.
    10030    2    1    2    0    0  0.00000000000E+00  0.00000000000E+00 -0.82318167435E+03  0.15358766224E+04  0.12966452600E+04 0.  0.
        1    1    3    3  502    0 -0.47930771081E+03 -0.37931309945E+03 -0.15559645580E+03  0.63073335581E+03  0.50400001928E-02 0.  1.
       -1    1    3    3    0  502  0.47930771081E+03  0.37931309945E+03 -0.66758521855E+03  0.90514326662E+03  0.50400001928E-02 0. -1.
</event>
<event>
 5   0  0.5957913E-04  0.1273510E+04  0.7818609E-02  0.9050840E-01
        2   -1    0    0  501    0  0.00000000000E+00  0.00000000000E+00  0.22471073055E+04  0.22471073055E+04  0.25500000920E-02 0. -1.
       -2   -1    0    0    0  501  0.00000000000E+00  0.00000000000E+00 -0.18043501346E+03  0.18043501348E+03  0.25500000920E-02 0.  1.
    10030    2    1    2    0    0  0.00000000000E+00  0.00000000000E+00  0.20666722920E+04  0.24275423189E+04  0.12735098538E+04 0.  0.
        1    1    3    3  502    0  0.59537356150E+03 -0.54168195233E+01  0.60303757045E+03  0.84743927869E+03  0.50400001928E-02 0.  1.
       -1    1    3    3    0  502 -0.59537356150E+03  0.54168195233E+01  0.14636347215E+04  0.15801030403E+04  0.50400001928E-02 0. -1.
</event>
<event>
 5   0  0.3403833E-04  0.1276622E+04  0.7818609E-02  0.9048312E-01
        1   -1    0    0  501    0  0.00000000000E+00  0.00000000000E+00  0.81752833907E+03  0.81752833908E+03  0.50400001928E-02 0.  1.
       -1   -1    0    0    0  501  0.00000000000E+00  0.00000000000E+00 -0.49838162758E+03  0.49838162760E+03  0.50400001928E-02 0. -1.
    10030    2    1    2    0    0  0.00000000000E+00  0.00000000000E+00  0.31914671149E+03  0.13159099667E+04  0.12766222687E+04 0.  0.
        1    1    3    3  502    0  0.25202714900E+03  0.57674083191E+03  0.50032342421E+02  0.63138807903E+03  0.50400001928E-02 0.  1.
       -1    1    3    3    0  502 -0.25202714900E+03 -0.57674083191E+03  0.26911436907E+03  0.68452188766E+03  0.50400001928E-02 0. -1.
</event>
<event>
 5   0  0.3263679E-04  0.1298427E+04  0.7818609E-02  0.9030814E-01
        1   -1    0    0  501    0  0.00000000000E+00  0.00000000000E+00  0.46750880387E+03  0.46750880390E+03  0.50400001928E-02 0. -1.
       -1   -1    0    0    0  501  0.00000000000E+00  0.00000000000E+00 -0.90153991058E+03  0.90153991060E+03  0.50400001928E-02 0.  1.
    10030    2    1    2    0    0  0.00000000000E+00  0.00000000000E+00 -0.43403110671E+03  0.13690487145E+04  0.12984265020E+04 0.  0.
        2    1    3    3  502    0  0.35654209050E+03  0.45773239322E+03 -0.52412505854E+03  0.78188764097E+03  0.25500000920E-02 0. -1.
       -2    1    3    3    0  502 -0.35654209050E+03 -0.45773239322E+03  0.90093951831E+02  0.58716107353E+03  0.25500000920E-02 0.  1.
</event>
<event>
 5   0  0.5957913E-04  0.1297271E+04  0.7818609E-02  0.9031732E-01
       -2   -1    0    0    0  501  0.00000000000E+00  0.00000000000E+00  0.46268752090E+03  0.46268752090E+03  0.25500000920E-02 0.  1.
        2   -1    0    0  501    0  0.00000000000E+00  0.00000000000E+00 -0.90931297957E+03  0.90931297957E+03  0.25500000920E-02 0. -1.
    10030    2    1    2    0    0  0.00000000000E+00  0.00000000000E+00 -0.44662545867E+03  0.13720005005E+04  0.12972706244E+04 0.  0.
        1    1    3    3  502    0 -0.35386345288E+03  0.54279071576E+03 -0.19182051640E+03  0.67574863295E+03  0.50400001928E-02 0.  1.
       -1    1    3    3    0  502  0.35386345288E+03 -0.54279071576E+03 -0.25480494227E+03  0.69625186752E+03  0.50400001928E-02 0. -1.
</event>
<event>
 5   0  0.3335747E-04  0.1300818E+04  0.7818609E-02  0.9028916E-01
       -1   -1    0    0    0  501  0.00000000000E+00  0.00000000000E+00  0.65879007266E+03  0.65879007268E+03  0.50400001928E-02 0. -1.
        1   -1    0    0  501    0  0.00000000000E+00  0.00000000000E+00 -0.64213491283E+03  0.64213491285E+03  0.50400001928E-02 0.  1.
    10030    2    1    2    0    0  0.00000000000E+00  0.00000000000E+00  0.16655159833E+02  0.13009249855E+04  0.13008183669E+04 0.  0.
        3    1    3    3  502    0 -0.33074465127E+03  0.55711102881E+03 -0.48838044041E+02  0.64973062689E+03  0.10100000352E+00 0.  1.
       -3    1    3    3    0  502  0.33074465127E+03 -0.55711102881E+03  0.65493203874E+02  0.65119435864E+03  0.10100000352E+00 0. -1.
</event>
<event>
 5   0  0.6007125E-04  0.1285742E+04  0.7818609E-02  0.9040949E-01
        2   -1    0    0  501    0  0.00000000000E+00  0.00000000000E+00  0.11740804143E+04  0.11740804143E+04  0.25500000920E-02 0. -1.
       -2   -1    0    0    0  501  0.00000000000E+00  0.00000000000E+00 -0.35200553686E+03  0.35200553687E+03  0.25500000920E-02 0.  1.
    10030    2    1    2    0    0  0.00000000000E+00  0.00000000000E+00  0.82207487744E+03  0.15260859512E+04  0.12857415083E+04 0.  0.
        5    1    3    3  502    0  0.41944122202E+03  0.15624453566E+03 -0.13664766656E+03  0.46801492329E+03  0.46999998093E+01 0.  1.
       -5    1    3    3    0  502 -0.41944122202E+03 -0.15624453566E+03  0.95872254400E+03  0.10580710279E+04  0.46999998093E+01 0. -1.
</event>
<event>
 5   0  0.3335747E-04  0.1246424E+04  0.7818609E-02  0.9073165E-01
        1   -1    0    0  501    0  0.00000000000E+00  0.00000000000E+00  0.15527884181E+04  0.15527884181E+04  0.50400001928E-02 0. -1.
       -1   -1    0    0    0  501  0.00000000000E+00  0.00000000000E+00 -0.25012608608E+03  0.25012608613E+03  0.50400001928E-02 0.  1.
    10030    2    1    2    0    0  0.00000000000E+00  0.00000000000E+00  0.13026623320E+04  0.18029145042E+04  0.12464235068E+04 0.  0.
        3    1    3    3  502    0 -0.53052530597E+03  0.28395263615E+03  0.88593900471E+03  0.10709687811E+04  0.10100000352E+00 0. -1.
       -3    1    3    3    0  502  0.53052530597E+03 -0.28395263615E+03  0.41672332729E+03  0.73194572310E+03  0.10100000352E+00 0.  1.
</event>
<event>
 5   0  0.6052864E-04  0.1296918E+04  0.7818609E-02  0.9032013E-01
       -2   -1    0    0    0  501  0.00000000000E+00  0.00000000000E+00  0.57320324270E+03  0.57320324270E+03  0.25500000920E-02 0. -1.
        2   -1    0    0  501    0  0.00000000000E+00  0.00000000000E+00 -0.73359460246E+03  0.73359460246E+03  0.25500000920E-02 0.  1.
    10030    2    1    2    0    0  0.00000000000E+00  0.00000000000E+00 -0.16039135976E+03  0.13067978452E+04  0.12969175841E+04 0.  0.
        2    1    3    3  502    0  0.25138665464E+03  0.51923073333E+03 -0.37859872912E+03  0.69002376934E+03  0.25500000920E-02 0.  1.
       -2    1    3    3    0  502 -0.25138665464E+03 -0.51923073333E+03  0.21820736936E+03  0.61677407582E+03  0.25500000920E-02 0. -1.
</event>
<event>
 5   0  0.3274879E-04  0.1303736E+04  0.7818609E-02  0.9026607E-01
        1   -1    0    0  501    0  0.00000000000E+00  0.00000000000E+00  0.69696864917E+03  0.69696864918E+03  0.50400001928E-02 0. -1.
       -1   -1    0    0    0  501  0.00000000000E+00  0.00000000000E+00 -0.60968625758E+03  0.60968625760E+03  0.50400001928E-02 0.  1.
    10030    2    1    2    0    0  0.00000000000E+00  0.00000000000E+00  0.87282391585E+02  0.13066549068E+04  0.13037364878E+04 0.  0.
        4    1    3    3  502    0  0.11273324614E+03 -0.52966665987E+03 -0.32004164553E+03  0.62903403973E+03  0.12699999809E+01 0.  1.
       -4    1    3    3    0  502 -0.11273324614E+03  0.52966665987E+03  0.40732403711E+03  0.67762086706E+03  0.12699999809E+01 0. -1.
</event>
<event>
 5   0  0.3337520E-04  0.1299287E+04  0.7818609E-02  0.9030131E-01
        1   -1    0    0  501    0  0.00000000000E+00  0.00000000000E+00  0.10646766870E+04  0.10646766870E+04  0.50400001928E-02 0. -1.
       -1   -1    0    0    0  501  0.00000000000E+00  0.00000000000E+00 -0.39639869024E+03  0.39639869027E+03  0.50400001928E-02 0.  1.
    10030    2    1    2    0    0  0.00000000000E+00  0.00000000000E+00  0.66827799671E+03  0.14610753772E+04  0.12992866416E+04 0.  0.
        5    1    3    3  502    0 -0.52412502251E+03 -0.36758014956E+03  0.20997154499E+03  0.67374501503E+03  0.46999998093E+01 0.  1.
       -5    1    3    3    0  502  0.52412502251E+03  0.36758014956E+03  0.45830645172E+03  0.78733036221E+03  0.46999998093E+01 0. -1.
</event>
<event>
 5   0  0.3403833E-04  0.1301818E+04  0.7818609E-02  0.9028125E-01
       -1   -1    0    0    0  501  0.00000000000E+00  0.00000000000E+00  0.51742875320E+03  0.51742875322E+03  0.50400001928E-02 0.  1.
        1   -1    0    0  501    0  0.00000000000E+00  0.00000000000E+00 -0.81882271963E+03  0.81882271965E+03  0.50400001928E-02 0. -1.
    10030    2    1    2    0    0  0.00000000000E+00  0.00000000000E+00 -0.30139396643E+03  0.13362514729E+04  0.13018178351E+04 0.  0.
        1    1    3    3  502    0 -0.39445661875E+02  0.64870039922E+03 -0.18790847599E+03  0.67651885677E+03  0.50400001928E-02 0. -1.
       -1    1    3    3    0  502  0.39445661875E+02 -0.64870039922E+03 -0.11348549044E+03  0.65973261610E+03  0.50400001928E-02 0.  1.
</event>
<event>
 5   0  0.3263679E-04  0.1302071E+04  0.7818609E-02  0.9027925E-01
       -1   -1    0    0    0  501  0.00000000000E+00  0.00000000000E+00  0.62595417332E+03  0.62595417334E+03  0.50400001928E-02 0. -1.
        1   -1    0    0  501    0  0.00000000000E+00  0.00000000000E+00 -0.67712163510E+03  0.67712163511E+03  0.50400001928E-02 0.  1.
    10030    2    1    2    0    0  0.00000000000E+00  0.00000000000E+00 -0.51167461777E+02  0.13030758085E+04  0.13020708327E+04 0.  0.
        2    1    3    3  502    0 -0.70390554436E+02  0.15354113319E+03  0.60364426738E+03  0.62683020929E+03  0.25500000920E-02 0. -1.
       -2    1    3    3    0  502  0.70390554436E+02 -0.15354113319E+03 -0.65481172916E+03  0.67624559916E+03  0.25500000920E-02 0.  1.
</event>
<event>
 5   0  0.5384960E-04  0.1241791E+04  0.7818609E-02  0.9077043E-01
        2   -1    0    0  501    0  0.00000000000E+00  0.00000000000E+00  0.22143887614E+04  0.22143887614E+04  0.25500000920E-02 0.  1.
       -2   -1    0    0    0  501  0.00000000000E+00  0.00000000000E+00 -0.17409373071E+03  0.17409373073E+03  0.25500000920E-02 0. -1.
    10030    2    1    2    0    0  0.00000000000E+00  0.00000000000E+00  0.20402950307E+04  0.23884824921E+04  0.12417909659E+04 0.  0.
        3    1    3    3  502    0 -0.53521244469E+03  0.11269824610E+03  0.15853768466E+04  0.16770727508E+04  0.10100000352E+00 0. -1.
       -3    1    3    3    0  502  0.53521244469E+03 -0.11269824610E+03  0.45491818413E+03  0.71140974134E+03  0.10100000352E+00 0.  1.
</event>
<event>
 5   0  0.5957913E-04  0.1305475E+04  0.7818609E-02  0.9025235E-01
       -2   -1    0    0    0  501  0.00000000000E+00  0.00000000000E+00  0.27162718180E+03  0.27162718181E+03  0.25500000920E-02 0. -1.
        2   -1    0    0  501    0  0.00000000000E+00  0.00000000000E+00 -0.15685688870E+04  0.15685688870E+04  0.25500000920E-02 0.  1.
    10030    2    1    2    0    0  0.00000000000E+00  0.00000000000E+00 -0.12969417052E+04  0.18401960688E+04  0.13054745440E+04 0.  0.
        1    1    3    3  502    0  0.40399398730E+02 -0.30709842320E+03 -0.14583766335E+04  0.14909070923E+04  0.50400001928E-02 0.  1.
       -1    1    3    3    0  502 -0.40399398730E+02  0.30709842320E+03  0.16143492830E+03  0.34928897643E+03  0.50400001928E-02 0. -1.
</event>
<event>
 5   0  0.3263679E-04  0.1303760E+04  0.7818609E-02  0.9026588E-01
        1   -1    0    0  501    0  0.00000000000E+00  0.00000000000E+00  0.10792892330E+04  0.10792892330E+04  0.50400001928E-02 0. -1.
       -1   -1    0    0    0  501  0.00000000000E+00  0.00000000000E+00 -0.39372926404E+03  0.39372926408E+03  0.50400001928E-02 0.  1.
    10030    2    1    2    0    0  0.00000000000E+00  0.00000000000E+00  0.68555996891E+03  0.14730184970E+04  0.13037603390E+04 0.  0.
        2    1    3    3  502    0  0.49552568568E+03 -0.28647103744E+03  0.69527100939E+03  0.90056267798E+03  0.25500000920E-02 0.  1.
       -2    1    3    3    0  502 -0.49552568568E+03  0.28647103744E+03 -0.97110404830E+01  0.57245581906E+03  0.25500000920E-02 0. -1.
</event>
<event>
 5   0  0.3263679E-04  0.1298341E+04  0.7818609E-02  0.9030882E-01
       -1   -1    0    0    0  501  0.00000000000E+00  0.00000000000E+00  0.42800688399E+03  0.42800688402E+03  0.50400001928E-02 0. -1.
        1   -1    0    0  501    0  0.00000000000E+00  0.00000000000E+00 -0.98461576721E+03  0.98461576722E+03  0.50400001928E-02 0.  1.
    10030    2    1    2    0    0  0.00000000000E+00  0.00000000000E+00 -0.55660888322E+03  0.14126226512E+04  0.12983409822E+04 0.  0.
        2    1    3    3  502    0 -0.52285869648E+03 -0.81791564293E+02 -0.68736464196E+03  0.86749134145E+03  0.25500000920E-02 0.  1.
       -2    1    3    3    0  502  0.52285869648E+03  0.81791564293E+02  0.13075575874E+03  0.54513130980E+03  0.25500000920E-02 0. -1.
</event>
<event>
 5   0  0.3335747E-04  0.1296674E+04  0.7818609E-02  0.9032207E-01
       -1   -1    0    0    0  501  0.00000000000E+00  0.00000000000E+00  0.29074847839E+03  0.29074847844E+03  0.50400001928E-02 0. -1.
        1   -1    0    0  501    0  0.00000000000E+00  0.00000000000E+00 -0.14457199989E+04  0.14457199989E+04  0.50400001928E-02 0.  1.
    10030    2    1    2    0    0  0.00000000000E+00  0.00000000000E+00 -0.11549715205E+04  0.17364684774E+04  0.12966740376E+04 0.  0.
        3    1    3    3  502    0 -0.41413783547E+03  0.44463937323E+03 -0.88028820549E+03  0.10696362250E+04  0.10100000352E+00 0.  1.
       -3    1    3    3    0  502  0.41413783547E+03 -0.44463937323E+03 -0.27468331505E+03  0.66683225234E+03  0.10100000352E+00 0. -1.
</event>
<event>
 5   0  0.3274879E-04  0.1302054E+04  0.7818609E-02  0.9027938E-01
        1   -1    0    0  501    0  0.00000000000E+00  0.00000000000E+00  0.62944636364E+03  0.62944636366E+03  0.50400001928E-02 0. -1.
       -1   -1    0    0    0  501  0.00000000000E+00  0.00000000000E+00 -0.67334719681E+03  0.67334719683E+03  0.50400001928E-02 0.  1.
    10030    2    1    2    0    0  0.00000000000E+00  0.00000000000E+00 -0.43900833175E+02  0.13027935605E+04  0.13020536771E+04 0.  0.
        4    1    3    3  502    0  0.34711697708E+03 -0.47028062155E+03  0.26488350082E+03  0.64173120595E+03  0.12699999809E+01 0. -1.
       -4    1    3    3    0  502 -0.34711697708E+03  0.47028062155E+03 -0.30878433399E+03  0.66106235455E+03  0.12699999809E+01 0.  1.
</event>
<event>
 5   0  0.6052864E-04  0.1298911E+04  0.7818609E-02  0.9030429E-01
        2   -1    0    0  501    0  0.00000000000E+00  0.00000000000E+00  0.83408858201E+03  0.83408858201E+03  0.25500000920E-02 0. -1.
       -2   -1    0    0    0  501  0.00000000000E+00  0.00000000000E+00 -0.50569267126E+03  0.50569267127E+03  0.25500000920E-02 0.  1.
    10030    2    1    2    0    0  0.00000000000E+00  0.00000000000E+00  0.32839591075E+03  0.13397812533E+04  0.12989110564E+04 0.  0.
        2    1    3    3  502    0 -0.53992669138E+03 -0.31757524653E+03  0.34111032696E+03  0.71325389900E+03  0.25500000920E-02 0. -1.
       -2    1    3    3    0  502  0.53992669138E+03  0.31757524653E+03 -0.12714416215E+02  0.62652735428E+03  0.25500000920E-02 0.  1.
</event>
<event>
 5   0  0.5957913E-04  0.1300266E+04  0.7818609E-02  0.9029354E-01
       -2   -1    0    0    0  501  0.00000000000E+00  0.00000000000E+00  0.70723670855E+03  0.70723670855E+03  0.25500000920E-02 0. -1.
        2   -1    0    0  501    0  0.00000000000E+00  0.00000000000E+00 -0.59763970173E+03  0.59763970174E+03  0.25500000920E-02 0.  1.
    10030    2    1    2    0    0  0.00000000000E+00  0.00000000000E+00  0.10959700682E+03  0.13048764103E+04  0.13002657199E+04 0.  0.
        1    1    3    3  502    0 -0.47381006612E+03  0.18477843415E+03  0.46124537990E+03  0.68657581445E+03  0.50400001928E-02 0. -1.
       -1    1    3    3    0  502  0.47381006612E+03 -0.18477843415E+03 -0.35164837308E+03  0.61830059583E+03  0.50400001928E-02 0.  1.
</event>
<event>
 5   0  0.2255875E-04  0.1298413E+04  0.7818609E-02  0.9030824E-01
       -3   -1    0    0    0  501  0.00000000000E+00  0.00000000000E+00  0.86145818346E+03  0.86145818938E+03  0.10100000352E+00 0.  1.
        3   -1    0    0  501    0  0.00000000000E+00  0.00000000000E+00 -0.48925106998E+03  0.48925108040E+03  0.10100000352E+00 0. -1.
    10030    2    1    2    0    0  0.00000000000E+00  0.00000000000E+00  0.37220711348E+03  0.13507092698E+04  0.12984134150E+04 0.  0.
        3    1    3    3  502    0 -0.12483007795E+03  0.59547503457E+03 -0.49505399508E+02  0.61042924237E+03  0.10100000352E+00 0. -1.
       -3    1    3    3    0  502  0.12483007795E+03 -0.59547503457E+03  0.42171251299E+03  0.74028002740E+03  0.10100000352E+00 0.  1.
</event>
<event>
 5   0  0.3403833E-04  0.1298041E+04  0.7818609E-02  0.9031120E-01
       -1   -1    0    0    0  501  0.00000000000E+00  0.00000000000E+00  0.15942604615E+03  0.15942604623E+03  0.50400001928E-02 0.  1.
        1   -1    0    0  501    0  0.00000000000E+00  0.00000000000E+00 -0.26421505434E+04  0.26421505434E+04  0.50400001928E-02 0. -1.
    10030    2    1    2    0    0  0.00000000000E+00  0.00000000000E+00 -0.24827244973E+04  0.28015765897E+04  0.12980410080E+04 0.  0.
        1    1    3    3  502    0  0.24908857922E+03  0.17215456306E+03 -0.24803632239E+04  0.24987765079E+04  0.50400001928E-02 0. -1.
       -1    1    3    3    0  502 -0.24908857922E+03 -0.17215456306E+03 -0.23612733623E+01  0.30280008176E+03  0.50400001928E-02 0.  1.
</event>
<event>
 5   0  0.6052864E-04  0.1250521E+04  0.7818609E-02  0.9069750E-01
        2   -1    0    0  501    0  0.00000000000E+00  0.00000000000E+00  0.12965977876E+04  0.12965977876E+04  0.25500000920E-02 0. -1.
       -2   -1    0    0    0  501  0.00000000000E+00  0.00000000000E+00 -0.30152019091E+03  0.30152019093E+03  0.25500000920E-02 0.  1.
    10030    2    1    2    0    0  0.00000000000E+00  0.00000000000E+00  0.99507759669E+03  0.15981179785E+04  0.12505205516E+04 0.  0.
        2    1    3    3  502    0  0.20036230524E+03  0.41130374723E+03 -0.47110914111E+02  0.45992962949E+03  0.25500000920E-02 0.  1.
       -2    1    3    3    0  502 -0.20036230524E+03 -0.41130374723E+03  0.10421885108E+04  0.11381883490E+04  0.25500000920E-02 0. -1.
</event>
<event>
 5   0  0.3403833E-04  0.1298903E+04  0.7818609E-02  0.9030435E-01
        1   -1    0    0  501    0  0.00000000000E+00  0.00000000000E+00  0.11163319723E+04  0.11163319723E+04  0.50400001928E-02 0.  1.
       -1   -1    0    0    0  501  0.00000000000E+00  0.00000000000E+00 -0.37783327635E+03  0.37783327638E+03  0.50400001928E-02 0. -1.
    10030    2    1    2    0    0  0.00000000000E+00  0.00000000000E+00  0.73849869591E+03  0.14941652487E+04  0.12989031782E+04 0.  0.
        1    1    3    3  502    0 -0.10598192993E+03  0.55811688668E+03  0.71959470918E+01  0.56813590834E+03  0.50400001928E-02 0. -1.
       -1    1    3    3    0  502  0.10598192993E+03 -0.55811688668E+03  0.73130274882E+03  0.92602934032E+03  0.50400001928E-02 0.  1.
</event>
<event>
 5   0  0.5957913E-04  0.1296550E+04  0.7818609E-02  0.9032305E-01
       -2   -1    0    0    0  501  0.00000000000E+00  0.00000000000E+00  0.29345425375E+03  0.29345425376E+03  0.25500000920E-02 0. -1.
        2   -1    0    0  501    0  0.00000000000E+00  0.00000000000E+00 -0.14321169018E+04  0.14321169018E+04  0.25500000920E-02 0.  1.
    10030    2    1    2    0    0  0.00000000000E+00  0.00000000000E+00 -0.11386626481E+04  0.17255711556E+04  0.12965504953E+04 0.  0.
        1    1    3    3  502    0 -0.46603925855E+03 -0.14822975709E+03 -0.11356984538E+04  0.12365175411E+04  0.50400001928E-02 0.  1.
       -1    1    3    3    0  502  0.46603925855E+03  0.14822975709E+03 -0.29641942806E+01  0.48905361451E+03  0.50400001928E-02 0. -1.
</event>
<event>
 5   0  0.3335747E-04  0.1305672E+04  0.7818609E-02  0.9025080E-01
       -1   -1    0    0    0  501  0.00000000000E+00  0.00000000000E+00  0.21960295779E+03  0.21960295784E+03  0.50400001928E-02 0. -1.
        1   -1    0    0  501    0  0.00000000000E+00  0.00000000000E+00 -0.19407506046E+04  0.19407506046E+04  0.50400001928E-02 0.  1.
    10030    2    1    2    0    0  0.00000000000E+00  0.00000000000E+00 -0.17211476468E+04  0.21603535625E+04  0.13056715868E+04 0.  0.
        3    1    3    3  502    0  0.57834945142E+03 -0.82144020586E+02 -0.37829837445E+03  0.69594927860E+03  0.10100000352E+00 0. -1.
       -3    1    3    3    0  502 -0.57834945142E+03  0.82144020586E+02 -0.13428492724E+04  0.14644042839E+04  0.10100000352E+00 0.  1.
</event>
<event>
 5   0  0.6007125E-04  0.1300837E+04  0.7818609E-02  0.9028902E-01
        2   -1    0    0  501    0  0.00000000000E+00  0.00000000000E+00  0.14678974653E+04  0.14678974653E+04  0.25500000920E-02 0. -1.
       -2   -1    0    0    0  501  0.00000000000E+00  0.00000000000E+00 -0.28819737901E+03  0.28819737902E+03  0.25500000920E-02 0.  1.
    10030    2    1    2    0    0  0.00000000000E+00  0.00000000000E+00  0.11797000863E+04  0.17560948444E+04  0.13008369647E+04 0.  0.
        5    1    3    3  502    0  0.20910643402E+03  0.39798419298E+03  0.12243448352E+04  0.13042849704E+04  0.46999998093E+01 0. -1.
       -5    1    3    3    0  502 -0.20910643402E+03 -0.39798419298E+03 -0.44644748851E+02  0.45180987396E+03  0.46999998093E+01 0.  1.
</event>
<event>
 5   0  0.5957913E-04  0.1301823E+04  0.7818609E-02  0.9028121E-01
        2   -1    0    0  501    0  0.00000000000E+00  0.00000000000E+00  0.56967890663E+03  0.56967890663E+03  0.25500000920E-02 0. -1.
       -2   -1    0    0    0  501  0.00000000000E+00  0.00000000000E+00 -0.74372768308E+03  0.74372768309E+03  0.25500000920E-02 0.  1.
    10030    2    1    2    0    0  0.00000000000E+00  0.00000000000E+00 -0.17404877646E+03  0.13134065897E+04  0.13018232957E+04 0.  0.
        1    1    3    3  502    0 -0.10841989009E+03  0.95689688869E+02  0.55326776719E+03  0.57185366254E+03  0.50400001928E-02 0. -1.
       -1    1    3    3    0  502  0.10841989009E+03 -0.95689688869E+02 -0.72731654365E+03  0.74155292718E+03  0.50400001928E-02 0.  1.
</event>
<event>
 5   0  0.3263679E-04  0.1297434E+04  0.7818609E-02  0.9031603E-01
       -1   -1    0    0    0  501  0.00000000000E+00  0.00000000000E+00  0.65710514217E+03  0.65710514219E+03  0.50400001928E-02 0.  1.
        1   -1    0    0  501    0  0.00000000000E+00  0.00000000000E+00 -0.64043588774E+03  0.64043588776E+03  0.50400001928E-02 0. -1.
    10030    2    1    2    0    0  0.00000000000E+00  0.00000000000E+00  0.16669254427E+02  0.12975410300E+04  0.12974339522E+04 0.  0.
        2    1    3    3  502    0 -0.51672389965E+02  0.14942052976E+03 -0.62087322746E+03  0.64068720541E+03  0.25500000920E-02 0. -1.
       -2    1    3    3    0  502  0.51672389965E+02 -0.14942052976E+03  0.63754248189E+03  0.65685382454E+03  0.25500000920E-02 0.  1.
</event>
<event>
 5   0  0.6052864E-04  0.1294994E+04  0.7818609E-02  0.9033545E-01
        2   -1    0    0  501    0  0.00000000000E+00  0.00000000000E+00  0.68236626645E+03  0.68236626645E+03  0.25500000920E-02 0.  1.
       -2   -1    0    0    0  501  0.00000000000E+00  0.00000000000E+00 -0.61440916100E+03  0.61440916100E+03  0.25500000920E-02 0. -1.
    10030    2    1    2    0    0  0.00000000000E+00  0.00000000000E+00  0.67957105452E+02  0.12967754275E+04  0.12949935680E+04 0.  0.
        2    1    3    3  502    0 -0.27303185947E+03  0.96085365597E+02 -0.54601896655E+03  0.61799312748E+03  0.25500000920E-02 0. -1.
       -2    1    3    3    0  502  0.27303185947E+03 -0.96085365597E+02  0.61397607200E+03  0.67878229998E+03  0.25500000920E-02 0.  1.
</event>
<event>
 5   0  0.5957913E-04  0.1331113E+04  0.7818609E-02  0.9005250E-01
        2   -1    0    0  501    0  0.00000000000E+00  0.00000000000E+00  0.91142487025E+03  0.91142487026E+03  0.25500000920E-02 0. -1.
       -2   -1    0    0    0  501  0.00000000000E+00  0.00000000000E+00 -0.48601415349E+03  0.48601415349E+03  0.25500000920E-02 0.  1.
    10030    2    1    2    0    0  0.00000000000E+00  0.00000000000E+00  0.42541071676E+03  0.13974390238E+04  0.13311128980E+04 0.  0.
        1    1    3    3  502    0 -0.95071947825E+02  0.17396810497E+03  0.87970685261E+03  0.90176921846E+03  0.50400001928E-02 0. -1.
       -1    1    3    3    0  502  0.95071947825E+02 -0.17396810497E+03 -0.45429613584E+03  0.49566980529E+03  0.50400001928E-02 0.  1.
</event>
<event>
 5   0  0.3263679E-04  0.1299693E+04  0.7818609E-02  0.9029809E-01
        1   -1    0    0  501    0  0.00000000000E+00  0.00000000000E+00  0.10804344720E+04  0.10804344720E+04  0.50400001928E-02 0.  1.
       -1   -1    0    0    0  501  0.00000000000E+00  0.00000000000E+00 -0.39086144200E+03  0.39086144204E+03  0.50400001928E-02 0. -1.
    10030    2    1    2    0    0  0.00000000000E+00  0.00000000000E+00  0.68957302998E+03  0.14712959140E+04  0.12996925417E+04 0.  0.
        2    1    3    3  502    0  0.15477118238E+03 -0.87862457262E+02  0.10523087810E+04  0.10672524073E+04  0.25500000920E-02 0.  1.
       -2    1    3    3    0  502 -0.15477118238E+03  0.87862457262E+02 -0.36273575100E+03  0.40404350676E+03  0.25500000920E-02 0. -1.
</event>
<event>
 5   0  0.3274879E-04  0.1296957E+04  0.7818609E-02  0.9031982E-01
       -1   -1    0    0    0  501  0.00000000000E+00  0.00000000000E+00  0.42249048071E+03  0.42249048074E+03  0.50400001928E-02 0. -1.
        1   -1    0    0  501    0  0.00000000000E+00  0.00000000000E+00 -0.99534665183E+03  0.99534665184E+03  0.50400001928E-02 0.  1.
    10030    2    1    2    0    0  0.00000000000E+00  0.00000000000E+00 -0.57285617111E+03  0.14178371326E+04  0.12969571858E+04 0.  0.
        4    1    3    3  502    0  0.45056120168E+03  0.42916314357E+03 -0.48602808078E+03  0.78956399896E+03  0.12699999809E+01 0. -1.
       -4    1    3    3    0  502 -0.45056120168E+03 -0.42916314357E+03 -0.86828090337E+02  0.62827313362E+03  0.12699999809E+01 0.  1.
</event>
<event>
 5   0  0.6007125E-04  0.1303038E+04  0.7818609E-02  0.9027159E-01
        2   -1    0    0  501    0  0.00000000000E+00  0.00000000000E+00  0.18165248699E+04  0.18165248699E+04  0.25500000920E-02 0.  1.
       -2   -1    0    0    0  501  0.00000000000E+00  0.00000000000E+00 -0.23367532600E+03  0.23367532602E+03  0.25500000920E-02 0. -1.
    10030    2    1    2    0    0  0.00000000000E+00  0.00000000000E+00  0.15828495439E+04  0.20502001959E+04  0.13030380519E+04 0.  0.
        5    1    3    3  502    0 -0.16420247276E+03 -0.29480286201E+03  0.16682813254E+04  0.17020739849E+04  0.46999998093E+01 0.  1.
       -5    1    3    3    0  502  0.16420247276E+03  0.29480286201E+03 -0.85431781471E+02  0.34812621101E+03  0.46999998093E+01 0. -1.
</event>
<event>
 5   0  0.3335747E-04  0.1297884E+04  0.7818609E-02  0.9031245E-01
        1   -1    0    0  501    0  0.00000000000E+00  0.00000000000E+00  0.14485605833E+04  0.14485605833E+04  0.50400001928E-02 0. -1.
       -1   -1    0    0    0  501  0.00000000000E+00  0.00000000000E+00 -0.29072021471E+03  0.29072021475E+03  0.50400001928E-02 0.  1.
    10030    2    1    2    0    0  0.00000000000E+00  0.00000000000E+00  0.11578403686E+04  0.17392807980E+04  0.12978841918E+04 0.  0.
        3    1    3    3  502    0 -0.44610836814E+03  0.46450258955E+03  0.68571195350E+03  0.94073174986E+03  0.10100000352E+00 0. -1.
       -3    1    3    3    0  502  0.44610836814E+03 -0.46450258955E+03  0.47212841506E+03  0.79854904817E+03  0.10100000352E+00 0.  1.
</event>
<event>
 5   0  0.3403833E-04  0.1299867E+04  0.7818609E-02  0.9029670E-01
       -1   -1    0    0    0  501  0.00000000000E+00  0.00000000000E+00  0.29549711958E+03  0.29549711963E+03  0.50400001928E-02 0.  1.
        1   -1    0    0  501    0  0.00000000000E+00  0.00000000000E+00 -0.14295020180E+04  0.14295020180E+04  0.50400001928E-02 0. -1.
    10030    2    1    2    0    0  0.00000000000E+00  0.00000000000E+00 -0.11340048984E+04  0.17249991377E+04  0.12998672683E+04 0.  0.
        1    1    3    3  502    0  0.34802807571E+03  0.12854704795E+03  0.14116151374E+03  0.39695649385E+03  0.50400001928E-02 0.  1.
       -1    1    3    3    0  502 -0.34802807571E+03 -0.12854704795E+03 -0.12751664122E+04  0.13280426438E+04  0.50400001928E-02 0. -1.
</event>
<event>
 5   0  0.5384960E-04  0.1285962E+04  0.7818609E-02  0.9040772E-01
        2   -1    0    0  501    0  0.00000000000E+00  0.00000000000E+00  0.10121617377E+04  0.10121617377E+04  0.25500000920E-02 0.  1.
       -2   -1    0    0    0  501  0.00000000000E+00  0.00000000000E+00 -0.40845706135E+03  0.40845706136E+03  0.25500000920E-02 0. -1.
    10030    2    1    2    0    0  0.00000000000E+00  0.00000000000E+00  0.60370467636E+03  0.14206187991E+04  0.12859620663E+04 0.  0.
        3    1    3    3  502    0 -0.54797005231E+03  0.10100196973E+03  0.65631201841E+03  0.86094021385E+03  0.10100000352E+00 0.  1.
       -3    1    3    3    0  502  0.54797005231E+03 -0.10100196973E+03 -0.52607342050E+02  0.55967858523E+03  0.10100000352E+00 0. -1.
</event>
<event>
 5   0  0.6007125E-04  0.1301534E+04  0.7818609E-02  0.9028350E-01
        2   -1    0    0  501    0  0.00000000000E+00  0.00000000000E+00  0.20132096681E+04  0.20132096681E+04  0.25500000920E-02 0. -1.
       -2   -1    0    0    0  501  0.00000000000E+00  0.00000000000E+00 -0.21035941571E+03  0.21035941572E+03  0.25500000920E-02 0.  1.
    10030    2    1    2    0    0  0.00000000000E+00  0.00000000000E+00  0.18028502524E+04  0.22235690838E+04  0.13015338789E+04 0.  0.
        5    1    3    3  502    0  0.31751645277E+03  0.47126969407E+03  0.14431961402E+04  0.15510477141E+04  0.46999998093E+01 0. -1.
       -5    1    3    3    0  502 -0.31751645277E+03 -0.47126969407E+03  0.35965411219E+03  0.67252136973E+03  0.46999998093E+01 0.  1.
</event>
<event>
 5   0  0.3337520E-04  0.1297664E+04  0.7818609E-02  0.9031420E-01
       -1   -1    0    0    0  501  0.00000000000E+00  0.00000000000E+00  0.33797507741E+03  0.33797507744E+03  0.50400001928E-02 0. -1.
        1   -1    0    0  501    0  0.00000000000E+00  0.00000000000E+00 -0.12456031713E+04  0.12456031713E+04  0.50400001928E-02 0.  1.
    10030    2    1    2    0    0  0.00000000000E+00  0.00000000000E+00 -0.90762809390E+03  0.15835782488E+04  0.12976637905E+04 0.  0.
        5    1    3    3  502    0 -0.39659541534E+03  0.23344688482E+03  0.10431241143E+03  0.47189886700E+03  0.46999998093E+01 0. -1.
       -5    1    3    3    0  502  0.39659541534E+03 -0.23344688482E+03 -0.10119405053E+04  0.11116793818E+04  0.46999998093E+01 0.  1.
</event>
<event>
 5   0  0.3263679E-04  0.1296976E+04  0.7818609E-02  0.9031966E-01
        1   -1    0    0  501    0  0.00000000000E+00  0.00000000000E+00  0.38326181845E+03  0.38326181849E+03  0.50400001928E-02 0.  1.
       -1   -1    0    0    0  501  0.00000000000E+00  0.00000000000E+00 -0.10972574558E+04  0.10972574558E+04  0.50400001928E-02 0. -1.
    10030    2    1    2    0    0  0.00000000000E+00  0.00000000000E+00 -0.71399563734E+03  0.14805192743E+04  0.12969763110E+04 0.  0.
        2    1    3    3  502    0  0.26599708732E+03  0.25944386547E+03 -0.96369112028E+03  0.10328437177E+04  0.25500000920E-02 0. -1.
       -2    1    3    3    0  502 -0.26599708732E+03 -0.25944386547E+03  0.24969548294E+03  0.44767555663E+03  0.25500000920E-02 0.  1.
</event>
<event>
 5   0  0.5787604E-04  0.1240466E+04  0.7818609E-02  0.9078156E-01
       -2   -1    0    0    0  501  0.00000000000E+00  0.00000000000E+00  0.13602624324E+04  0.13602624324E+04  0.25500000920E-02 0.  1.
        2   -1    0    0  501    0  0.00000000000E+00  0.00000000000E+00 -0.28280501801E+03  0.28280501802E+03  0.25500000920E-02 0. -1.
    10030    2    1    2    0    0  0.00000000000E+00  0.00000000000E+00  0.10774574144E+04  0.16430674504E+04  0.12404661087E+04 0.  0.
        4    1    3    3  502    0 -0.22555300316E+03 -0.31140410504E+03  0.11833411842E+04  0.12442446082E+04  0.12699999809E+01 0.  1.
       -4    1    3    3    0  502  0.22555300316E+03  0.31140410504E+03 -0.10588376982E+03  0.39882284222E+03  0.12699999809E+01 0. -1.
</event>
<event>
 5   0  0.6007125E-04  0.1287985E+04  0.7818609E-02  0.9039148E-01
       -2   -1    0    0    0  501  0.00000000000E+00  0.00000000000E+00  0.20315007119E+03  0.20315007120E+03  0.25500000920E-02 0. -1.
        2   -1    0    0  501    0  0.00000000000E+00  0.00000000000E+00 -0.20414786511E+04  0.20414786511E+04  0.25500000920E-02 0.  1.
    10030    2    1    2    0    0  0.00000000000E+00  0.00000000000E+00 -0.18383285799E+04  0.22446287223E+04  0.12879853001E+04 0.  0.
        5    1    3    3  502    0 -0.57980226109E+03  0.21154363164E+03 -0.59884493078E+03  0.85997599454E+03  0.46999998093E+01 0.  1.
       -5    1    3    3    0  502  0.57980226109E+03 -0.21154363164E+03 -0.12394836491E+04  0.13846527278E+04  0.46999998093E+01 0. -1.
</event>
<event>
 5   0  0.3274879E-04  0.1297707E+04  0.7818609E-02  0.9031386E-01
       -1   -1    0    0    0  501  0.00000000000E+00  0.00000000000E+00  0.67706903725E+03  0.67706903727E+03  0.50400001928E-02 0.  1.
        1   -1    0    0  501    0  0.00000000000E+00  0.00000000000E+00 -0.62181367146E+03  0.62181367149E+03  0.50400001928E-02 0. -1.
    10030    2    1    2    0    0  0.00000000000E+00  0.00000000000E+00  0.55255365785E+02  0.12988827088E+04  0.12977068759E+04 0.  0.
        4    1    3    3  502    0  0.13421453007E+03  0.23120106923E+03  0.61938389330E+03  0.67461507148E+03  0.12699999809E+01 0.  1.
       -4    1    3    3    0  502 -0.13421453007E+03 -0.23120106923E+03 -0.56412852751E+03  0.62426763727E+03  0.12699999809E+01 0. -1.
</event>
<event>
 5   0  0.6052864E-04  0.1303930E+04  0.7818609E-02  0.9026455E-01
        2   -1    0    0  501    0  0.00000000000E+00  0.00000000000E+00  0.13806006504E+04  0.13806006504E+04  0.25500000920E-02 0. -1.
       -2   -1    0    0    0  501  0.00000000000E+00  0.00000000000E+00 -0.30787912719E+03  0.30787912720E+03  0.25500000920E-02 0.  1.
    10030    2    1    2    0    0  0.00000000000E+00  0.00000000000E+00  0.10727215232E+04  0.16884797777E+04  0.13039296350E+04 0.  0.
        2    1    3    3  502    0 -0.43721514710E+03  0.47272046895E+03  0.66864770941E+03  0.92828416227E+03  0.25500000920E-02 0. -1.
       -2    1    3    3    0  502  0.43721514710E+03 -0.47272046895E+03  0.40407381384E+03  0.76019561538E+03  0.25500000920E-02 0.  1.
</event>
<event>
 5   0  0.3263679E-04  0.1300187E+04  0.7818609E-02  0.9029417E-01
       -1   -1    0    0    0  501  0.00000000000E+00  0.00000000000E+00  0.64153468974E+03  0.64153468976E+03  0.50400001928E-02 0.  1.
        1   -1    0    0  501    0  0.00000000000E+00  0.00000000000E+00 -0.65876648645E+03  0.65876648647E+03  0.50400001928E-02 0. -1.
    10030    2    1    2    0    0  0.00000000000E+00  0.00000000000E+00 -0.17231796715E+02  0.13003011762E+04  0.13001869920E+04 0.  0.
        2    1    3    3  502    0  0.44853724533E+03  0.20213085181E+03 -0.43359911052E+03  0.65578253282E+03  0.25500000920E-02 0. -1.
       -2    1    3    3    0  502 -0.44853724533E+03 -0.20213085181E+03  0.41636731380E+03  0.64451864341E+03  0.25500000920E-02 0.  1.
</event>
<event>
 5   0  0.5957913E-04  0.1298345E+04  0.7818609E-02  0.9030879E-01
        2   -1    0    0  501    0  0.00000000000E+00  0.00000000000E+00  0.13650933464E+04  0.13650933464E+04  0.25500000920E-02 0. -1.
       -2   -1    0    0    0  501  0.00000000000E+00  0.00000000000E+00 -0.30871488287E+03  0.30871488288E+03  0.25500000920E-02 0.  1.
    10030    2    1    2    0    0  0.00000000000E+00  0.00000000000E+00  0.10563784635E+04  0.16738082293E+04  0.12983445345E+04 0.  0.
        1    1    3    3  502    0  0.12391919472E+03 -0.63682954168E+03  0.55749662742E+03  0.85540067897E+03  0.50400001928E-02 0. -1.
       -1    1    3    3    0  502 -0.12391919472E+03  0.63682954168E+03  0.49888183613E+03  0.81840755032E+03  0.50400001928E-02 0.  1.
</event>
<event>
 5   0  0.3403833E-04  0.1300528E+04  0.7818609E-02  0.9029146E-01
       -1   -1    0    0    0  501  0.00000000000E+00  0.00000000000E+00  0.24522160781E+03  0.24522160786E+03  0.50400001928E-02 0.  1.
        1   -1    0    0  501    0  0.00000000000E+00  0.00000000000E+00 -0.17243314022E+04  0.17243314022E+04  0.50400001928E-02 0. -1.
    10030    2    1    2    0    0  0.00000000000E+00  0.00000000000E+00 -0.14791097944E+04  0.19695530101E+04  0.13005280757E+04 0.  0.
        1    1    3    3  502    0  0.37348277519E+03 -0.37714965485E+03 -0.17066263256E+03  0.55754549563E+03  0.50400001928E-02 0.  1.
       -1    1    3    3    0  502 -0.37348277519E+03  0.37714965485E+03 -0.13084471618E+04  0.14120075144E+04  0.50400001928E-02 0. -1.
</event>
<event>
 5   0  0.3335747E-04  0.1283974E+04  0.7818609E-02  0.9042372E-01
       -1   -1    0    0    0  501  0.00000000000E+00  0.00000000000E+00  0.31148271493E+03  0.31148271497E+03  0.50400001928E-02 0. -1.
        1   -1    0    0  501    0  0.00000000000E+00  0.00000000000E+00 -0.13231778974E+04  0.13231778974E+04  0.50400001928E-02 0.  1.
    10030    2    1    2    0    0  0.00000000000E+00  0.00000000000E+00 -0.10116951825E+04  0.16346606124E+04  0.12839735883E+04 0.  0.
        3    1    3    3  502    0 -0.44709426513E+02  0.62634905637E+03 -0.33582462726E+03  0.71210270587E+03  0.10100000352E+00 0.  1.
       -3    1    3    3    0  502  0.44709426513E+02 -0.62634905637E+03 -0.67587055520E+03  0.92255790649E+03  0.10100000352E+00 0. -1.
</event>
<event>
 5   0  0.5787604E-04  0.1300047E+04  0.7818609E-02  0.9029528E-01
        2   -1    0    0  501    0  0.00000000000E+00  0.00000000000E+00  0.21826784326E+04  0.21826784326E+04  0.25500000920E-02 0. -1.
       -2   -1    0    0    0  501  0.00000000000E+00  0.00000000000E+00 -0.19358349447E+03  0.19358349449E+03  0.25500000920E-02 0.  1.
    10030    2    1    2    0    0  0.00000000000E+00  0.00000000000E+00  0.19890949382E+04  0.23762619271E+04  0.13000469504E+04 0.  0.
        4    1    3    3  502    0  0.54824334438E+03  0.20404129475E+03  0.47650969803E+03  0.75449766059E+03  0.12699999809E+01 0.  1.
       -4    1    3    3    0  502 -0.54824334438E+03 -0.20404129475E+03  0.15125852402E+04  0.16217642665E+04  0.12699999809E+01 0. -1.
</event>
<event>
 5   0  0.5957913E-04  0.1303017E+04  0.7818609E-02  0.9027176E-01
       -2   -1    0    0    0  501  0.00000000000E+00  0.00000000000E+00  0.44526686634E+03  0.44526686635E+03  0.25500000920E-02 0.  1.
        2   -1    0    0  501    0  0.00000000000E+00  0.00000000000E+00 -0.95327865756E+03  0.95327865756E+03  0.25500000920E-02 0. -1.
    10030    2    1    2    0    0  0.00000000000E+00  0.00000000000E+00 -0.50801179122E+03  0.13985455239E+04  0.13030171152E+04 0.  0.
        1    1    3    3  502    0 -0.78000426886E+02  0.57817599111E+03 -0.56525166695E+03  0.81233059175E+03  0.50400001928E-02 0. -1.
       -1    1    3    3    0  502  0.78000426886E+02 -0.57817599111E+03  0.57239875729E+02  0.58621493216E+03  0.50400001928E-02 0.  1.
</event>
<event>
 5   0  0.6007125E-04  0.1302509E+04  0.7818609E-02  0.9027578E-01
       -2   -1    0    0    0  501  0.00000000000E+00  0.00000000000E+00  0.39212227289E+03  0.39212227289E+03  0.25500000920E-02 0. -1.
        2   -1    0    0  501    0  0.00000000000E+00  0.00000000000E+00 -0.10816337321E+04  0.10816337321E+04  0.25500000920E-02 0.  1.
    10030    2    1    2    0    0  0.00000000000E+00  0.00000000000E+00 -0.68951145926E+03  0.14737560050E+04  0.13025093896E+04 0.  0.
        5    1    3    3  502    0 -0.17032760764E+03 -0.14331697613E+03  0.34772076975E+03  0.41289595939E+03  0.46999998093E+01 0. -1.
       -5    1    3    3    0  502  0.17032760764E+03  0.14331697613E+03 -0.10372322290E+04  0.10608600456E+04  0.46999998093E+01 0.  1.
</event>
<event>
 5   0  0.3274879E-04  0.1303696E+04  0.7818609E-02  0.9026640E-01
        1   -1    0    0  501    0  0.00000000000E+00  0.00000000000E+00  0.21489116454E+04  0.21489116454E+04  0.50400001928E-02 0.  1.
       -1   -1    0    0    0  501  0.00000000000E+00  0.00000000000E+00 -0.19773057760E+03  0.19773057767E+03  0.50400001928E-02 0. -1.
    10030    2    1    2    0    0  0.00000000000E+00  0.00000000000E+00  0.19511810678E+04  0.23466422231E+04  0.13036955794E+04 0.  0.
        4    1    3    3  502    0  0.52028063976E+03  0.18935612706E+03  0.35634017121E+03  0.65842814148E+03  0.12699999809E+01 0. -1.
       -4    1    3    3    0  502 -0.52028063976E+03 -0.18935612706E+03  0.15948408966E+04  0.16882140816E+04  0.12699999809E+01 0.  1.
</event>
<event>
 5   0  0.3337520E-04  0.1300834E+04  0.7818609E-02  0.9028904E-01
        1   -1    0    0  501    0  0.00000000000E+00  0.00000000000E+00  0.28708434806E+03  0.28708434810E+03  0.50400001928E-02 0.  1.
       -1   -1    0    0    0  501  0.00000000000E+00  0.00000000000E+00 -0.14735809956E+04  0.14735809956E+04  0.50400001928E-02 0. -1.
    10030    2    1    2    0    0  0.00000000000E+00  0.00000000000E+00 -0.11864966475E+04  0.17606653437E+04  0.13008336396E+04 0.  0.
        5    1    3    3  502    0  0.13916906627E+03 -0.36179620927E+03  0.11362526293E+03  0.40397687610E+03  0.46999998093E+01 0.  1.
       -5    1    3    3    0  502 -0.13916906627E+03  0.36179620927E+03 -0.13001219104E+04  0.13566884676E+04  0.46999998093E+01 0. -1.
</event>
<event>
 5   0  0.6052864E-04  0.1299873E+04  0.7818609E-02  0.9029666E-01
       -2   -1    0    0    0  501  0.00000000000E+00  0.00000000000E+00  0.10814174592E+04  0.10814174592E+04  0.25500000920E-02 0.  1.
        2   -1    0    0  501    0  0.00000000000E+00  0.00000000000E+00 -0.39061461960E+03  0.39061461961E+03  0.25500000920E-02 0. -1.
    10030    2    1    2    0    0  0.00000000000E+00  0.00000000000E+00  0.69080283963E+03  0.14720320788E+04  0.12998730238E+04 0.  0.
        2    1    3    3  502    0  0.12642284081E+03  0.23049257698E+03  0.10185222367E+04  0.10519016634E+04  0.25500000920E-02 0.  1.
       -2    1    3    3    0  502 -0.12642284081E+03 -0.23049257698E+03 -0.32771939712E+03  0.42013041544E+03  0.25500000920E-02 0. -1.
</event>
<event>
 5   0  0.3274879E-04  0.1306782E+04  0.7818609E-02  0.9024204E-01
       -1   -1    0    0    0  501  0.00000000000E+00  0.00000000000E+00  0.55488319535E+03  0.55488319538E+03  0.50400001928E-02 0.  1.
        1   -1    0    0  501    0  0.00000000000E+00  0.00000000000E+00 -0.76938643440E+03  0.76938643442E+03  0.50400001928E-02 0. -1.
    10030    2    1    2    0    0  0.00000000000E+00  0.00000000000E+00 -0.21450323905E+03  0.13242696298E+04  0.13067817005E+04 0.  0.
        4    1    3    3  502    0  0.60679852500E+03  0.23484048298E+03 -0.46757798000E+02  0.65233611502E+03  0.12699999809E+01 0. -1.
       -4    1    3    3    0  502 -0.60679852500E+03 -0.23484048298E+03 -0.16774544105E+03  0.67193351477E+03  0.12699999809E+01 0.  1.
</event>
<event>
 5   0  0.6007125E-04  0.1298039E+04  0.7818609E-02  0.9031121E-01
        2   -1    0    0  501    0  0.00000000000E+00  0.00000000000E+00  0.71959867016E+03  0.71959867017E+03  0.25500000920E-02 0. -1.
       -2   -1    0    0    0  501  0.00000000000E+00  0.00000000000E+00 -0.58536325056E+03  0.58536325056E+03  0.25500000920E-02 0.  1.
    10030    2    1    2    0    0  0.00000000000E+00  0.00000000000E+00  0.13423541961E+03  0.13049619207E+04  0.12980394704E+04 0.  0.
        5    1    3    3  502    0  0.16142021355E+03  0.33471156259E+03 -0.46780656834E+03  0.59745576477E+03  0.46999998093E+01 0.  1.
       -5    1    3    3    0  502 -0.16142021355E+03 -0.33471156259E+03  0.60204198795E+03  0.70750615596E+03  0.46999998093E+01 0. -1.
</event>
<event>
 5   0  0.3337520E-04  0.1301289E+04  0.7818609E-02  0.9028543E-01
       -1   -1    0    0    0  501  0.00000000000E+00  0.00000000000E+00  0.42489194802E+03  0.42489194805E+03  0.50400001928E-02 0. -1.
        1   -1    0    0  501    0  0.00000000000E+00  0.00000000000E+00 -0.99634399706E+03  0.99634399707E+03  0.50400001928E-02 0.  1.
    10030    2    1    2    0    0  0.00000000000E+00  0.00000000000E+00 -0.57145204903E+03  0.14212359451E+04  0.13012894249E+04 0.  0.
        5    1    3    3  502    0 -0.14283953715E+03  0.27689078994E+03 -0.90955290939E+03  0.96144694493E+03  0.46999998093E+01 0.  1.
       -5    1    3    3    0  502  0.14283953715E+03 -0.27689078994E+03  0.33810086036E+03  0.45978900020E+03  0.46999998093E+01 0. -1.
</event>
<event>
 5   0  0.3274879E-04  0.1301361E+04  0.7818609E-02  0.9028487E-01
        1   -1    0    0  501    0  0.00000000000E+00  0.00000000000E+00  0.36301058957E+03  0.36301058960E+03  0.50400001928E-02 0. -1.
       -1   -1    0    0    0  501  0.00000000000E+00  0.00000000000E+00 -0.11663158940E+04  0.11663158940E+04  0.50400001928E-02 0.  1.
    10030    2    1    2    0    0  0.00000000000E+00  0.00000000000E+00 -0.80330530444E+03  0.15293264836E+04  0.13013608575E+04 0.  0.
        4    1    3    3  502    0  0.35465920153E+03 -0.35448481417E+03  0.85642296086E+02  0.50870310446E+03  0.12699999809E+01 0.  1.
       -4    1    3    3    0  502 -0.35465920153E+03  0.35448481417E+03 -0.88894760053E+03  0.10206233792E+04  0.12699999809E+01 0. -1.
</event>
<event>
 5   0  0.6052864E-04  0.1301285E+04  0.7818609E-02  0.9028547E-01
       -2   -1    0    0    0  501  0.00000000000E+00  0.00000000000E+00  0.41427318007E+03  0.41427318007E+03  0.25500000920E-02 0.  1.
        2   -1    0    0  501    0  0.00000000000E+00  0.00000000000E+00 -0.10218749776E+04  0.10218749776E+04  0.25500000920E-02 0. -1.
    10030    2    1    2    0    0  0.00000000000E+00  0.00000000000E+00 -0.60760179757E+03  0.14361481577E+04  0.13012845909E+04 0.  0.
        2    1    3    3  502    0  0.14372141734E+03  0.36441892166E+03  0.26953749044E+03  0.47550757620E+03  0.25500000920E-02 0.  1.
       -2    1    3    3    0  502 -0.14372141734E+03 -0.36441892166E+03 -0.87713928801E+03  0.96064058151E+03  0.25500000920E-02 0. -1.
</event>
<event>
 5   0  0.3337520E-04  0.1297636E+04  0.7818609E-02  0.9031442E-01
       -1   -1    0    0    0  501  0.00000000000E+00  0.00000000000E+00  0.42373965728E+03  0.42373965731E+03  0.50400001928E-02 0.  1.
        1   -1    0    0  501    0  0.00000000000E+00  0.00000000000E+00 -0.99345206342E+03  0.99345206343E+03  0.50400001928E-02 0. -1.
    10030    2    1    2    0    0  0.00000000000E+00  0.00000000000E+00 -0.56971240614E+03  0.14171917207E+04  0.12976363696E+04 0.  0.
        5    1    3    3  502    0  0.17298010056E+03 -0.33261343645E+03  0.29344778411E+03  0.47611711300E+03  0.46999998093E+01 0.  1.
       -5    1    3    3    0  502 -0.17298010056E+03  0.33261343645E+03 -0.86316019025E+03  0.94107460774E+03  0.46999998093E+01 0. -1.
</event>
<event>
 5   0  0.5957913E-04  0.1303333E+04  0.7818609E-02  0.9026926E-01
        2   -1    0    0  501    0  0.00000000000E+00  0.00000000000E+00  0.17375910028E+04  0.17375910028E+04  0.25500000920E-02 0.  1.
       -2   -1    0    0    0  501  0.00000000000E+00  0.00000000000E+00 -0.24440104125E+03  0.24440104127E+03  0.25500000920E-02 0. -1.
    10030    2    1    2    0    0  0.00000000000E+00  0.00000000000E+00  0.14931899615E+04  0.19819920440E+04  0.13033327286E+04 0.  0.
        1    1    3    3  502    0  0.49769900147E+03 -0.17345552344E+03  0.16378781128E+03  0.55192169899E+03  0.50400001928E-02 0. -1.
       -1    1    3    3    0  502 -0.49769900147E+03  0.17345552344E+03  0.13294021502E+04  0.14300703450E+04  0.50400001928E-02 0.  1.
</event>
<event>
 5   0  0.3403833E-04  0.1314453E+04  0.7818609E-02  0.9018182E-01
        1   -1    0    0  501    0  0.00000000000E+00  0.00000000000E+00  0.12600307275E+04  0.12600307275E+04  0.50400001928E-02 0.  1.
       -1   -1    0    0    0  501  0.00000000000E+00  0.00000000000E+00 -0.34280629937E+03  0.34280629941E+03  0.50400001928E-02 0. -1.
    10030    2    1    2    0    0  0.00000000000E+00  0.00000000000E+00  0.91722442811E+03  0.16028370269E+04  0.13144526934E+04 0.  0.
        1    1    3    3  502    0  0.59671174836E+03 -0.23695072563E+03  0.28730603616E+03  0.70338845274E+03  0.50400001928E-02 0. -1.
       -1    1    3    3    0  502 -0.59671174836E+03  0.23695072563E+03  0.62991839195E+03  0.89944857415E+03  0.50400001928E-02 0.  1.
</event>
<event>
 5   0  0.3263679E-04  0.1302385E+04  0.7818609E-02  0.9027676E-01
        1   -1    0    0  501    0  0.00000000000E+00  0.00000000000E+00  0.14144713559E+04  0.14144713559E+04  0.50400001928E-02 0. -1.
       -1   -1    0    0    0  501  0.00000000000E+00  0.00000000000E+00 -0.29979509290E+03  0.29979509294E+03  0.50400001928E-02 0.  1.
    10030    2    1    2    0    0  0.00000000000E+00  0.00000000000E+00  0.11146762630E+04  0.17142664489E+04  0.13023848457E+04 0.  0.
        2    1    3    3  502    0  0.45356253886E+03 -0.40333390923E+03  0.86785740305E+03  0.10590437626E+04  0.25500000920E-02 0. -1.
       -2    1    3    3    0  502 -0.45356253886E+03  0.40333390923E+03  0.24681885996E+03  0.65522268629E+03  0.25500000920E-02 0.  1.
</event>
<event>
 5   0  0.5787604E-04  0.1303185E+04  0.7818609E-02  0.9027043E-01
        2   -1    0    0  501    0  0.00000000000E+00  0.00000000000E+00  0.13607718149E+04  0.13607718149E+04  0.25500000920E-02 0. -1.
       -2   -1    0    0    0  501  0.00000000000E+00  0.00000000000E+00 -0.31200873924E+03  0.31200873926E+03  0.25500000920E-02 0.  1.
    10030    2    1    2    0    0  0.00000000000E+00  0.00000000000E+00  0.10487630757E+04  0.16727805542E+04  0.13031848655E+04 0.  0.
        4    1    3    3  502    0  0.39553469295E+03 -0.46913672685E+03  0.80570624768E+03  0.10127690419E+04  0.12699999809E+01 0. -1.
       -4    1    3    3    0  502 -0.39553469295E+03  0.46913672685E+03  0.24305682801E+03  0.66001151228E+03  0.12699999809E+01 0.  1.
</event>
<event>
 5   0  0.6052864E-04  0.1303724E+04  0.7818609E-02  0.9026617E-01
        2   -1    0    0  501    0  0.00000000000E+00  0.00000000000E+00  0.11498094073E+04  0.11498094073E+04  0.25500000920E-02 0.  1.
       -2   -1    0    0    0  501  0.00000000000E+00  0.00000000000E+00 -0.36956041232E+03  0.36956041233E+03  0.25500000920E-02 0. -1.
    10030    2    1    2    0    0  0.00000000000E+00  0.00000000000E+00  0.78024899498E+03  0.15193698196E+04  0.13037239565E+04 0.  0.
        2    1    3    3  502    0  0.57202745377E+03 -0.16206526032E+03  0.70162529046E+03  0.91965134953E+03  0.25500000920E-02 0.  1.
       -2    1    3    3    0  502 -0.57202745377E+03  0.16206526032E+03  0.78623704528E+02  0.59971847011E+03  0.25500000920E-02 0. -1.
</event>
<event>
 5   0  0.5787604E-04  0.1302900E+04  0.7818609E-02  0.9027268E-01
        2   -1    0    0  501    0  0.00000000000E+00  0.00000000000E+00  0.17435621470E+04  0.17435621470E+04  0.25500000920E-02 0. -1.
       -2   -1    0    0    0  501  0.00000000000E+00  0.00000000000E+00 -0.24340248235E+03  0.24340248237E+03  0.25500000920E-02 0.  1.
    10030    2    1    2    0    0  0.00000000000E+00  0.00000000000E+00  0.15001596646E+04  0.19869646293E+04  0.13029003872E+04 0.  0.
        4    1    3    3  502    0 -0.47794153476E+03 -0.30367409543E+03  0.25888774233E+03  0.62263194819E+03  0.12699999809E+01 0.  1.
       -4    1    3    3    0  502  0.47794153476E+03  0.30367409543E+03  0.12412719223E+04  0.13643326811E+04  0.12699999809E+01 0. -1.
</event>
<event>
 5   0  0.3263679E-04  0.1295598E+04  0.7818609E-02  0.9033063E-01
        1   -1    0    0  501    0  0.00000000000E+00  0.00000000000E+00  0.44836324952E+03  0.44836324955E+03  0.50400001928E-02 0. -1.
       -1   -1    0    0    0  501  0.00000000000E+00  0.00000000000E+00 -0.93594573968E+03  0.93594573969E+03  0.50400001928E-02 0.  1.
    10030    2    1    2    0    0  0.00000000000E+00  0.00000000000E+00 -0.48758249016E+03  0.13843089892E+04  0.12955981989E+04 0.  0.
        2    1    3    3  502    0 -0.34676322290E+03  0.24479480831E+03  0.27907702619E+03  0.50798938718E+03  0.25500000920E-02 0. -1.
       -2    1    3    3    0  502  0.34676322290E+03 -0.24479480831E+03 -0.76665951635E+03  0.87631960206E+03  0.25500000920E-02 0.  1.
</event>
<event>
 5   0  0.5957913E-04  0.1300997E+04  0.7818609E-02  0.9028775E-01
       -2   -1    0    0    0  501  0.00000000000E+00  0.00000000000E+00  0.47804205956E+03  0.47804205956E+03  0.25500000920E-02 0.  1.
        2   -1    0    0  501    0  0.00000000000E+00  0.00000000000E+00 -0.88517023614E+03  0.88517023614E+03  0.25500000920E-02 0. -1.
    10030    2    1    2    0    0  0.00000000000E+00  0.00000000000E+00 -0.40712817658E+03  0.13632122957E+04  0.13009974677E+04 0.  0.
        1    1    3    3  502    0 -0.46694473947E+03 -0.45077534839E+03 -0.24939110972E+03  0.69529254999E+03  0.50400001928E-02 0.  1.
       -1    1    3    3    0  502  0.46694473947E+03  0.45077534839E+03 -0.15773706686E+03  0.66791974572E+03  0.50400001928E-02 0. -1.
</event>
<event>
 5   0  0.3274879E-04  0.1301142E+04  0.7818609E-02  0.9028660E-01
       -1   -1    0    0    0  501  0.00000000000E+00  0.00000000000E+00  0.42872823843E+03  0.42872823846E+03  0.50400001928E-02 0. -1.
        1   -1    0    0  501    0  0.00000000000E+00  0.00000000000E+00 -0.98720424015E+03  0.98720424016E+03  0.50400001928E-02 0.  1.
    10030    2    1    2    0    0  0.00000000000E+00  0.00000000000E+00 -0.55847600171E+03  0.14159324786E+04  0.13011415525E+04 0.  0.
        4    1    3    3  502    0  0.47663546071E+03 -0.37869041469E+03 -0.29531834844E+02  0.60947644315E+03  0.12699999809E+01 0. -1.
       -4    1    3    3    0  502 -0.47663546071E+03  0.37869041469E+03 -0.52894416687E+03  0.80645603547E+03  0.12699999809E+01 0.  1.
</event>
<event>
 5   0  0.3263679E-04  0.1298732E+04  0.7818609E-02  0.9030571E-01
        1   -1    0    0  501    0  0.00000000000E+00  0.00000000000E+00  0.92365863000E+03  0.92365863001E+03  0.50400001928E-02 0. -1.
       -1   -1    0    0    0  501  0.00000000000E+00  0.00000000000E+00 -0.45652838601E+03  0.45652838604E+03  0.50400001928E-02 0.  1.
    10030    2    1    2    0    0  0.00000000000E+00  0.00000000000E+00  0.46713024399E+03  0.13801870161E+04  0.12987322797E+04 0.  0.
        2    1    3    3  502    0 -0.36934883822E+02 -0.15311549350E+03 -0.43592050587E+03  0.46350321189E+03  0.25500000920E-02 0.  1.
       -2    1    3    3    0  502  0.36934883822E+02  0.15311549350E+03  0.90305074985E+03  0.91668380416E+03  0.25500000920E-02 0. -1.
</event>
<event>
 5   0  0.3403833E-04  0.1306603E+04  0.7818609E-02  0.9024346E-01
        1   -1    0    0  501    0  0.00000000000E+00  0.00000000000E+00  0.11492855053E+04  0.11492855053E+04  0.50400001928E-02 0.  1.
       -1   -1    0    0    0  501  0.00000000000E+00  0.00000000000E+00 -0.37136344941E+03  0.37136344944E+03  0.50400001928E-02 0. -1.
    10030    2    1    2    0    0  0.00000000000E+00  0.00000000000E+00  0.77792205589E+03  0.15206489548E+04  0.13066026628E+04 0.  0.
        1    1    3    3  502    0 -0.21246292024E+03 -0.46134078038E+03  0.86715726121E+03  0.10049564786E+04  0.50400001928E-02 0.  1.
       -1    1    3    3    0  502  0.21246292024E+03  0.46134078038E+03 -0.89235205311E+02  0.51569247620E+03  0.50400001928E-02 0. -1.
</event>
<event>
 5   0  0.5957913E-04  0.1310471E+04  0.7818609E-02  0.9021303E-01
       -2   -1    0    0    0  501  0.00000000000E+00  0.00000000000E+00  0.45407881880E+03  0.45407881881E+03  0.25500000920E-02 0.  1.
        2   -1    0    0  501    0  0.00000000000E+00  0.00000000000E+00 -0.94550423936E+03  0.94550423937E+03  0.25500000920E-02 0. -1.
    10030    2    1    2    0    0  0.00000000000E+00  0.00000000000E+00 -0.49142542056E+03  0.13995830582E+04  0.13104708287E+04 0.  0.
        1    1    3    3  502    0  0.86393193020E+02 -0.76394618563E+02 -0.93457987441E+03  0.94166844655E+03  0.50400001928E-02 0. -1.
       -1    1    3    3    0  502 -0.86393193020E+02  0.76394618563E+02  0.44315445385E+03  0.45791461163E+03  0.50400001928E-02 0.  1.
</event>
<event>
 5   0  0.3403833E-04  0.1305248E+04  0.7818609E-02  0.9025414E-01
        1   -1    0    0  501    0  0.00000000000E+00  0.00000000000E+00  0.75736736129E+03  0.75736736131E+03  0.50400001928E-02 0.  1.
       -1   -1    0    0    0  501  0.00000000000E+00  0.00000000000E+00 -0.56236686500E+03  0.56236686502E+03  0.50400001928E-02 0. -1.
    10030    2    1    2    0    0  0.00000000000E+00  0.00000000000E+00  0.19500049630E+03  0.13197342263E+04  0.13052483421E+04 0.  0.
        1    1    3    3  502    0  0.88861147187E+02  0.52708553913E+03  0.47609251127E+03  0.71580692114E+03  0.50400001928E-02 0.  1.
       -1    1    3    3    0  502 -0.88861147187E+02 -0.52708553913E+03 -0.28109201498E+03  0.60392730519E+03  0.50400001928E-02 0. -1.
</event>
<event>
 5   0  0.3337520E-04  0.1302506E+04  0.7818609E-02  0.9027580E-01
       -1   -1    0    0    0  501  0.00000000000E+00  0.00000000000E+00  0.28874650045E+03  0.28874650049E+03  0.50400001928E-02 0.  1.
        1   -1    0    0  501    0  0.00000000000E+00  0.00000000000E+00 -0.14688682209E+04  0.14688682209E+04  0.50400001928E-02 0. -1.
    10030    2    1    2    0    0  0.00000000000E+00  0.00000000000E+00 -0.11801217204E+04  0.17576147214E+04  0.13025061358E+04 0.  0.
        5    1    3    3  502    0 -0.12875027391E+03  0.19506935946E+03 -0.14102976451E+04  0.14295419637E+04  0.46999998093E+01 0. -1.
       -5    1    3    3    0  502  0.12875027391E+03 -0.19506935946E+03  0.23017592471E+03  0.32807275770E+03  0.46999998093E+01 0.  1.
</event>
<event>
 5   0  0.3335747E-04  0.1301117E+04  0.7818609E-02  0.9028680E-01
       -1   -1    0    0    0  501  0.00000000000E+00  0.00000000000E+00  0.75349397911E+03  0.75349397912E+03  0.50400001928E-02 0. -1.
        1   -1    0    0  501    0  0.00000000000E+00  0.00000000000E+00 -0.56168514559E+03  0.56168514561E+03  0.50400001928E-02 0.  1.
    10030    2    1    2    0    0  0.00000000000E+00  0.00000000000E+00  0.19180883352E+03  0.13151791247E+04  0.13011170207E+04 0.  0.
        3    1    3    3  502    0  0.17501352069E+03  0.57346351435E+03  0.35109329097E+03  0.69480691122E+03  0.10100000352E+00 0. -1.
       -3    1    3    3    0  502 -0.17501352069E+03 -0.57346351435E+03 -0.15928445745E+03  0.62037221352E+03  0.10100000352E+00 0.  1.
</event>
<event>
 5   0  0.6052864E-04  0.1298780E+04  0.7818609E-02  0.9030533E-01
       -2   -1    0    0    0  501  0.00000000000E+00  0.00000000000E+00  0.25216985588E+03  0.25216985589E+03  0.25500000920E-02 0. -1.
        2   -1    0    0  501    0  0.00000000000E+00  0.00000000000E+00 -0.16723147989E+04  0.16723147989E+04  0.25500000920E-02 0.  1.
    10030    2    1    2    0    0  0.00000000000E+00  0.00000000000E+00 -0.14201449430E+04  0.19244846548E+04  0.12987800150E+04 0.  0.
        2    1    3    3  502    0 -0.56636584031E+03  0.19251777520E+03 -0.10845631313E+04  0.12385921623E+04  0.25500000920E-02 0.  1.
       -2    1    3    3    0  502  0.56636584031E+03 -0.19251777520E+03 -0.33558181174E+03  0.68589249247E+03  0.25500000920E-02 0. -1.
</event>
<event>
 5   0  0.6052864E-04  0.1299095E+04  0.7818609E-02  0.9030283E-01
        2   -1    0    0  501    0  0.00000000000E+00  0.00000000000E+00  0.14066417786E+04  0.14066417786E+04  0.25500000920E-02 0.  1.
       -2   -1    0    0    0  501  0.00000000000E+00  0.00000000000E+00 -0.29994275959E+03  0.29994275961E+03  0.25500000920E-02 0. -1.
    10030    2    1    2    0    0  0.00000000000E+00  0.00000000000E+00  0.11066990190E+04  0.17065845382E+04  0.12990950956E+04 0.  0.
        2    1    3    3  502    0  0.37050337814E+03 -0.53219990561E+03  0.60254689544E+03  0.88519616694E+03  0.25500000920E-02 0.  1.
       -2    1    3    3    0  502 -0.37050337814E+03  0.53219990561E+03  0.50415212355E+03  0.82138837126E+03  0.25500000920E-02 0. -1.
</event>
<event>
 5   0  0.5787604E-04  0.1297598E+04  0.7818609E-02  0.9031472E-01
       -2   -1    0    0    0  501  0.00000000000E+00  0.00000000000E+00  0.27482271556E+03  0.27482271558E+03  0.25500000920E-02 0. -1.
        2   -1    0    0  501    0  0.00000000000E+00  0.00000000000E+00 -0.15316787416E+04  0.15316787416E+04  0.25500000920E-02 0.  1.
    10030    2    1    2    0    0  0.00000000000E+00  0.00000000000E+00 -0.12568560261E+04  0.18065014572E+04  0.12975979518E+04 0.  0.
        4    1    3    3  502    0  0.30465947410E+03  0.54762542107E+02 -0.14222469507E+04  0.14555426248E+04  0.12699999809E+01 0.  1.
       -4    1    3    3    0  502 -0.30465947410E+03 -0.54762542107E+02  0.16539092459E+03  0.35095883237E+03  0.12699999809E+01 0. -1.
</event>
<event>
 5   0  0.3337520E-04  0.1333699E+04  0.7818609E-02  0.9003260E-01
       -1   -1    0    0    0  501  0.00000000000E+00  0.00000000000E+00  0.35524819739E+03  0.35524819742E+03  0.50400001928E-02 0. -1.
        1   -1    0    0  501    0  0.00000000000E+00  0.00000000000E+00 -0.12517676164E+04  0.12517676164E+04  0.50400001928E-02 0.  1.
    10030    2    1    2    0    0  0.00000000000E+00  0.00000000000E+00 -0.89651941898E+03  0.16070158138E+04  0.13336989005E+04 0.  0.
        5    1    3    3  502    0 -0.71940634913E+02  0.55834034935E+02  0.34770056835E+03  0.35945885667E+03  0.46999998093E+01 0. -1.
       -5    1    3    3    0  502  0.71940634913E+02 -0.55834034935E+02 -0.12442199873E+04  0.12475569571E+04  0.46999998093E+01 0.  1.
</event>
<event>
 5   0  0.3403833E-04  0.1313745E+04  0.7818609E-02  0.9018736E-01
       -1   -1    0    0    0  501  0.00000000000E+00  0.00000000000E+00  0.53577575299E+03  0.53577575301E+03  0.50400001928E-02 0. -1.
        1   -1    0    0  501    0  0.00000000000E+00  0.00000000000E+00 -0.80533925132E+03  0.80533925133E+03  0.50400001928E-02 0.  1.
    10030    2    1    2    0    0  0.00000000000E+00  0.00000000000E+00 -0.26956349833E+03  0.13411150043E+04  0.13137446385E+04 0.  0.
        1    1    3    3  502    0  0.49852636162E+03  0.31988166530E+03 -0.42464901125E+03  0.72882068838E+03  0.50400001928E-02 0.  1.
       -1    1    3    3    0  502 -0.49852636162E+03 -0.31988166530E+03  0.15508551292E+03  0.61229431597E+03  0.50400001928E-02 0. -1.
</event>
<event>
 5   0  0.3263679E-04  0.1301451E+04  0.7818609E-02  0.9028415E-01
       -1   -1    0    0    0  501  0.00000000000E+00  0.00000000000E+00  0.61884050768E+03  0.61884050770E+03  0.50400001928E-02 0.  1.
        1   -1    0    0  501    0  0.00000000000E+00  0.00000000000E+00 -0.68425312534E+03  0.68425312536E+03  0.50400001928E-02 0. -1.
    10030    2    1    2    0    0  0.00000000000E+00  0.00000000000E+00 -0.65412617655E+02  0.13030936331E+04  0.13014508081E+04 0.  0.
        2    1    3    3  502    0  0.10106249481E+03 -0.46445936846E+03 -0.47768536643E+03  0.67388384913E+03  0.25500000920E-02 0. -1.
       -2    1    3    3    0  502 -0.10106249481E+03  0.46445936846E+03  0.41227274877E+03  0.62920978393E+03  0.25500000920E-02 0.  1.
</event>
<event>
 5   0  0.6007125E-04  0.1299828E+04  0.7818609E-02  0.9029702E-01
       -2   -1    0    0    0  501  0.00000000000E+00  0.00000000000E+00  0.40734022924E+03  0.40734022925E+03  0.25500000920E-02 0. -1.
        2   -1    0    0  501    0  0.00000000000E+00  0.00000000000E+00 -0.10369419079E+04  0.10369419079E+04  0.25500000920E-02 0.  1.
    10030    2    1    2    0    0  0.00000000000E+00  0.00000000000E+00 -0.62960167867E+03  0.14442821372E+04  0.12998279186E+04 0.  0.
        5    1    3    3  502    0 -0.95193100920E+02 -0.21708333589E+03  0.35757638365E+03  0.42903363659E+03  0.46999998093E+01 0. -1.
       -5    1    3    3    0  502  0.95193100920E+02  0.21708333589E+03 -0.98717806232E+03  0.10152485006E+04  0.46999998093E+01 0.  1.
</event>
<event>
 5   0  0.3335747E-04  0.1299672E+04  0.7818609E-02  0.9029826E-01
       -1   -1    0    0    0  501  0.00000000000E+00  0.00000000000E+00  0.43804710093E+03  0.43804710095E+03  0.50400001928E-02 0. -1.
        1   -1    0    0  501    0  0.00000000000E+00  0.00000000000E+00 -0.96402093062E+03  0.96402093064E+03  0.50400001928E-02 0.  1.
    10030    2    1    2    0    0  0.00000000000E+00  0.00000000000E+00 -0.52597382970E+03  0.14020680316E+04  0.12996716107E+04 0.  0.
        3    1    3    3  502    0  0.52723585494E+03 -0.24230549045E+03 -0.57860700601E+03  0.81943619339E+03  0.10100000352E+00 0.  1.
       -3    1    3    3    0  502 -0.52723585494E+03  0.24230549045E+03  0.52633176313E+02  0.58263183820E+03  0.10100000352E+00 0. -1.
</event>
<event>
 5   0  0.3263679E-04  0.1297861E+04  0.7818609E-02  0.9031263E-01
        1   -1    0    0  501    0  0.00000000000E+00  0.00000000000E+00  0.60723211116E+03  0.60723211118E+03  0.50400001928E-02 0.  1.
       -1   -1    0    0    0  501  0.00000000000E+00  0.00000000000E+00 -0.69349228081E+03  0.69349228083E+03  0.50400001928E-02 0. -1.
    10030    2    1    2    0    0  0.00000000000E+00  0.00000000000E+00 -0.86260169647E+02  0.13007243920E+04  0.12978609814E+04 0.  0.
        2    1    3    3  502    0 -0.24429032778E+03  0.31337172117E+03 -0.55732262923E+03  0.68446191489E+03  0.25500000920E-02 0. -1.
       -2    1    3    3    0  502  0.24429032778E+03 -0.31337172117E+03  0.47106245958E+03  0.61626247712E+03  0.25500000920E-02 0.  1.
</event>
<event>
 5   0  0.5384960E-04  0.1298153E+04  0.7818609E-02  0.9031031E-01
       -2   -1    0    0    0  501  0.00000000000E+00  0.00000000000E+00  0.81581297577E+03  0.81581297578E+03  0.25500000920E-02 0. -1.
        2   -1    0    0  501    0  0.00000000000E+00  0.00000000000E+00 -0.51641813797E+03  0.51641813798E+03  0.25500000920E-02 0.  1.
    10030    2    1    2    0    0  0.00000000000E+00  0.00000000000E+00  0.29939483780E+03  0.13322311138E+04  0.12981534854E+04 0.  0.
        3    1    3    3  502    0 -0.38562913699E+03  0.47669504757E+03 -0.68854518984E+02  0.61699996326E+03  0.10100000352E+00 0. -1.
       -3    1    3    3    0  502  0.38562913699E+03 -0.47669504757E+03  0.36824935679E+03  0.71523115050E+03  0.10100000352E+00 0.  1.
</event>
<event>
 5   0  0.3335747E-04  0.1302551E+04  0.7818609E-02  0.9027544E-01
       -1   -1    0    0    0  501  0.00000000000E+00  0.00000000000E+00  0.28933496680E+03  0.28933496684E+03  0.50400001928E-02 0.  1.
        1   -1    0    0  501    0  0.00000000000E+00  0.00000000000E+00 -0.14659826712E+04  0.14659826712E+04  0.50400001928E-02 0. -1.
    10030    2    1    2    0    0  0.00000000000E+00  0.00000000000E+00 -0.11766477044E+04  0.17553176381E+04  0.13025514156E+04 0.  0.
        3    1    3    3  502    0 -0.33860676969E+03  0.54653148151E+03 -0.44821994830E+03  0.78374251959E+03  0.10100000352E+00 0.  1.
       -3    1    3    3    0  502  0.33860676969E+03 -0.54653148151E+03 -0.72842775612E+03  0.97157511848E+03  0.10100000352E+00 0. -1.
</event>
<event>
 5   0  0.3335747E-04  0.1320031E+04  0.7818609E-02  0.9013829E-01
        1   -1    0    0  501    0  0.00000000000E+00  0.00000000000E+00  0.14702391555E+04  0.14702391555E+04  0.50400001928E-02 0. -1.
       -1   -1    0    0    0  501  0.00000000000E+00  0.00000000000E+00 -0.29629246043E+03  0.29629246047E+03  0.50400001928E-02 0.  1.
    10030    2    1    2    0    0  0.00000000000E+00  0.00000000000E+00  0.11739466951E+04  0.17665316160E+04  0.13200314797E+04 0.  0.
        3    1    3    3  502    0  0.51850720480E+03 -0.25631849287E+03  0.16151966372E+03  0.60053101768E+03  0.10100000352E+00 0.  1.
       -3    1    3    3    0  502 -0.51850720480E+03  0.25631849287E+03  0.10124270314E+04  0.11660005983E+04  0.10100000352E+00 0. -1.
</event>
<event>
 5   0  0.3335747E-04  0.1300393E+04  0.7818609E-02  0.9029253E-01
       -1   -1    0    0    0  501  0.00000000000E+00  0.00000000000E+00  0.99450059130E+03  0.99450059131E+03  0.50400001928E-02 0. -1.
        1   -1    0    0  501    0  0.00000000000E+00  0.00000000000E+00 -0.42509340752E+03  0.42509340755E+03  0.50400001928E-02 0.  1.
    10030    2    1    2    0    0  0.00000000000E+00  0.00000000000E+00  0.56940718378E+03  0.14195939989E+04  0.13003932408E+04 0.  0.
        3    1    3    3  502    0 -0.61181851733E+03  0.11109768175E+03  0.49209423641E+03  0.79298256018E+03  0.10100000352E+00 0.  1.
       -3    1    3    3    0  502  0.61181851733E+03 -0.11109768175E+03  0.77312947367E+02  0.62661143867E+03  0.10100000352E+00 0. -1.
</event>
<event>
 5   0  0.6007125E-04  0.1298479E+04  0.7818609E-02  0.9030772E-01
       -2   -1    0    0    0  501  0.00000000000E+00  0.00000000000E+00  0.22365004118E+03  0.22365004120E+03  0.25500000920E-02 0.  1.
        2   -1    0    0  501    0  0.00000000000E+00  0.00000000000E+00 -0.18846938125E+04  0.18846938125E+04  0.25500000920E-02 0. -1.
    10030    2    1    2    0    0  0.00000000000E+00  0.00000000000E+00 -0.16610437713E+04  0.21083438537E+04  0.12984788774E+04 0.  0.
        5    1    3    3  502    0  0.57168478551E+03  0.30162125402E+03 -0.73187764203E+03  0.97645575822E+03  0.46999998093E+01 0. -1.
       -5    1    3    3    0  502 -0.57168478551E+03 -0.30162125402E+03 -0.92916612928E+03  0.11318880955E+04  0.46999998093E+01 0.  1.
</event>
<event>
 5   0  0.3274879E-04  0.1303356E+04  0.7818609E-02  0.9026908E-01
       -1   -1    0    0    0  501  0.00000000000E+00  0.00000000000E+00  0.74184576096E+03  0.74184576098E+03  0.50400001928E-02 0. -1.
        1   -1    0    0  501    0  0.00000000000E+00  0.00000000000E+00 -0.57247009465E+03  0.57247009467E+03  0.50400001928E-02 0.  1.
    10030    2    1    2    0    0  0.00000000000E+00  0.00000000000E+00  0.16937566631E+03  0.13143158556E+04  0.13033564563E+04 0.  0.
        4    1    3    3  502    0  0.35834209659E+03 -0.46809076007E+03 -0.19543363155E+03  0.62105872113E+03  0.12699999809E+01 0.  1.
       -4    1    3    3    0  502 -0.35834209659E+03  0.46809076007E+03  0.36480929786E+03  0.69325713452E+03  0.12699999809E+01 0. -1.
</event>
<event>
 5   0  0.3263679E-04  0.1298263E+04  0.7818609E-02  0.9030944E-01
       -1   -1    0    0    0  501  0.00000000000E+00  0.00000000000E+00  0.69029221049E+03  0.69029221051E+03  0.50400001928E-02 0. -1.
        1   -1    0    0  501    0  0.00000000000E+00  0.00000000000E+00 -0.61042473731E+03  0.61042473733E+03  0.50400001928E-02 0.  1.
    10030    2    1    2    0    0  0.00000000000E+00  0.00000000000E+00  0.79867473178E+02  0.13007169478E+04  0.12982625948E+04 0.  0.
        2    1    3    3  502    0  0.54929060673E+03 -0.24308702062E+01  0.38648555946E+03  0.67163767572E+03  0.25500000920E-02 0. -1.
       -2    1    3    3    0  502 -0.54929060673E+03  0.24308702062E+01 -0.30661808629E+03  0.62907927212E+03  0.25500000920E-02 0.  1.
</event>
<event>
 5   0  0.5384960E-04  0.1299125E+04  0.7818609E-02  0.9030260E-01
       -2   -1    0    0    0  501  0.00000000000E+00  0.00000000000E+00  0.30981459932E+03  0.30981459933E+03  0.25500000920E-02 0.  1.
        2   -1    0    0  501    0  0.00000000000E+00  0.00000000000E+00 -0.13618828051E+04  0.13618828051E+04  0.25500000920E-02 0. -1.
    10030    2    1    2    0    0  0.00000000000E+00  0.00000000000E+00 -0.10520682058E+04  0.16716974045E+04  0.12991245908E+04 0.  0.
        3    1    3    3  502    0 -0.30710348043E+03 -0.57198707546E+03 -0.55331288360E+03  0.85301636534E+03  0.10100000352E+00 0. -1.
       -3    1    3    3    0  502  0.30710348043E+03  0.57198707546E+03 -0.49875532222E+03  0.81868103912E+03  0.10100000352E+00 0.  1.
</event>
<event>
 5   0  0.5787604E-04  0.1303388E+04  0.7818609E-02  0.9026883E-01
       -2   -1    0    0    0  501  0.00000000000E+00  0.00000000000E+00  0.21464966162E+03  0.21464966163E+03  0.25500000920E-02 0. -1.
        2   -1    0    0  501    0  0.00000000000E+00  0.00000000000E+00 -0.19785953179E+04  0.19785953179E+04  0.25500000920E-02 0.  1.
    10030    2    1    2    0    0  0.00000000000E+00  0.00000000000E+00 -0.17639456563E+04  0.21932449795E+04  0.13033876100E+04 0.  0.
        4    1    3    3  502    0  0.46614995082E+03 -0.40472626540E+03 -0.12333528777E+04  0.13792244416E+04  0.12699999809E+01 0.  1.
       -4    1    3    3    0  502 -0.46614995082E+03  0.40472626540E+03 -0.53059277861E+03  0.81402053792E+03  0.12699999809E+01 0. -1.
</event>
<event>
 5   0  0.5787604E-04  0.1290083E+04  0.7818609E-02  0.9037467E-01
        2   -1    0    0  501    0  0.00000000000E+00  0.00000000000E+00  0.13047199667E+04  0.13047199667E+04  0.25500000920E-02 0. -1.
       -2   -1    0    0    0  501  0.00000000000E+00  0.00000000000E+00 -0.31890235870E+03  0.31890235872E+03  0.25500000920E-02 0.  1.
    10030    2    1    2    0    0  0.00000000000E+00  0.00000000000E+00  0.98581760795E+03  0.16236223254E+04  0.12900825940E+04 0.  0.
        4    1    3    3  502    0 -0.52298787333E+03  0.25480887011E+03  0.84357191753E+03  0.10247238989E+04  0.12699999809E+01 0. -1.
       -4    1    3    3    0  502  0.52298787333E+03 -0.25480887011E+03  0.14224569041E+03  0.59889842651E+03  0.12699999809E+01 0.  1.
</event>
<event>
 5   0  0.3337520E-04  0.1299066E+04  0.7818609E-02  0.9030306E-01
       -1   -1    0    0    0  501  0.00000000000E+00  0.00000000000E+00  0.30377632220E+03  0.30377632224E+03  0.50400001928E-02 0.  1.
        1   -1    0    0  501    0  0.00000000000E+00  0.00000000000E+00 -0.13888289618E+04  0.13888289618E+04  0.50400001928E-02 0. -1.
    10030    2    1    2    0    0  0.00000000000E+00  0.00000000000E+00 -0.10850526396E+04  0.16926052840E+04  0.12990663635E+04 0.  0.
        5    1    3    3  502    0  0.14942730496E+03 -0.24416963811E+03 -0.13021792646E+04  0.13332817628E+04  0.46999998093E+01 0. -1.
       -5    1    3    3    0  502 -0.14942730496E+03  0.24416963811E+03  0.21712662506E+03  0.35932352128E+03  0.46999998093E+01 0.  1.
</event>
<event>
 5   0  0.3335747E-04  0.1299918E+04  0.7818609E-02  0.9029630E-01
       -1   -1    0    0    0  501  0.00000000000E+00  0.00000000000E+00  0.69288355313E+03  0.69288355314E+03  0.50400001928E-02 0. -1.
        1   -1    0    0  501    0  0.00000000000E+00  0.00000000000E+00 -0.60969351128E+03  0.60969351130E+03  0.50400001928E-02 0.  1.
    10030    2    1    2    0    0  0.00000000000E+00  0.00000000000E+00  0.83190041848E+02  0.13025770644E+04  0.12999178535E+04 0.  0.
        3    1    3    3  502    0  0.31952068688E+03  0.53455430031E+03 -0.14480925011E+03  0.63938368641E+03  0.10100000352E+00 0.  1.
       -3    1    3    3    0  502 -0.31952068688E+03 -0.53455430031E+03  0.22799929196E+03  0.66319337803E+03  0.10100000352E+00 0. -1.
</event>
<event>
 5   0  0.5787604E-04  0.1300045E+04  0.7818609E-02  0.9029529E-01
        2   -1    0    0  501    0  0.00000000000E+00  0.00000000000E+00  0.94399803494E+03  0.94399803495E+03  0.25500000920E-02 0.  1.
       -2   -1    0    0    0  501  0.00000000000E+00  0.00000000000E+00 -0.44759550459E+03  0.44759550460E+03  0.25500000920E-02 0. -1.
    10030    2    1    2    0    0  0.00000000000E+00  0.00000000000E+00  0.49640253035E+03  0.13915935395E+04  0.13000450404E+04 0.  0.
        4    1    3    3  502    0  0.42004350898E+03  0.25273177117E+03 -0.20872841023E+03  0.53280302151E+03  0.12699999809E+01 0. -1.
       -4    1    3    3    0  502 -0.42004350898E+03 -0.25273177117E+03  0.70513094058E+03  0.85879051803E+03  0.12699999809E+01 0.  1.
</event>
<event>
 5   0  0.6007125E-04  0.1302581E+04  0.7818609E-02  0.9027521E-01
        2   -1    0    0  501    0  0.00000000000E+00  0.00000000000E+00  0.14578705018E+04  0.14578705018E+04  0.25500000920E-02 0.  1.
       -2   -1    0    0    0  501  0.00000000000E+00  0.00000000000E+00 -0.29095799727E+03  0.29095799728E+03  0.25500000920E-02 0. -1.
    10030    2    1    2    0    0  0.00000000000E+00  0.00000000000E+00  0.11669125045E+04  0.17488284991E+04  0.13025806409E+04 0.  0.
        5    1    3    3  502    0  0.63746993914E+03 -0.42764557031E+02  0.75307060338E+03  0.98759007403E+03  0.46999998093E+01 0.  1.
       -5    1    3    3    0  502 -0.63746993914E+03  0.42764557031E+02  0.41384190117E+03  0.76123842507E+03  0.46999998093E+01 0. -1.
</event>
<event>
 5   0  0.3337520E-04  0.1300371E+04  0.7818609E-02  0.9029271E-01
       -1   -1    0    0    0  501  0.00000000000E+00  0.00000000000E+00  0.10883194264E+04  0.10883194264E+04  0.50400001928E-02 0. -1.
        1   -1    0    0  501    0  0.00000000000E+00  0.00000000000E+00 -0.38843479472E+03  0.38843479475E+03  0.50400001928E-02 0.  1.
    10030    2    1    2    0    0  0.00000000000E+00  0.00000000000E+00  0.69988463165E+03  0.14767542211E+04  0.13003709209E+04 0.  0.
        5    1    3    3  502    0  0.10931906177E+03 -0.51105686189E+03  0.78917150398E+03  0.94654293407E+03  0.46999998093E+01 0.  1.
       -5    1    3    3    0  502 -0.10931906177E+03  0.51105686189E+03 -0.89286872337E+02  0.53021128705E+03  0.46999998093E+01 0. -1.
</event>
<event>
 5   0  0.3335747E-04  0.1280905E+04  0.7818609E-02  0.9044847E-01
       -1   -1    0    0    0  501  0.00000000000E+00  0.00000000000E+00  0.87575557645E+03  0.87575557647E+03  0.50400001928E-02 0.  1.
        1   -1    0    0  501    0  0.00000000000E+00  0.00000000000E+00 -0.46837167727E+03  0.46837167729E+03  0.50400001928E-02 0. -1.
    10030    2    1    2    0    0  0.00000000000E+00  0.00000000000E+00  0.40738389919E+03  0.13441272538E+04  0.12809045370E+04 0.  0.
        3    1    3    3  502    0  0.45288885721E+03 -0.43300106124E+03  0.64554606524E+02  0.62989327941E+03  0.10100000352E+00 0. -1.
       -3    1    3    3    0  502 -0.45288885721E+03  0.43300106124E+03  0.34282929266E+03  0.71423397436E+03  0.10100000352E+00 0.  1.
</event>
<event>
 5   0  0.6052864E-04  0.1300811E+04  0.7818609E-02  0.9028922E-01
       -2   -1    0    0    0  501  0.00000000000E+00  0.00000000000E+00  0.83156152404E+03  0.83156152405E+03  0.25500000920E-02 0.  1.
        2   -1    0    0  501    0  0.00000000000E+00  0.00000000000E+00 -0.50871436340E+03  0.50871436340E+03  0.25500000920E-02 0. -1.
    10030    2    1    2    0    0  0.00000000000E+00  0.00000000000E+00  0.32284716065E+03  0.13402758874E+04  0.13008109645E+04 0.  0.
        2    1    3    3  502    0 -0.41910524903E+03 -0.31873466911E+03  0.55482720849E+03  0.76490145140E+03  0.25500000920E-02 0. -1.
       -2    1    3    3    0  502  0.41910524903E+03  0.31873466911E+03 -0.23198004785E+03  0.57537443605E+03  0.25500000920E-02 0.  1.
</event>
<event>
 5   0  0.6007125E-04  0.1302181E+04  0.7818609E-02  0.9027838E-01
        2   -1    0    0  501    0  0.00000000000E+00  0.00000000000E+00  0.14290383481E+04  0.14290383481E+04  0.25500000920E-02 0. -1.
       -2   -1    0    0    0  501  0.00000000000E+00  0.00000000000E+00 -0.29664603795E+03  0.29664603796E+03  0.25500000920E-02 0.  1.
    10030    2    1    2    0    0  0.00000000000E+00  0.00000000000E+00  0.11323923101E+04  0.17256843860E+04  0.13021805774E+04 0.  0.
        5    1    3    3  502    0 -0.47542484176E+03 -0.40806909414E+03  0.33156251194E+03  0.70887583897E+03  0.46999998093E+01 0. -1.
       -5    1    3    3    0  502  0.47542484176E+03  0.40806909414E+03  0.80082979819E+03  0.10168085471E+04  0.46999998093E+01 0.  1.
</event>
<event>
 5   0  0.5957913E-04  0.1300612E+04  0.7818609E-02  0.9029080E-01
        2   -1    0    0  501    0  0.00000000000E+00  0.00000000000E+00  0.23337931433E+04  0.23337931433E+04  0.25500000920E-02 0.  1.
       -2   -1    0    0    0  501  0.00000000000E+00  0.00000000000E+00 -0.18120624067E+03  0.18120624068E+03  0.25500000920E-02 0. -1.
    10030    2    1    2    0    0  0.00000000000E+00  0.00000000000E+00  0.21525869026E+04  0.25149993840E+04  0.13006119821E+04 0.  0.
        1    1    3    3  502    0 -0.15860113346E+03 -0.17104403968E+03  0.22501134698E+04  0.22621717463E+04  0.50400001928E-02 0.  1.
       -1    1    3    3    0  502  0.15860113346E+03  0.17104403968E+03 -0.97526567127E+02  0.25282763766E+03  0.50400001928E-02 0. -1.
</event>
<event>
 5   0  0.5787604E-04  0.1298116E+04  0.7818609E-02  0.9031060E-01
        2   -1    0    0  501    0  0.00000000000E+00  0.00000000000E+00  0.17948551842E+04  0.17948551842E+04  0.25500000920E-02 0. -1.
       -2   -1    0    0    0  501  0.00000000000E+00  0.00000000000E+00 -0.23471339663E+03  0.23471339664E+03  0.25500000920E-02 0.  1.
    10030    2    1    2    0    0  0.00000000000E+00  0.00000000000E+00  0.15601417876E+04  0.20295685808E+04  0.12981164150E+04 0.  0.
        4    1    3    3  502    0 -0.63209446256E+03  0.10200703142E+03  0.94646206594E+03  0.11426902026E+04  0.12699999809E+01 0. -1.
       -4    1    3    3    0  502  0.63209446256E+03 -0.10200703142E+03  0.61367972163E+03  0.88687837819E+03  0.12699999809E+01 0.  1.
</event>
<event>
 5   0  0.6007125E-04  0.1302067E+04  0.7818609E-02  0.9027928E-01
       -2   -1    0    0    0  501  0.00000000000E+00  0.00000000000E+00  0.80313909830E+03  0.80313909831E+03  0.25500000920E-02 0.  1.
        2   -1    0    0  501    0  0.00000000000E+00  0.00000000000E+00 -0.52773502828E+03  0.52773502829E+03  0.25500000920E-02 0. -1.
    10030    2    1    2    0    0  0.00000000000E+00  0.00000000000E+00  0.27540407002E+03  0.13308741266E+04  0.13020670256E+04 0.  0.
        5    1    3    3  502    0 -0.38333077963E+03 -0.47705753286E+03  0.36464160317E+03  0.71239874019E+03  0.46999998093E+01 0.  1.
       -5    1    3    3    0  502  0.38333077963E+03  0.47705753286E+03 -0.89237533151E+02  0.61847538640E+03  0.46999998093E+01 0. -1.
</event>
<event>
 5   0  0.5384960E-04  0.1300163E+04  0.7818609E-02  0.9029436E-01
       -2   -1    0    0    0  501  0.00000000000E+00  0.00000000000E+00  0.40502826332E+03  0.40502826333E+03  0.25500000920E-02 0. -1.
        2   -1    0    0  501    0  0.00000000000E+00  0.00000000000E+00 -0.10433985992E+04  0.10433985992E+04  0.25500000920E-02 0.  1.
    10030    2    1    2    0    0  0.00000000000E+00  0.00000000000E+00 -0.63837033583E+03  0.14484268625E+04  0.13001629476E+04 0.  0.
        3    1    3    3  502    0  0.46430992857E+03  0.35788596329E+03 -0.61833168054E+01  0.58626300932E+03  0.10100000352E+00 0. -1.
       -3    1    3    3    0  502 -0.46430992857E+03 -0.35788596329E+03 -0.63218701902E+03  0.86216385317E+03  0.10100000352E+00 0.  1.
</event>
<event>
 5   0  0.3263679E-04  0.1298819E+04  0.7818609E-02  0.9030502E-01
       -1   -1    0    0    0  501  0.00000000000E+00  0.00000000000E+00  0.10237778733E+04  0.10237778733E+04  0.50400001928E-02 0. -1.
        1   -1    0    0  501    0  0.00000000000E+00  0.00000000000E+00 -0.41193792643E+03  0.41193792646E+03  0.50400001928E-02 0.  1.
    10030    2    1    2    0    0  0.00000000000E+00  0.00000000000E+00  0.61183994689E+03  0.14357157998E+04  0.12988193628E+04 0.  0.
        2    1    3    3  502    0  0.41970499972E+03  0.29495999551E+03 -0.13427279444E+03  0.53026679046E+03  0.25500000920E-02 0.  1.
       -2    1    3    3    0  502 -0.41970499972E+03 -0.29495999551E+03  0.74611274133E+03  0.90544900934E+03  0.25500000920E-02 0. -1.
</event>
<event>
 5   0  0.6007125E-04  0.1278647E+04  0.7818609E-02  0.9046672E-01
        2   -1    0    0  501    0  0.00000000000E+00  0.00000000000E+00  0.15304177759E+04  0.15304177759E+04  0.25500000920E-02 0. -1.
       -2   -1    0    0    0  501  0.00000000000E+00  0.00000000000E+00 -0.26707366479E+03  0.26707366480E+03  0.25500000920E-02 0.  1.
    10030    2    1    2    0    0  0.00000000000E+00  0.00000000000E+00  0.12633441111E+04  0.17974914407E+04  0.12786466034E+04 0.  0.
        5    1    3    3  502    0 -0.53892473330E+03  0.30270268540E+03  0.86113428407E+03  0.10600203437E+04  0.46999998093E+01 0. -1.
       -5    1    3    3    0  502  0.53892473330E+03 -0.30270268540E+03  0.40220982705E+03  0.73747109699E+03  0.46999998093E+01 0.  1.
</event>
<event>
 5   0  0.3337520E-04  0.1309349E+04  0.7818609E-02  0.9022184E-01
        1   -1    0    0  501    0  0.00000000000E+00  0.00000000000E+00  0.11598077966E+04  0.11598077966E+04  0.50400001928E-02 0.  1.
       -1   -1    0    0    0  501  0.00000000000E+00  0.00000000000E+00 -0.36954295403E+03  0.36954295407E+03  0.50400001928E-02 0. -1.
    10030    2    1    2    0    0  0.00000000000E+00  0.00000000000E+00  0.79026484252E+03  0.15293507506E+04  0.13093491502E+04 0.  0.
        5    1    3    3  502    0 -0.24909171039E+03  0.21977793692E+03  0.10540340960E+04  0.11051511151E+04  0.46999998093E+01 0.  1.
       -5    1    3    3    0  502  0.24909171039E+03 -0.21977793692E+03 -0.26376925344E+03  0.42419963554E+03  0.46999998093E+01 0. -1.
</event>
<event>
 5   0  0.3337520E-04  0.1301006E+04  0.7818609E-02  0.9028768E-01
        1   -1    0    0  501    0  0.00000000000E+00  0.00000000000E+00  0.33751978081E+03  0.33751978085E+03  0.50400001928E-02 0.  1.
       -1   -1    0    0    0  501  0.00000000000E+00  0.00000000000E+00 -0.12537161705E+04  0.12537161705E+04  0.50400001928E-02 0. -1.
    10030    2    1    2    0    0  0.00000000000E+00  0.00000000000E+00 -0.91619638964E+03  0.15912359513E+04  0.13010057757E+04 0.  0.
        5    1    3    3  502    0 -0.54235266686E+02 -0.61961393279E+03 -0.69102706040E+03  0.92973296063E+03  0.46999998093E+01 0. -1.
       -5    1    3    3    0  502  0.54235266686E+02  0.61961393279E+03 -0.22516932924E+03  0.66150299069E+03  0.46999998093E+01 0.  1.
</event>
<event>
 5   0  0.3337520E-04  0.1299797E+04  0.7818609E-02  0.9029726E-01
        1   -1    0    0  501    0  0.00000000000E+00  0.00000000000E+00  0.11435806918E+04  0.11435806918E+04  0.50400001928E-02 0.  1.
       -1   -1    0    0    0  501  0.00000000000E+00  0.00000000000E+00 -0.36933806603E+03  0.36933806607E+03  0.50400001928E-02 0. -1.
    10030    2    1    2    0    0  0.00000000000E+00  0.00000000000E+00  0.77424262581E+03  0.15129187579E+04  0.12997967243E+04 0.  0.
        5    1    3    3  502    0  0.24130606768E+03  0.56361571928E+03  0.63799437769E+03  0.88484473964E+03  0.46999998093E+01 0. -1.
       -5    1    3    3    0  502 -0.24130606768E+03 -0.56361571928E+03  0.13624824812E+03  0.62807401827E+03  0.46999998093E+01 0.  1.
</event>
<event>
 5   0  0.3274879E-04  0.1302848E+04  0.7818609E-02  0.9027309E-01
       -1   -1    0    0    0  501  0.00000000000E+00  0.00000000000E+00  0.82567785453E+03  0.82567785455E+03  0.50400001928E-02 0.  1.
        1   -1    0    0  501    0  0.00000000000E+00  0.00000000000E+00 -0.51394557899E+03  0.51394557902E+03  0.50400001928E-02 0. -1.
    10030    2    1    2    0    0  0.00000000000E+00  0.00000000000E+00  0.31173227554E+03  0.13396234336E+04  0.13028483918E+04 0.  0.
        4    1    3    3  502    0 -0.10672036903E+02  0.28116645029E+03 -0.44824077988E+03  0.52923517909E+03  0.12699999809E+01 0. -1.
       -4    1    3    3    0  502  0.10672036903E+02 -0.28116645029E+03  0.75997305541E+03  0.81038825448E+03  0.12699999809E+01 0.  1.
</event>
<event>
 5   0  0.5384960E-04  0.1298675E+04  0.7818609E-02  0.9030616E-01
        2   -1    0    0  501    0  0.00000000000E+00  0.00000000000E+00  0.50774142802E+03  0.50774142803E+03  0.25500000920E-02 0.  1.
       -2   -1    0    0    0  501  0.00000000000E+00  0.00000000000E+00 -0.83042139432E+03  0.83042139433E+03  0.25500000920E-02 0. -1.
    10030    2    1    2    0    0  0.00000000000E+00  0.00000000000E+00 -0.32267996630E+03  0.13381628224E+04  0.12986752398E+04 0.  0.
        3    1    3    3  502    0 -0.45775069630E+03  0.29411258466E+03  0.20383891808E+03  0.58102343081E+03  0.10100000352E+00 0.  1.
       -3    1    3    3    0  502  0.45775069630E+03 -0.29411258466E+03 -0.52651888438E+03  0.75713939155E+03  0.10100000352E+00 0. -1.
</event>
<event>
 5   0  0.6007125E-04  0.1225184E+04  0.7818609E-02  0.9091094E-01
       -2   -1    0    0    0  501  0.00000000000E+00  0.00000000000E+00  0.37804491231E+03  0.37804491232E+03  0.25500000920E-02 0.  1.
        2   -1    0    0  501    0  0.00000000000E+00  0.00000000000E+00 -0.99265741389E+03  0.99265741389E+03  0.25500000920E-02 0. -1.
    10030    2    1    2    0    0  0.00000000000E+00  0.00000000000E+00 -0.61461250157E+03  0.13707023262E+04  0.12251842066E+04 0.  0.
        5    1    3    3  502    0  0.11716327254E+03 -0.57228791761E+03 -0.10099568826E+03  0.59284307546E+03  0.46999998093E+01 0.  1.
       -5    1    3    3    0  502 -0.11716327254E+03  0.57228791761E+03 -0.51361681331E+03  0.77785925076E+03  0.46999998093E+01 0. -1.
</event>
<event>
 5   0  0.3274879E-04  0.1299126E+04  0.7818609E-02  0.9030258E-01
       -1   -1    0    0    0  501  0.00000000000E+00  0.00000000000E+00  0.32402455785E+03  0.32402455789E+03  0.50400001928E-02 0.  1.
        1   -1    0    0  501    0  0.00000000000E+00  0.00000000000E+00 -0.13021611575E+04  0.13021611575E+04  0.50400001928E-02 0. -1.
    10030    2    1    2    0    0  0.00000000000E+00  0.00000000000E+00 -0.97813659963E+03  0.16261857154E+04  0.12991261576E+04 0.  0.
        4    1    3    3  502    0 -0.54925437975E+03  0.20823728447E+03 -0.83616182759E+03  0.10218666034E+04  0.12699999809E+01 0. -1.
       -4    1    3    3    0  502  0.54925437975E+03 -0.20823728447E+03 -0.14197477204E+03  0.60431911199E+03  0.12699999809E+01 0.  1.
</event>
<event>
 5   0  0.5787604E-04  0.1296585E+04  0.7818609E-02  0.9032278E-01
        2   -1    0    0  501    0  0.00000000000E+00  0.00000000000E+00  0.47280116111E+03  0.47280116112E+03  0.25500000920E-02 0. -1.
       -2   -1    0    0    0  501  0.00000000000E+00  0.00000000000E+00 -0.88892186808E+03  0.88892186808E+03  0.25500000920E-02 0.  1.
    10030    2    1    2    0    0  0.00000000000E+00  0.00000000000E+00 -0.41612070697E+03  0.13617230292E+04  0.12965851941E+04 0.  0.
        4    1    3    3  502    0 -0.49395655756E+03  0.13017469117E+03  0.21117164170E+03  0.55275094404E+03  0.12699999809E+01 0. -1.
       -4    1    3    3    0  502  0.49395655756E+03 -0.13017469117E+03 -0.62729234866E+03  0.80897208516E+03  0.12699999809E+01 0.  1.
</event>
<event>
 5   0  0.6052864E-04  0.1302132E+04  0.7818609E-02  0.9027876E-01
        2   -1    0    0  501    0  0.00000000000E+00  0.00000000000E+00  0.38156867646E+03  0.38156867647E+03  0.25500000920E-02 0. -1.
       -2   -1    0    0    0  501  0.00000000000E+00  0.00000000000E+00 -0.11109066594E+04  0.11109066594E+04  0.25500000920E-02 0.  1.
    10030    2    1    2    0    0  0.00000000000E+00  0.00000000000E+00 -0.72933798298E+03  0.14924753359E+04  0.13021323799E+04 0.  0.
        2    1    3    3  502    0  0.46453380548E+03 -0.41177373349E+03 -0.13966192481E+03  0.63628194794E+03  0.25500000920E-02 0. -1.
       -2    1    3    3    0  502 -0.46453380548E+03  0.41177373349E+03 -0.58967605817E+03  0.85619338797E+03  0.25500000920E-02 0.  1.
</event>
<event>
 5   0  0.3274879E-04  0.1278457E+04  0.7818609E-02  0.9046826E-01
        1   -1    0    0  501    0  0.00000000000E+00  0.00000000000E+00  0.82730472108E+03  0.82730472110E+03  0.50400001928E-02 0. -1.
       -1   -1    0    0    0  501  0.00000000000E+00  0.00000000000E+00 -0.49390879986E+03  0.49390879989E+03  0.50400001928E-02 0.  1.
    10030    2    1    2    0    0  0.00000000000E+00  0.00000000000E+00  0.33339592122E+03  0.13212135210E+04  0.12784570105E+04 0.  0.
        4    1    3    3  502    0  0.24828686630E+03  0.47911190340E+03 -0.18742342753E+03  0.57124752783E+03  0.12699999809E+01 0.  1.
       -4    1    3    3    0  502 -0.24828686630E+03 -0.47911190340E+03  0.52081934875E+03  0.74996599316E+03  0.12699999809E+01 0. -1.
</event>
<event>
 5   0  0.6007125E-04  0.1302160E+04  0.7818609E-02  0.9027854E-01
       -2   -1    0    0    0  501  0.00000000000E+00  0.00000000000E+00  0.21064665466E+03  0.21064665468E+03  0.25500000920E-02 0.  1.
        2   -1    0    0  501    0  0.00000000000E+00  0.00000000000E+00 -0.20123981695E+04  0.20123981695E+04  0.25500000920E-02 0. -1.
    10030    2    1    2    0    0  0.00000000000E+00  0.00000000000E+00 -0.18017515148E+04  0.22230448242E+04  0.13021596558E+04 0.  0.
        5    1    3    3  502    0  0.15196259069E+02  0.27060966341E+03  0.10972559298E+03  0.29244198052E+03  0.46999998093E+01 0.  1.
       -5    1    3    3    0  502 -0.15196259069E+02 -0.27060966341E+03 -0.19114771078E+04  0.19306028436E+04  0.46999998093E+01 0. -1.
</event>
<event>
 5   0  0.3335747E-04  0.1295231E+04  0.7818609E-02  0.9033356E-01
        1   -1    0    0  501    0  0.00000000000E+00  0.00000000000E+00  0.16297340156E+04  0.16297340156E+04  0.50400001928E-02 0. -1.
       -1   -1    0    0    0  501  0.00000000000E+00  0.00000000000E+00 -0.25734607518E+03  0.25734607523E+03  0.50400001928E-02 0.  1.
    10030    2    1    2    0    0  0.00000000000E+00  0.00000000000E+00  0.13723879405E+04  0.18870800909E+04  0.12952307170E+04 0.  0.
        3    1    3    3  502    0 -0.64554057471E+03  0.29313239853E+02  0.74841325064E+03  0.98878931202E+03  0.10100000352E+00 0. -1.
       -3    1    3    3    0  502  0.64554057471E+03 -0.29313239853E+02  0.62397468981E+03  0.89829077884E+03  0.10100000352E+00 0.  1.
</event>
<event>
 5   0  0.5787604E-04  0.1301092E+04  0.7818609E-02  0.9028700E-01
       -2   -1    0    0    0  501  0.00000000000E+00  0.00000000000E+00  0.15782376760E+04  0.15782376760E+04  0.25500000920E-02 0. -1.
        2   -1    0    0  501    0  0.00000000000E+00  0.00000000000E+00 -0.26815361265E+03  0.26815361266E+03  0.25500000920E-02 0.  1.
    10030    2    1    2    0    0  0.00000000000E+00  0.00000000000E+00  0.13100840633E+04  0.18463912886E+04  0.13010920558E+04 0.  0.
        4    1    3    3  502    0  0.13428958164E+03  0.43943315647E+03  0.13085618254E+04  0.13868925173E+04  0.12699999809E+01 0. -1.
       -4    1    3    3    0  502 -0.13428958164E+03 -0.43943315647E+03  0.15222379045E+01  0.45949877132E+03  0.12699999809E+01 0.  1.
</event>
<event>
 5   0  0.2255875E-04  0.1299731E+04  0.7818609E-02  0.9029778E-01
       -3   -1    0    0    0  501  0.00000000000E+00  0.00000000000E+00  0.22249795272E+04  0.22249795295E+04  0.10100000352E+00 0.  1.
        3   -1    0    0  501    0  0.00000000000E+00  0.00000000000E+00 -0.18981091110E+03  0.18981093798E+03  0.10100000352E+00 0. -1.
    10030    2    1    2    0    0  0.00000000000E+00  0.00000000000E+00  0.20351686161E+04  0.24147904675E+04  0.12997313976E+04 0.  0.
        4    1    3    3  502    0  0.48641372760E+03  0.19569772745E+03  0.17309556855E+04  0.18086196706E+04  0.12699999809E+01 0.  1.
       -4    1    3    3    0  502 -0.48641372760E+03 -0.19569772745E+03  0.30421293065E+03  0.60617079689E+03  0.12699999809E+01 0. -1.
</event>
<event>
 5   0  0.6007125E-04  0.1305849E+04  0.7818609E-02  0.9024940E-01
       -2   -1    0    0    0  501  0.00000000000E+00  0.00000000000E+00  0.41158869295E+03  0.41158869295E+03  0.25500000920E-02 0.  1.
        2   -1    0    0  501    0  0.00000000000E+00  0.00000000000E+00 -0.10357682006E+04  0.10357682006E+04  0.25500000920E-02 0. -1.
    10030    2    1    2    0    0  0.00000000000E+00  0.00000000000E+00 -0.62417950761E+03  0.14473568935E+04  0.13058491182E+04 0.  0.
        5    1    3    3  502    0 -0.95566104942E+02  0.11139870837E+02 -0.10278490849E+04  0.10323530444E+04  0.46999998093E+01 0. -1.
       -5    1    3    3    0  502  0.95566104942E+02 -0.11139870837E+02  0.40366957725E+03  0.41500384906E+03  0.46999998093E+01 0.  1.
</event>
<event>
 5   0  0.3403833E-04  0.1304970E+04  0.7818609E-02  0.9025633E-01
        1   -1    0    0  501    0  0.00000000000E+00  0.00000000000E+00  0.41968027822E+03  0.41968027825E+03  0.50400001928E-02 0. -1.
       -1   -1    0    0    0  501  0.00000000000E+00  0.00000000000E+00 -0.10144309020E+04  0.10144309020E+04  0.50400001928E-02 0.  1.
    10030    2    1    2    0    0  0.00000000000E+00  0.00000000000E+00 -0.59475062376E+03  0.14341111802E+04  0.13049699509E+04 0.  0.
        1    1    3    3  502    0 -0.91399320896E+02 -0.43893378284E+03  0.22358317416E+03  0.50100512709E+03  0.50400001928E-02 0. -1.
       -1    1    3    3    0  502  0.91399320896E+02  0.43893378284E+03 -0.81833379792E+03  0.93310605315E+03  0.50400001928E-02 0.  1.
</event>
<event>
 5   0  0.3403833E-04  0.1326392E+04  0.7818609E-02  0.9008894E-01
       -1   -1    0    0    0  501  0.00000000000E+00  0.00000000000E+00  0.30110170672E+03  0.30110170676E+03  0.50400001928E-02 0. -1.
        1   -1    0    0  501    0  0.00000000000E+00  0.00000000000E+00 -0.14607317261E+04  0.14607317261E+04  0.50400001928E-02 0.  1.
    10030    2    1    2    0    0  0.00000000000E+00  0.00000000000E+00 -0.11596300193E+04  0.17618334328E+04  0.13263918212E+04 0.  0.
        1    1    3    3  502    0 -0.43099504857E+03  0.49983752073E+03 -0.49337874989E+03  0.82402479932E+03  0.50400001928E-02 0.  1.
       -1    1    3    3    0  502  0.43099504857E+03 -0.49983752073E+03 -0.66625126944E+03  0.93780863351E+03  0.50400001928E-02 0. -1.
</event>
<event>
 5   0  0.3335747E-04  0.1304438E+04  0.7818609E-02  0.9026053E-01
       -1   -1    0    0    0  501  0.00000000000E+00  0.00000000000E+00  0.51238561772E+03  0.51238561775E+03  0.50400001928E-02 0.  1.
        1   -1    0    0  501    0  0.00000000000E+00  0.00000000000E+00 -0.83021422109E+03  0.83021422111E+03  0.50400001928E-02 0. -1.
    10030    2    1    2    0    0  0.00000000000E+00  0.00000000000E+00 -0.31782860337E+03  0.13425998389E+04  0.13044383106E+04 0.  0.
        3    1    3    3  502    0 -0.48085561973E+03 -0.43821459423E+03 -0.11134914055E+03  0.66003999797E+03  0.10100000352E+00 0.  1.
       -3    1    3    3    0  502  0.48085561973E+03  0.43821459423E+03 -0.20647946282E+03  0.68255984088E+03  0.10100000352E+00 0. -1.
</event>
<event>
 5   0  0.5787604E-04  0.1301739E+04  0.7818609E-02  0.9028188E-01
       -2   -1    0    0    0  501  0.00000000000E+00  0.00000000000E+00  0.75453103970E+03  0.75453103971E+03  0.25500000920E-02 0. -1.
        2   -1    0    0  501    0  0.00000000000E+00  0.00000000000E+00 -0.56144920862E+03  0.56144920862E+03  0.25500000920E-02 0.  1.
    10030    2    1    2    0    0  0.00000000000E+00  0.00000000000E+00  0.19308183109E+03  0.13159802483E+04  0.13017386145E+04 0.  0.
        4    1    3    3  502    0  0.51777331812E+02 -0.20846622718E+03 -0.52458323185E+03  0.56685821860E+03  0.12699999809E+01 0.  1.
       -4    1    3    3    0  502 -0.51777331812E+02  0.20846622718E+03  0.71766506293E+03  0.74912202972E+03  0.12699999809E+01 0. -1.
</event>
<event>
 5   0  0.5957913E-04  0.1313565E+04  0.7818609E-02  0.9018876E-01
       -2   -1    0    0    0  501  0.00000000000E+00  0.00000000000E+00  0.64262337087E+03  0.64262337088E+03  0.25500000920E-02 0.  1.
        2   -1    0    0  501    0  0.00000000000E+00  0.00000000000E+00 -0.67125393599E+03  0.67125393599E+03  0.25500000920E-02 0. -1.
    10030    2    1    2    0    0  0.00000000000E+00  0.00000000000E+00 -0.28630565115E+02  0.13138773069E+04  0.13135653270E+04 0.  0.
        1    1    3    3  502    0 -0.40793967677E+02 -0.63794987045E+03 -0.16508024947E+03  0.66022395731E+03  0.50400001928E-02 0.  1.
       -1    1    3    3    0  502  0.40793967677E+02  0.63794987045E+03  0.13644968436E+03  0.65365334957E+03  0.50400001928E-02 0. -1.
</event>
<event>
 5   0  0.6007125E-04  0.1298005E+04  0.7818609E-02  0.9031149E-01
        2   -1    0    0  501    0  0.00000000000E+00  0.00000000000E+00  0.57458499699E+03  0.57458499700E+03  0.25500000920E-02 0. -1.
       -2   -1    0    0    0  501  0.00000000000E+00  0.00000000000E+00 -0.73305815031E+03  0.73305815032E+03  0.25500000920E-02 0.  1.
    10030    2    1    2    0    0  0.00000000000E+00  0.00000000000E+00 -0.15847315332E+03  0.13076431473E+04  0.12980049539E+04 0.  0.
        5    1    3    3  502    0 -0.23322889916E+03  0.39592472602E+03  0.38245672742E+03  0.59786900440E+03  0.46999998093E+01 0. -1.
       -5    1    3    3    0  502  0.23322889916E+03 -0.39592472602E+03 -0.54092988074E+03  0.70977414292E+03  0.46999998093E+01 0.  1.
</event>
<event>
 5   0  0.3263679E-04  0.1304250E+04  0.7818609E-02  0.9026201E-01
       -1   -1    0    0    0  501  0.00000000000E+00  0.00000000000E+00  0.36075080676E+03  0.36075080679E+03  0.50400001928E-02 0. -1.
        1   -1    0    0  501    0  0.00000000000E+00  0.00000000000E+00 -0.11788391592E+04  0.11788391592E+04  0.50400001928E-02 0.  1.
    10030    2    1    2    0    0  0.00000000000E+00  0.00000000000E+00 -0.81808835245E+03  0.15395899660E+04  0.13042502486E+04 0.  0.
        2    1    3    3  502    0  0.24270368930E+03  0.60520642844E+03 -0.42007203972E+03  0.77565483328E+03  0.25500000920E-02 0. -1.
       -2    1    3    3    0  502 -0.24270368930E+03 -0.60520642844E+03 -0.39801631274E+03  0.76393513274E+03  0.25500000920E-02 0.  1.
</event>
<event>
 5   0  0.3337520E-04  0.1292771E+04  0.7818609E-02  0.9035318E-01
        1   -1    0    0  501    0  0.00000000000E+00  0.00000000000E+00  0.55896781171E+03  0.55896781173E+03  0.50400001928E-02 0.  1.
       -1   -1    0    0    0  501  0.00000000000E+00  0.00000000000E+00 -0.74747430225E+03  0.74747430226E+03  0.50400001928E-02 0. -1.
    10030    2    1    2    0    0  0.00000000000E+00  0.00000000000E+00 -0.18850649054E+03  0.13064421140E+04  0.12927707841E+04 0.  0.
        5    1    3    3  502    0 -0.36698565090E+03 -0.69294798154E+02 -0.62738482999E+03  0.73014659618E+03  0.46999998093E+01 0. -1.
       -5    1    3    3    0  502  0.36698565090E+03  0.69294798154E+02  0.43887833945E+03  0.57629551781E+03  0.46999998093E+01 0.  1.
</event>
<event>
 5   0  0.5787604E-04  0.1282480E+04  0.7818609E-02  0.9043575E-01
       -2   -1    0    0    0  501  0.00000000000E+00  0.00000000000E+00  0.14350977155E+03  0.14350977158E+03  0.25500000920E-02 0. -1.
        2   -1    0    0  501    0  0.00000000000E+00  0.00000000000E+00 -0.28652304483E+04  0.28652304483E+04  0.25500000920E-02 0.  1.
    10030    2    1    2    0    0  0.00000000000E+00  0.00000000000E+00 -0.27217206768E+04  0.30087402199E+04  0.12824797342E+04 0.  0.
        4    1    3    3  502    0 -0.61564861698E+03 -0.98139720429E+02 -0.17130180729E+04  0.18229336672E+04  0.12699999809E+01 0. -1.
       -4    1    3    3    0  502  0.61564861698E+03  0.98139720429E+02 -0.10087026039E+04  0.11858065527E+04  0.12699999809E+01 0.  1.
</event>
<event>
 5   0  0.3335747E-04  0.1305869E+04  0.7818609E-02  0.9024924E-01
       -1   -1    0    0    0  501  0.00000000000E+00  0.00000000000E+00  0.37497436736E+03  0.37497436740E+03  0.50400001928E-02 0. -1.
        1   -1    0    0  501    0  0.00000000000E+00  0.00000000000E+00 -0.11369405817E+04  0.11369405818E+04  0.50400001928E-02 0.  1.
    10030    2    1    2    0    0  0.00000000000E+00  0.00000000000E+00 -0.76196621438E+03  0.15119149492E+04  0.13058691748E+04 0.  0.
        3    1    3    3  502    0 -0.82887323436E+02 -0.62899271845E+03 -0.55967773081E+03  0.84601496489E+03  0.10100000352E+00 0. -1.
       -3    1    3    3    0  502  0.82887323436E+02  0.62899271845E+03 -0.20228848357E+03  0.66589998426E+03  0.10100000352E+00 0.  1.
</event>
<event>
 5   0  0.5787604E-04  0.1302859E+04  0.7818609E-02  0.9027301E-01
        2   -1    0    0  501    0  0.00000000000E+00  0.00000000000E+00  0.64105214314E+03  0.64105214315E+03  0.25500000920E-02 0. -1.
       -2   -1    0    0    0  501  0.00000000000E+00  0.00000000000E+00 -0.66197463667E+03  0.66197463667E+03  0.25500000920E-02 0.  1.
    10030    2    1    2    0    0  0.00000000000E+00  0.00000000000E+00 -0.20922493528E+02  0.13030267798E+04  0.13028587944E+04 0.  0.
        4    1    3    3  502    0  0.15517450970E+02  0.26482761869E+03 -0.60550366226E+03  0.66106789123E+03  0.12699999809E+01 0.  1.
       -4    1    3    3    0  502 -0.15517450970E+02 -0.26482761869E+03  0.58458116873E+03  0.64195888859E+03  0.12699999809E+01 0. -1.
</event>
<event>
 5   0  0.3403833E-04  0.1309534E+04  0.7818609E-02  0.9022039E-01
        1   -1    0    0  501    0  0.00000000000E+00  0.00000000000E+00  0.22377602469E+04  0.22377602469E+04  0.50400001928E-02 0.  1.
       -1   -1    0    0    0  501  0.00000000000E+00  0.00000000000E+00 -0.19158436176E+03  0.19158436182E+03  0.50400001928E-02 0. -1.
    10030    2    1    2    0    0  0.00000000000E+00  0.00000000000E+00  0.20461758851E+04  0.24293446087E+04  0.13095340679E+04 0.  0.
        1    1    3    3  502    0  0.49608556877E+03 -0.24670748324E+03  0.37577446855E+03  0.66945644001E+03  0.50400001928E-02 0. -1.
       -1    1    3    3    0  502 -0.49608556877E+03  0.24670748324E+03  0.16704014166E+04  0.17598881687E+04  0.50400001928E-02 0.  1.
</event>
<event>
 5   0  0.3403833E-04  0.1291481E+04  0.7818609E-02  0.9036348E-01
        1   -1    0    0  501    0  0.00000000000E+00  0.00000000000E+00  0.89551405133E+03  0.89551405134E+03  0.50400001928E-02 0. -1.
       -1   -1    0    0    0  501  0.00000000000E+00  0.00000000000E+00 -0.46563316731E+03  0.46563316734E+03  0.50400001928E-02 0.  1.
    10030    2    1    2    0    0  0.00000000000E+00  0.00000000000E+00  0.42988088402E+03  0.13611472187E+04  0.12914813884E+04 0.  0.
        1    1    3    3  502    0 -0.31189628088E+02  0.56578760008E+03  0.54130996153E+03  0.78364843889E+03  0.50400001928E-02 0. -1.
       -1    1    3    3    0  502  0.31189628088E+02 -0.56578760008E+03 -0.11142907751E+03  0.57749877978E+03  0.50400001928E-02 0.  1.
</event>
<event>
 5   0  0.5787604E-04  0.1299750E+04  0.7818609E-02  0.9029764E-01
       -2   -1    0    0    0  501  0.00000000000E+00  0.00000000000E+00  0.83092050314E+03  0.83092050315E+03  0.25500000920E-02 0. -1.
        2   -1    0    0  501    0  0.00000000000E+00  0.00000000000E+00 -0.50827633550E+03  0.50827633551E+03  0.25500000920E-02 0.  1.
    10030    2    1    2    0    0  0.00000000000E+00  0.00000000000E+00  0.32264416765E+03  0.13391968387E+04  0.12997495581E+04 0.  0.
        4    1    3    3  502    0  0.41940983332E+02  0.52425957580E+03  0.55465195930E+03  0.76436088189E+03  0.12699999809E+01 0. -1.
       -4    1    3    3    0  502 -0.41940983332E+02 -0.52425957580E+03 -0.23200779165E+03  0.57483595677E+03  0.12699999809E+01 0.  1.
</event>
<event>
 5   0  0.5957913E-04  0.1302695E+04  0.7818609E-02  0.9027431E-01
        2   -1    0    0  501    0  0.00000000000E+00  0.00000000000E+00  0.97994773596E+03  0.97994773597E+03  0.25500000920E-02 0. -1.
       -2   -1    0    0    0  501  0.00000000000E+00  0.00000000000E+00 -0.43293498781E+03  0.43293498782E+03  0.25500000920E-02 0.  1.
    10030    2    1    2    0    0  0.00000000000E+00  0.00000000000E+00  0.54701274815E+03  0.14128827238E+04  0.13026951464E+04 0.  0.
        1    1    3    3  502    0  0.54788330524E+03 -0.81320144326E+01  0.65544550159E+03  0.85431320451E+03  0.50400001928E-02 0. -1.
       -1    1    3    3    0  502 -0.54788330524E+03  0.81320144326E+01 -0.10843275344E+03  0.55856951927E+03  0.50400001928E-02 0.  1.
</event>
<event>
 5   0  0.5787604E-04  0.1298818E+04  0.7818609E-02  0.9030503E-01
        2   -1    0    0  501    0  0.00000000000E+00  0.00000000000E+00  0.12069272868E+04  0.12069272868E+04  0.25500000920E-02 0.  1.
       -2   -1    0    0    0  501  0.00000000000E+00  0.00000000000E+00 -0.34942605955E+03  0.34942605956E+03  0.25500000920E-02 0. -1.
    10030    2    1    2    0    0  0.00000000000E+00  0.00000000000E+00  0.85750122724E+03  0.15563533464E+04  0.12988176870E+04 0.  0.
        4    1    3    3  502    0 -0.16606113032E+03 -0.31032697843E+03  0.10827233063E+04  0.11384948412E+04  0.12699999809E+01 0.  1.
       -4    1    3    3    0  502  0.16606113032E+03  0.31032697843E+03 -0.22522207905E+03  0.41785850516E+03  0.12699999809E+01 0. -1.
</event>
<event>
 5   0  0.5787604E-04  0.1300328E+04  0.7818609E-02  0.9029305E-01
       -2   -1    0    0    0  501  0.00000000000E+00  0.00000000000E+00  0.61675798996E+03  0.61675798997E+03  0.25500000920E-02 0.  1.
        2   -1    0    0  501    0  0.00000000000E+00  0.00000000000E+00 -0.68537921658E+03  0.68537921659E+03  0.25500000920E-02 0. -1.
    10030    2    1    2    0    0  0.00000000000E+00  0.00000000000E+00 -0.68621226619E+02  0.13021372066E+04  0.13003278171E+04 0.  0.
        4    1    3    3  502    0 -0.46433040113E+03 -0.40936654157E+03 -0.23340327950E+03  0.66156057209E+03  0.12699999809E+01 0. -1.
       -4    1    3    3    0  502  0.46433040113E+03  0.40936654157E+03  0.16478205288E+03  0.64057663446E+03  0.12699999809E+01 0.  1.
</event>
<event>
 5   0  0.3403833E-04  0.1305089E+04  0.7818609E-02  0.9025539E-01
        1   -1    0    0  501    0  0.00000000000E+00  0.00000000000E+00  0.50980420131E+03  0.50980420133E+03  0.50400001928E-02 0.  1.
       -1   -1    0    0    0  501  0.00000000000E+00  0.00000000000E+00 -0.83525125363E+03  0.83525125364E+03  0.50400001928E-02 0. -1.
    10030    2    1    2    0    0  0.00000000000E+00  0.00000000000E+00 -0.32544705232E+03  0.13450554550E+04  0.13050894196E+04 0.  0.
        1    1    3    3  502    0  0.12474799566E+03  0.64037622148E+03 -0.17619400381E+03  0.67578701857E+03  0.50400001928E-02 0.  1.
       -1    1    3    3    0  502 -0.12474799566E+03 -0.64037622148E+03 -0.14925304851E+03  0.66926843641E+03  0.50400001928E-02 0. -1.
</event>
<event>
 5   0  0.3335747E-04  0.1305208E+04  0.7818609E-02  0.9025445E-01
       -1   -1    0    0    0  501  0.00000000000E+00  0.00000000000E+00  0.80021122427E+03  0.80021122428E+03  0.50400001928E-02 0. -1.
        1   -1    0    0  501    0  0.00000000000E+00  0.00000000000E+00 -0.53222481765E+03  0.53222481767E+03  0.50400001928E-02 0.  1.
    10030    2    1    2    0    0  0.00000000000E+00  0.00000000000E+00  0.26798640662E+03  0.13324360420E+04  0.13052084476E+04 0.  0.
        3    1    3    3  502    0 -0.65026679237E+03 -0.36527793203E+02  0.17622133655E+03  0.67471116086E+03  0.10100000352E+00 0. -1.
       -3    1    3    3    0  502  0.65026679237E+03  0.36527793203E+02  0.91765070064E+02  0.65772488110E+03  0.10100000352E+00 0.  1.
</event>
<event>
 5   0  0.6052864E-04  0.1293737E+04  0.7818609E-02  0.9034547E-01
        2   -1    0    0  501    0  0.00000000000E+00  0.00000000000E+00  0.79816698599E+03  0.79816698600E+03  0.25500000920E-02 0.  1.
       -2   -1    0    0    0  501  0.00000000000E+00  0.00000000000E+00 -0.52424964299E+03  0.52424964300E+03  0.25500000920E-02 0. -1.
    10030    2    1    2    0    0  0.00000000000E+00  0.00000000000E+00  0.27391734300E+03  0.13224166290E+04  0.12937368472E+04 0.  0.
        2    1    3    3  502    0  0.18504701709E+03  0.19662708808E+03 -0.46389378420E+03  0.53675138875E+03  0.25500000920E-02 0. -1.
       -2    1    3    3    0  502 -0.18504701709E+03 -0.19662708808E+03  0.73781112720E+03  0.78566524024E+03  0.25500000920E-02 0.  1.
</event>
<event>
 5   0  0.3263679E-04  0.1300608E+04  0.7818609E-02  0.9029083E-01
        1   -1    0    0  501    0  0.00000000000E+00  0.00000000000E+00  0.64165089392E+03  0.64165089394E+03  0.50400001928E-02 0.  1.
       -1   -1    0    0    0  501  0.00000000000E+00  0.00000000000E+00 -0.65907421132E+03  0.65907421134E+03  0.50400001928E-02 0. -1.
    10030    2    1    2    0    0  0.00000000000E+00  0.00000000000E+00 -0.17423317394E+02  0.13007251053E+04  0.13006084067E+04 0.  0.
        2    1    3    3  502    0  0.64380663857E+03  0.69935320006E+02 -0.68026507531E+02  0.65115707981E+03  0.25500000920E-02 0. -1.
       -2    1    3    3    0  502 -0.64380663857E+03 -0.69935320006E+02  0.50603190137E+02  0.64956802547E+03  0.25500000920E-02 0.  1.
</event>
<event>
 5   0  0.3263679E-04  0.1299542E+04  0.7818609E-02  0.9029928E-01
       -1   -1    0    0    0  501  0.00000000000E+00  0.00000000000E+00  0.20262916588E+03  0.20262916595E+03  0.50400001928E-02 0. -1.
        1   -1    0    0  501    0  0.00000000000E+00  0.00000000000E+00 -0.20836206628E+04  0.20836206628E+04  0.50400001928E-02 0.  1.
    10030    2    1    2    0    0  0.00000000000E+00  0.00000000000E+00 -0.18809914969E+04  0.22862498287E+04  0.12995419455E+04 0.  0.
        2    1    3    3  502    0  0.18965552952E+03 -0.46453249839E+03 -0.16668065944E+04  0.17406906345E+04  0.25500000920E-02 0.  1.
       -2    1    3    3    0  502 -0.18965552952E+03  0.46453249839E+03 -0.21418490250E+03  0.54555919422E+03  0.25500000920E-02 0. -1.
</event>
<event>
 5   0  0.3274879E-04  0.1296250E+04  0.7818609E-02  0.9032544E-01
       -1   -1    0    0    0  501  0.00000000000E+00  0.00000000000E+00  0.32302738206E+03  0.32302738210E+03  0.50400001928E-02 0. -1.
        1   -1    0    0  501    0  0.00000000000E+00  0.00000000000E+00 -0.13004038509E+04  0.13004038509E+04  0.50400001928E-02 0.  1.
    10030    2    1    2    0    0  0.00000000000E+00  0.00000000000E+00 -0.97737646880E+03  0.16234312330E+04  0.12962500555E+04 0.  0.
        4    1    3    3  502    0 -0.37854072836E+03  0.21874331572E+03  0.11053625691E+03  0.45095631517E+03  0.12699999809E+01 0. -1.
       -4    1    3    3    0  502  0.37854072836E+03 -0.21874331572E+03 -0.10879127257E+04  0.11724749178E+04  0.12699999809E+01 0.  1.
</event>
<event>
 5   0  0.6052864E-04  0.1295164E+04  0.7818609E-02  0.9033409E-01
        2   -1    0    0  501    0  0.00000000000E+00  0.00000000000E+00  0.95979970673E+03  0.95979970673E+03  0.25500000920E-02 0. -1.
       -2   -1    0    0    0  501  0.00000000000E+00  0.00000000000E+00 -0.43692718634E+03  0.43692718634E+03  0.25500000920E-02 0.  1.
    10030    2    1    2    0    0  0.00000000000E+00  0.00000000000E+00  0.52287252039E+03  0.13967268931E+04  0.12951642140E+04 0.  0.
        2    1    3    3  502    0  0.20158832774E+03  0.24953543475E+03  0.86809418337E+03  0.92546923141E+03  0.25500000920E-02 0. -1.
       -2    1    3    3    0  502 -0.20158832774E+03 -0.24953543475E+03 -0.34522166298E+03  0.47125766166E+03  0.25500000920E-02 0.  1.
</event>
<event>
 5   0  0.3403833E-04  0.1297579E+04  0.7818609E-02  0.9031487E-01
       -1   -1    0    0    0  501  0.00000000000E+00  0.00000000000E+00  0.38767062178E+03  0.38767062182E+03  0.50400001928E-02 0. -1.
        1   -1    0    0  501    0  0.00000000000E+00  0.00000000000E+00 -0.10857870473E+04  0.10857870473E+04  0.50400001928E-02 0.  1.
    10030    2    1    2    0    0  0.00000000000E+00  0.00000000000E+00 -0.69811642555E+03  0.14734576692E+04  0.12975788836E+04 0.  0.
        1    1    3    3  502    0  0.26770694383E+03 -0.15115456896E+03  0.29970712228E+03  0.42934726115E+03  0.50400001928E-02 0. -1.
       -1    1    3    3    0  502 -0.26770694383E+03  0.15115456896E+03 -0.99782354782E+03  0.10441104080E+04  0.50400001928E-02 0.  1.
</event>
<event>
 5   0  0.6052864E-04  0.1273060E+04  0.7818609E-02  0.9051206E-01
        2   -1    0    0  501    0  0.00000000000E+00  0.00000000000E+00  0.64382557798E+03  0.64382557799E+03  0.25500000920E-02 0.  1.
       -2   -1    0    0    0  501  0.00000000000E+00  0.00000000000E+00 -0.62931703257E+03  0.62931703258E+03  0.25500000920E-02 0. -1.
    10030    2    1    2    0    0  0.00000000000E+00  0.00000000000E+00  0.14508545410E+02  0.12731426106E+04  0.12730599393E+04 0.  0.
        2    1    3    3  502    0 -0.49983721547E+02  0.52250088005E+03  0.36736772890E+03  0.64067510512E+03  0.25500000920E-02 0.  1.
       -2    1    3    3    0  502  0.49983721547E+02 -0.52250088005E+03 -0.35285918349E+03  0.63246750545E+03  0.25500000920E-02 0. -1.
</event>
<event>
 5   0  0.6052864E-04  0.1300637E+04  0.7818609E-02  0.9029060E-01
       -2   -1    0    0    0  501  0.00000000000E+00  0.00000000000E+00  0.30427947358E+03  0.30427947359E+03  0.25500000920E-02 0. -1.
        2   -1    0    0  501    0  0.00000000000E+00  0.00000000000E+00 -0.13898867687E+04  0.13898867687E+04  0.25500000920E-02 0.  1.
    10030    2    1    2    0    0  0.00000000000E+00  0.00000000000E+00 -0.10856072951E+04  0.16941662423E+04  0.13006367891E+04 0.  0.
        2    1    3    3  502    0 -0.63243562215E+03 -0.14575227457E+03 -0.48916900667E+03  0.81271450018E+03  0.25500000920E-02 0. -1.
       -2    1    3    3    0  502  0.63243562215E+03  0.14575227457E+03 -0.59643828841E+03  0.88145174207E+03  0.25500000920E-02 0.  1.
</event>
<event>
 5   0  0.6052864E-04  0.1280966E+04  0.7818609E-02  0.9044797E-01
        2   -1    0    0  501    0  0.00000000000E+00  0.00000000000E+00  0.11303748130E+04  0.11303748131E+04  0.25500000920E-02 0. -1.
       -2   -1    0    0    0  501  0.00000000000E+00  0.00000000000E+00 -0.36290497016E+03  0.36290497017E+03  0.25500000920E-02 0.  1.
    10030    2    1    2    0    0  0.00000000000E+00  0.00000000000E+00  0.76746984288E+03  0.14932797832E+04  0.12809662569E+04 0.  0.
        2    1    3    3  502    0 -0.42832520860E+03 -0.42284995377E+03  0.63901459305E+03  0.87784065631E+03  0.25500000920E-02 0. -1.
       -2    1    3    3    0  502  0.42832520860E+03  0.42284995377E+03  0.12845524983E+03  0.61543912691E+03  0.25500000920E-02 0.  1.
</event>
<event>
 5   0  0.5957913E-04  0.1297478E+04  0.7818609E-02  0.9031567E-01
       -2   -1    0    0    0  501  0.00000000000E+00  0.00000000000E+00  0.41229344614E+03  0.41229344615E+03  0.25500000920E-02 0. -1.
        2   -1    0    0  501    0  0.00000000000E+00  0.00000000000E+00 -0.10207839929E+04  0.10207839929E+04  0.25500000920E-02 0.  1.
    10030    2    1    2    0    0  0.00000000000E+00  0.00000000000E+00 -0.60849054679E+03  0.14330774391E+04  0.12974784009E+04 0.  0.
        1    1    3    3  502    0 -0.37640717554E+03  0.29348246377E+03 -0.78953649580E+03  0.92259535906E+03  0.50400001928E-02 0.  1.
       -1    1    3    3    0  502  0.37640717554E+03 -0.29348246377E+03  0.18104594901E+03  0.51048208001E+03  0.50400001928E-02 0. -1.
</event>
<event>
 5   0  0.3263679E-04  0.1299826E+04  0.7818609E-02  0.9029703E-01
        1   -1    0    0  501    0  0.00000000000E+00  0.00000000000E+00  0.13210475912E+04  0.13210475912E+04  0.50400001928E-02 0. -1.
       -1   -1    0    0    0  501  0.00000000000E+00  0.00000000000E+00 -0.31973624163E+03  0.31973624167E+03  0.50400001928E-02 0.  1.
    10030    2    1    2    0    0  0.00000000000E+00  0.00000000000E+00  0.10013113496E+04  0.16407838329E+04  0.12998258220E+04 0.  0.
        2    1    3    3  502    0 -0.20015876360E+03 -0.23226165254E+03  0.12240133486E+04  0.12618310835E+04  0.25500000920E-02 0. -1.
       -2    1    3    3    0  502  0.20015876360E+03  0.23226165254E+03 -0.22270199899E+03  0.37895274936E+03  0.25500000920E-02 0.  1.
</event>
<event>
 5   0  0.5787604E-04  0.1298814E+04  0.7818609E-02  0.9030506E-01
       -2   -1    0    0    0  501  0.00000000000E+00  0.00000000000E+00  0.21161651506E+03  0.21161651508E+03  0.25500000920E-02 0.  1.
        2   -1    0    0  501    0  0.00000000000E+00  0.00000000000E+00 -0.19928950784E+04  0.19928950784E+04  0.25500000920E-02 0. -1.
    10030    2    1    2    0    0  0.00000000000E+00  0.00000000000E+00 -0.17812785634E+04  0.22045115935E+04  0.12988140920E+04 0.  0.
        4    1    3    3  502    0  0.16727165393E+03  0.13805567108E+03 -0.19296037775E+04  0.19417547543E+04  0.12699999809E+01 0. -1.
       -4    1    3    3    0  502 -0.16727165393E+03 -0.13805567108E+03  0.14832521415E+03  0.26275683926E+03  0.12699999809E+01 0.  1.
</event>
<event>
 5   0  0.6007125E-04  0.1296696E+04  0.7818609E-02  0.9032189E-01
        2   -1    0    0  501    0  0.00000000000E+00  0.00000000000E+00  0.13530553951E+04  0.13530553951E+04  0.25500000920E-02 0. -1.
       -2   -1    0    0    0  501  0.00000000000E+00  0.00000000000E+00 -0.31067118346E+03  0.31067118347E+03  0.25500000920E-02 0.  1.
    10030    2    1    2    0    0  0.00000000000E+00  0.00000000000E+00  0.10423842116E+04  0.16637265785E+04  0.12966962958E+04 0.  0.
        5    1    3    3  502    0  0.21123577226E+03  0.60825286145E+03  0.61840919184E+03  0.89277327105E+03  0.46999998093E+01 0.  1.
       -5    1    3    3    0  502 -0.21123577226E+03 -0.60825286145E+03  0.42397501975E+03  0.77095330748E+03  0.46999998093E+01 0. -1.
</event>
<event>
 5   0  0.3335747E-04  0.1304178E+04  0.7818609E-02  0.9026259E-01
        1   -1    0    0  501    0  0.00000000000E+00  0.00000000000E+00  0.72531915627E+03  0.72531915628E+03  0.50400001928E-02 0. -1.
       -1   -1    0    0    0  501  0.00000000000E+00  0.00000000000E+00 -0.58625235051E+03  0.58625235053E+03  0.50400001928E-02 0.  1.
    10030    2    1    2    0    0  0.00000000000E+00  0.00000000000E+00  0.13906680576E+03  0.13115715068E+04  0.13041779944E+04 0.  0.
        3    1    3    3  502    0  0.50563700192E+02  0.21132442990E+03  0.68784028030E+03  0.72134524595E+03  0.10100000352E+00 0. -1.
       -3    1    3    3    0  502 -0.50563700192E+02 -0.21132442990E+03 -0.54877347454E+03  0.59022626086E+03  0.10100000352E+00 0.  1.
</event>
<event>
 5   0  0.6007125E-04  0.1300064E+04  0.7818609E-02  0.9029514E-01
       -2   -1    0    0    0  501  0.00000000000E+00  0.00000000000E+00  0.29250266367E+03  0.29250266368E+03  0.25500000920E-02 0. -1.
        2   -1    0    0  501    0  0.00000000000E+00  0.00000000000E+00 -0.14445734321E+04  0.14445734321E+04  0.25500000920E-02 0.  1.
    10030    2    1    2    0    0  0.00000000000E+00  0.00000000000E+00 -0.11520707684E+04  0.17370760958E+04  0.13000639627E+04 0.  0.
        5    1    3    3  502    0 -0.42996713103E+03 -0.48742763143E+03 -0.58656105884E+03  0.87551892920E+03  0.46999998093E+01 0.  1.
       -5    1    3    3    0  502  0.42996713103E+03  0.48742763143E+03 -0.56550970961E+03  0.86155716659E+03  0.46999998093E+01 0. -1.
</event>
<event>
 5   0  0.3337520E-04  0.1307002E+04  0.7818609E-02  0.9024031E-01
       -1   -1    0    0    0  501  0.00000000000E+00  0.00000000000E+00  0.28103219403E+03  0.28103219407E+03  0.50400001928E-02 0.  1.
        1   -1    0    0  501    0  0.00000000000E+00  0.00000000000E+00 -0.15196252258E+04  0.15196252259E+04  0.50400001928E-02 0. -1.
    10030    2    1    2    0    0  0.00000000000E+00  0.00000000000E+00 -0.12385930318E+04  0.18006574199E+04  0.13070020832E+04 0.  0.
        5    1    3    3  502    0  0.21555198750E+03  0.35261026440E+03 -0.13166972488E+04  0.13800399969E+04  0.46999998093E+01 0. -1.
       -5    1    3    3    0  502 -0.21555198750E+03 -0.35261026440E+03  0.78104217004E+02  0.42061742307E+03  0.46999998093E+01 0.  1.
</event>
<event>
 5   0  0.5384960E-04  0.1288932E+04  0.7818609E-02  0.9038389E-01
       -2   -1    0    0    0  501  0.00000000000E+00  0.00000000000E+00  0.35048165896E+03  0.35048165897E+03  0.25500000920E-02 0. -1.
        2   -1    0    0  501    0  0.00000000000E+00  0.00000000000E+00 -0.11850445673E+04  0.11850445673E+04  0.25500000920E-02 0.  1.
    10030    2    1    2    0    0  0.00000000000E+00  0.00000000000E+00 -0.83456290829E+03  0.15355262262E+04  0.12889319391E+04 0.  0.
        3    1    3    3  502    0  0.31982026121E+03 -0.55839304310E+03 -0.45937702634E+03  0.79064217734E+03  0.10100000352E+00 0. -1.
       -3    1    3    3    0  502 -0.31982026121E+03  0.55839304310E+03 -0.37518588195E+03  0.74488404888E+03  0.10100000352E+00 0.  1.
</event>
<event>
 5   0  0.6052864E-04  0.1299081E+04  0.7818609E-02  0.9030294E-01
        2   -1    0    0  501    0  0.00000000000E+00  0.00000000000E+00  0.43527500983E+03  0.43527500983E+03  0.25500000920E-02 0.  1.
       -2   -1    0    0    0  501  0.00000000000E+00  0.00000000000E+00 -0.96927908175E+03  0.96927908175E+03  0.25500000920E-02 0. -1.
    10030    2    1    2    0    0  0.00000000000E+00  0.00000000000E+00 -0.53400407192E+03  0.14045540916E+04  0.12990811550E+04 0.  0.
        2    1    3    3  502    0 -0.23838414620E+03 -0.58646247487E+03 -0.42419435495E+03  0.76204073800E+03  0.25500000920E-02 0.  1.
       -2    1    3    3    0  502  0.23838414620E+03  0.58646247487E+03 -0.10980971697E+03  0.64251335359E+03  0.25500000920E-02 0. -1.
</event>
<event>
 5   0  0.3403833E-04  0.1277547E+04  0.7818609E-02  0.9047562E-01
        1   -1    0    0  501    0  0.00000000000E+00  0.00000000000E+00  0.80843627069E+03  0.80843627071E+03  0.50400001928E-02 0.  1.
       -1   -1    0    0    0  501  0.00000000000E+00  0.00000000000E+00 -0.50471723011E+03  0.50471723013E+03  0.50400001928E-02 0. -1.
    10030    2    1    2    0    0  0.00000000000E+00  0.00000000000E+00  0.30371904058E+03  0.13131535008E+04  0.12775472051E+04 0.  0.
        1    1    3    3  502    0  0.73605405673E+02 -0.47269066407E+03 -0.28323165087E+03  0.55594459052E+03  0.50400001928E-02 0. -1.
       -1    1    3    3    0  502 -0.73605405673E+02  0.47269066407E+03  0.58695069146E+03  0.75720891032E+03  0.50400001928E-02 0.  1.
</event>
<event>
 5   0  0.3403833E-04  0.1298539E+04  0.7818609E-02  0.9030725E-01
       -1   -1    0    0    0  501  0.00000000000E+00  0.00000000000E+00  0.81639223843E+03  0.81639223844E+03  0.50400001928E-02 0.  1.
        1   -1    0    0  501    0  0.00000000000E+00  0.00000000000E+00 -0.51635792712E+03  0.51635792714E+03  0.50400001928E-02 0. -1.
    10030    2    1    2    0    0  0.00000000000E+00  0.00000000000E+00  0.30003431131E+03  0.13327501656E+04  0.12985385693E+04 0.  0.
        1    1    3    3  502    0  0.76132298479E+02 -0.47201370557E+03 -0.30082525896E+03  0.56487954607E+03  0.50400001928E-02 0. -1.
       -1    1    3    3    0  502 -0.76132298479E+02  0.47201370557E+03  0.60085957027E+03  0.76787061952E+03  0.50400001928E-02 0.  1.
</event>
<event>
 5   0  0.5787604E-04  0.1298936E+04  0.7818609E-02  0.9030409E-01
        2   -1    0    0  501    0  0.00000000000E+00  0.00000000000E+00  0.20806175966E+04  0.20806175967E+04  0.25500000920E-02 0.  1.
       -2   -1    0    0    0  501  0.00000000000E+00  0.00000000000E+00 -0.20273252529E+03  0.20273252530E+03  0.25500000920E-02 0. -1.
    10030    2    1    2    0    0  0.00000000000E+00  0.00000000000E+00  0.18778850714E+04  0.22833501220E+04  0.12989362718E+04 0.  0.
        4    1    3    3  502    0  0.22199315774E+03 -0.53840682491E+03  0.43359364499E+03  0.72606331203E+03  0.12699999809E+01 0. -1.
       -4    1    3    3    0  502 -0.22199315774E+03  0.53840682491E+03  0.14442914264E+04  0.15572868099E+04  0.12699999809E+01 0.  1.
</event>
<event>
 5   0  0.5787604E-04  0.1321640E+04  0.7818609E-02  0.9012578E-01
        2   -1    0    0  501    0  0.00000000000E+00  0.00000000000E+00  0.14497789136E+04  0.14497789136E+04  0.25500000920E-02 0.  1.
       -2   -1    0    0    0  501  0.00000000000E+00  0.00000000000E+00 -0.30120687557E+03  0.30120687559E+03  0.25500000920E-02 0. -1.
    10030    2    1    2    0    0  0.00000000000E+00  0.00000000000E+00  0.11485720381E+04  0.17509857892E+04  0.13216404607E+04 0.  0.
        4    1    3    3  502    0  0.46478076332E+03  0.26612529859E+03  0.61448039866E+02  0.53909304114E+03  0.12699999809E+01 0. -1.
       -4    1    3    3    0  502 -0.46478076332E+03 -0.26612529859E+03  0.10871239982E+04  0.12118927481E+04  0.12699999809E+01 0.  1.
</event>
<event>
 5   0  0.5957913E-04  0.1305560E+04  0.7818609E-02  0.9025167E-01
        2   -1    0    0  501    0  0.00000000000E+00  0.00000000000E+00  0.10712481650E+04  0.10712481650E+04  0.25500000920E-02 0.  1.
       -2   -1    0    0    0  501  0.00000000000E+00  0.00000000000E+00 -0.39778089285E+03  0.39778089286E+03  0.25500000920E-02 0. -1.
    10030    2    1    2    0    0  0.00000000000E+00  0.00000000000E+00  0.67346727219E+03  0.14690290579E+04  0.13055604950E+04 0.  0.
        1    1    3    3  502    0 -0.57866640133E+03 -0.14947358012E+03  0.41326183948E+02  0.59908681231E+03  0.50400001928E-02 0.  1.
       -1    1    3    3    0  502  0.57866640133E+03  0.14947358012E+03  0.63214108824E+03  0.86994224558E+03  0.50400001928E-02 0. -1.
</event>
<event>
 5   0  0.6007125E-04  0.1300911E+04  0.7818609E-02  0.9028843E-01
       -2   -1    0    0    0  501  0.00000000000E+00  0.00000000000E+00  0.62283119862E+03  0.62283119863E+03  0.25500000920E-02 0. -1.
        2   -1    0    0  501    0  0.00000000000E+00  0.00000000000E+00 -0.67930529634E+03  0.67930529634E+03  0.25500000920E-02 0.  1.
    10030    2    1    2    0    0  0.00000000000E+00  0.00000000000E+00 -0.56474097713E+02  0.13021364950E+04  0.13009112682E+04 0.  0.
        5    1    3    3  502    0  0.19683645867E+03  0.13252568612E+03  0.57794276672E+03  0.62477802502E+03  0.46999998093E+01 0. -1.
       -5    1    3    3    0  502 -0.19683645867E+03 -0.13252568612E+03 -0.63441686443E+03  0.67735846995E+03  0.46999998093E+01 0.  1.
</event>
<event>
 5   0  0.3335747E-04  0.1301387E+04  0.7818609E-02  0.9028466E-01
        1   -1    0    0  501    0  0.00000000000E+00  0.00000000000E+00  0.80486793367E+03  0.80486793369E+03  0.50400001928E-02 0.  1.
       -1   -1    0    0    0  501  0.00000000000E+00  0.00000000000E+00 -0.52605178825E+03  0.52605178828E+03  0.50400001928E-02 0. -1.
    10030    2    1    2    0    0  0.00000000000E+00  0.00000000000E+00  0.27881614542E+03  0.13309197220E+04  0.13013872842E+04 0.  0.
        3    1    3    3  502    0 -0.29254506891E+03  0.36645257509E+03  0.60079125151E+03  0.76211563770E+03  0.10100000352E+00 0.  1.
       -3    1    3    3    0  502  0.29254506891E+03 -0.36645257509E+03 -0.32197510609E+03  0.56880408426E+03  0.10100000352E+00 0. -1.
</event>
<event>
 5   0  0.3403833E-04  0.1297459E+04  0.7818609E-02  0.9031582E-01
       -1   -1    0    0    0  501  0.00000000000E+00  0.00000000000E+00  0.45517671837E+03  0.45517671839E+03  0.50400001928E-02 0.  1.
        1   -1    0    0  501    0  0.00000000000E+00  0.00000000000E+00 -0.92458631470E+03  0.92458631472E+03  0.50400001928E-02 0. -1.
    10030    2    1    2    0    0  0.00000000000E+00  0.00000000000E+00 -0.46940959634E+03  0.13797630331E+04  0.12974593090E+04 0.  0.
        1    1    3    3  502    0  0.48077485051E+03  0.12919183288E+03 -0.67704138313E+03  0.84036897912E+03  0.50400001928E-02 0. -1.
       -1    1    3    3    0  502 -0.48077485051E+03 -0.12919183288E+03  0.20763178679E+03  0.53939405399E+03  0.50400001928E-02 0.  1.
</event>
<event>
 5   0  0.6052864E-04  0.1293208E+04  0.7818609E-02  0.9034969E-01
        2   -1    0    0  501    0  0.00000000000E+00  0.00000000000E+00  0.31742903282E+03  0.31742903283E+03  0.25500000920E-02 0.  1.
       -2   -1    0    0    0  501  0.00000000000E+00  0.00000000000E+00 -0.13171344017E+04  0.13171344017E+04  0.25500000920E-02 0. -1.
    10030    2    1    2    0    0  0.00000000000E+00  0.00000000000E+00 -0.99970536892E+03  0.16345634346E+04  0.12932079481E+04 0.  0.
        2    1    3    3  502    0 -0.15697409092E+03  0.20113867800E+03  0.25111317350E+03  0.35798807092E+03  0.25500000920E-02 0.  1.
       -2    1    3    3    0  502  0.15697409092E+03 -0.20113867800E+03 -0.12508185424E+04  0.12765753637E+04  0.25500000920E-02 0. -1.
</event>
<event>
 5   0  0.3337520E-04  0.1300445E+04  0.7818609E-02  0.9029212E-01
       -1   -1    0    0    0  501  0.00000000000E+00  0.00000000000E+00  0.11192532179E+04  0.11192532179E+04  0.50400001928E-02 0.  1.
        1   -1    0    0  501    0  0.00000000000E+00  0.00000000000E+00 -0.37774257753E+03  0.37774257757E+03  0.50400001928E-02 0. -1.
    10030    2    1    2    0    0  0.00000000000E+00  0.00000000000E+00  0.74151064039E+03  0.14969957955E+04  0.13004454552E+04 0.  0.
        5    1    3    3  502    0  0.65899393389E+02 -0.27677957929E+02  0.11146975442E+04  0.11169966448E+04  0.46999998093E+01 0.  1.
       -5    1    3    3    0  502 -0.65899393389E+02  0.27677957929E+02 -0.37318690379E+03  0.37999915074E+03  0.46999998093E+01 0. -1.
</event>
<event>
 5   0  0.3403833E-04  0.1306096E+04  0.7818609E-02  0.9024745E-01
        1   -1    0    0  501    0  0.00000000000E+00  0.00000000000E+00  0.14587605098E+04  0.14587605099E+04  0.50400001928E-02 0.  1.
       -1   -1    0    0    0  501  0.00000000000E+00  0.00000000000E+00 -0.29235199268E+03  0.29235199273E+03  0.50400001928E-02 0. -1.
    10030    2    1    2    0    0  0.00000000000E+00  0.00000000000E+00  0.11664085172E+04  0.17511125026E+04  0.13060957728E+04 0.  0.
        1    1    3    3  502    0  0.57441610615E+03  0.29864592578E+03  0.69797742057E+03  0.95200616155E+03  0.50400001928E-02 0.  1.
       -1    1    3    3    0  502 -0.57441610615E+03 -0.29864592578E+03  0.46843109660E+03  0.79910634103E+03  0.50400001928E-02 0. -1.
</event>
<event>
 5   0  0.3263679E-04  0.1300487E+04  0.7818609E-02  0.9029179E-01
        1   -1    0    0  501    0  0.00000000000E+00  0.00000000000E+00  0.71669067875E+03  0.71669067877E+03  0.50400001928E-02 0.  1.
       -1   -1    0    0    0  501  0.00000000000E+00  0.00000000000E+00 -0.58995659917E+03  0.58995659919E+03  0.50400001928E-02 0. -1.
    10030    2    1    2    0    0  0.00000000000E+00  0.00000000000E+00  0.12673407958E+03  0.13066472780E+04  0.13004866712E+04 0.  0.
        2    1    3    3  502    0 -0.33904140106E+03  0.45573401623E+03 -0.25463477811E+03  0.62248006828E+03  0.25500000920E-02 0. -1.
       -2    1    3    3    0  502  0.33904140106E+03 -0.45573401623E+03  0.38136885769E+03  0.68416720968E+03  0.25500000920E-02 0.  1.
</event>
<event>
 5   0  0.6052864E-04  0.1322430E+04  0.7818609E-02  0.9011965E-01
        2   -1    0    0  501    0  0.00000000000E+00  0.00000000000E+00  0.14862895493E+04  0.14862895493E+04  0.25500000920E-02 0. -1.
       -2   -1    0    0    0  501  0.00000000000E+00  0.00000000000E+00 -0.29415869087E+03  0.29415869088E+03  0.25500000920E-02 0.  1.
    10030    2    1    2    0    0  0.00000000000E+00  0.00000000000E+00  0.11921308585E+04  0.17804482402E+04  0.13224295643E+04 0.  0.
        2    1    3    3  502    0 -0.15394614428E+03 -0.44210194703E+03  0.12247550401E+04  0.13111744565E+04  0.25500000920E-02 0. -1.
       -2    1    3    3    0  502  0.15394614428E+03  0.44210194703E+03 -0.32624181662E+02  0.46927378378E+03  0.25500000920E-02 0.  1.
</event>
<event>
 5   0  0.5384960E-04  0.1302587E+04  0.7818609E-02  0.9027516E-01
        2   -1    0    0  501    0  0.00000000000E+00  0.00000000000E+00  0.12023732127E+04  0.12023732127E+04  0.25500000920E-02 0. -1.
       -2   -1    0    0    0  501  0.00000000000E+00  0.00000000000E+00 -0.35278823130E+03  0.35278823131E+03  0.25500000920E-02 0.  1.
    10030    2    1    2    0    0  0.00000000000E+00  0.00000000000E+00  0.84958498144E+03  0.15551614441E+04  0.13025868402E+04 0.  0.
        3    1    3    3  502    0 -0.22609656077E+03 -0.60462007395E+03  0.32141116440E+03  0.72110348454E+03  0.10100000352E+00 0. -1.
       -3    1    3    3    0  502  0.22609656077E+03  0.60462007395E+03  0.52817381705E+03  0.83405795951E+03  0.10100000352E+00 0.  1.
</event>
<event>
 5   0  0.3337520E-04  0.1296482E+04  0.7818609E-02  0.9032360E-01
       -1   -1    0    0    0  501  0.00000000000E+00  0.00000000000E+00  0.84199617026E+03  0.84199617028E+03  0.50400001928E-02 0. -1.
        1   -1    0    0  501    0  0.00000000000E+00  0.00000000000E+00 -0.49907134124E+03  0.49907134127E+03  0.50400001928E-02 0.  1.
    10030    2    1    2    0    0  0.00000000000E+00  0.00000000000E+00  0.34292482902E+03  0.13410675115E+04  0.12964816359E+04 0.  0.
        5    1    3    3  502    0  0.13649647518E+02  0.14660859070E+03  0.82445144712E+03  0.83750980316E+03  0.46999998093E+01 0. -1.
       -5    1    3    3    0  502 -0.13649647518E+02 -0.14660859070E+03 -0.48152661810E+03  0.50355770839E+03  0.46999998093E+01 0.  1.
</event>
<event>
 5   0  0.3403833E-04  0.1300626E+04  0.7818609E-02  0.9029069E-01
        1   -1    0    0  501    0  0.00000000000E+00  0.00000000000E+00  0.60614833181E+03  0.60614833183E+03  0.50400001928E-02 0.  1.
       -1   -1    0    0    0  501  0.00000000000E+00  0.00000000000E+00 -0.69769554534E+03  0.69769554536E+03  0.50400001928E-02 0. -1.
    10030    2    1    2    0    0  0.00000000000E+00  0.00000000000E+00 -0.91547213526E+02  0.13038438772E+04  0.13006259892E+04 0.  0.
        1    1    3    3  502    0  0.48241097627E+03 -0.35973170283E+03 -0.29291904188E+03  0.66927484128E+03  0.50400001928E-02 0.  1.
       -1    1    3    3    0  502 -0.48241097627E+03  0.35973170283E+03  0.20137182836E+03  0.63456903591E+03  0.50400001928E-02 0. -1.
</event>
<event>
 5   0  0.3335747E-04  0.1298487E+04  0.7818609E-02  0.9030766E-01
        1   -1    0    0  501    0  0.00000000000E+00  0.00000000000E+00  0.43503944428E+03  0.43503944431E+03  0.50400001928E-02 0. -1.
       -1   -1    0    0    0  501  0.00000000000E+00  0.00000000000E+00 -0.96891751313E+03  0.96891751315E+03  0.50400001928E-02 0.  1.
    10030    2    1    2    0    0  0.00000000000E+00  0.00000000000E+00 -0.53387806885E+03  0.14039569575E+04  0.12984873299E+04 0.  0.
        3    1    3    3  502    0  0.45588863876E+03  0.24490071273E+03  0.15695979449E+03  0.54078387303E+03  0.10100000352E+00 0. -1.
       -3    1    3    3    0  502 -0.45588863876E+03 -0.24490071273E+03 -0.69083786335E+03  0.86317308443E+03  0.10100000352E+00 0.  1.
</event>
<event>
 5   0  0.6007125E-04  0.1298725E+04  0.7818609E-02  0.9030577E-01
        2   -1    0    0  501    0  0.00000000000E+00  0.00000000000E+00  0.63204351448E+03  0.63204351448E+03  0.25500000920E-02 0.  1.
       -2   -1    0    0    0  501  0.00000000000E+00  0.00000000000E+00 -0.66715560408E+03  0.66715560409E+03  0.25500000920E-02 0. -1.
    10030    2    1    2    0    0  0.00000000000E+00  0.00000000000E+00 -0.35112089605E+02  0.12991991186E+04  0.12987245631E+04 0.  0.
        5    1    3    3  502    0  0.35414612493E+03  0.27692585818E+03 -0.48628021209E+03  0.66226727490E+03  0.46999998093E+01 0. -1.
       -5    1    3    3    0  502 -0.35414612493E+03 -0.27692585818E+03  0.45116812248E+03  0.63693184367E+03  0.46999998093E+01 0.  1.
</event>
<event>
 5   0  0.3337520E-04  0.1314825E+04  0.7818609E-02  0.9017891E-01
        1   -1    0    0  501    0  0.00000000000E+00  0.00000000000E+00  0.16354145415E+04  0.16354145415E+04  0.50400001928E-02 0.  1.
       -1   -1    0    0    0  501  0.00000000000E+00  0.00000000000E+00 -0.26427016708E+03  0.26427016712E+03  0.50400001928E-02 0. -1.
    10030    2    1    2    0    0  0.00000000000E+00  0.00000000000E+00  0.13711443745E+04  0.18996847087E+04  0.13148251202E+04 0.  0.
        5    1    3    3  502    0 -0.15136906942E+03 -0.38216758258E+02 -0.23707370233E+03  0.28389988750E+03  0.46999998093E+01 0. -1.
       -5    1    3    3    0  502  0.15136906942E+03  0.38216758258E+02  0.16082180768E+04  0.16157848212E+04  0.46999998093E+01 0.  1.
</event>
<event>
 5   0  0.6052864E-04  0.1297780E+04  0.7818609E-02  0.9031327E-01
        2   -1    0    0  501    0  0.00000000000E+00  0.00000000000E+00  0.77196528962E+03  0.77196528963E+03  0.25500000920E-02 0.  1.
       -2   -1    0    0    0  501  0.00000000000E+00  0.00000000000E+00 -0.54543705972E+03  0.54543705973E+03  0.25500000920E-02 0. -1.
    10030    2    1    2    0    0  0.00000000000E+00  0.00000000000E+00  0.22652822990E+03  0.13174023494E+04  0.12977803786E+04 0.  0.
        2    1    3    3  502    0  0.40032927114E+03 -0.50126889101E+03  0.14195243894E+02  0.64166621492E+03  0.25500000920E-02 0. -1.
       -2    1    3    3    0  502 -0.40032927114E+03  0.50126889101E+03  0.21233298601E+03  0.67573613443E+03  0.25500000920E-02 0.  1.
</event>
<event>
 5   0  0.6052864E-04  0.1298280E+04  0.7818609E-02  0.9030931E-01
       -2   -1    0    0    0  501  0.00000000000E+00  0.00000000000E+00  0.18980638988E+03  0.18980638990E+03  0.25500000920E-02 0. -1.
        2   -1    0    0  501    0  0.00000000000E+00  0.00000000000E+00 -0.22200650379E+04  0.22200650379E+04  0.25500000920E-02 0.  1.
    10030    2    1    2    0    0  0.00000000000E+00  0.00000000000E+00 -0.20302586481E+04  0.24098714278E+04  0.12982796774E+04 0.  0.
        2    1    3    3  502    0  0.60871933919E+03  0.17939355885E+03 -0.12686982014E+04  0.14185613871E+04  0.25500000920E-02 0. -1.
       -2    1    3    3    0  502 -0.60871933919E+03 -0.17939355885E+03 -0.76156044669E+03  0.99131004072E+03  0.25500000920E-02 0.  1.
</event>
<event>
 5   0  0.6007125E-04  0.1304815E+04  0.7818609E-02  0.9025755E-01
        2   -1    0    0  501    0  0.00000000000E+00  0.00000000000E+00  0.16049839286E+04  0.16049839286E+04  0.25500000920E-02 0. -1.
       -2   -1    0    0    0  501  0.00000000000E+00  0.00000000000E+00 -0.26519622313E+03  0.26519622314E+03  0.25500000920E-02 0.  1.
    10030    2    1    2    0    0  0.00000000000E+00  0.00000000000E+00  0.13397877054E+04  0.18701801517E+04  0.13048151992E+04 0.  0.
        5    1    3    3  502    0  0.21461554785E+03 -0.32393274249E+03 -0.81212733832E+02  0.39700107452E+03  0.46999998093E+01 0.  1.
       -5    1    3    3    0  502 -0.21461554785E+03  0.32393274249E+03  0.14210004393E+04  0.14731790772E+04  0.46999998093E+01 0. -1.
</event>
<event>
 5   0  0.5957913E-04  0.1300334E+04  0.7818609E-02  0.9029300E-01
        2   -1    0    0  501    0  0.00000000000E+00  0.00000000000E+00  0.67913045978E+03  0.67913045978E+03  0.25500000920E-02 0. -1.
       -2   -1    0    0    0  501  0.00000000000E+00  0.00000000000E+00 -0.62243915418E+03  0.62243915419E+03  0.25500000920E-02 0.  1.
    10030    2    1    2    0    0  0.00000000000E+00  0.00000000000E+00  0.56691305591E+02  0.13015696140E+04  0.13003344016E+04 0.  0.
        1    1    3    3  502    0 -0.46803810903E+02  0.62370503177E+03 -0.14935841211E+03  0.64304470969E+03  0.50400001928E-02 0.  1.
       -1    1    3    3    0  502  0.46803810903E+02 -0.62370503177E+03  0.20604971770E+03  0.65852490428E+03  0.50400001928E-02 0. -1.
</event>
<event>
 5   0  0.6052864E-04  0.1298978E+04  0.7818609E-02  0.9030376E-01
       -2   -1    0    0    0  501  0.00000000000E+00  0.00000000000E+00  0.16446612835E+03  0.16446612837E+03  0.25500000920E-02 0. -1.
        2   -1    0    0  501    0  0.00000000000E+00  0.00000000000E+00 -0.25648796506E+04  0.25648796506E+04  0.25500000920E-02 0.  1.
    10030    2    1    2    0    0  0.00000000000E+00  0.00000000000E+00 -0.24004135222E+04  0.27293457790E+04  0.12989777917E+04 0.  0.
        2    1    3    3  502    0 -0.57132006688E+03 -0.26295145192E+03 -0.85955005301E+03  0.10650710674E+04  0.25500000920E-02 0.  1.
       -2    1    3    3    0  502  0.57132006688E+03  0.26295145192E+03 -0.15408634692E+04  0.16642747116E+04  0.25500000920E-02 0. -1.
</event>
<event>
 5   0  0.5957913E-04  0.1302271E+04  0.7818609E-02  0.9027766E-01
       -2   -1    0    0    0  501  0.00000000000E+00  0.00000000000E+00  0.75975074374E+03  0.75975074374E+03  0.25500000920E-02 0. -1.
        2   -1    0    0  501    0  0.00000000000E+00  0.00000000000E+00 -0.55804824598E+03  0.55804824599E+03  0.25500000920E-02 0.  1.
    10030    2    1    2    0    0  0.00000000000E+00  0.00000000000E+00  0.20170249775E+03  0.13177989897E+04  0.13022712005E+04 0.  0.
        1    1    3    3  502    0  0.33915049399E+03  0.23709411458E+03  0.60957907360E+03  0.73676544690E+03  0.50400001928E-02 0. -1.
       -1    1    3    3    0  502 -0.33915049399E+03 -0.23709411458E+03 -0.40787657585E+03  0.58103354283E+03  0.50400001928E-02 0.  1.
</event>
<event>
 5   0  0.3263679E-04  0.1311566E+04  0.7818609E-02  0.9020443E-01
        1   -1    0    0  501    0  0.00000000000E+00  0.00000000000E+00  0.12779408296E+04  0.12779408296E+04  0.50400001928E-02 0.  1.
       -1   -1    0    0    0  501  0.00000000000E+00  0.00000000000E+00 -0.33651919661E+03  0.33651919665E+03  0.50400001928E-02 0. -1.
    10030    2    1    2    0    0  0.00000000000E+00  0.00000000000E+00  0.94142163301E+03  0.16144600263E+04  0.13115664243E+04 0.  0.
        2    1    3    3  502    0  0.51162116506E+03  0.12380078673E+03  0.95214662950E+03  0.10879641793E+04  0.25500000920E-02 0.  1.
       -2    1    3    3    0  502 -0.51162116506E+03 -0.12380078673E+03 -0.10724996495E+02  0.52649584698E+03  0.25500000920E-02 0. -1.
</event>
<event>
 5   0  0.3274879E-04  0.1298864E+04  0.7818609E-02  0.9030467E-01
        1   -1    0    0  501    0  0.00000000000E+00  0.00000000000E+00  0.19648224515E+04  0.19648224515E+04  0.50400001928E-02 0.  1.
       -1   -1    0    0    0  501  0.00000000000E+00  0.00000000000E+00 -0.21465649269E+03  0.21465649275E+03  0.50400001928E-02 0. -1.
    10030    2    1    2    0    0  0.00000000000E+00  0.00000000000E+00  0.17501659588E+04  0.21794789442E+04  0.12988639594E+04 0.  0.
        4    1    3    3  502    0  0.68974802653E+02  0.50667887907E+03  0.15468639445E+04  0.16291932622E+04  0.12699999809E+01 0.  1.
       -4    1    3    3    0  502 -0.68974802653E+02 -0.50667887907E+03  0.20330201422E+03  0.55028568197E+03  0.12699999809E+01 0. -1.
</event>
<event>
 5   0  0.3274879E-04  0.1311765E+04  0.7818609E-02  0.9020287E-01
       -1   -1    0    0    0  501  0.00000000000E+00  0.00000000000E+00  0.85026089451E+03  0.85026089453E+03  0.50400001928E-02 0.  1.
        1   -1    0    0  501    0  0.00000000000E+00  0.00000000000E+00 -0.50594130813E+03  0.50594130816E+03  0.50400001928E-02 0. -1.
    10030    2    1    2    0    0  0.00000000000E+00  0.00000000000E+00  0.34431958638E+03  0.13562022027E+04  0.13117653895E+04 0.  0.
        4    1    3    3  502    0  0.12897973436E+03 -0.62216445062E+03  0.34032314706E+03  0.72079527802E+03  0.12699999809E+01 0.  1.
       -4    1    3    3    0  502 -0.12897973436E+03  0.62216445062E+03  0.39964393186E+01  0.63540692467E+03  0.12699999809E+01 0. -1.
</event>
<event>
 5   0  0.5787604E-04  0.1318419E+04  0.7818609E-02  0.9015085E-01
        2   -1    0    0  501    0  0.00000000000E+00  0.00000000000E+00  0.10832021101E+04  0.10832021101E+04  0.25500000920E-02 0. -1.
       -2   -1    0    0    0  501  0.00000000000E+00  0.00000000000E+00 -0.40117819874E+03  0.40117819875E+03  0.25500000920E-02 0.  1.
    10030    2    1    2    0    0  0.00000000000E+00  0.00000000000E+00  0.68202391134E+03  0.14843803088E+04  0.13184188582E+04 0.  0.
        4    1    3    3  502    0 -0.49410400092E+03 -0.41643399717E+03  0.48780613665E+03  0.80963725061E+03  0.12699999809E+01 0. -1.
       -4    1    3    3    0  502  0.49410400092E+03  0.41643399717E+03  0.19421777469E+03  0.67474305823E+03  0.12699999809E+01 0.  1.
</event>
<event>
 5   0  0.3337520E-04  0.1304423E+04  0.7818609E-02  0.9026065E-01
       -1   -1    0    0    0  501  0.00000000000E+00  0.00000000000E+00  0.56299851270E+03  0.56299851273E+03  0.50400001928E-02 0. -1.
        1   -1    0    0  501    0  0.00000000000E+00  0.00000000000E+00 -0.75556142223E+03  0.75556142225E+03  0.50400001928E-02 0.  1.
    10030    2    1    2    0    0  0.00000000000E+00  0.00000000000E+00 -0.19256290953E+03  0.13185599350E+04  0.13044231783E+04 0.  0.
        5    1    3    3  502    0 -0.31104633488E+03 -0.22763019966E+03  0.43553106382E+03  0.58161389924E+03  0.46999998093E+01 0. -1.
       -5    1    3    3    0  502  0.31104633488E+03  0.22763019966E+03 -0.62809397334E+03  0.73694603574E+03  0.46999998093E+01 0.  1.
</event>
<event>
 5   0  0.3263679E-04  0.1297128E+04  0.7818609E-02  0.9031846E-01
        1   -1    0    0  501    0  0.00000000000E+00  0.00000000000E+00  0.15035296234E+04  0.15035296234E+04  0.50400001928E-02 0. -1.
       -1   -1    0    0    0  501  0.00000000000E+00  0.00000000000E+00 -0.27976512381E+03  0.27976512385E+03  0.50400001928E-02 0.  1.
    10030    2    1    2    0    0  0.00000000000E+00  0.00000000000E+00  0.12237644996E+04  0.17832947472E+04  0.12971278291E+04 0.  0.
        2    1    3    3  502    0 -0.52521410198E+03  0.30138422832E+03  0.29254650810E+03  0.67250707462E+03  0.25500000920E-02 0.  1.
       -2    1    3    3    0  502  0.52521410198E+03 -0.30138422832E+03  0.93121799146E+03  0.11107876726E+04  0.25500000920E-02 0. -1.
</event>
<event>
 5   0  0.3274879E-04  0.1297860E+04  0.7818609E-02  0.9031264E-01
       -1   -1    0    0    0  501  0.00000000000E+00  0.00000000000E+00  0.36020428941E+03  0.36020428944E+03  0.50400001928E-02 0.  1.
        1   -1    0    0  501    0  0.00000000000E+00  0.00000000000E+00 -0.11690876112E+04  0.11690876113E+04  0.50400001928E-02 0. -1.
    10030    2    1    2    0    0  0.00000000000E+00  0.00000000000E+00 -0.80888332184E+03  0.15292919007E+04  0.12978603504E+04 0.  0.
        4    1    3    3  502    0  0.10882424077E+03 -0.63598823584E+03 -0.48595032084E+03  0.80775805705E+03  0.12699999809E+01 0.  1.
       -4    1    3    3    0  502 -0.10882424077E+03  0.63598823584E+03 -0.32293300101E+03  0.72153384365E+03  0.12699999809E+01 0. -1.
</event>
<event>
 5   0  0.3274879E-04  0.1304478E+04  0.7818609E-02  0.9026022E-01
        1   -1    0    0  501    0  0.00000000000E+00  0.00000000000E+00  0.17626378753E+04  0.17626378753E+04  0.50400001928E-02 0. -1.
       -1   -1    0    0    0  501  0.00000000000E+00  0.00000000000E+00 -0.24135175799E+03  0.24135175804E+03  0.50400001928E-02 0.  1.
    10030    2    1    2    0    0  0.00000000000E+00  0.00000000000E+00  0.15212861173E+04  0.20039896333E+04  0.13044780565E+04 0.  0.
        4    1    3    3  502    0 -0.42356443457E+03 -0.45371574140E+02  0.18768686817E+01  0.42599359796E+03  0.12699999809E+01 0.  1.
       -4    1    3    3    0  502  0.42356443457E+03  0.45371574140E+02  0.15194092486E+04  0.15779960353E+04  0.12699999809E+01 0. -1.
</event>
<event>
 5   0  0.5384960E-04  0.1270278E+04  0.7818609E-02  0.9053473E-01
        2   -1    0    0  501    0  0.00000000000E+00  0.00000000000E+00  0.35557535844E+03  0.35557535845E+03  0.25500000920E-02 0. -1.
       -2   -1    0    0    0  501  0.00000000000E+00  0.00000000000E+00 -0.11345037507E+04  0.11345037507E+04  0.25500000920E-02 0.  1.
    10030    2    1    2    0    0  0.00000000000E+00  0.00000000000E+00 -0.77892839229E+03  0.14900791092E+04  0.12702780449E+04 0.  0.
        3    1    3    3  502    0 -0.37108841108E+03 -0.50862565234E+03 -0.48757152035E+03  0.79632446949E+03  0.10100000352E+00 0. -1.
       -3    1    3    3    0  502  0.37108841108E+03  0.50862565234E+03 -0.29135687194E+03  0.69375463968E+03  0.10100000352E+00 0.  1.
</event>
<event>
 5   0  0.3263679E-04  0.1303191E+04  0.7818609E-02  0.9027039E-01
        1   -1    0    0  501    0  0.00000000000E+00  0.00000000000E+00  0.86095882757E+03  0.86095882758E+03  0.50400001928E-02 0.  1.
       -1   -1    0    0    0  501  0.00000000000E+00  0.00000000000E+00 -0.49314376111E+03  0.49314376113E+03  0.50400001928E-02 0. -1.
    10030    2    1    2    0    0  0.00000000000E+00  0.00000000000E+00  0.36781506646E+03  0.13541025887E+04  0.13031906605E+04 0.  0.
        2    1    3    3  502    0  0.15904314081E+03  0.10210720822E+03 -0.46403716423E+03  0.50104998992E+03  0.25500000920E-02 0. -1.
       -2    1    3    3    0  502 -0.15904314081E+03 -0.10210720822E+03  0.83185223068E+03  0.85305259879E+03  0.25500000920E-02 0.  1.
</event>
<event>
 5   0  0.5384960E-04  0.1304006E+04  0.7818609E-02  0.9026395E-01
       -2   -1    0    0    0  501  0.00000000000E+00  0.00000000000E+00  0.43767148438E+03  0.43767148439E+03  0.25500000920E-02 0. -1.
        2   -1    0    0  501    0  0.00000000000E+00  0.00000000000E+00 -0.97129390757E+03  0.97129390758E+03  0.25500000920E-02 0.  1.
    10030    2    1    2    0    0  0.00000000000E+00  0.00000000000E+00 -0.53362242319E+03  0.14089653920E+04  0.13040055925E+04 0.  0.
        3    1    3    3  502    0 -0.42330034398E+03  0.34014362508E+03  0.12310474206E+03  0.55680845415E+03  0.10100000352E+00 0. -1.
       -3    1    3    3    0  502  0.42330034398E+03 -0.34014362508E+03 -0.65672716525E+03  0.85215693782E+03  0.10100000352E+00 0.  1.
</event>
<event>
 5   0  0.3337520E-04  0.1307402E+04  0.7818609E-02  0.9023716E-01
        1   -1    0    0  501    0  0.00000000000E+00  0.00000000000E+00  0.14989517465E+04  0.14989517465E+04  0.50400001928E-02 0.  1.
       -1   -1    0    0    0  501  0.00000000000E+00  0.00000000000E+00 -0.28508235113E+03  0.28508235118E+03  0.50400001928E-02 0. -1.
    10030    2    1    2    0    0  0.00000000000E+00  0.00000000000E+00  0.12138693953E+04  0.17840340977E+04  0.13074015270E+04 0.  0.
        5    1    3    3  502    0  0.17862716374E+02  0.77558863171E+02 -0.27842302380E+03  0.28961340451E+03  0.46999998093E+01 0. -1.
       -5    1    3    3    0  502 -0.17862716374E+02 -0.77558863171E+02  0.14922924191E+04  0.14944206932E+04  0.46999998093E+01 0.  1.
</event>
<event>
 5   0  0.5384960E-04  0.1302331E+04  0.7818609E-02  0.9027719E-01
       -2   -1    0    0    0  501  0.00000000000E+00  0.00000000000E+00  0.19723540502E+03  0.19723540504E+03  0.25500000920E-02 0. -1.
        2   -1    0    0  501    0  0.00000000000E+00  0.00000000000E+00 -0.21497999286E+04  0.21497999286E+04  0.25500000920E-02 0.  1.
    10030    2    1    2    0    0  0.00000000000E+00  0.00000000000E+00 -0.19525645236E+04  0.23470353337E+04  0.13023312323E+04 0.  0.
        3    1    3    3  502    0 -0.22206596233E+03  0.35418748460E+03 -0.76536626420E+02  0.42499403674E+03  0.10100000352E+00 0. -1.
       -3    1    3    3    0  502  0.22206596233E+03 -0.35418748460E+03 -0.18760278972E+04  0.19220412969E+04  0.10100000352E+00 0.  1.
</event>
<event>
 5   0  0.3403833E-04  0.1298921E+04  0.7818609E-02  0.9030421E-01
       -1   -1    0    0    0  501  0.00000000000E+00  0.00000000000E+00  0.72573693789E+03  0.72573693791E+03  0.50400001928E-02 0. -1.
        1   -1    0    0  501    0  0.00000000000E+00  0.00000000000E+00 -0.58120078991E+03  0.58120078994E+03  0.50400001928E-02 0.  1.
    10030    2    1    2    0    0  0.00000000000E+00  0.00000000000E+00  0.14453614798E+03  0.13069377278E+04  0.12989209084E+04 0.  0.
        1    1    3    3  502    0 -0.53622712678E+03  0.27027048628E+03  0.32120812832E+03  0.68099950732E+03  0.50400001928E-02 0. -1.
       -1    1    3    3    0  502  0.53622712678E+03 -0.27027048628E+03 -0.17667198035E+03  0.62593822052E+03  0.50400001928E-02 0.  1.
</event>
<event>
 5   0  0.3337520E-04  0.1306062E+04  0.7818609E-02  0.9024771E-01
        1   -1    0    0  501    0  0.00000000000E+00  0.00000000000E+00  0.43867794971E+03  0.43867794974E+03  0.50400001928E-02 0. -1.
       -1   -1    0    0    0  501  0.00000000000E+00  0.00000000000E+00 -0.97212488931E+03  0.97212488932E+03  0.50400001928E-02 0.  1.
    10030    2    1    2    0    0  0.00000000000E+00  0.00000000000E+00 -0.53344693960E+03  0.14108028391E+04  0.13060624079E+04 0.  0.
        5    1    3    3  502    0 -0.35135173449E+03  0.22382573599E+03 -0.80992509922E+03  0.91079457496E+03  0.46999998093E+01 0.  1.
       -5    1    3    3    0  502  0.35135173449E+03 -0.22382573599E+03  0.27647815962E+03  0.50000826410E+03  0.46999998093E+01 0. -1.
</event>
<event>
 5   0  0.5384960E-04  0.1299394E+04  0.7818609E-02  0.9030045E-01
       -2   -1    0    0    0  501  0.00000000000E+00  0.00000000000E+00  0.98805113650E+03  0.98805113650E+03  0.25500000920E-02 0. -1.
        2   -1    0    0  501    0  0.00000000000E+00  0.00000000000E+00 -0.42721118414E+03  0.42721118415E+03  0.25500000920E-02 0.  1.
    10030    2    1    2    0    0  0.00000000000E+00  0.00000000000E+00  0.56083995235E+03  0.14152623207E+04  0.12993944682E+04 0.  0.
        3    1    3    3  502    0  0.44439603731E+03  0.80575670686E+02  0.78910605989E+03  0.90921320967E+03  0.10100000352E+00 0.  1.
       -3    1    3    3    0  502 -0.44439603731E+03 -0.80575670686E+02 -0.22826610753E+03  0.50604911099E+03  0.10100000352E+00 0. -1.
</event>
<event>
 5   0  0.3403833E-04  0.1300065E+04  0.7818609E-02  0.9029514E-01
        1   -1    0    0  501    0  0.00000000000E+00  0.00000000000E+00  0.11004579398E+04  0.11004579398E+04  0.50400001928E-02 0. -1.
       -1   -1    0    0    0  501  0.00000000000E+00  0.00000000000E+00 -0.38396947653E+03  0.38396947656E+03  0.50400001928E-02 0.  1.
    10030    2    1    2    0    0  0.00000000000E+00  0.00000000000E+00  0.71648846330E+03  0.14844274164E+04  0.13000650124E+04 0.  0.
        1    1    3    3  502    0 -0.17375730029E+03  0.37322795687E+03  0.93262302745E+03  0.10194490760E+04  0.50400001928E-02 0. -1.
       -1    1    3    3    0  502  0.17375730029E+03 -0.37322795687E+03 -0.21613456415E+03  0.46497834040E+03  0.50400001928E-02 0.  1.
</event>
<event>
 5   0  0.3263679E-04  0.1321374E+04  0.7818609E-02  0.9012785E-01
       -1   -1    0    0    0  501  0.00000000000E+00  0.00000000000E+00  0.52438765124E+03  0.52438765126E+03  0.50400001928E-02 0.  1.
        1   -1    0    0  501    0  0.00000000000E+00  0.00000000000E+00 -0.83241319808E+03  0.83241319810E+03  0.50400001928E-02 0. -1.
    10030    2    1    2    0    0  0.00000000000E+00  0.00000000000E+00 -0.30802554685E+03  0.13568008494E+04  0.13213738333E+04 0.  0.
        2    1    3    3  502    0 -0.25502441730E+03  0.55889488523E+03 -0.40364872358E+03  0.73507362775E+03  0.25500000920E-02 0. -1.
       -2    1    3    3    0  502  0.25502441730E+03 -0.55889488523E+03  0.95623176730E+02  0.62172722161E+03  0.25500000920E-02 0.  1.
</event>
<event>
 5   0  0.6052864E-04  0.1327286E+04  0.7818609E-02  0.9008202E-01
        2   -1    0    0  501    0  0.00000000000E+00  0.00000000000E+00  0.18473329601E+04  0.18473329601E+04  0.25500000920E-02 0.  1.
       -2   -1    0    0    0  501  0.00000000000E+00  0.00000000000E+00 -0.23840981255E+03  0.23840981256E+03  0.25500000920E-02 0. -1.
    10030    2    1    2    0    0  0.00000000000E+00  0.00000000000E+00  0.16089231475E+04  0.20857427726E+04  0.13272864118E+04 0.  0.
        2    1    3    3  502    0  0.54321125025E+03 -0.18414458206E+03  0.27988830259E+03  0.63822030008E+03  0.25500000920E-02 0. -1.
       -2    1    3    3    0  502 -0.54321125025E+03  0.18414458206E+03  0.13290348449E+04  0.14475224725E+04  0.25500000920E-02 0.  1.
</event>
<event>
 5   0  0.6052864E-04  0.1306406E+04  0.7818609E-02  0.9024500E-01
       -2   -1    0    0    0  501  0.00000000000E+00  0.00000000000E+00  0.32370673756E+03  0.32370673757E+03  0.25500000920E-02 0.  1.
        2   -1    0    0  501    0  0.00000000000E+00  0.00000000000E+00 -0.13180891119E+04  0.13180891119E+04  0.25500000920E-02 0. -1.
    10030    2    1    2    0    0  0.00000000000E+00  0.00000000000E+00 -0.99438237435E+03  0.16417958495E+04  0.13064062557E+04 0.  0.
        2    1    3    3  502    0 -0.55467819229E+02  0.27015801180E+03 -0.12413308847E+04  0.12715991490E+04  0.25500000920E-02 0. -1.
       -2    1    3    3    0  502  0.55467819229E+02 -0.27015801180E+03  0.24694851035E+03  0.37019670053E+03  0.25500000920E-02 0.  1.
</event>
<event>
 5   0  0.5787604E-04  0.1304075E+04  0.7818609E-02  0.9026340E-01
       -2   -1    0    0    0  501  0.00000000000E+00  0.00000000000E+00  0.67020153160E+03  0.67020153160E+03  0.25500000920E-02 0.  1.
        2   -1    0    0  501    0  0.00000000000E+00  0.00000000000E+00 -0.63436554804E+03  0.63436554804E+03  0.25500000920E-02 0. -1.
    10030    2    1    2    0    0  0.00000000000E+00  0.00000000000E+00  0.35835983560E+02  0.13045670796E+04  0.13040747860E+04 0.  0.
        4    1    3    3  502    0  0.37544321730E+02 -0.42235156723E+03  0.51344398595E+03  0.66589545880E+03  0.12699999809E+01 0.  1.
       -4    1    3    3    0  502 -0.37544321730E+02  0.42235156723E+03 -0.47760800239E+03  0.63867162085E+03  0.12699999809E+01 0. -1.
</event>
<event>
 5   0  0.5957913E-04  0.1299754E+04  0.7818609E-02  0.9029760E-01
       -2   -1    0    0    0  501  0.00000000000E+00  0.00000000000E+00  0.30172291849E+03  0.30172291850E+03  0.25500000920E-02 0. -1.
        2   -1    0    0  501    0  0.00000000000E+00  0.00000000000E+00 -0.13997625317E+04  0.13997625317E+04  0.25500000920E-02 0.  1.
    10030    2    1    2    0    0  0.00000000000E+00  0.00000000000E+00 -0.10980396132E+04  0.17014854502E+04  0.12997544941E+04 0.  0.
        1    1    3    3  502    0  0.56057800905E+03 -0.35933484138E+02 -0.12120518645E+03  0.57465608564E+03  0.50400001928E-02 0. -1.
       -1    1    3    3    0  502 -0.56057800905E+03  0.35933484138E+02 -0.97683442672E+03  0.11268293645E+04  0.50400001928E-02 0.  1.
</event>
<event>
 5   0  0.6007125E-04  0.1304931E+04  0.7818609E-02  0.9025664E-01
       -2   -1    0    0    0  501  0.00000000000E+00  0.00000000000E+00  0.62335906807E+03  0.62335906807E+03  0.25500000920E-02 0. -1.
        2   -1    0    0  501    0  0.00000000000E+00  0.00000000000E+00 -0.68293075585E+03  0.68293075585E+03  0.25500000920E-02 0.  1.
    10030    2    1    2    0    0  0.00000000000E+00  0.00000000000E+00 -0.59571687776E+02  0.13062898239E+04  0.13049307714E+04 0.  0.
        5    1    3    3  502    0  0.61006461858E+02  0.43682754752E+03  0.45149434176E+03  0.63119674056E+03  0.46999998093E+01 0. -1.
       -5    1    3    3    0  502 -0.61006461858E+02 -0.43682754752E+03 -0.51106602953E+03  0.67509308336E+03  0.46999998093E+01 0.  1.
</event>
<event>
 5   0  0.5787604E-04  0.1299348E+04  0.7818609E-02  0.9030082E-01
       -2   -1    0    0    0  501  0.00000000000E+00  0.00000000000E+00  0.19598609472E+03  0.19598609474E+03  0.25500000920E-02 0.  1.
        2   -1    0    0  501    0  0.00000000000E+00  0.00000000000E+00 -0.21536044396E+04  0.21536044397E+04  0.25500000920E-02 0. -1.
    10030    2    1    2    0    0  0.00000000000E+00  0.00000000000E+00 -0.19576183449E+04  0.23495905344E+04  0.12993483347E+04 0.  0.
        4    1    3    3  502    0  0.34804519189E+03 -0.28458919167E+03 -0.13074827350E+03  0.46821275883E+03  0.12699999809E+01 0.  1.
       -4    1    3    3    0  502 -0.34804519189E+03  0.28458919167E+03 -0.18268700714E+04  0.18813777756E+04  0.12699999809E+01 0. -1.
</event>
<event>
 5   0  0.5384960E-04  0.1286793E+04  0.7818609E-02  0.9040104E-01
        2   -1    0    0  501    0  0.00000000000E+00  0.00000000000E+00  0.15143981851E+04  0.15143981851E+04  0.25500000920E-02 0. -1.
       -2   -1    0    0    0  501  0.00000000000E+00  0.00000000000E+00 -0.27334894866E+03  0.27334894867E+03  0.25500000920E-02 0.  1.
    10030    2    1    2    0    0  0.00000000000E+00  0.00000000000E+00  0.12410492365E+04  0.17877471338E+04  0.12867931485E+04 0.  0.
        3    1    3    3  502    0  0.14773184145E+03  0.23760786447E+03  0.14254546092E+04  0.14526537947E+04  0.10100000352E+00 0. -1.
       -3    1    3    3    0  502 -0.14773184145E+03 -0.23760786447E+03 -0.18440537270E+03  0.33509333911E+03  0.10100000352E+00 0.  1.
</event>
<event>
 5   0  0.2255875E-04  0.1301723E+04  0.7818609E-02  0.9028200E-01
        3   -1    0    0  501    0  0.00000000000E+00  0.00000000000E+00  0.22015072217E+03  0.22015074534E+03  0.10100000352E+00 0.  1.
       -3   -1    0    0    0  501  0.00000000000E+00  0.00000000000E+00 -0.19242312548E+04  0.19242312575E+04  0.10100000352E+00 0. -1.
    10030    2    1    2    0    0  0.00000000000E+00  0.00000000000E+00 -0.17040805326E+04  0.21443820028E+04  0.13017233624E+04 0.  0.
        2    1    3    3  502    0  0.23870115118E+03  0.46319094337E+01  0.14541232215E+03  0.27954326605E+03  0.25500000920E-02 0.  1.
       -2    1    3    3    0  502 -0.23870115118E+03 -0.46319094337E+01 -0.18494928548E+04  0.18648387367E+04  0.25500000920E-02 0. -1.
</event>
<event>
 5   0  0.2255875E-04  0.1292371E+04  0.7818609E-02  0.9035637E-01
       -3   -1    0    0    0  501  0.00000000000E+00  0.00000000000E+00  0.14686929919E+04  0.14686929954E+04  0.10100000352E+00 0.  1.
        3   -1    0    0  501    0  0.00000000000E+00  0.00000000000E+00 -0.28430430598E+03  0.28430432392E+03  0.10100000352E+00 0. -1.
    10030    2    1    2    0    0  0.00000000000E+00  0.00000000000E+00  0.11843886859E+04  0.17529973193E+04  0.12923710931E+04 0.  0.
        2    1    3    3  502    0 -0.66484235166E+02 -0.53330811139E+03  0.10788410269E+04  0.12052948421E+04  0.25500000920E-02 0.  1.
       -2    1    3    3    0  502  0.66484235166E+02  0.53330811139E+03  0.10554765909E+03  0.54770247721E+03  0.25500000920E-02 0. -1.
</event>
<event>
 5   0  0.3335747E-04  0.1303667E+04  0.7818609E-02  0.9026662E-01
        1   -1    0    0  501    0  0.00000000000E+00  0.00000000000E+00  0.35136655060E+03  0.35136655064E+03  0.50400001928E-02 0. -1.
       -1   -1    0    0    0  501  0.00000000000E+00  0.00000000000E+00 -0.12092415650E+04  0.12092415650E+04  0.50400001928E-02 0.  1.
    10030    2    1    2    0    0  0.00000000000E+00  0.00000000000E+00 -0.85787501444E+03  0.15606081157E+04  0.13036671931E+04 0.  0.
        3    1    3    3  502    0  0.36116126843E+03 -0.45442132973E+03 -0.73922205250E+02  0.58515015967E+03  0.10100000352E+00 0. -1.
       -3    1    3    3    0  502 -0.36116126843E+03  0.45442132973E+03 -0.78395280919E+03  0.97545795602E+03  0.10100000352E+00 0.  1.
</event>
<event>
 5   0  0.6007125E-04  0.1298507E+04  0.7818609E-02  0.9030750E-01
        2   -1    0    0  501    0  0.00000000000E+00  0.00000000000E+00  0.14315333195E+04  0.14315333195E+04  0.25500000920E-02 0. -1.
       -2   -1    0    0    0  501  0.00000000000E+00  0.00000000000E+00 -0.29446043854E+03  0.29446043855E+03  0.25500000920E-02 0.  1.
    10030    2    1    2    0    0  0.00000000000E+00  0.00000000000E+00  0.11370728809E+04  0.17259937580E+04  0.12985067255E+04 0.  0.
        5    1    3    3  502    0  0.80419488697E+02  0.39927052401E+03  0.12405770009E+04  0.13057326031E+04  0.46999998093E+01 0. -1.
       -5    1    3    3    0  502 -0.80419488697E+02 -0.39927052401E+03 -0.10350411999E+03  0.42026115495E+03  0.46999998093E+01 0.  1.
</event>
<event>
 5   0  0.3274879E-04  0.1300046E+04  0.7818609E-02  0.9029528E-01
       -1   -1    0    0    0  501  0.00000000000E+00  0.00000000000E+00  0.34234693413E+03  0.34234693417E+03  0.50400001928E-02 0.  1.
        1   -1    0    0  501    0  0.00000000000E+00  0.00000000000E+00 -0.12342164293E+04  0.12342164293E+04  0.50400001928E-02 0. -1.
    10030    2    1    2    0    0  0.00000000000E+00  0.00000000000E+00 -0.89186949514E+03  0.15765633634E+04  0.13000464771E+04 0.  0.
        4    1    3    3  502    0  0.56920707028E+03  0.27187038555E+03 -0.25565941746E+03  0.68064201018E+03  0.12699999809E+01 0.  1.
       -4    1    3    3    0  502 -0.56920707028E+03 -0.27187038555E+03 -0.63621007768E+03  0.89592135326E+03  0.12699999809E+01 0. -1.
</event>
<event>
 5   0  0.5957913E-04  0.1300645E+04  0.7818609E-02  0.9029054E-01
        2   -1    0    0  501    0  0.00000000000E+00  0.00000000000E+00  0.31699743362E+04  0.31699743362E+04  0.25500000920E-02 0. -1.
       -2   -1    0    0    0  501  0.00000000000E+00  0.00000000000E+00 -0.13341406631E+03  0.13341406633E+03  0.25500000920E-02 0.  1.
    10030    2    1    2    0    0  0.00000000000E+00  0.00000000000E+00  0.30365602699E+04  0.33033884025E+04  0.13006447114E+04 0.  0.
        1    1    3    3  502    0 -0.27808208123E+03 -0.59388232797E+02  0.32844865698E+02  0.28624358739E+03  0.50400001928E-02 0.  1.
       -1    1    3    3    0  502  0.27808208123E+03  0.59388232797E+02  0.30037154042E+04  0.30171448151E+04  0.50400001928E-02 0. -1.
</event>
<event>
 5   0  0.2255875E-04  0.1296731E+04  0.7818609E-02  0.9032162E-01
       -3   -1    0    0    0  501  0.00000000000E+00  0.00000000000E+00  0.53800833254E+03  0.53800834202E+03  0.10100000352E+00 0. -1.
        3   -1    0    0  501    0  0.00000000000E+00  0.00000000000E+00 -0.78135933223E+03  0.78135933876E+03  0.10100000352E+00 0.  1.
    10030    2    1    2    0    0  0.00000000000E+00  0.00000000000E+00 -0.24335099970E+03  0.13193676808E+04  0.12967310315E+04 0.  0.
        1    1    3    3  502    0  0.12331875894E+03  0.48287223446E+03 -0.54364992822E+03  0.73751498669E+03  0.50400001928E-02 0.  1.
       -1    1    3    3    0  502 -0.12331875894E+03 -0.48287223446E+03  0.30029892852E+03  0.58185269408E+03  0.50400001928E-02 0. -1.
</event>
<event>
 5   0  0.6052864E-04  0.1305764E+04  0.7818609E-02  0.9025006E-01
       -2   -1    0    0    0  501  0.00000000000E+00  0.00000000000E+00  0.37804941735E+03  0.37804941736E+03  0.25500000920E-02 0.  1.
        2   -1    0    0  501    0  0.00000000000E+00  0.00000000000E+00 -0.11275116503E+04  0.11275116503E+04  0.25500000920E-02 0. -1.
    10030    2    1    2    0    0  0.00000000000E+00  0.00000000000E+00 -0.74946223292E+03  0.15055610676E+04  0.13057643317E+04 0.  0.
        2    1    3    3  502    0 -0.41512733282E+03  0.24992476834E+03 -0.87924707066E+03  0.10039265429E+04  0.25500000920E-02 0. -1.
       -2    1    3    3    0  502  0.41512733282E+03 -0.24992476834E+03  0.12978483775E+03  0.50163452473E+03  0.25500000920E-02 0.  1.
</event>
<event>
 5   0  0.3337520E-04  0.1299624E+04  0.7818609E-02  0.9029863E-01
        1   -1    0    0  501    0  0.00000000000E+00  0.00000000000E+00  0.46856602289E+03  0.46856602292E+03  0.50400001928E-02 0. -1.
       -1   -1    0    0    0  501  0.00000000000E+00  0.00000000000E+00 -0.90116560911E+03  0.90116560912E+03  0.50400001928E-02 0.  1.
    10030    2    1    2    0    0  0.00000000000E+00  0.00000000000E+00 -0.43259958622E+03  0.13697316320E+04  0.12996239232E+04 0.  0.
        5    1    3    3  502    0  0.41217586144E+03 -0.48309514206E+03 -0.36143695328E+03  0.73070419338E+03  0.46999998093E+01 0.  1.
       -5    1    3    3    0  502 -0.41217586144E+03  0.48309514206E+03 -0.71162632941E+02  0.63902743866E+03  0.46999998093E+01 0. -1.
</event>
<event>
 5   0  0.5787604E-04  0.1303937E+04  0.7818609E-02  0.9026449E-01
       -2   -1    0    0    0  501  0.00000000000E+00  0.00000000000E+00  0.31127447508E+03  0.31127447509E+03  0.25500000920E-02 0.  1.
        2   -1    0    0  501    0  0.00000000000E+00  0.00000000000E+00 -0.13655564663E+04  0.13655564663E+04  0.25500000920E-02 0. -1.
    10030    2    1    2    0    0  0.00000000000E+00  0.00000000000E+00 -0.10542819912E+04  0.16768309414E+04  0.13039369191E+04 0.  0.
        4    1    3    3  502    0  0.31156754116E+03  0.24720671461E+03  0.13719420912E+03  0.42072479885E+03  0.12699999809E+01 0.  1.
       -4    1    3    3    0  502 -0.31156754116E+03 -0.24720671461E+03 -0.11914762003E+04  0.12561061425E+04  0.12699999809E+01 0. -1.
</event>
<event>
 5   0  0.6007125E-04  0.1309754E+04  0.7818609E-02  0.9021866E-01
       -2   -1    0    0    0  501  0.00000000000E+00  0.00000000000E+00  0.64785543421E+03  0.64785543421E+03  0.25500000920E-02 0.  1.
        2   -1    0    0  501    0  0.00000000000E+00  0.00000000000E+00 -0.66197474956E+03  0.66197474956E+03  0.25500000920E-02 0. -1.
    10030    2    1    2    0    0  0.00000000000E+00  0.00000000000E+00 -0.14119315349E+02  0.13098301838E+04  0.13097540820E+04 0.  0.
        5    1    3    3  502    0 -0.12209670816E+03  0.23347290620E+03 -0.60661483770E+03  0.66137799735E+03  0.46999998093E+01 0. -1.
       -5    1    3    3    0  502  0.12209670816E+03 -0.23347290620E+03  0.59249552235E+03  0.64845218642E+03  0.46999998093E+01 0.  1.
</event>
<event>
 5   0  0.3274879E-04  0.1318277E+04  0.7818609E-02  0.9015196E-01
       -1   -1    0    0    0  501  0.00000000000E+00  0.00000000000E+00  0.63965835540E+03  0.63965835542E+03  0.50400001928E-02 0. -1.
        1   -1    0    0  501    0  0.00000000000E+00  0.00000000000E+00 -0.67921197880E+03  0.67921197882E+03  0.50400001928E-02 0.  1.
    10030    2    1    2    0    0  0.00000000000E+00  0.00000000000E+00 -0.39553623408E+02  0.13188703342E+04  0.13182770837E+04 0.  0.
        4    1    3    3  502    0  0.27646943144E+03 -0.43819148407E+03  0.38785578604E+03  0.64721004851E+03  0.12699999809E+01 0. -1.
       -4    1    3    3    0  502 -0.27646943144E+03  0.43819148407E+03 -0.42740940945E+03  0.67166028572E+03  0.12699999809E+01 0.  1.
</event>
<event>
 5   0  0.5384960E-04  0.1298267E+04  0.7818609E-02  0.9030941E-01
       -2   -1    0    0    0  501  0.00000000000E+00  0.00000000000E+00  0.24241206917E+03  0.24241206918E+03  0.25500000920E-02 0. -1.
        2   -1    0    0  501    0  0.00000000000E+00  0.00000000000E+00 -0.17382553451E+04  0.17382553451E+04  0.25500000920E-02 0.  1.
    10030    2    1    2    0    0  0.00000000000E+00  0.00000000000E+00 -0.14958432760E+04  0.19806674143E+04  0.12982666521E+04 0.  0.
        3    1    3    3  502    0  0.15635679975E+03 -0.45539499336E+03 -0.14121239801E+04  0.14919538177E+04  0.10100000352E+00 0.  1.
       -3    1    3    3    0  502 -0.15635679975E+03  0.45539499336E+03 -0.83719295847E+02  0.48871359660E+03  0.10100000352E+00 0. -1.
</event>
<event>
 5   0  0.3337520E-04  0.1302609E+04  0.7818609E-02  0.9027499E-01
       -1   -1    0    0    0  501  0.00000000000E+00  0.00000000000E+00  0.68142979176E+03  0.68142979178E+03  0.50400001928E-02 0.  1.
        1   -1    0    0  501    0  0.00000000000E+00  0.00000000000E+00 -0.62251094824E+03  0.62251094826E+03  0.50400001928E-02 0. -1.
    10030    2    1    2    0    0  0.00000000000E+00  0.00000000000E+00  0.58918843519E+02  0.13039407400E+04  0.13026089296E+04 0.  0.
        5    1    3    3  502    0  0.10069733359E+03  0.25584878173E+02 -0.61414496361E+03  0.62288896708E+03  0.46999998093E+01 0. -1.
       -5    1    3    3    0  502 -0.10069733359E+03 -0.25584878173E+02  0.67306380713E+03  0.68105177296E+03  0.46999998093E+01 0.  1.
</event>
<event>
 5   0  0.3403833E-04  0.1297262E+04  0.7818609E-02  0.9031739E-01
       -1   -1    0    0    0  501  0.00000000000E+00  0.00000000000E+00  0.19284555494E+03  0.19284555501E+03  0.50400001928E-02 0.  1.
        1   -1    0    0  501    0  0.00000000000E+00  0.00000000000E+00 -0.21816542070E+04  0.21816542070E+04  0.50400001928E-02 0. -1.
    10030    2    1    2    0    0  0.00000000000E+00  0.00000000000E+00 -0.19888086520E+04  0.23744997620E+04  0.12972622192E+04 0.  0.
        1    1    3    3  502    0 -0.44017684055E+03  0.38303784279E+03 -0.47588696850E+03  0.75295554104E+03  0.50400001928E-02 0.  1.
       -1    1    3    3    0  502  0.44017684055E+03 -0.38303784279E+03 -0.15129216835E+04  0.16215442210E+04  0.50400001928E-02 0. -1.
</event>
<event>
 5   0  0.3335747E-04  0.1300504E+04  0.7818609E-02  0.9029165E-01
       -1   -1    0    0    0  501  0.00000000000E+00  0.00000000000E+00  0.33171088417E+03  0.33171088421E+03  0.50400001928E-02 0. -1.
        1   -1    0    0  501    0  0.00000000000E+00  0.00000000000E+00 -0.12746882702E+04  0.12746882702E+04  0.50400001928E-02 0.  1.
    10030    2    1    2    0    0  0.00000000000E+00  0.00000000000E+00 -0.94297738604E+03  0.16063991544E+04  0.13005044763E+04 0.  0.
        3    1    3    3  502    0  0.59300424554E+03  0.16569608072E+02 -0.14258948972E+03  0.61013142840E+03  0.10100000352E+00 0. -1.
       -3    1    3    3    0  502 -0.59300424554E+03 -0.16569608072E+02 -0.80038789632E+03  0.99626772603E+03  0.10100000352E+00 0.  1.
</event>
<event>
 5   0  0.3274879E-04  0.1300412E+04  0.7818609E-02  0.9029238E-01
       -1   -1    0    0    0  501  0.00000000000E+00  0.00000000000E+00  0.11241420520E+04  0.11241420520E+04  0.50400001928E-02 0. -1.
        1   -1    0    0  501    0  0.00000000000E+00  0.00000000000E+00 -0.37608063022E+03  0.37608063026E+03  0.50400001928E-02 0.  1.
    10030    2    1    2    0    0  0.00000000000E+00  0.00000000000E+00  0.74806142178E+03  0.15002226823E+04  0.13004123214E+04 0.  0.
        4    1    3    3  502    0 -0.35277060626E+03 -0.48727124468E+02 -0.25356527751E+03  0.43717090040E+03  0.12699999809E+01 0.  1.
       -4    1    3    3    0  502  0.35277060626E+03  0.48727124468E+02  0.10016266993E+04  0.10630517819E+04  0.12699999809E+01 0. -1.
</event>
<event>
 5   0  0.5384960E-04  0.1300799E+04  0.7818609E-02  0.9028932E-01
       -2   -1    0    0    0  501  0.00000000000E+00  0.00000000000E+00  0.10499817582E+04  0.10499817582E+04  0.25500000920E-02 0.  1.
        2   -1    0    0  501    0  0.00000000000E+00  0.00000000000E+00 -0.40288293809E+03  0.40288293810E+03  0.25500000920E-02 0. -1.
    10030    2    1    2    0    0  0.00000000000E+00  0.00000000000E+00  0.64709882012E+03  0.14528646963E+04  0.13007993476E+04 0.  0.
        3    1    3    3  502    0 -0.34971368724E+03  0.42965014691E+03  0.70415038428E+03  0.89595015802E+03  0.10100000352E+00 0. -1.
       -3    1    3    3    0  502  0.34971368724E+03 -0.42965014691E+03 -0.57051564159E+02  0.55691453828E+03  0.10100000352E+00 0.  1.
</event>
<event>
 5   0  0.3337520E-04  0.1297376E+04  0.7818609E-02  0.9031648E-01
       -1   -1    0    0    0  501  0.00000000000E+00  0.00000000000E+00  0.54666202929E+03  0.54666202932E+03  0.50400001928E-02 0.  1.
        1   -1    0    0  501    0  0.00000000000E+00  0.00000000000E+00 -0.76975569799E+03  0.76975569801E+03  0.50400001928E-02 0. -1.
    10030    2    1    2    0    0  0.00000000000E+00  0.00000000000E+00 -0.22309366870E+03  0.13164177273E+04  0.12973761397E+04 0.  0.
        5    1    3    3  502    0  0.26379009849E+03  0.57648032791E+03  0.27798050490E+02  0.63459404830E+03  0.46999998093E+01 0.  1.
       -5    1    3    3    0  502 -0.26379009849E+03 -0.57648032791E+03 -0.25089171919E+03  0.68182367903E+03  0.46999998093E+01 0. -1.
</event>
<event>
 5   0  0.5384960E-04  0.1298926E+04  0.7818609E-02  0.9030417E-01
       -2   -1    0    0    0  501  0.00000000000E+00  0.00000000000E+00  0.41427078138E+03  0.41427078139E+03  0.25500000920E-02 0.  1.
        2   -1    0    0  501    0  0.00000000000E+00  0.00000000000E+00 -0.10181805066E+04  0.10181805066E+04  0.25500000920E-02 0. -1.
    10030    2    1    2    0    0  0.00000000000E+00  0.00000000000E+00 -0.60390972521E+03  0.14324512880E+04  0.12989263783E+04 0.  0.
        3    1    3    3  502    0 -0.57450250159E+03  0.14365891186E+03 -0.78752004069E+01  0.59224406816E+03  0.10100000352E+00 0.  1.
       -3    1    3    3    0  502  0.57450250159E+03 -0.14365891186E+03 -0.59603452480E+03  0.84020721982E+03  0.10100000352E+00 0. -1.
</event>
<event>
 5   0  0.6007125E-04  0.1301082E+04  0.7818609E-02  0.9028707E-01
        2   -1    0    0  501    0  0.00000000000E+00  0.00000000000E+00  0.13043896468E+04  0.13043896468E+04  0.25500000920E-02 0.  1.
       -2   -1    0    0    0  501  0.00000000000E+00  0.00000000000E+00 -0.32444574960E+03  0.32444574961E+03  0.25500000920E-02 0. -1.
    10030    2    1    2    0    0  0.00000000000E+00  0.00000000000E+00  0.97994389723E+03  0.16288353964E+04  0.13010821292E+04 0.  0.
        5    1    3    3  502    0  0.26686984372E+03 -0.64543701172E+02 -0.24833149316E+03  0.37023779296E+03  0.46999998093E+01 0. -1.
       -5    1    3    3    0  502 -0.26686984372E+03  0.64543701172E+02  0.12282753904E+04  0.12585976035E+04  0.46999998093E+01 0.  1.
</event>
<event>
 5   0  0.3263679E-04  0.1302997E+04  0.7818609E-02  0.9027192E-01
       -1   -1    0    0    0  501  0.00000000000E+00  0.00000000000E+00  0.47446422739E+03  0.47446422742E+03  0.50400001928E-02 0. -1.
        1   -1    0    0  501    0  0.00000000000E+00  0.00000000000E+00 -0.89458896319E+03  0.89458896320E+03  0.50400001928E-02 0.  1.
    10030    2    1    2    0    0  0.00000000000E+00  0.00000000000E+00 -0.42012473580E+03  0.13690531906E+04  0.13029972545E+04 0.  0.
        2    1    3    3  502    0 -0.57372819413E+03  0.25656878271E+02 -0.53327400185E+03  0.78371134814E+03  0.25500000920E-02 0.  1.
       -2    1    3    3    0  502  0.57372819413E+03 -0.25656878271E+02  0.11314926605E+03  0.58534184248E+03  0.25500000920E-02 0. -1.
</event>
<event>
 5   0  0.3274879E-04  0.1299257E+04  0.7818609E-02  0.9030155E-01
       -1   -1    0    0    0  501  0.00000000000E+00  0.00000000000E+00  0.30884656582E+03  0.30884656586E+03  0.50400001928E-02 0. -1.
        1   -1    0    0  501    0  0.00000000000E+00  0.00000000000E+00 -0.13664295660E+04  0.13664295660E+04  0.50400001928E-02 0.  1.
    10030    2    1    2    0    0  0.00000000000E+00  0.00000000000E+00 -0.10575830002E+04  0.16752761319E+04  0.12992568321E+04 0.  0.
        4    1    3    3  502    0  0.42230044509E+03  0.49224056107E+03 -0.57663942621E+03  0.86784392413E+03  0.12699999809E+01 0.  1.
       -4    1    3    3    0  502 -0.42230044509E+03 -0.49224056107E+03 -0.48094357398E+03  0.80743220776E+03  0.12699999809E+01 0. -1.
</event>
<event>
 5   0  0.6052864E-04  0.1318292E+04  0.7818609E-02  0.9015184E-01
       -2   -1    0    0    0  501  0.00000000000E+00  0.00000000000E+00  0.48061747093E+03  0.48061747094E+03  0.25500000920E-02 0.  1.
        2   -1    0    0  501    0  0.00000000000E+00  0.00000000000E+00 -0.90399022651E+03  0.90399022652E+03  0.25500000920E-02 0. -1.
    10030    2    1    2    0    0  0.00000000000E+00  0.00000000000E+00 -0.42337275558E+03  0.13846076975E+04  0.13182920715E+04 0.  0.
        2    1    3    3  502    0 -0.43203476242E+03  0.29190752480E+02  0.31027080880E+03  0.53270452482E+03  0.25500000920E-02 0.  1.
       -2    1    3    3    0  502  0.43203476242E+03 -0.29190752480E+02 -0.73364356438E+03  0.85190317263E+03  0.25500000920E-02 0. -1.
</event>
<event>
 5   0  0.5384960E-04  0.1292687E+04  0.7818609E-02  0.9035384E-01
        2   -1    0    0  501    0  0.00000000000E+00  0.00000000000E+00  0.96673125666E+03  0.96673125666E+03  0.25500000920E-02 0.  1.
       -2   -1    0    0    0  501  0.00000000000E+00  0.00000000000E+00 -0.43213689050E+03  0.43213689050E+03  0.25500000920E-02 0. -1.
    10030    2    1    2    0    0  0.00000000000E+00  0.00000000000E+00  0.53459436616E+03  0.13988681472E+04  0.12926874939E+04 0.  0.
        3    1    3    3  502    0 -0.14961310062E+03  0.49654471508E+03  0.68475552833E+03  0.85897082473E+03  0.10100000352E+00 0.  1.
       -3    1    3    3    0  502  0.14961310062E+03 -0.49654471508E+03 -0.15016116217E+03  0.53989732244E+03  0.10100000352E+00 0. -1.
</event>
<event>
 5   0  0.3403833E-04  0.1298541E+04  0.7818609E-02  0.9030723E-01
        1   -1    0    0  501    0  0.00000000000E+00  0.00000000000E+00  0.12157633035E+04  0.12157633035E+04  0.50400001928E-02 0.  1.
       -1   -1    0    0    0  501  0.00000000000E+00  0.00000000000E+00 -0.34673847044E+03  0.34673847047E+03  0.50400001928E-02 0. -1.
    10030    2    1    2    0    0  0.00000000000E+00  0.00000000000E+00  0.86902483309E+03  0.15625017740E+04  0.12985405782E+04 0.  0.
        1    1    3    3  502    0  0.17388258602E+03 -0.23021750482E+02 -0.31769032275E+03  0.36289433161E+03  0.50400001928E-02 0. -1.
       -1    1    3    3    0  502 -0.17388258602E+03  0.23021750482E+02  0.11867151558E+04  0.11996074424E+04  0.50400001928E-02 0.  1.
</event>
<event>
 5   0  0.6007125E-04  0.1300111E+04  0.7818609E-02  0.9029477E-01
        2   -1    0    0  501    0  0.00000000000E+00  0.00000000000E+00  0.86545330140E+03  0.86545330141E+03  0.25500000920E-02 0. -1.
       -2   -1    0    0    0  501  0.00000000000E+00  0.00000000000E+00 -0.48826702822E+03  0.48826702822E+03  0.25500000920E-02 0.  1.
    10030    2    1    2    0    0  0.00000000000E+00  0.00000000000E+00  0.37718627319E+03  0.13537203296E+04  0.13001112438E+04 0.  0.
        5    1    3    3  502    0 -0.88454267395E+02  0.56056782332E+02 -0.47940849153E+03  0.49073527692E+03  0.46999998093E+01 0.  1.
       -5    1    3    3    0  502  0.88454267395E+02 -0.56056782332E+02  0.85659476472E+03  0.86298505271E+03  0.46999998093E+01 0. -1.
</event>
<event>
 5   0  0.3274879E-04  0.1363234E+04  0.7818609E-02  0.8980870E-01
       -1   -1    0    0    0  501  0.00000000000E+00  0.00000000000E+00  0.33630415305E+03  0.33630415309E+03  0.50400001928E-02 0. -1.
        1   -1    0    0  501    0  0.00000000000E+00  0.00000000000E+00 -0.13814929645E+04  0.13814929645E+04  0.50400001928E-02 0.  1.
    10030    2    1    2    0    0  0.00000000000E+00  0.00000000000E+00 -0.10451888114E+04  0.17177971176E+04  0.13632341272E+04 0.  0.
        4    1    3    3  502    0 -0.13104317086E+03  0.65567290193E+03 -0.68938829685E+03  0.96038383143E+03  0.12699999809E+01 0.  1.
       -4    1    3    3    0  502  0.13104317086E+03 -0.65567290193E+03 -0.35580051459E+03  0.75741328615E+03  0.12699999809E+01 0. -1.
</event>
<event>
 5   0  0.3337520E-04  0.1286230E+04  0.7818609E-02  0.9040556E-01
       -1   -1    0    0    0  501  0.00000000000E+00  0.00000000000E+00  0.81614407538E+03  0.81614407540E+03  0.50400001928E-02 0.  1.
        1   -1    0    0  501    0  0.00000000000E+00  0.00000000000E+00 -0.50676981584E+03  0.50676981587E+03  0.50400001928E-02 0. -1.
    10030    2    1    2    0    0  0.00000000000E+00  0.00000000000E+00  0.30937425954E+03  0.13229138913E+04  0.12862304347E+04 0.  0.
        5    1    3    3  502    0 -0.44189419739E+03  0.43810108222E+03 -0.12339133125E+02  0.62239648467E+03  0.46999998093E+01 0. -1.
       -5    1    3    3    0  502  0.44189419739E+03 -0.43810108222E+03  0.32171339267E+03  0.70051740660E+03  0.46999998093E+01 0.  1.
</event>
<event>
 5   0  0.6052864E-04  0.1301868E+04  0.7818609E-02  0.9028085E-01
       -2   -1    0    0    0  501  0.00000000000E+00  0.00000000000E+00  0.42409039183E+03  0.42409039184E+03  0.25500000920E-02 0.  1.
        2   -1    0    0  501    0  0.00000000000E+00  0.00000000000E+00 -0.99911450282E+03  0.99911450282E+03  0.25500000920E-02 0. -1.
    10030    2    1    2    0    0  0.00000000000E+00  0.00000000000E+00 -0.57502411099E+03  0.14232048947E+04  0.13018676753E+04 0.  0.
        2    1    3    3  502    0  0.58149055666E+03  0.19813554051E+03 -0.52217150805E+02  0.61653514964E+03  0.25500000920E-02 0. -1.
       -2    1    3    3    0  502 -0.58149055666E+03 -0.19813554051E+03 -0.52280696019E+03  0.80666974502E+03  0.25500000920E-02 0.  1.
</event>
<event>
 5   0  0.3403833E-04  0.1319577E+04  0.7818609E-02  0.9014183E-01
        1   -1    0    0  501    0  0.00000000000E+00  0.00000000000E+00  0.56709064178E+03  0.56709064180E+03  0.50400001928E-02 0. -1.
       -1   -1    0    0    0  501  0.00000000000E+00  0.00000000000E+00 -0.76763904812E+03  0.76763904813E+03  0.50400001928E-02 0.  1.
    10030    2    1    2    0    0  0.00000000000E+00  0.00000000000E+00 -0.20054840633E+03  0.13347296899E+04  0.13195770845E+04 0.  0.
        1    1    3    3  502    0  0.48972653225E+03 -0.29628354288E+03 -0.43222697516E+03  0.71724205974E+03  0.50400001928E-02 0.  1.
       -1    1    3    3    0  502 -0.48972653225E+03  0.29628354288E+03  0.23167856883E+03  0.61748763020E+03  0.50400001928E-02 0. -1.
</event>
<event>
 5   0  0.3263679E-04  0.1303483E+04  0.7818609E-02  0.9026808E-01
       -1   -1    0    0    0  501  0.00000000000E+00  0.00000000000E+00  0.68020554964E+03  0.68020554966E+03  0.50400001928E-02 0.  1.
        1   -1    0    0  501    0  0.00000000000E+00  0.00000000000E+00 -0.62446815611E+03  0.62446815613E+03  0.50400001928E-02 0. -1.
    10030    2    1    2    0    0  0.00000000000E+00  0.00000000000E+00  0.55737393531E+02  0.13046737058E+04  0.13034825743E+04 0.  0.
        2    1    3    3  502    0  0.22301571702E+03 -0.55203488553E+03 -0.23749275269E+03  0.64100025933E+03  0.25500000920E-02 0. -1.
       -2    1    3    3    0  502 -0.22301571702E+03  0.55203488553E+03  0.29323014622E+03  0.66367344646E+03  0.25500000920E-02 0.  1.
</event>
<event>
 5   0  0.6007125E-04  0.1291236E+04  0.7818609E-02  0.9036544E-01
        2   -1    0    0  501    0  0.00000000000E+00  0.00000000000E+00  0.62973330175E+03  0.62973330175E+03  0.25500000920E-02 0. -1.
       -2   -1    0    0    0  501  0.00000000000E+00  0.00000000000E+00 -0.66190315122E+03  0.66190315123E+03  0.25500000920E-02 0.  1.
    10030    2    1    2    0    0  0.00000000000E+00  0.00000000000E+00 -0.32169849473E+02  0.12916364530E+04  0.12912357753E+04 0.  0.
        5    1    3    3  502    0 -0.41296238445E+03  0.49198055106E+03  0.48878073550E+02  0.64420024035E+03  0.46999998093E+01 0. -1.
       -5    1    3    3    0  502  0.41296238445E+03 -0.49198055106E+03 -0.81047923023E+02  0.64743621263E+03  0.46999998093E+01 0.  1.
</event>
<event>
 5   0  0.5787604E-04  0.1322334E+04  0.7818609E-02  0.9012039E-01
       -2   -1    0    0    0  501  0.00000000000E+00  0.00000000000E+00  0.50972435966E+03  0.50972435967E+03  0.25500000920E-02 0.  1.
        2   -1    0    0  501    0  0.00000000000E+00  0.00000000000E+00 -0.85760392729E+03  0.85760392729E+03  0.25500000920E-02 0. -1.
    10030    2    1    2    0    0  0.00000000000E+00  0.00000000000E+00 -0.34787956763E+03  0.13673282870E+04  0.13223337138E+04 0.  0.
        4    1    3    3  502    0 -0.36623392333E+03  0.48373483586E+03  0.97703013115E+02  0.61455200732E+03  0.12699999809E+01 0.  1.
       -4    1    3    3    0  502  0.36623392333E+03 -0.48373483586E+03 -0.44558258074E+03  0.75277627964E+03  0.12699999809E+01 0. -1.
</event>
<event>
 5   0  0.3263679E-04  0.1297044E+04  0.7818609E-02  0.9031912E-01
        1   -1    0    0  501    0  0.00000000000E+00  0.00000000000E+00  0.74959148730E+03  0.74959148731E+03  0.50400001928E-02 0.  1.
       -1   -1    0    0    0  501  0.00000000000E+00  0.00000000000E+00 -0.56108009162E+03  0.56108009165E+03  0.50400001928E-02 0. -1.
    10030    2    1    2    0    0  0.00000000000E+00  0.00000000000E+00  0.18851139567E+03  0.13106715790E+04  0.12970441171E+04 0.  0.
        2    1    3    3  502    0  0.19453061094E+03 -0.57329998467E+03  0.32921928760E+03  0.68913015486E+03  0.25500000920E-02 0.  1.
       -2    1    3    3    0  502 -0.19453061094E+03  0.57329998467E+03 -0.14070789192E+03  0.62154142410E+03  0.25500000920E-02 0. -1.
</event>
<event>
 5   0  0.3335747E-04  0.1299816E+04  0.7818609E-02  0.9029711E-01
       -1   -1    0    0    0  501  0.00000000000E+00  0.00000000000E+00  0.51174183769E+03  0.51174183771E+03  0.50400001928E-02 0. -1.
        1   -1    0    0  501    0  0.00000000000E+00  0.00000000000E+00 -0.82537766471E+03  0.82537766472E+03  0.50400001928E-02 0.  1.
    10030    2    1    2    0    0  0.00000000000E+00  0.00000000000E+00 -0.31363582702E+03  0.13371195024E+04  0.12998158069E+04 0.  0.
        3    1    3    3  502    0  0.38574663071E+03 -0.44478052717E+03 -0.43994406935E+03  0.73497005028E+03  0.10100000352E+00 0.  1.
       -3    1    3    3    0  502 -0.38574663071E+03  0.44478052717E+03  0.12630824233E+03  0.60214945216E+03  0.10100000352E+00 0. -1.
</event>
<event>
 5   0  0.3263679E-04  0.1300404E+04  0.7818609E-02  0.9029245E-01
       -1   -1    0    0    0  501  0.00000000000E+00  0.00000000000E+00  0.69182494751E+03  0.69182494753E+03  0.50400001928E-02 0. -1.
        1   -1    0    0  501    0  0.00000000000E+00  0.00000000000E+00 -0.61108303847E+03  0.61108303849E+03  0.50400001928E-02 0.  1.
    10030    2    1    2    0    0  0.00000000000E+00  0.00000000000E+00  0.80741909043E+02  0.13029079860E+04  0.13004037697E+04 0.  0.
        2    1    3    3  502    0  0.22618132870E+03  0.21253952087E+03  0.61281299765E+03  0.68692853448E+03  0.25500000920E-02 0. -1.
       -2    1    3    3    0  502 -0.22618132870E+03 -0.21253952087E+03 -0.53207108861E+03  0.61597945154E+03  0.25500000920E-02 0.  1.
</event>
<event>
 5   0  0.5384960E-04  0.1295652E+04  0.7818609E-02  0.9033021E-01
       -2   -1    0    0    0  501  0.00000000000E+00  0.00000000000E+00  0.24304858140E+03  0.24304858142E+03  0.25500000920E-02 0. -1.
        2   -1    0    0  501    0  0.00000000000E+00  0.00000000000E+00 -0.17267256163E+04  0.17267256163E+04  0.25500000920E-02 0.  1.
    10030    2    1    2    0    0  0.00000000000E+00  0.00000000000E+00 -0.14836770349E+04  0.19697741977E+04  0.12956515142E+04 0.  0.
        3    1    3    3  502    0  0.55008609466E+03  0.74592589591E+02 -0.12495342563E+04  0.13672946405E+04  0.10100000352E+00 0.  1.
       -3    1    3    3    0  502 -0.55008609466E+03 -0.74592589591E+02 -0.23414277861E+03  0.60247955727E+03  0.10100000352E+00 0. -1.
</event>
<event>
 5   0  0.3337520E-04  0.1290023E+04  0.7818609E-02  0.9037515E-01
        1   -1    0    0  501    0  0.00000000000E+00  0.00000000000E+00  0.52226072150E+03  0.52226072152E+03  0.50400001928E-02 0.  1.
       -1   -1    0    0    0  501  0.00000000000E+00  0.00000000000E+00 -0.79661341563E+03  0.79661341565E+03  0.50400001928E-02 0. -1.
    10030    2    1    2    0    0  0.00000000000E+00  0.00000000000E+00 -0.27435269414E+03  0.13188741372E+04  0.12900230963E+04 0.  0.
        5    1    3    3  502    0  0.12183093625E+03  0.29933269819E+03 -0.70784910889E+03  0.77814863117E+03  0.46999998093E+01 0. -1.
       -5    1    3    3    0  502 -0.12183093625E+03 -0.29933269819E+03  0.43349641476E+03  0.54072550600E+03  0.46999998093E+01 0.  1.
</event>
<event>
 5   0  0.3274879E-04  0.1294719E+04  0.7818609E-02  0.9033763E-01
       -1   -1    0    0    0  501  0.00000000000E+00  0.00000000000E+00  0.50158596075E+03  0.50158596078E+03  0.50400001928E-02 0. -1.
        1   -1    0    0  501    0  0.00000000000E+00  0.00000000000E+00 -0.83549866084E+03  0.83549866085E+03  0.50400001928E-02 0.  1.
    10030    2    1    2    0    0  0.00000000000E+00  0.00000000000E+00 -0.33391270008E+03  0.13370846216E+04  0.12947191178E+04 0.  0.
        4    1    3    3  502    0  0.91741657642E+02  0.21802081025E+03  0.45535872226E+03  0.51313037747E+03  0.12699999809E+01 0. -1.
       -4    1    3    3    0  502 -0.91741657642E+02 -0.21802081025E+03 -0.78927142234E+03  0.82395424416E+03  0.12699999809E+01 0.  1.
</event>
<event>
 5   0  0.3403833E-04  0.1309208E+04  0.7818609E-02  0.9022295E-01
       -1   -1    0    0    0  501  0.00000000000E+00  0.00000000000E+00  0.61251240286E+03  0.61251240288E+03  0.50400001928E-02 0. -1.
        1   -1    0    0  501    0  0.00000000000E+00  0.00000000000E+00 -0.69958836473E+03  0.69958836475E+03  0.50400001928E-02 0.  1.
    10030    2    1    2    0    0  0.00000000000E+00  0.00000000000E+00 -0.87075961874E+02  0.13121007676E+04  0.13092082345E+04 0.  0.
        1    1    3    3  502    0  0.45013121105E+02  0.44989769955E+03 -0.51794671125E+03  0.68753393869E+03  0.50400001928E-02 0.  1.
       -1    1    3    3    0  502 -0.45013121105E+02 -0.44989769955E+03  0.43087074937E+03  0.62456682895E+03  0.50400001928E-02 0. -1.
</event>
<event>
 5   0  0.5957913E-04  0.1296547E+04  0.7818609E-02  0.9032308E-01
        2   -1    0    0  501    0  0.00000000000E+00  0.00000000000E+00  0.90526742987E+03  0.90526742987E+03  0.25500000920E-02 0.  1.
       -2   -1    0    0    0  501  0.00000000000E+00  0.00000000000E+00 -0.46423712533E+03  0.46423712534E+03  0.25500000920E-02 0. -1.
    10030    2    1    2    0    0  0.00000000000E+00  0.00000000000E+00  0.44103030453E+03  0.13695045552E+04  0.12965473371E+04 0.  0.
        1    1    3    3  502    0 -0.51739925202E+02  0.60168578425E+03 -0.28451040998E+02  0.60457610322E+03  0.50400001928E-02 0. -1.
       -1    1    3    3    0  502  0.51739925202E+02 -0.60168578425E+03  0.46948134553E+03  0.76492845199E+03  0.50400001928E-02 0.  1.
</event>
<event>
 5   0  0.3403833E-04  0.1289212E+04  0.7818609E-02  0.9038164E-01
       -1   -1    0    0    0  501  0.00000000000E+00  0.00000000000E+00  0.43468312008E+03  0.43468312011E+03  0.50400001928E-02 0. -1.
        1   -1    0    0  501    0  0.00000000000E+00  0.00000000000E+00 -0.95590724849E+03  0.95590724850E+03  0.50400001928E-02 0.  1.
    10030    2    1    2    0    0  0.00000000000E+00  0.00000000000E+00 -0.52122412840E+03  0.13905903686E+04  0.12892117674E+04 0.  0.
        1    1    3    3  502    0  0.22820461687E+03 -0.58310362674E+03 -0.42571584161E+03  0.75717974386E+03  0.50400001928E-02 0. -1.
       -1    1    3    3    0  502 -0.22820461687E+03  0.58310362674E+03 -0.95508286793E+02  0.63341062476E+03  0.50400001928E-02 0.  1.
</event>
<event>
 5   0  0.5384960E-04  0.1300994E+04  0.7818609E-02  0.9028777E-01
       -2   -1    0    0    0  501  0.00000000000E+00  0.00000000000E+00  0.33040421008E+03  0.33040421009E+03  0.25500000920E-02 0.  1.
        2   -1    0    0  501    0  0.00000000000E+00  0.00000000000E+00 -0.12806932772E+04  0.12806932772E+04  0.25500000920E-02 0. -1.
    10030    2    1    2    0    0  0.00000000000E+00  0.00000000000E+00 -0.95028906707E+03  0.16110974872E+04  0.13009941592E+04 0.  0.
        3    1    3    3  502    0  0.17386703987E+03 -0.37533460326E+03 -0.10968457976E+04  0.11722527568E+04  0.10100000352E+00 0. -1.
       -3    1    3    3    0  502 -0.17386703987E+03  0.37533460326E+03  0.14655673052E+03  0.43884473042E+03  0.10100000352E+00 0.  1.
</event>
<event>
 5   0  0.5384960E-04  0.1304778E+04  0.7818609E-02  0.9025785E-01
        2   -1    0    0  501    0  0.00000000000E+00  0.00000000000E+00  0.12190127985E+04  0.12190127985E+04  0.25500000920E-02 0.  1.
       -2   -1    0    0    0  501  0.00000000000E+00  0.00000000000E+00 -0.34914440801E+03  0.34914440802E+03  0.25500000920E-02 0. -1.
    10030    2    1    2    0    0  0.00000000000E+00  0.00000000000E+00  0.86986839051E+03  0.15681572066E+04  0.13047781450E+04 0.  0.
        3    1    3    3  502    0  0.94333605792E+02 -0.32710497083E+03 -0.23392398769E+03  0.41305802661E+03  0.10100000352E+00 0. -1.
       -3    1    3    3    0  502 -0.94333605792E+02  0.32710497083E+03  0.11037923782E+04  0.11550991799E+04  0.10100000352E+00 0.  1.
</event>
<event>
 5   0  0.5787604E-04  0.1301876E+04  0.7818609E-02  0.9028079E-01
        2   -1    0    0  501    0  0.00000000000E+00  0.00000000000E+00  0.81823824692E+03  0.81823824693E+03  0.25500000920E-02 0.  1.
       -2   -1    0    0    0  501  0.00000000000E+00  0.00000000000E+00 -0.51784446501E+03  0.51784446502E+03  0.25500000920E-02 0. -1.
    10030    2    1    2    0    0  0.00000000000E+00  0.00000000000E+00  0.30039378191E+03  0.13360827119E+04  0.13018757963E+04 0.  0.
        4    1    3    3  502    0 -0.22018360048E+03  0.60225779321E+03  0.26504467249E+03  0.69386278090E+03  0.12699999809E+01 0. -1.
       -4    1    3    3    0  502  0.22018360048E+03 -0.60225779321E+03  0.35349109418E+02  0.64221993105E+03  0.12699999809E+01 0.  1.
</event>
<event>
 5   0  0.3335747E-04  0.1286694E+04  0.7818609E-02  0.9040184E-01
        1   -1    0    0  501    0  0.00000000000E+00  0.00000000000E+00  0.48770749072E+03  0.48770749075E+03  0.50400001928E-02 0.  1.
       -1   -1    0    0    0  501  0.00000000000E+00  0.00000000000E+00 -0.84865462733E+03  0.84865462734E+03  0.50400001928E-02 0. -1.
    10030    2    1    2    0    0  0.00000000000E+00  0.00000000000E+00 -0.36094713661E+03  0.13363621181E+04  0.12866937768E+04 0.  0.
        3    1    3    3  502    0 -0.29500067153E+03 -0.55012270265E+03 -0.34215825696E+03  0.71185157665E+03  0.10100000352E+00 0. -1.
       -3    1    3    3    0  502  0.29500067153E+03  0.55012270265E+03 -0.18788879647E+02  0.62451054144E+03  0.10100000352E+00 0.  1.
</event>
<event>
 5   0  0.5787604E-04  0.1301231E+04  0.7818609E-02  0.9028590E-01
       -2   -1    0    0    0  501  0.00000000000E+00  0.00000000000E+00  0.25803093906E+03  0.25803093908E+03  0.25500000920E-02 0.  1.
        2   -1    0    0  501    0  0.00000000000E+00  0.00000000000E+00 -0.16405025015E+04  0.16405025015E+04  0.25500000920E-02 0. -1.
    10030    2    1    2    0    0  0.00000000000E+00  0.00000000000E+00 -0.13824715625E+04  0.18985334406E+04  0.13012308035E+04 0.  0.
        4    1    3    3  502    0 -0.37036778955E+03 -0.43318054379E+03 -0.11491038656E+04  0.12826764947E+04  0.12699999809E+01 0. -1.
       -4    1    3    3    0  502  0.37036778955E+03  0.43318054379E+03 -0.23336769685E+03  0.61585694596E+03  0.12699999809E+01 0.  1.
</event>
<event>
 5   0  0.3337520E-04  0.1307557E+04  0.7818609E-02  0.9023594E-01
        1   -1    0    0  501    0  0.00000000000E+00  0.00000000000E+00  0.68863890993E+03  0.68863890995E+03  0.50400001928E-02 0.  1.
       -1   -1    0    0    0  501  0.00000000000E+00  0.00000000000E+00 -0.62068289759E+03  0.62068289761E+03  0.50400001928E-02 0. -1.
    10030    2    1    2    0    0  0.00000000000E+00  0.00000000000E+00  0.67956012344E+02  0.13093218076E+04  0.13075571024E+04 0.  0.
        5    1    3    3  502    0  0.74122430440E+02  0.80946069179E+02  0.67933047606E+03  0.68815578651E+03  0.46999998093E+01 0.  1.
       -5    1    3    3    0  502 -0.74122430440E+02 -0.80946069179E+02 -0.61137446372E+03  0.62116602104E+03  0.46999998093E+01 0. -1.
</event>
<event>
 5   0  0.5957913E-04  0.1300407E+04  0.7818609E-02  0.9029242E-01
        2   -1    0    0  501    0  0.00000000000E+00  0.00000000000E+00  0.64398945901E+03  0.64398945901E+03  0.25500000920E-02 0.  1.
       -2   -1    0    0    0  501  0.00000000000E+00  0.00000000000E+00 -0.65647782386E+03  0.65647782386E+03  0.25500000920E-02 0. -1.
    10030    2    1    2    0    0  0.00000000000E+00  0.00000000000E+00 -0.12488364851E+02  0.13004672829E+04  0.13004073187E+04 0.  0.
        1    1    3    3  502    0 -0.49967849301E+03  0.33829524704E+03  0.23592917782E+03  0.64790805484E+03  0.50400001928E-02 0.  1.
       -1    1    3    3    0  502  0.49967849301E+03 -0.33829524704E+03 -0.24841754268E+03  0.65255922803E+03  0.50400001928E-02 0. -1.
</event>
<event>
 5   0  0.3263679E-04  0.1294450E+04  0.7818609E-02  0.9033978E-01
       -1   -1    0    0    0  501  0.00000000000E+00  0.00000000000E+00  0.52852026008E+03  0.52852026010E+03  0.50400001928E-02 0. -1.
        1   -1    0    0  501    0  0.00000000000E+00  0.00000000000E+00 -0.79259117997E+03  0.79259117999E+03  0.50400001928E-02 0.  1.
    10030    2    1    2    0    0  0.00000000000E+00  0.00000000000E+00 -0.26407091989E+03  0.13211114401E+04  0.12944504573E+04 0.  0.
        2    1    3    3  502    0  0.45045416792E+03  0.27852236928E+03 -0.51174234137E+03  0.73645359090E+03  0.25500000920E-02 0.  1.
       -2    1    3    3    0  502 -0.45045416792E+03 -0.27852236928E+03  0.24767142148E+03  0.58465784919E+03  0.25500000920E-02 0. -1.
</event>
<event>
 5   0  0.6007125E-04  0.1312170E+04  0.7818609E-02  0.9019970E-01
       -2   -1    0    0    0  501  0.00000000000E+00  0.00000000000E+00  0.44439897978E+03  0.44439897979E+03  0.25500000920E-02 0. -1.
        2   -1    0    0  501    0  0.00000000000E+00  0.00000000000E+00 -0.96860596101E+03  0.96860596102E+03  0.25500000920E-02 0.  1.
    10030    2    1    2    0    0  0.00000000000E+00  0.00000000000E+00 -0.52420698123E+03  0.14130049408E+04  0.13121699599E+04 0.  0.
        5    1    3    3  502    0 -0.56546587068E+02 -0.65111529712E+03 -0.20046156642E+03  0.68363409531E+03  0.46999998093E+01 0.  1.
       -5    1    3    3    0  502  0.56546587068E+02  0.65111529712E+03 -0.32374541481E+03  0.72937084550E+03  0.46999998093E+01 0. -1.
</event>
<event>
 5   0  0.3335747E-04  0.1299782E+04  0.7818609E-02  0.9029738E-01
        1   -1    0    0  501    0  0.00000000000E+00  0.00000000000E+00  0.69031289957E+03  0.69031289959E+03  0.50400001928E-02 0. -1.
       -1   -1    0    0    0  501  0.00000000000E+00  0.00000000000E+00 -0.61183610711E+03  0.61183610713E+03  0.50400001928E-02 0.  1.
    10030    2    1    2    0    0  0.00000000000E+00  0.00000000000E+00  0.78476792458E+02  0.13021490067E+04  0.12997820697E+04 0.  0.
        3    1    3    3  502    0 -0.33990714402E+03  0.42605451500E+03 -0.31538223457E+03  0.62970253326E+03  0.10100000352E+00 0.  1.
       -3    1    3    3    0  502  0.33990714402E+03 -0.42605451500E+03  0.39385902702E+03  0.67244647347E+03  0.10100000352E+00 0. -1.
</event>
<event>
 5   0  0.3403833E-04  0.1299725E+04  0.7818609E-02  0.9029783E-01
        1   -1    0    0  501    0  0.00000000000E+00  0.00000000000E+00  0.97215569693E+03  0.97215569695E+03  0.50400001928E-02 0. -1.
       -1   -1    0    0    0  501  0.00000000000E+00  0.00000000000E+00 -0.43441736580E+03  0.43441736583E+03  0.50400001928E-02 0.  1.
    10030    2    1    2    0    0  0.00000000000E+00  0.00000000000E+00  0.53773833113E+03  0.14065730628E+04  0.12997250741E+04 0.  0.
        1    1    3    3  502    0 -0.29670976757E+03 -0.50113433974E+03  0.58093004303E+03  0.82258861381E+03  0.50400001928E-02 0. -1.
       -1    1    3    3    0  502  0.29670976757E+03  0.50113433974E+03 -0.43191711900E+02  0.58398444897E+03  0.50400001928E-02 0.  1.
</event>
<event>
 5   0  0.3337520E-04  0.1297984E+04  0.7818609E-02  0.9031165E-01
        1   -1    0    0  501    0  0.00000000000E+00  0.00000000000E+00  0.65130959365E+03  0.65130959367E+03  0.50400001928E-02 0.  1.
       -1   -1    0    0    0  501  0.00000000000E+00  0.00000000000E+00 -0.64668255024E+03  0.64668255026E+03  0.50400001928E-02 0. -1.
    10030    2    1    2    0    0  0.00000000000E+00  0.00000000000E+00  0.46270434044E+01  0.12979921439E+04  0.12979838967E+04 0.  0.
        5    1    3    3  502    0 -0.21980861688E+02  0.15627833739E+03 -0.62718422859E+03  0.64675205729E+03  0.46999998093E+01 0. -1.
       -5    1    3    3    0  502  0.21980861688E+02 -0.15627833739E+03  0.63181127200E+03  0.65124008664E+03  0.46999998093E+01 0.  1.
</event>
<event>
 5   0  0.3403833E-04  0.1296966E+04  0.7818609E-02  0.9031974E-01
       -1   -1    0    0    0  501  0.00000000000E+00  0.00000000000E+00  0.42902279995E+03  0.42902279998E+03  0.50400001928E-02 0.  1.
        1   -1    0    0  501    0  0.00000000000E+00  0.00000000000E+00 -0.98020519746E+03  0.98020519747E+03  0.50400001928E-02 0. -1.
    10030    2    1    2    0    0  0.00000000000E+00  0.00000000000E+00 -0.55118239751E+03  0.14092279975E+04  0.12969662731E+04 0.  0.
        1    1    3    3  502    0 -0.57512166096E+03 -0.21505610374E+03 -0.50225318459E+03  0.79326686186E+03  0.50400001928E-02 0.  1.
       -1    1    3    3    0  502  0.57512166096E+03  0.21505610374E+03 -0.48929212914E+02  0.61596113559E+03  0.50400001928E-02 0. -1.
</event>
<event>
 5   0  0.3263679E-04  0.1308576E+04  0.7818609E-02  0.9022792E-01
        1   -1    0    0  501    0  0.00000000000E+00  0.00000000000E+00  0.13111446772E+04  0.13111446772E+04  0.50400001928E-02 0. -1.
       -1   -1    0    0    0  501  0.00000000000E+00  0.00000000000E+00 -0.32650309838E+03  0.32650309842E+03  0.50400001928E-02 0.  1.
    10030    2    1    2    0    0  0.00000000000E+00  0.00000000000E+00  0.98464157881E+03  0.16376477756E+04  0.13085760193E+04 0.  0.
        2    1    3    3  502    0 -0.38005275495E+03 -0.50408224495E+03  0.70746425419E+03  0.94817966503E+03  0.25500000920E-02 0. -1.
       -2    1    3    3    0  502  0.38005275495E+03  0.50408224495E+03  0.27717732462E+03  0.68946811059E+03  0.25500000920E-02 0.  1.
</event>
<event>
 5   0  0.3337520E-04  0.1299201E+04  0.7818609E-02  0.9030199E-01
       -1   -1    0    0    0  501  0.00000000000E+00  0.00000000000E+00  0.50411996195E+03  0.50411996198E+03  0.50400001928E-02 0.  1.
        1   -1    0    0  501    0  0.00000000000E+00  0.00000000000E+00 -0.83706366493E+03  0.83706366494E+03  0.50400001928E-02 0. -1.
    10030    2    1    2    0    0  0.00000000000E+00  0.00000000000E+00 -0.33294370297E+03  0.13411836269E+04  0.12992005279E+04 0.  0.
        5    1    3    3  502    0 -0.19697473678E+03 -0.28863601751E+02 -0.80477813251E+03  0.82904890507E+03  0.46999998093E+01 0. -1.
       -5    1    3    3    0  502  0.19697473678E+03  0.28863601751E+02  0.47183442953E+03  0.51213472185E+03  0.46999998093E+01 0.  1.
</event>
<event>
 5   0  0.6007125E-04  0.1299747E+04  0.7818609E-02  0.9029766E-01
        2   -1    0    0  501    0  0.00000000000E+00  0.00000000000E+00  0.15004512065E+04  0.15004512065E+04  0.25500000920E-02 0.  1.
       -2   -1    0    0    0  501  0.00000000000E+00  0.00000000000E+00 -0.28147234761E+03  0.28147234762E+03  0.25500000920E-02 0. -1.
    10030    2    1    2    0    0  0.00000000000E+00  0.00000000000E+00  0.12189788588E+04  0.17819235541E+04  0.12997469347E+04 0.  0.
        5    1    3    3  502    0  0.54213373949E+03 -0.44726412184E+02  0.10969176370E+04  0.12244018278E+04  0.46999998093E+01 0.  1.
       -5    1    3    3    0  502 -0.54213373949E+03  0.44726412184E+02  0.12206122183E+03  0.55752172632E+03  0.46999998093E+01 0. -1.
</event>
<event>
 5   0  0.3337520E-04  0.1296570E+04  0.7818609E-02  0.9032289E-01
       -1   -1    0    0    0  501  0.00000000000E+00  0.00000000000E+00  0.46220498555E+03  0.46220498558E+03  0.50400001928E-02 0. -1.
        1   -1    0    0  501    0  0.00000000000E+00  0.00000000000E+00 -0.90928000880E+03  0.90928000881E+03  0.50400001928E-02 0.  1.
    10030    2    1    2    0    0  0.00000000000E+00  0.00000000000E+00 -0.44707502325E+03  0.13714849944E+04  0.12965704815E+04 0.  0.
        5    1    3    3  502    0 -0.24590771250E+03 -0.52006433896E+03 -0.53965975085E+03  0.78879164321E+03  0.46999998093E+01 0.  1.
       -5    1    3    3    0  502  0.24590771250E+03  0.52006433896E+03  0.92584727594E+02  0.58269335118E+03  0.46999998093E+01 0. -1.
</event>
<event>
 5   0  0.5957913E-04  0.1306062E+04  0.7818609E-02  0.9024772E-01
        2   -1    0    0  501    0  0.00000000000E+00  0.00000000000E+00  0.25655085457E+03  0.25655085458E+03  0.25500000920E-02 0. -1.
       -2   -1    0    0    0  501  0.00000000000E+00  0.00000000000E+00 -0.16622410041E+04  0.16622410042E+04  0.25500000920E-02 0.  1.
    10030    2    1    2    0    0  0.00000000000E+00  0.00000000000E+00 -0.14056901496E+04  0.19187918587E+04  0.13060617905E+04 0.  0.
        1    1    3    3  502    0 -0.12470896809E+03 -0.62192257556E+03 -0.93096159823E+03  0.11265121012E+04  0.50400001928E-02 0.  1.
       -1    1    3    3    0  502  0.12470896809E+03  0.62192257556E+03 -0.47472855136E+03  0.79227975754E+03  0.50400001928E-02 0. -1.
</event>
<event>
 5   0  0.3403833E-04  0.1308956E+04  0.7818609E-02  0.9022493E-01
       -1   -1    0    0    0  501  0.00000000000E+00  0.00000000000E+00  0.39554970765E+03  0.39554970768E+03  0.50400001928E-02 0. -1.
        1   -1    0    0  501    0  0.00000000000E+00  0.00000000000E+00 -0.10829009211E+04  0.10829009211E+04  0.50400001928E-02 0.  1.
    10030    2    1    2    0    0  0.00000000000E+00  0.00000000000E+00 -0.68735121347E+03  0.14784506288E+04  0.13089555268E+04 0.  0.
        1    1    3    3  502    0  0.54974134136E+03 -0.29784828333E+03 -0.12520782407E+03  0.63765675838E+03  0.50400001928E-02 0.  1.
       -1    1    3    3    0  502 -0.54974134136E+03  0.29784828333E+03 -0.56214338940E+03  0.84079387043E+03  0.50400001928E-02 0. -1.
</event>
<event>
 5   0  0.5787604E-04  0.1298050E+04  0.7818609E-02  0.9031113E-01
       -2   -1    0    0    0  501  0.00000000000E+00  0.00000000000E+00  0.35415222836E+03  0.35415222837E+03  0.25500000920E-02 0.  1.
        2   -1    0    0  501    0  0.00000000000E+00  0.00000000000E+00 -0.11894139438E+04  0.11894139438E+04  0.25500000920E-02 0. -1.
    10030    2    1    2    0    0  0.00000000000E+00  0.00000000000E+00 -0.83526171541E+03  0.15435661721E+04  0.12980502281E+04 0.  0.
        4    1    3    3  502    0 -0.63166420050E+02  0.23817833981E+03  0.29636264557E+03  0.38542359653E+03  0.12699999809E+01 0.  1.
       -4    1    3    3    0  502  0.63166420050E+02 -0.23817833981E+03 -0.11316243610E+04  0.11581425756E+04  0.12699999809E+01 0. -1.
</event>
<event>
 5   0  0.5384960E-04  0.1303022E+04  0.7818609E-02  0.9027172E-01
       -2   -1    0    0    0  501  0.00000000000E+00  0.00000000000E+00  0.65967510726E+03  0.65967510726E+03  0.25500000920E-02 0. -1.
        2   -1    0    0  501    0  0.00000000000E+00  0.00000000000E+00 -0.64344833418E+03  0.64344833418E+03  0.25500000920E-02 0.  1.
    10030    2    1    2    0    0  0.00000000000E+00  0.00000000000E+00  0.16226773077E+02  0.13031234414E+04  0.13030224079E+04 0.  0.
        3    1    3    3  502    0  0.18400895844E+03  0.60970494659E+03 -0.12925599135E+03  0.64985116771E+03  0.10100000352E+00 0.  1.
       -3    1    3    3    0  502 -0.18400895844E+03 -0.60970494659E+03  0.14548276442E+03  0.65327227373E+03  0.10100000352E+00 0. -1.
</event>
<event>
 5   0  0.3335747E-04  0.1299314E+04  0.7818609E-02  0.9030110E-01
        1   -1    0    0  501    0  0.00000000000E+00  0.00000000000E+00  0.11900801301E+04  0.11900801301E+04  0.50400001928E-02 0.  1.
       -1   -1    0    0    0  501  0.00000000000E+00  0.00000000000E+00 -0.35464326321E+03  0.35464326325E+03  0.50400001928E-02 0. -1.
    10030    2    1    2    0    0  0.00000000000E+00  0.00000000000E+00  0.83543686688E+03  0.15447233933E+04  0.12993135124E+04 0.  0.
        3    1    3    3  502    0  0.64184936444E+03  0.12235406575E+02  0.53621060000E+03  0.83644613069E+03  0.10100000352E+00 0. -1.
       -3    1    3    3    0  502 -0.64184936444E+03 -0.12235406575E+02  0.29922626688E+03  0.70827726265E+03  0.10100000352E+00 0.  1.
</event>
<event>
 5   0  0.3337520E-04  0.1305841E+04  0.7818609E-02  0.9024946E-01
       -1   -1    0    0    0  501  0.00000000000E+00  0.00000000000E+00  0.64315904771E+03  0.64315904773E+03  0.50400001928E-02 0.  1.
        1   -1    0    0  501    0  0.00000000000E+00  0.00000000000E+00 -0.66282975992E+03  0.66282975994E+03  0.50400001928E-02 0. -1.
    10030    2    1    2    0    0  0.00000000000E+00  0.00000000000E+00 -0.19670712216E+02  0.13059888077E+04  0.13058406598E+04 0.  0.
        5    1    3    3  502    0  0.53122197280E+03  0.37405595594E+03  0.54733757849E+02  0.65202186835E+03  0.46999998093E+01 0.  1.
       -5    1    3    3    0  502 -0.53122197280E+03 -0.37405595594E+03 -0.74404470065E+02  0.65396693932E+03  0.46999998093E+01 0. -1.
</event>
<event>
 5   0  0.2255875E-04  0.1300171E+04  0.7818609E-02  0.9029430E-01
        3   -1    0    0  501    0  0.00000000000E+00  0.00000000000E+00  0.28878889230E+03  0.28878890996E+03  0.10100000352E+00 0. -1.
       -3   -1    0    0    0  501  0.00000000000E+00  0.00000000000E+00 -0.14633902248E+04  0.14633902283E+04  0.10100000352E+00 0.  1.
    10030    2    1    2    0    0  0.00000000000E+00  0.00000000000E+00 -0.11746013325E+04  0.17521791383E+04  0.13001705435E+04 0.  0.
        4    1    3    3  502    0  0.12491166193E+03 -0.32399799252E+03  0.15333460829E+03  0.37959285747E+03  0.12699999809E+01 0. -1.
       -4    1    3    3    0  502 -0.12491166193E+03  0.32399799252E+03 -0.13279359408E+04  0.13725862808E+04  0.12699999809E+01 0.  1.
</event>
<event>
 5   0  0.3263679E-04  0.1306644E+04  0.7818609E-02  0.9024313E-01
        1   -1    0    0  501    0  0.00000000000E+00  0.00000000000E+00  0.12845146084E+04  0.12845146084E+04  0.50400001928E-02 0. -1.
       -1   -1    0    0    0  501  0.00000000000E+00  0.00000000000E+00 -0.33228859718E+03  0.33228859722E+03  0.50400001928E-02 0.  1.
    10030    2    1    2    0    0  0.00000000000E+00  0.00000000000E+00  0.95222601123E+03  0.16168032056E+04  0.13066438801E+04 0.  0.
        2    1    3    3  502    0 -0.12363981837E+03  0.17953816152E+03 -0.28595965718E+03  0.35957430619E+03  0.25500000920E-02 0.  1.
       -2    1    3    3    0  502  0.12363981837E+03 -0.17953816152E+03  0.12381856684E+04  0.12572288994E+04  0.25500000920E-02 0. -1.
</event>
<event>
 5   0  0.5384960E-04  0.1302855E+04  0.7818609E-02  0.9027305E-01
       -2   -1    0    0    0  501  0.00000000000E+00  0.00000000000E+00  0.16031643594E+03  0.16031643596E+03  0.25500000920E-02 0.  1.
        2   -1    0    0  501    0  0.00000000000E+00  0.00000000000E+00 -0.26469992056E+04  0.26469992056E+04  0.25500000920E-02 0. -1.
    10030    2    1    2    0    0  0.00000000000E+00  0.00000000000E+00 -0.24866827697E+04  0.28073156416E+04  0.13028545254E+04 0.  0.
        3    1    3    3  502    0 -0.38405058455E+03 -0.52314951461E+03 -0.11218857266E+04  0.12960740179E+04  0.10100000352E+00 0.  1.
       -3    1    3    3    0  502  0.38405058455E+03  0.52314951461E+03 -0.13647970430E+04  0.15112416236E+04  0.10100000352E+00 0. -1.
</event>
<event>
 5   0  0.6052864E-04  0.1296395E+04  0.7818609E-02  0.9032429E-01
        2   -1    0    0  501    0  0.00000000000E+00  0.00000000000E+00  0.61468261269E+03  0.61468261269E+03  0.25500000920E-02 0. -1.
       -2   -1    0    0    0  501  0.00000000000E+00  0.00000000000E+00 -0.68353963223E+03  0.68353963224E+03  0.25500000920E-02 0.  1.
    10030    2    1    2    0    0  0.00000000000E+00  0.00000000000E+00 -0.68857019546E+02  0.12982222449E+04  0.12963948889E+04 0.  0.
        2    1    3    3  502    0  0.37908871489E+02  0.21687305636E+03  0.57609380889E+03  0.61672934239E+03  0.25500000920E-02 0. -1.
       -2    1    3    3    0  502 -0.37908871489E+02 -0.21687305636E+03 -0.64495082843E+03  0.68149290254E+03  0.25500000920E-02 0.  1.
</event>
<event>
 5   0  0.5384960E-04  0.1298909E+04  0.7818609E-02  0.9030431E-01
        2   -1    0    0  501    0  0.00000000000E+00  0.00000000000E+00  0.94366556319E+03  0.94366556319E+03  0.25500000920E-02 0. -1.
       -2   -1    0    0    0  501  0.00000000000E+00  0.00000000000E+00 -0.44697103332E+03  0.44697103332E+03  0.25500000920E-02 0.  1.
    10030    2    1    2    0    0  0.00000000000E+00  0.00000000000E+00  0.49669452987E+03  0.13906365965E+04  0.12989090374E+04 0.  0.
        3    1    3    3  502    0 -0.34792634015E+02  0.27094968004E+03 -0.38247073153E+03  0.47000864585E+03  0.10100000352E+00 0.  1.
       -3    1    3    3    0  502  0.34792634015E+02 -0.27094968004E+03  0.87916526140E+03  0.92062795067E+03  0.10100000352E+00 0. -1.
</event>
<event>
 5   0  0.6052864E-04  0.1298425E+04  0.7818609E-02  0.9030815E-01
        2   -1    0    0  501    0  0.00000000000E+00  0.00000000000E+00  0.17266180492E+04  0.17266180492E+04  0.25500000920E-02 0.  1.
       -2   -1    0    0    0  501  0.00000000000E+00  0.00000000000E+00 -0.24410535814E+03  0.24410535815E+03  0.25500000920E-02 0. -1.
    10030    2    1    2    0    0  0.00000000000E+00  0.00000000000E+00  0.14825126911E+04  0.19707234074E+04  0.12984247645E+04 0.  0.
        2    1    3    3  502    0  0.14286699969E+03 -0.53545244627E+03  0.22799429841E+03  0.59925095071E+03  0.25500000920E-02 0. -1.
       -2    1    3    3    0  502 -0.14286699969E+03  0.53545244627E+03  0.12545183927E+04  0.13714724567E+04  0.25500000920E-02 0.  1.
</event>
<event>
 5   0  0.5384960E-04  0.1286443E+04  0.7818609E-02  0.9040385E-01
       -2   -1    0    0    0  501  0.00000000000E+00  0.00000000000E+00  0.23200463998E+03  0.23200463999E+03  0.25500000920E-02 0. -1.
        2   -1    0    0  501    0  0.00000000000E+00  0.00000000000E+00 -0.17833011215E+04  0.17833011215E+04  0.25500000920E-02 0.  1.
    10030    2    1    2    0    0  0.00000000000E+00  0.00000000000E+00 -0.15512964815E+04  0.20153057614E+04  0.12864433678E+04 0.  0.
        3    1    3    3  502    0  0.50410530264E+03 -0.39848792766E+03 -0.82048996526E+03  0.10421701291E+04  0.10100000352E+00 0. -1.
       -3    1    3    3    0  502 -0.50410530264E+03  0.39848792766E+03 -0.73080651622E+03  0.97313563237E+03  0.10100000352E+00 0.  1.
</event>
<event>
 5   0  0.6007125E-04  0.1300107E+04  0.7818609E-02  0.9029480E-01
       -2   -1    0    0    0  501  0.00000000000E+00  0.00000000000E+00  0.51301453917E+03  0.51301453918E+03  0.25500000920E-02 0. -1.
        2   -1    0    0  501    0  0.00000000000E+00  0.00000000000E+00 -0.82369899660E+03  0.82369899660E+03  0.25500000920E-02 0.  1.
    10030    2    1    2    0    0  0.00000000000E+00  0.00000000000E+00 -0.31068445743E+03  0.13367135358E+04  0.13001070128E+04 0.  0.
        5    1    3    3  502    0  0.77036594944E+00 -0.13749659001E+03 -0.80855878816E+03  0.82018004709E+03  0.46999998093E+01 0.  1.
       -5    1    3    3    0  502 -0.77036594944E+00  0.13749659001E+03  0.49787433074E+03  0.51653348869E+03  0.46999998093E+01 0. -1.
</event>
<event>
 5   0  0.5787604E-04  0.1307480E+04  0.7818609E-02  0.9023655E-01
       -2   -1    0    0    0  501  0.00000000000E+00  0.00000000000E+00  0.35868440097E+03  0.35868440097E+03  0.25500000920E-02 0.  1.
        2   -1    0    0  501    0  0.00000000000E+00  0.00000000000E+00 -0.11915094921E+04  0.11915094921E+04  0.25500000920E-02 0. -1.
    10030    2    1    2    0    0  0.00000000000E+00  0.00000000000E+00 -0.83282509115E+03  0.15501938931E+04  0.13074798177E+04 0.  0.
        4    1    3    3  502    0  0.13417142790E+03  0.43448957182E+02 -0.11732568718E+04  0.11817034670E+04  0.12699999809E+01 0. -1.
       -4    1    3    3    0  502 -0.13417142790E+03 -0.43448957182E+02  0.34043178062E+03  0.36849042606E+03  0.12699999809E+01 0.  1.
</event>
<event>
 5   0  0.5787604E-04  0.1298680E+04  0.7818609E-02  0.9030613E-01
       -2   -1    0    0    0  501  0.00000000000E+00  0.00000000000E+00  0.43213562048E+03  0.43213562049E+03  0.25500000920E-02 0. -1.
        2   -1    0    0  501    0  0.00000000000E+00  0.00000000000E+00 -0.97571781060E+03  0.97571781060E+03  0.25500000920E-02 0.  1.
    10030    2    1    2    0    0  0.00000000000E+00  0.00000000000E+00 -0.54358219012E+03  0.14078534311E+04  0.12986799783E+04 0.  0.
        4    1    3    3  502    0  0.27579896798E+03  0.44589533622E+03  0.14349646431E+03  0.54358124487E+03  0.12699999809E+01 0. -1.
       -4    1    3    3    0  502 -0.27579896798E+03 -0.44589533622E+03 -0.68707865443E+03  0.86427218622E+03  0.12699999809E+01 0.  1.
</event>
<event>
 5   0  0.3403833E-04  0.1301520E+04  0.7818609E-02  0.9028360E-01
       -1   -1    0    0    0  501  0.00000000000E+00  0.00000000000E+00  0.33159537716E+03  0.33159537720E+03  0.50400001928E-02 0.  1.
        1   -1    0    0  501    0  0.00000000000E+00  0.00000000000E+00 -0.12771250534E+04  0.12771250534E+04  0.50400001928E-02 0. -1.
    10030    2    1    2    0    0  0.00000000000E+00  0.00000000000E+00 -0.94552967621E+03  0.16087204306E+04  0.13015202861E+04 0.  0.
        1    1    3    3  502    0 -0.21002495318E+03 -0.42530039907E+03  0.77925609230E+02  0.48069045238E+03  0.50400001928E-02 0.  1.
       -1    1    3    3    0  502  0.21002495318E+03  0.42530039907E+03 -0.10234552854E+04  0.11280299782E+04  0.50400001928E-02 0. -1.
</event>
<event>
 5   0  0.6052864E-04  0.1287002E+04  0.7818609E-02  0.9039937E-01
       -2   -1    0    0    0  501  0.00000000000E+00  0.00000000000E+00  0.45132978185E+03  0.45132978186E+03  0.25500000920E-02 0. -1.
        2   -1    0    0  501    0  0.00000000000E+00  0.00000000000E+00 -0.91749675341E+03  0.91749675341E+03  0.25500000920E-02 0.  1.
    10030    2    1    2    0    0  0.00000000000E+00  0.00000000000E+00 -0.46616697156E+03  0.13688265353E+04  0.12870021128E+04 0.  0.
        2    1    3    3  502    0 -0.33945296596E+03 -0.21797882541E+02  0.34789679758E+03  0.48655487415E+03  0.25500000920E-02 0. -1.
       -2    1    3    3    0  502  0.33945296596E+03  0.21797882541E+02 -0.81406376914E+03  0.88227166112E+03  0.25500000920E-02 0.  1.
</event>
<event>
 5   0  0.3337520E-04  0.1299394E+04  0.7818609E-02  0.9030046E-01
        1   -1    0    0  501    0  0.00000000000E+00  0.00000000000E+00  0.75104740242E+03  0.75104740243E+03  0.50400001928E-02 0. -1.
       -1   -1    0    0    0  501  0.00000000000E+00  0.00000000000E+00 -0.56202313941E+03  0.56202313944E+03  0.50400001928E-02 0.  1.
    10030    2    1    2    0    0  0.00000000000E+00  0.00000000000E+00  0.18902426300E+03  0.13130705419E+04  0.12993937340E+04 0.  0.
        5    1    3    3  502    0 -0.42712986444E+03  0.48516475904E+03  0.28562937005E+02  0.64704149471E+03  0.46999998093E+01 0. -1.
       -5    1    3    3    0  502  0.42712986444E+03 -0.48516475904E+03  0.16046132600E+03  0.66602904715E+03  0.46999998093E+01 0.  1.
</event>
<event>
 5   0  0.3274879E-04  0.1298411E+04  0.7818609E-02  0.9030826E-01
       -1   -1    0    0    0  501  0.00000000000E+00  0.00000000000E+00  0.10001514152E+04  0.10001514152E+04  0.50400001928E-02 0. -1.
        1   -1    0    0  501    0  0.00000000000E+00  0.00000000000E+00 -0.42140394877E+03  0.42140394880E+03  0.50400001928E-02 0.  1.
    10030    2    1    2    0    0  0.00000000000E+00  0.00000000000E+00  0.57874746644E+03  0.14215553640E+04  0.12984109608E+04 0.  0.
        4    1    3    3  502    0 -0.62148420056E+03 -0.21820677379E+02  0.85287976628E+02  0.62768973655E+03  0.12699999809E+01 0.  1.
       -4    1    3    3    0  502  0.62148420056E+03  0.21820677379E+02  0.49345948981E+03  0.79386562748E+03  0.12699999809E+01 0. -1.
</event>
<event>
 5   0  0.3337520E-04  0.1304950E+04  0.7818609E-02  0.9025649E-01
        1   -1    0    0  501    0  0.00000000000E+00  0.00000000000E+00  0.12145738460E+04  0.12145738460E+04  0.50400001928E-02 0.  1.
       -1   -1    0    0    0  501  0.00000000000E+00  0.00000000000E+00 -0.35051265603E+03  0.35051265606E+03  0.50400001928E-02 0. -1.
    10030    2    1    2    0    0  0.00000000000E+00  0.00000000000E+00  0.86406118999E+03  0.15650865021E+04  0.13049498147E+04 0.  0.
        5    1    3    3  502    0 -0.10449231210E+03 -0.64399539773E+03  0.42332403946E+03  0.77773649006E+03  0.46999998093E+01 0.  1.
       -5    1    3    3    0  502  0.10449231210E+03  0.64399539773E+03  0.44073715053E+03  0.78735001203E+03  0.46999998093E+01 0. -1.
</event>
<event>
 5   0  0.5957913E-04  0.1299555E+04  0.7818609E-02  0.9029918E-01
        2   -1    0    0  501    0  0.00000000000E+00  0.00000000000E+00  0.86047166914E+03  0.86047166915E+03  0.25500000920E-02 0. -1.
       -2   -1    0    0    0  501  0.00000000000E+00  0.00000000000E+00 -0.49067403973E+03  0.49067403973E+03  0.25500000920E-02 0.  1.
    10030    2    1    2    0    0  0.00000000000E+00  0.00000000000E+00  0.36979762942E+03  0.13511457089E+04  0.12995554778E+04 0.  0.
        1    1    3    3  502    0  0.19780591653E+03  0.37882797569E+03  0.69379191703E+03  0.81485277194E+03  0.50400001928E-02 0. -1.
       -1    1    3    3    0  502 -0.19780591653E+03 -0.37882797569E+03 -0.32399428761E+03  0.53629293694E+03  0.50400001928E-02 0.  1.
</event>
<event>
 5   0  0.5384960E-04  0.1296593E+04  0.7818609E-02  0.9032271E-01
       -2   -1    0    0    0  501  0.00000000000E+00  0.00000000000E+00  0.32071313074E+03  0.32071313076E+03  0.25500000920E-02 0.  1.
        2   -1    0    0  501    0  0.00000000000E+00  0.00000000000E+00 -0.13104811954E+04  0.13104811954E+04  0.25500000920E-02 0. -1.
    10030    2    1    2    0    0  0.00000000000E+00  0.00000000000E+00 -0.98976806470E+03  0.16311943262E+04  0.12965932700E+04 0.  0.
        3    1    3    3  502    0  0.18713248093E+03 -0.97635104858E+02  0.27627529525E+03  0.34767690186E+03  0.10100000352E+00 0.  1.
       -3    1    3    3    0  502 -0.18713248093E+03  0.97635104858E+02 -0.12660433599E+04  0.12835174243E+04  0.10100000352E+00 0. -1.
</event>
<event>
 5   0  0.6007125E-04  0.1296170E+04  0.7818609E-02  0.9032608E-01
        2   -1    0    0  501    0  0.00000000000E+00  0.00000000000E+00  0.17190169864E+04  0.17190169864E+04  0.25500000920E-02 0. -1.
       -2   -1    0    0    0  501  0.00000000000E+00  0.00000000000E+00 -0.24433383912E+03  0.24433383913E+03  0.25500000920E-02 0.  1.
    10030    2    1    2    0    0  0.00000000000E+00  0.00000000000E+00  0.14746831473E+04  0.19633508256E+04  0.12961697726E+04 0.  0.
        5    1    3    3  502    0  0.42300624841E+03  0.17045285021E+03  0.14347826217E+04  0.15055270579E+04  0.46999998093E+01 0. -1.
       -5    1    3    3    0  502 -0.42300624841E+03 -0.17045285021E+03  0.39900525588E+02  0.45782376771E+03  0.46999998093E+01 0.  1.
</event>
<event>
 5   0  0.3337520E-04  0.1304960E+04  0.7818609E-02  0.9025641E-01
        1   -1    0    0  501    0  0.00000000000E+00  0.00000000000E+00  0.11600052302E+04  0.11600052302E+04  0.50400001928E-02 0. -1.
       -1   -1    0    0    0  501  0.00000000000E+00  0.00000000000E+00 -0.36700687430E+03  0.36700687433E+03  0.50400001928E-02 0.  1.
    10030    2    1    2    0    0  0.00000000000E+00  0.00000000000E+00  0.79299835589E+03  0.15270121045E+04  0.13049596066E+04 0.  0.
        5    1    3    3  502    0 -0.18379644701E+03 -0.50145063848E+03 -0.42075216634E+02  0.53574834635E+03  0.46999998093E+01 0.  1.
       -5    1    3    3    0  502  0.18379644701E+03  0.50145063848E+03  0.83507357253E+03  0.99126375818E+03  0.46999998093E+01 0. -1.
</event>
<event>
 5   0  0.5384960E-04  0.1303508E+04  0.7818609E-02  0.9026788E-01
       -2   -1    0    0    0  501  0.00000000000E+00  0.00000000000E+00  0.34833144901E+03  0.34833144902E+03  0.25500000920E-02 0.  1.
        2   -1    0    0  501    0  0.00000000000E+00  0.00000000000E+00 -0.12194808509E+04  0.12194808509E+04  0.25500000920E-02 0. -1.
    10030    2    1    2    0    0  0.00000000000E+00  0.00000000000E+00 -0.87114940187E+03  0.15678122999E+04  0.13035083917E+04 0.  0.
        3    1    3    3  502    0  0.22191122405E+03  0.30633966532E+03 -0.10739407165E+04  0.11386119860E+04  0.10100000352E+00 0. -1.
       -3    1    3    3    0  502 -0.22191122405E+03 -0.30633966532E+03  0.20279131468E+03  0.42920031386E+03  0.10100000352E+00 0.  1.
</event>
<event>
 5   0  0.5787604E-04  0.1300535E+04  0.7818609E-02  0.9029141E-01
        2   -1    0    0  501    0  0.00000000000E+00  0.00000000000E+00  0.22791914393E+04  0.22791914393E+04  0.25500000920E-02 0. -1.
       -2   -1    0    0    0  501  0.00000000000E+00  0.00000000000E+00 -0.18552547201E+03  0.18552547203E+03  0.25500000920E-02 0.  1.
    10030    2    1    2    0    0  0.00000000000E+00  0.00000000000E+00  0.20936659673E+04  0.24647169114E+04  0.13005353784E+04 0.  0.
        4    1    3    3  502    0 -0.95723625891E+02 -0.61066674755E+03  0.14294928506E+04  0.15574107718E+04  0.12699999809E+01 0. -1.
       -4    1    3    3    0  502  0.95723625891E+02  0.61066674755E+03  0.66417311669E+03  0.90730613960E+03  0.12699999809E+01 0.  1.
</event>
<event>
 5   0  0.6007125E-04  0.1301257E+04  0.7818609E-02  0.9028569E-01
       -2   -1    0    0    0  501  0.00000000000E+00  0.00000000000E+00  0.65221010612E+03  0.65221010613E+03  0.25500000920E-02 0.  1.
        2   -1    0    0  501    0  0.00000000000E+00  0.00000000000E+00 -0.64905040162E+03  0.64905040163E+03  0.25500000920E-02 0. -1.
    10030    2    1    2    0    0  0.00000000000E+00  0.00000000000E+00  0.31597045047E+01  0.13012605078E+04  0.13012566716E+04 0.  0.
        5    1    3    3  502    0  0.60742838593E+03 -0.11228968174E+03 -0.20266796449E+03  0.65013430188E+03  0.46999998093E+01 0. -1.
       -5    1    3    3    0  502 -0.60742838593E+03  0.11228968174E+03  0.20582766900E+03  0.65112620587E+03  0.46999998093E+01 0.  1.
</event>
<event>
 5   0  0.3337520E-04  0.1297831E+04  0.7818609E-02  0.9031287E-01
       -1   -1    0    0    0  501  0.00000000000E+00  0.00000000000E+00  0.81107457267E+03  0.81107457269E+03  0.50400001928E-02 0. -1.
        1   -1    0    0  501    0  0.00000000000E+00  0.00000000000E+00 -0.51917683850E+03  0.51917683852E+03  0.50400001928E-02 0.  1.
    10030    2    1    2    0    0  0.00000000000E+00  0.00000000000E+00  0.29189773417E+03  0.13302514112E+04  0.12978307015E+04 0.  0.
        5    1    3    3  502    0  0.53471031773E+03  0.35329917105E+03  0.41755083542E+02  0.64226241144E+03  0.46999998093E+01 0.  1.
       -5    1    3    3    0  502 -0.53471031773E+03 -0.35329917105E+03  0.25014265063E+03  0.68798899977E+03  0.46999998093E+01 0. -1.
</event>
<event>
 5   0  0.5384960E-04  0.1301693E+04  0.7818609E-02  0.9028224E-01
        2   -1    0    0  501    0  0.00000000000E+00  0.00000000000E+00  0.11159313336E+04  0.11159313336E+04  0.25500000920E-02 0.  1.
       -2   -1    0    0    0  501  0.00000000000E+00  0.00000000000E+00 -0.37959440533E+03  0.37959440534E+03  0.25500000920E-02 0. -1.
    10030    2    1    2    0    0  0.00000000000E+00  0.00000000000E+00  0.73633692828E+03  0.14955257390E+04  0.13016931912E+04 0.  0.
        3    1    3    3  502    0 -0.41552888763E+03 -0.14411277444E+03 -0.18303029751E+03  0.47637469309E+03  0.10100000352E+00 0. -1.
       -3    1    3    3    0  502  0.41552888763E+03  0.14411277444E+03  0.91936722580E+03  0.10191510459E+04  0.10100000352E+00 0.  1.
</event>
<event>
 5   0  0.5957913E-04  0.1306787E+04  0.7818609E-02  0.9024200E-01
        2   -1    0    0  501    0  0.00000000000E+00  0.00000000000E+00  0.90670117052E+03  0.90670117052E+03  0.25500000920E-02 0.  1.
       -2   -1    0    0    0  501  0.00000000000E+00  0.00000000000E+00 -0.47085344527E+03  0.47085344528E+03  0.25500000920E-02 0. -1.
    10030    2    1    2    0    0  0.00000000000E+00  0.00000000000E+00  0.43584772525E+03  0.13775546158E+04  0.13067874655E+04 0.  0.
        1    1    3    3  502    0 -0.47409581925E+03 -0.44181291430E+03  0.12999284259E+03  0.66095660691E+03  0.50400001928E-02 0. -1.
       -1    1    3    3    0  502  0.47409581925E+03  0.44181291430E+03  0.30585488266E+03  0.71659800889E+03  0.50400001928E-02 0.  1.
</event>
<event>
 5   0  0.5787604E-04  0.1300332E+04  0.7818609E-02  0.9029302E-01
        2   -1    0    0  501    0  0.00000000000E+00  0.00000000000E+00  0.81140835579E+03  0.81140835580E+03  0.25500000920E-02 0.  1.
       -2   -1    0    0    0  501  0.00000000000E+00  0.00000000000E+00 -0.52096525770E+03  0.52096525771E+03  0.25500000920E-02 0. -1.
    10030    2    1    2    0    0  0.00000000000E+00  0.00000000000E+00  0.29044309809E+03  0.13323736135E+04  0.13003315934E+04 0.  0.
        4    1    3    3  502    0  0.11401522433E+03 -0.23974202732E+03 -0.46289967301E+03  0.53362292981E+03  0.12699999809E+01 0. -1.
       -4    1    3    3    0  502 -0.11401522433E+03  0.23974202732E+03  0.75334277110E+03  0.79875068370E+03  0.12699999809E+01 0.  1.
</event>
<event>
 5   0  0.5957913E-04  0.1300066E+04  0.7818609E-02  0.9029513E-01
       -2   -1    0    0    0  501  0.00000000000E+00  0.00000000000E+00  0.98314324250E+03  0.98314324250E+03  0.25500000920E-02 0. -1.
        2   -1    0    0  501    0  0.00000000000E+00  0.00000000000E+00 -0.42978774203E+03  0.42978774203E+03  0.25500000920E-02 0.  1.
    10030    2    1    2    0    0  0.00000000000E+00  0.00000000000E+00  0.55335550047E+03  0.14129309845E+04  0.13000660203E+04 0.  0.
        1    1    3    3  502    0  0.56180403986E+03  0.31546299272E+03  0.37018321315E+03  0.74308565475E+03  0.50400001928E-02 0. -1.
       -1    1    3    3    0  502 -0.56180403986E+03 -0.31546299272E+03  0.18317228732E+03  0.66984532979E+03  0.50400001928E-02 0.  1.
</event>
<event>
 5   0  0.5384960E-04  0.1304095E+04  0.7818609E-02  0.9026324E-01
       -2   -1    0    0    0  501  0.00000000000E+00  0.00000000000E+00  0.36857191988E+03  0.36857191989E+03  0.25500000920E-02 0.  1.
        2   -1    0    0  501    0  0.00000000000E+00  0.00000000000E+00 -0.11535500165E+04  0.11535500166E+04  0.25500000920E-02 0. -1.
    10030    2    1    2    0    0  0.00000000000E+00  0.00000000000E+00 -0.78497809667E+03  0.15221219364E+04  0.13040953098E+04 0.  0.
        3    1    3    3  502    0  0.18207374174E+03  0.61509949148E+03 -0.25603354875E+03  0.69068909079E+03  0.10100000352E+00 0. -1.
       -3    1    3    3    0  502 -0.18207374174E+03 -0.61509949148E+03 -0.52894454792E+03  0.83143284565E+03  0.10100000352E+00 0.  1.
</event>
<event>
 5   0  0.6052864E-04  0.1295915E+04  0.7818609E-02  0.9032811E-01
        2   -1    0    0  501    0  0.00000000000E+00  0.00000000000E+00  0.14679443285E+04  0.14679443285E+04  0.25500000920E-02 0.  1.
       -2   -1    0    0    0  501  0.00000000000E+00  0.00000000000E+00 -0.28601134975E+03  0.28601134976E+03  0.25500000920E-02 0. -1.
    10030    2    1    2    0    0  0.00000000000E+00  0.00000000000E+00  0.11819329788E+04  0.17539556783E+04  0.12959147175E+04 0.  0.
        2    1    3    3  502    0  0.28368175217E+03  0.10003687178E+03  0.13677170813E+04  0.14004044868E+04  0.25500000920E-02 0.  1.
       -2    1    3    3    0  502 -0.28368175217E+03 -0.10003687178E+03 -0.18578410252E+03  0.35355119147E+03  0.25500000920E-02 0. -1.
</event>
<event>
 5   0  0.5957913E-04  0.1300135E+04  0.7818609E-02  0.9029458E-01
        2   -1    0    0  501    0  0.00000000000E+00  0.00000000000E+00  0.79543020741E+03  0.79543020741E+03  0.25500000920E-02 0.  1.
       -2   -1    0    0    0  501  0.00000000000E+00  0.00000000000E+00 -0.53126911666E+03  0.53126911667E+03  0.25500000920E-02 0. -1.
    10030    2    1    2    0    0  0.00000000000E+00  0.00000000000E+00  0.26416109075E+03  0.13266993241E+04  0.13001346141E+04 0.  0.
        1    1    3    3  502    0  0.17124457147E+03 -0.30123209434E+03 -0.42917763888E+03  0.55159670381E+03  0.50400001928E-02 0. -1.
       -1    1    3    3    0  502 -0.17124457147E+03  0.30123209434E+03  0.69333872963E+03  0.77510262027E+03  0.50400001928E-02 0.  1.
</event>
<event>
 5   0  0.6052864E-04  0.1299305E+04  0.7818609E-02  0.9030117E-01
        2   -1    0    0  501    0  0.00000000000E+00  0.00000000000E+00  0.39208262175E+03  0.39208262176E+03  0.25500000920E-02 0. -1.
       -2   -1    0    0    0  501  0.00000000000E+00  0.00000000000E+00 -0.10764265988E+04  0.10764265988E+04  0.25500000920E-02 0.  1.
    10030    2    1    2    0    0  0.00000000000E+00  0.00000000000E+00 -0.68434397701E+03  0.14685092205E+04  0.12993046802E+04 0.  0.
        2    1    3    3  502    0 -0.18172834463E+03  0.31647357822E+03 -0.94962819790E+03  0.10173369310E+04  0.25500000920E-02 0.  1.
       -2    1    3    3    0  502  0.18172834463E+03 -0.31647357822E+03  0.26528422089E+03  0.45117228950E+03  0.25500000920E-02 0. -1.
</event>
<event>
 5   0  0.3403833E-04  0.1300839E+04  0.7818609E-02  0.9028900E-01
        1   -1    0    0  501    0  0.00000000000E+00  0.00000000000E+00  0.24757768227E+04  0.24757768227E+04  0.50400001928E-02 0. -1.
       -1   -1    0    0    0  501  0.00000000000E+00  0.00000000000E+00 -0.17087384340E+03  0.17087384348E+03  0.50400001928E-02 0.  1.
    10030    2    1    2    0    0  0.00000000000E+00  0.00000000000E+00  0.23049029793E+04  0.26466506662E+04  0.13008389619E+04 0.  0.
        1    1    3    3  502    0  0.24561020548E+03  0.25873759669E+03  0.22589594435E+04  0.22869558991E+04  0.50400001928E-02 0. -1.
       -1    1    3    3    0  502 -0.24561020548E+03 -0.25873759669E+03  0.45943535813E+02  0.35969476711E+03  0.50400001928E-02 0.  1.
</event>
<event>
 5   0  0.3263679E-04  0.1301749E+04  0.7818609E-02  0.9028179E-01
        1   -1    0    0  501    0  0.00000000000E+00  0.00000000000E+00  0.10635287253E+04  0.10635287253E+04  0.50400001928E-02 0. -1.
       -1   -1    0    0    0  501  0.00000000000E+00  0.00000000000E+00 -0.39833217481E+03  0.39833217484E+03  0.50400001928E-02 0.  1.
    10030    2    1    2    0    0  0.00000000000E+00  0.00000000000E+00  0.66519655052E+03  0.14618609002E+04  0.13017491466E+04 0.  0.
        2    1    3    3  502    0  0.41250402233E+03 -0.55677944932E+02  0.89452142667E+03  0.98662464229E+03  0.25500000920E-02 0. -1.
       -2    1    3    3    0  502 -0.41250402233E+03  0.55677944932E+02 -0.22932487615E+03  0.47523625790E+03  0.25500000920E-02 0.  1.
</event>
<event>
 5   0  0.3274879E-04  0.1300497E+04  0.7818609E-02  0.9029171E-01
        1   -1    0    0  501    0  0.00000000000E+00  0.00000000000E+00  0.78863743427E+03  0.78863743429E+03  0.50400001928E-02 0. -1.
       -1   -1    0    0    0  501  0.00000000000E+00  0.00000000000E+00 -0.53614394234E+03  0.53614394236E+03  0.50400001928E-02 0.  1.
    10030    2    1    2    0    0  0.00000000000E+00  0.00000000000E+00  0.25249349193E+03  0.13247813766E+04  0.13004971097E+04 0.  0.
        4    1    3    3  502    0 -0.16498819956E+03 -0.95546066529E+02  0.75952344780E+03  0.78308852468E+03  0.12699999809E+01 0. -1.
       -4    1    3    3    0  502  0.16498819956E+03  0.95546066529E+02 -0.50702995587E+03  0.54169285197E+03  0.12699999809E+01 0.  1.
</event>
<event>
 5   0  0.3337520E-04  0.1303257E+04  0.7818609E-02  0.9026987E-01
       -1   -1    0    0    0  501  0.00000000000E+00  0.00000000000E+00  0.20720452037E+03  0.20720452043E+03  0.50400001928E-02 0. -1.
        1   -1    0    0  501    0  0.00000000000E+00  0.00000000000E+00 -0.20492767373E+04  0.20492767373E+04  0.50400001928E-02 0.  1.
    10030    2    1    2    0    0  0.00000000000E+00  0.00000000000E+00 -0.18420722169E+04  0.22564812578E+04  0.13032565420E+04 0.  0.
        5    1    3    3  502    0 -0.58459683576E+03 -0.23716998215E+03 -0.63868095890E+03  0.89774078557E+03  0.46999998093E+01 0. -1.
       -5    1    3    3    0  502  0.58459683576E+03  0.23716998215E+03 -0.12033912580E+04  0.13587404722E+04  0.46999998093E+01 0.  1.
</event>
<event>
 5   0  0.5384960E-04  0.1304747E+04  0.7818609E-02  0.9025809E-01
       -2   -1    0    0    0  501  0.00000000000E+00  0.00000000000E+00  0.22219803149E+03  0.22219803150E+03  0.25500000920E-02 0. -1.
        2   -1    0    0  501    0  0.00000000000E+00  0.00000000000E+00 -0.19153701158E+04  0.19153701158E+04  0.25500000920E-02 0.  1.
    10030    2    1    2    0    0  0.00000000000E+00  0.00000000000E+00 -0.16931720843E+04  0.21375681473E+04  0.13047474381E+04 0.  0.
        3    1    3    3  502    0 -0.13284048438E+03 -0.28097224905E+03 -0.17862901148E+04  0.18131255841E+04  0.10100000352E+00 0.  1.
       -3    1    3    3    0  502  0.13284048438E+03  0.28097224905E+03  0.93118030526E+02  0.32444256323E+03  0.10100000352E+00 0. -1.
</event>
<event>
 5   0  0.2255875E-04  0.1296652E+04  0.7818609E-02  0.9032224E-01
       -3   -1    0    0    0  501  0.00000000000E+00  0.00000000000E+00  0.89364425351E+03  0.89364425922E+03  0.10100000352E+00 0.  1.
        3   -1    0    0  501    0  0.00000000000E+00  0.00000000000E+00 -0.47035140461E+03  0.47035141545E+03  0.10100000352E+00 0. -1.
    10030    2    1    2    0    0  0.00000000000E+00  0.00000000000E+00  0.42329284891E+03  0.13639956747E+04  0.12966523684E+04 0.  0.
        4    1    3    3  502    0 -0.64743291015E+03  0.17812919220E+02  0.18118464875E+03  0.67254454356E+03  0.12699999809E+01 0. -1.
       -4    1    3    3    0  502  0.64743291015E+03 -0.17812919220E+02  0.24210820016E+03  0.69145113111E+03  0.12699999809E+01 0.  1.
</event>
<event>
 5   0  0.5384960E-04  0.1303875E+04  0.7818609E-02  0.9026498E-01
        2   -1    0    0  501    0  0.00000000000E+00  0.00000000000E+00  0.28809791283E+04  0.28809791283E+04  0.25500000920E-02 0. -1.
       -2   -1    0    0    0  501  0.00000000000E+00  0.00000000000E+00 -0.14752716400E+03  0.14752716402E+03  0.25500000920E-02 0.  1.
    10030    2    1    2    0    0  0.00000000000E+00  0.00000000000E+00  0.27334519643E+04  0.30285062923E+04  0.13038752707E+04 0.  0.
        3    1    3    3  502    0  0.39729973775E+03  0.44442836663E+03  0.75369687197E+03  0.96094882262E+03  0.10100000352E+00 0. -1.
       -3    1    3    3    0  502 -0.39729973775E+03 -0.44442836663E+03  0.19797550923E+04  0.20675574697E+04  0.10100000352E+00 0.  1.
</event>
<event>
 5   0  0.3335747E-04  0.1278482E+04  0.7818609E-02  0.9046805E-01
       -1   -1    0    0    0  501  0.00000000000E+00  0.00000000000E+00  0.38520254114E+03  0.38520254117E+03  0.50400001928E-02 0.  1.
        1   -1    0    0  501    0  0.00000000000E+00  0.00000000000E+00 -0.10608166909E+04  0.10608166910E+04  0.50400001928E-02 0. -1.
    10030    2    1    2    0    0  0.00000000000E+00  0.00000000000E+00 -0.67561414980E+03  0.14460192321E+04  0.12784823582E+04 0.  0.
        3    1    3    3  502    0  0.52134758107E+03  0.22123396835E+03 -0.67310284486E+03  0.87966767532E+03  0.10100000352E+00 0. -1.
       -3    1    3    3    0  502 -0.52134758107E+03 -0.22123396835E+03 -0.25113049387E+01  0.56635155681E+03  0.10100000352E+00 0.  1.
</event>
<event>
 5   0  0.3263679E-04  0.1303133E+04  0.7818609E-02  0.9027085E-01
       -1   -1    0    0    0  501  0.00000000000E+00  0.00000000000E+00  0.52458169599E+03  0.52458169601E+03  0.50400001928E-02 0.  1.
        1   -1    0    0  501    0  0.00000000000E+00  0.00000000000E+00 -0.80928977831E+03  0.80928977832E+03  0.50400001928E-02 0. -1.
    10030    2    1    2    0    0  0.00000000000E+00  0.00000000000E+00 -0.28470808232E+03  0.13338714743E+04  0.13031325404E+04 0.  0.
        2    1    3    3  502    0  0.28836937544E+02 -0.49978902074E+03  0.28451791519E+03  0.57582208909E+03  0.25500000920E-02 0.  1.
       -2    1    3    3    0  502 -0.28836937544E+02  0.49978902074E+03 -0.56922599751E+03  0.75804938524E+03  0.25500000920E-02 0. -1.
</event>
<event>
 5   0  0.3337520E-04  0.1305049E+04  0.7818609E-02  0.9025571E-01
       -1   -1    0    0    0  501  0.00000000000E+00  0.00000000000E+00  0.83764301973E+03  0.83764301974E+03  0.50400001928E-02 0. -1.
        1   -1    0    0  501    0  0.00000000000E+00  0.00000000000E+00 -0.50831675539E+03  0.50831675542E+03  0.50400001928E-02 0.  1.
    10030    2    1    2    0    0  0.00000000000E+00  0.00000000000E+00  0.32932626434E+03  0.13459597752E+04  0.13050486305E+04 0.  0.
        5    1    3    3  502    0 -0.75380249906E+02  0.55523581307E+03 -0.18017895880E+03  0.58860473782E+03  0.46999998093E+01 0.  1.
       -5    1    3    3    0  502  0.75380249906E+02 -0.55523581307E+03  0.50950522314E+03  0.75735503734E+03  0.46999998093E+01 0. -1.
</event>
<event>
 5   0  0.5787604E-04  0.1295838E+04  0.7818609E-02  0.9032872E-01
       -2   -1    0    0    0  501  0.00000000000E+00  0.00000000000E+00  0.43902673329E+03  0.43902673330E+03  0.25500000920E-02 0. -1.
        2   -1    0    0  501    0  0.00000000000E+00  0.00000000000E+00 -0.95620339324E+03  0.95620339324E+03  0.25500000920E-02 0.  1.
    10030    2    1    2    0    0  0.00000000000E+00  0.00000000000E+00 -0.51717665995E+03  0.13952301265E+04  0.12958377246E+04 0.  0.
        4    1    3    3  502    0 -0.42988375337E+02  0.41794867755E+02 -0.95320872523E+03  0.95509334525E+03  0.12699999809E+01 0.  1.
       -4    1    3    3    0  502  0.42988375337E+02 -0.41794867755E+02  0.43603206528E+03  0.44013678129E+03  0.12699999809E+01 0. -1.
</event>
<event>
 5   0  0.5787604E-04  0.1301313E+04  0.7818609E-02  0.9028525E-01
       -2   -1    0    0    0  501  0.00000000000E+00  0.00000000000E+00  0.74766596589E+03  0.74766596590E+03  0.25500000920E-02 0.  1.
        2   -1    0    0  501    0  0.00000000000E+00  0.00000000000E+00 -0.56623393893E+03  0.56623393893E+03  0.25500000920E-02 0. -1.
    10030    2    1    2    0    0  0.00000000000E+00  0.00000000000E+00  0.18143202696E+03  0.13138999048E+04  0.13013129445E+04 0.  0.
        4    1    3    3  502    0 -0.20327962163E+03 -0.16550490079E+03 -0.51055880515E+03  0.57392193125E+03  0.12699999809E+01 0. -1.
       -4    1    3    3    0  502  0.20327962163E+03  0.16550490079E+03  0.69199083211E+03  0.73997797358E+03  0.12699999809E+01 0.  1.
</event>
<event>
 5   0  0.5384960E-04  0.1298609E+04  0.7818609E-02  0.9030669E-01
       -2   -1    0    0    0  501  0.00000000000E+00  0.00000000000E+00  0.26772862177E+03  0.26772862179E+03  0.25500000920E-02 0. -1.
        2   -1    0    0  501    0  0.00000000000E+00  0.00000000000E+00 -0.15747158200E+04  0.15747158200E+04  0.25500000920E-02 0.  1.
    10030    2    1    2    0    0  0.00000000000E+00  0.00000000000E+00 -0.13069871983E+04  0.18424444418E+04  0.12986092502E+04 0.  0.
        3    1    3    3  502    0 -0.89072791458E+02 -0.21212293755E+03 -0.15149487613E+04  0.15323184598E+04  0.10100000352E+00 0.  1.
       -3    1    3    3    0  502  0.89072791458E+02  0.21212293755E+03  0.20796156302E+03  0.31012598200E+03  0.10100000352E+00 0. -1.
</event>
<event>
 5   0  0.3403833E-04  0.1300411E+04  0.7818609E-02  0.9029239E-01
        1   -1    0    0  501    0  0.00000000000E+00  0.00000000000E+00  0.18988122769E+04  0.18988122769E+04  0.50400001928E-02 0.  1.
       -1   -1    0    0    0  501  0.00000000000E+00  0.00000000000E+00 -0.22264828208E+03  0.22264828214E+03  0.50400001928E-02 0. -1.
    10030    2    1    2    0    0  0.00000000000E+00  0.00000000000E+00  0.16761639948E+04  0.21214605590E+04  0.13004111527E+04 0.  0.
        1    1    3    3  502    0  0.11228905036E+03  0.60525775190E+03  0.11795877059E+04  0.13305536190E+04  0.50400001928E-02 0. -1.
       -1    1    3    3    0  502 -0.11228905036E+03 -0.60525775190E+03  0.49657628891E+03  0.79090694004E+03  0.50400001928E-02 0.  1.
</event>
<event>
 5   0  0.5787604E-04  0.1296723E+04  0.7818609E-02  0.9032168E-01
        2   -1    0    0  501    0  0.00000000000E+00  0.00000000000E+00  0.40104159977E+03  0.40104159977E+03  0.25500000920E-02 0.  1.
       -2   -1    0    0    0  501  0.00000000000E+00  0.00000000000E+00 -0.10482019229E+04  0.10482019229E+04  0.25500000920E-02 0. -1.
    10030    2    1    2    0    0  0.00000000000E+00  0.00000000000E+00 -0.64716032316E+03  0.14492435227E+04  0.12967229096E+04 0.  0.
        4    1    3    3  502    0 -0.29143419635E+03 -0.89855559471E+01 -0.97079347127E+03  0.10136351453E+04  0.12699999809E+01 0. -1.
       -4    1    3    3    0  502  0.29143419635E+03  0.89855559471E+01  0.32363314811E+03  0.43560837741E+03  0.12699999809E+01 0.  1.
</event>
<event>
 5   0  0.3274879E-04  0.1331068E+04  0.7818609E-02  0.9005285E-01
        1   -1    0    0  501    0  0.00000000000E+00  0.00000000000E+00  0.19105331361E+04  0.19105331361E+04  0.50400001928E-02 0.  1.
       -1   -1    0    0    0  501  0.00000000000E+00  0.00000000000E+00 -0.23183861985E+03  0.23183861991E+03  0.50400001928E-02 0. -1.
    10030    2    1    2    0    0  0.00000000000E+00  0.00000000000E+00  0.16786945163E+04  0.21423717560E+04  0.13310677902E+04 0.  0.
        4    1    3    3  502    0 -0.45969337322E+03  0.78484031495E+02  0.75114639234E+02  0.47235745205E+03  0.12699999809E+01 0. -1.
       -4    1    3    3    0  502  0.45969337322E+03 -0.78484031495E+02  0.16035798770E+04  0.16700143040E+04  0.12699999809E+01 0.  1.
</event>
<event>
 5   0  0.5957913E-04  0.1297250E+04  0.7818609E-02  0.9031749E-01
        2   -1    0    0  501    0  0.00000000000E+00  0.00000000000E+00  0.10274572612E+04  0.10274572612E+04  0.25500000920E-02 0. -1.
       -2   -1    0    0    0  501  0.00000000000E+00  0.00000000000E+00 -0.40947160357E+03  0.40947160358E+03  0.25500000920E-02 0.  1.
    10030    2    1    2    0    0  0.00000000000E+00  0.00000000000E+00  0.61798565763E+03  0.14369288648E+04  0.12972502802E+04 0.  0.
        1    1    3    3  502    0 -0.46818954557E+03 -0.57541146584E+02 -0.18414198491E+03  0.50638000036E+03  0.50400001928E-02 0.  1.
       -1    1    3    3    0  502  0.46818954557E+03  0.57541146584E+02  0.80212764254E+03  0.93054886443E+03  0.50400001928E-02 0. -1.
</event>
<event>
 5   0  0.6007125E-04  0.1295917E+04  0.7818609E-02  0.9032810E-01
        2   -1    0    0  501    0  0.00000000000E+00  0.00000000000E+00  0.10076573498E+04  0.10076573498E+04  0.25500000920E-02 0.  1.
       -2   -1    0    0    0  501  0.00000000000E+00  0.00000000000E+00 -0.41665948726E+03  0.41665948727E+03  0.25500000920E-02 0. -1.
    10030    2    1    2    0    0  0.00000000000E+00  0.00000000000E+00  0.59099786256E+03  0.14243168371E+04  0.12959166558E+04 0.  0.
        5    1    3    3  502    0  0.34210058516E+03  0.72712205665E+02  0.89498470615E+03  0.96090560903E+03  0.46999998093E+01 0.  1.
       -5    1    3    3    0  502 -0.34210058516E+03 -0.72712205665E+02 -0.30398684359E+03  0.46341122806E+03  0.46999998093E+01 0. -1.
</event>
<event>
 5   0  0.3274879E-04  0.1302034E+04  0.7818609E-02  0.9027954E-01
       -1   -1    0    0    0  501  0.00000000000E+00  0.00000000000E+00  0.32915916946E+03  0.32915916950E+03  0.50400001928E-02 0. -1.
        1   -1    0    0  501    0  0.00000000000E+00  0.00000000000E+00 -0.12875926883E+04  0.12875926883E+04  0.50400001928E-02 0.  1.
    10030    2    1    2    0    0  0.00000000000E+00  0.00000000000E+00 -0.95843351887E+03  0.16167518578E+04  0.13020337015E+04 0.  0.
        4    1    3    3  502    0 -0.21744976649E+03  0.14775131397E+02  0.28250962321E+03  0.35681368466E+03  0.12699999809E+01 0. -1.
       -4    1    3    3    0  502  0.21744976649E+03 -0.14775131397E+02 -0.12409431421E+04  0.12599381732E+04  0.12699999809E+01 0.  1.
</event>
<event>
 5   0  0.3403833E-04  0.1303579E+04  0.7818609E-02  0.9026732E-01
        1   -1    0    0  501    0  0.00000000000E+00  0.00000000000E+00  0.23640341448E+04  0.23640341448E+04  0.50400001928E-02 0. -1.
       -1   -1    0    0    0  501  0.00000000000E+00  0.00000000000E+00 -0.17970527545E+03  0.17970527552E+03  0.50400001928E-02 0.  1.
    10030    2    1    2    0    0  0.00000000000E+00  0.00000000000E+00  0.21843288693E+04  0.25437394203E+04  0.13035787775E+04 0.  0.
        1    1    3    3  502    0 -0.17686644575E+03 -0.40707857312E+03  0.16074504129E+03  0.47205261640E+03  0.50400001928E-02 0.  1.
       -1    1    3    3    0  502  0.17686644575E+03  0.40707857312E+03  0.20235838280E+04  0.20716868039E+04  0.50400001928E-02 0. -1.
</event>
<event>
 5   0  0.3274879E-04  0.1295906E+04  0.7818609E-02  0.9032818E-01
        1   -1    0    0  501    0  0.00000000000E+00  0.00000000000E+00  0.86498489759E+03  0.86498489760E+03  0.50400001928E-02 0.  1.
       -1   -1    0    0    0  501  0.00000000000E+00  0.00000000000E+00 -0.48537609180E+03  0.48537609183E+03  0.50400001928E-02 0. -1.
    10030    2    1    2    0    0  0.00000000000E+00  0.00000000000E+00  0.37960880578E+03  0.13503609894E+04  0.12959058439E+04 0.  0.
        4    1    3    3  502    0 -0.27870666074E+03  0.10400124512E+03  0.78962092513E+03  0.84379883861E+03  0.12699999809E+01 0.  1.
       -4    1    3    3    0  502  0.27870666074E+03 -0.10400124512E+03 -0.41001211935E+03  0.50656215082E+03  0.12699999809E+01 0. -1.
</event>
<event>
 5   0  0.5787604E-04  0.1340309E+04  0.7818609E-02  0.8998197E-01
        2   -1    0    0  501    0  0.00000000000E+00  0.00000000000E+00  0.84783903429E+03  0.84783903429E+03  0.25500000920E-02 0. -1.
       -2   -1    0    0    0  501  0.00000000000E+00  0.00000000000E+00 -0.52970780316E+03  0.52970780316E+03  0.25500000920E-02 0.  1.
    10030    2    1    2    0    0  0.00000000000E+00  0.00000000000E+00  0.31813123113E+03  0.13775468375E+04  0.13403088484E+04 0.  0.
        4    1    3    3  502    0 -0.11482677712E+02 -0.30221962337E+03 -0.45557687711E+03  0.54682762960E+03  0.12699999809E+01 0.  1.
       -4    1    3    3    0  502  0.11482677712E+02  0.30221962337E+03  0.77370810824E+03  0.83071920785E+03  0.12699999809E+01 0. -1.
</event>
<event>
 5   0  0.3403833E-04  0.1285566E+04  0.7818609E-02  0.9041090E-01
       -1   -1    0    0    0  501  0.00000000000E+00  0.00000000000E+00  0.94655488131E+03  0.94655488133E+03  0.50400001928E-02 0. -1.
        1   -1    0    0  501    0  0.00000000000E+00  0.00000000000E+00 -0.43649871896E+03  0.43649871899E+03  0.50400001928E-02 0.  1.
    10030    2    1    2    0    0  0.00000000000E+00  0.00000000000E+00  0.51005616235E+03  0.13830536003E+04  0.12855660125E+04 0.  0.
        1    1    3    3  502    0  0.33799348759E+03 -0.42867821849E+03  0.62012284364E+03  0.82617005144E+03  0.50400001928E-02 0. -1.
       -1    1    3    3    0  502 -0.33799348759E+03  0.42867821849E+03 -0.11006668129E+03  0.55688354889E+03  0.50400001928E-02 0.  1.
</event>
<event>
 5   0  0.5957913E-04  0.1302225E+04  0.7818609E-02  0.9027803E-01
       -2   -1    0    0    0  501  0.00000000000E+00  0.00000000000E+00  0.63106895211E+03  0.63106895211E+03  0.25500000920E-02 0.  1.
        2   -1    0    0  501    0  0.00000000000E+00  0.00000000000E+00 -0.67179224822E+03  0.67179224822E+03  0.25500000920E-02 0. -1.
    10030    2    1    2    0    0  0.00000000000E+00  0.00000000000E+00 -0.40723296108E+02  0.13028612003E+04  0.13022246045E+04 0.  0.
        1    1    3    3  502    0  0.56611579159E+03 -0.14324186589E+03 -0.30849880467E+03  0.66043685098E+03  0.50400001928E-02 0. -1.
       -1    1    3    3    0  502 -0.56611579159E+03  0.14324186589E+03  0.26777550856E+03  0.64242434935E+03  0.50400001928E-02 0.  1.
</event>
<event>
 5   0  0.2255875E-04  0.1299385E+04  0.7818609E-02  0.9030053E-01
        3   -1    0    0  501    0  0.00000000000E+00  0.00000000000E+00  0.51082273562E+03  0.51082274560E+03  0.10100000352E+00 0. -1.
       -3   -1    0    0    0  501  0.00000000000E+00  0.00000000000E+00 -0.82631407076E+03  0.82631407693E+03  0.10100000352E+00 0.  1.
    10030    2    1    2    0    0  0.00000000000E+00  0.00000000000E+00 -0.31549133514E+03  0.13371368225E+04  0.12993845080E+04 0.  0.
        2    1    3    3  502    0 -0.54283622244E+03 -0.35535206228E+03 -0.12279155943E+03  0.66032114886E+03  0.25500000920E-02 0. -1.
       -2    1    3    3    0  502  0.54283622244E+03  0.35535206228E+03 -0.19269977571E+03  0.67681567367E+03  0.25500000920E-02 0.  1.
</event>
<event>
 5   0  0.3337520E-04  0.1298875E+04  0.7818609E-02  0.9030458E-01
        1   -1    0    0  501    0  0.00000000000E+00  0.00000000000E+00  0.45574589725E+03  0.45574589728E+03  0.50400001928E-02 0. -1.
       -1   -1    0    0    0  501  0.00000000000E+00  0.00000000000E+00 -0.92544784074E+03  0.92544784075E+03  0.50400001928E-02 0.  1.
    10030    2    1    2    0    0  0.00000000000E+00  0.00000000000E+00 -0.46970194349E+03  0.13811937380E+04  0.12988749849E+04 0.  0.
        5    1    3    3  502    0  0.15673456155E+03  0.45564422191E+03  0.22813899499E+03  0.53314807585E+03  0.46999998093E+01 0. -1.
       -5    1    3    3    0  502 -0.15673456155E+03 -0.45564422191E+03 -0.69784093848E+03  0.84804566219E+03  0.46999998093E+01 0.  1.
</event>
<event>
 5   0  0.5384960E-04  0.1298017E+04  0.7818609E-02  0.9031139E-01
       -2   -1    0    0    0  501  0.00000000000E+00  0.00000000000E+00  0.30990332735E+03  0.30990332736E+03  0.25500000920E-02 0.  1.
        2   -1    0    0  501    0  0.00000000000E+00  0.00000000000E+00 -0.13591715852E+04  0.13591715852E+04  0.25500000920E-02 0. -1.
    10030    2    1    2    0    0  0.00000000000E+00  0.00000000000E+00 -0.10492682579E+04  0.16690749126E+04  0.12980166358E+04 0.  0.
        3    1    3    3  502    0 -0.57065998101E+03 -0.30678927624E+03 -0.57341764841E+03  0.86520534190E+03  0.10100000352E+00 0.  1.
       -3    1    3    3    0  502  0.57065998101E+03  0.30678927624E+03 -0.47585060949E+03  0.80386957070E+03  0.10100000352E+00 0. -1.
</event>
<event>
 5   0  0.3403833E-04  0.1298385E+04  0.7818609E-02  0.9030847E-01
        1   -1    0    0  501    0  0.00000000000E+00  0.00000000000E+00  0.43073918881E+03  0.43073918884E+03  0.50400001928E-02 0. -1.
       -1   -1    0    0    0  501  0.00000000000E+00  0.00000000000E+00 -0.97843687947E+03  0.97843687948E+03  0.50400001928E-02 0.  1.
    10030    2    1    2    0    0  0.00000000000E+00  0.00000000000E+00 -0.54769769066E+03  0.14091760683E+04  0.12983853169E+04 0.  0.
        1    1    3    3  502    0 -0.41952003846E+02  0.22300050809E+01 -0.97696000261E+03  0.97786286885E+03  0.50400001928E-02 0.  1.
       -1    1    3    3    0  502  0.41952003846E+02 -0.22300050809E+01  0.42926231195E+03  0.43131319947E+03  0.50400001928E-02 0. -1.
</event>
<event>
 5   0  0.3337520E-04  0.1306306E+04  0.7818609E-02  0.9024579E-01
       -1   -1    0    0    0  501  0.00000000000E+00  0.00000000000E+00  0.46694542727E+03  0.46694542730E+03  0.50400001928E-02 0.  1.
        1   -1    0    0  501    0  0.00000000000E+00  0.00000000000E+00 -0.91361614123E+03  0.91361614125E+03  0.50400001928E-02 0. -1.
    10030    2    1    2    0    0  0.00000000000E+00  0.00000000000E+00 -0.44667071396E+03  0.13805615685E+04  0.13063060583E+04 0.  0.
        5    1    3    3  502    0  0.19203896015E+02 -0.30790401975E+03 -0.83174443229E+03  0.88712714175E+03  0.46999998093E+01 0. -1.
       -5    1    3    3    0  502 -0.19203896015E+02  0.30790401975E+03  0.38507371833E+03  0.49343442679E+03  0.46999998093E+01 0.  1.
</event>
<event>
 5   0  0.2255875E-04  0.1300721E+04  0.7818609E-02  0.9028994E-01
        3   -1    0    0  501    0  0.00000000000E+00  0.00000000000E+00  0.32139201639E+03  0.32139203226E+03  0.10100000352E+00 0. -1.
       -3   -1    0    0    0  501  0.00000000000E+00  0.00000000000E+00 -0.13160519955E+04  0.13160519994E+04  0.10100000352E+00 0.  1.
    10030    2    1    2    0    0  0.00000000000E+00  0.00000000000E+00 -0.99465997911E+03  0.16374440316E+04  0.13007207551E+04 0.  0.
        1    1    3    3  502    0  0.27132881071E+03  0.45856902637E+03 -0.96678000223E+03  0.11038878785E+04  0.50400001928E-02 0.  1.
       -1    1    3    3    0  502 -0.27132881071E+03 -0.45856902637E+03 -0.27879976880E+02  0.53355615319E+03  0.50400001928E-02 0. -1.
</event>
<event>
 5   0  0.6007125E-04  0.1297939E+04  0.7818609E-02  0.9031201E-01
        2   -1    0    0  501    0  0.00000000000E+00  0.00000000000E+00  0.13229417924E+04  0.13229417924E+04  0.25500000920E-02 0. -1.
       -2   -1    0    0    0  501  0.00000000000E+00  0.00000000000E+00 -0.31835206962E+03  0.31835206963E+03  0.25500000920E-02 0.  1.
    10030    2    1    2    0    0  0.00000000000E+00  0.00000000000E+00  0.10045897228E+04  0.16412938620E+04  0.12979387622E+04 0.  0.
        5    1    3    3  502    0 -0.13979989258E+03 -0.63362302248E+03  0.51597428460E+03  0.82901972049E+03  0.46999998093E+01 0. -1.
       -5    1    3    3    0  502  0.13979989258E+03  0.63362302248E+03  0.48861543816E+03  0.81227414152E+03  0.46999998093E+01 0.  1.
</event>
<event>
 5   0  0.3403833E-04  0.1310627E+04  0.7818609E-02  0.9021180E-01
        1   -1    0    0  501    0  0.00000000000E+00  0.00000000000E+00  0.53689851487E+03  0.53689851489E+03  0.50400001928E-02 0. -1.
       -1   -1    0    0    0  501  0.00000000000E+00  0.00000000000E+00 -0.79984539018E+03  0.79984539020E+03  0.50400001928E-02 0.  1.
    10030    2    1    2    0    0  0.00000000000E+00  0.00000000000E+00 -0.26294687531E+03  0.13367439051E+04  0.13106270288E+04 0.  0.
        1    1    3    3  502    0 -0.12845712605E+03  0.29524677378E+03  0.45065736233E+03  0.55386275277E+03  0.50400001928E-02 0. -1.
       -1    1    3    3    0  502  0.12845712605E+03 -0.29524677378E+03 -0.71360423764E+03  0.78288115232E+03  0.50400001928E-02 0.  1.
</event>
<event>
 5   0  0.3337520E-04  0.1300897E+04  0.7818609E-02  0.9028854E-01
       -1   -1    0    0    0  501  0.00000000000E+00  0.00000000000E+00  0.57216495708E+03  0.57216495710E+03  0.50400001928E-02 0. -1.
        1   -1    0    0  501    0  0.00000000000E+00  0.00000000000E+00 -0.73944257504E+03  0.73944257506E+03  0.50400001928E-02 0.  1.
    10030    2    1    2    0    0  0.00000000000E+00  0.00000000000E+00 -0.16727761796E+03  0.13116075322E+04  0.13008968126E+04 0.  0.
        5    1    3    3  502    0  0.39461624084E+03 -0.10953703915E+03 -0.59311169236E+03  0.72078007054E+03  0.46999998093E+01 0.  1.
       -5    1    3    3    0  502 -0.39461624084E+03  0.10953703915E+03  0.42583407440E+03  0.59082746162E+03  0.46999998093E+01 0. -1.
</event>
<event>
 5   0  0.3335747E-04  0.1302954E+04  0.7818609E-02  0.9027226E-01
        1   -1    0    0  501    0  0.00000000000E+00  0.00000000000E+00  0.10251530042E+04  0.10251530042E+04  0.50400001928E-02 0. -1.
       -1   -1    0    0    0  501  0.00000000000E+00  0.00000000000E+00 -0.41400893710E+03  0.41400893714E+03  0.50400001928E-02 0.  1.
    10030    2    1    2    0    0  0.00000000000E+00  0.00000000000E+00  0.61114406706E+03  0.14391619413E+04  0.13029543440E+04 0.  0.
        3    1    3    3  502    0  0.12093153735E+03  0.63984239944E+03  0.32765622727E+03  0.72895908412E+03  0.10100000352E+00 0.  1.
       -3    1    3    3    0  502 -0.12093153735E+03 -0.63984239944E+03  0.28348783979E+03  0.71020285719E+03  0.10100000352E+00 0. -1.
</event>
<event>
 5   0  0.5787604E-04  0.1298287E+04  0.7818609E-02  0.9030924E-01
       -2   -1    0    0    0  501  0.00000000000E+00  0.00000000000E+00  0.68461245276E+03  0.68461245276E+03  0.25500000920E-02 0.  1.
        2   -1    0    0  501    0  0.00000000000E+00  0.00000000000E+00 -0.61551238873E+03  0.61551238874E+03  0.25500000920E-02 0. -1.
    10030    2    1    2    0    0  0.00000000000E+00  0.00000000000E+00  0.69100064022E+02  0.13001248415E+04  0.12982872504E+04 0.  0.
        4    1    3    3  502    0  0.26554897544E+03 -0.51075875047E+03  0.33496642873E+03  0.66602918916E+03  0.12699999809E+01 0.  1.
       -4    1    3    3    0  502 -0.26554897544E+03  0.51075875047E+03 -0.26586636470E+03  0.63409565234E+03  0.12699999809E+01 0. -1.
</event>
<event>
 5   0  0.3263679E-04  0.1302601E+04  0.7818609E-02  0.9027505E-01
       -1   -1    0    0    0  501  0.00000000000E+00  0.00000000000E+00  0.51302304494E+03  0.51302304496E+03  0.50400001928E-02 0. -1.
        1   -1    0    0  501    0  0.00000000000E+00  0.00000000000E+00 -0.82684829995E+03  0.82684829997E+03  0.50400001928E-02 0.  1.
    10030    2    1    2    0    0  0.00000000000E+00  0.00000000000E+00 -0.31382525501E+03  0.13398713449E+04  0.13026008331E+04 0.  0.
        2    1    3    3  502    0  0.14865493268E+03  0.76041096872E+02  0.49063272670E+03  0.51826731514E+03  0.25500000920E-02 0. -1.
       -2    1    3    3    0  502 -0.14865493268E+03 -0.76041096872E+02 -0.80445798171E+03  0.82160402979E+03  0.25500000920E-02 0.  1.
</event>
<event>
 5   0  0.3337520E-04  0.1302783E+04  0.7818609E-02  0.9027361E-01
        1   -1    0    0  501    0  0.00000000000E+00  0.00000000000E+00  0.49762406383E+03  0.49762406385E+03  0.50400001928E-02 0.  1.
       -1   -1    0    0    0  501  0.00000000000E+00  0.00000000000E+00 -0.85267399133E+03  0.85267399135E+03  0.50400001928E-02 0. -1.
    10030    2    1    2    0    0  0.00000000000E+00  0.00000000000E+00 -0.35504992751E+03  0.13502980552E+04  0.13027833231E+04 0.  0.
        5    1    3    3  502    0 -0.11658114133E+03  0.39203089571E+03  0.34792593866E+03  0.53698597235E+03  0.46999998093E+01 0.  1.
       -5    1    3    3    0  502  0.11658114133E+03 -0.39203089571E+03 -0.70297586617E+03  0.81331208286E+03  0.46999998093E+01 0. -1.
</event>
<event>
 5   0  0.5957913E-04  0.1303704E+04  0.7818609E-02  0.9026633E-01
        2   -1    0    0  501    0  0.00000000000E+00  0.00000000000E+00  0.38784844215E+03  0.38784844216E+03  0.25500000920E-02 0.  1.
       -2   -1    0    0    0  501  0.00000000000E+00  0.00000000000E+00 -0.10955590057E+04  0.10955590058E+04  0.25500000920E-02 0. -1.
    10030    2    1    2    0    0  0.00000000000E+00  0.00000000000E+00 -0.70771056360E+03  0.14834074479E+04  0.13037037296E+04 0.  0.
        1    1    3    3  502    0 -0.57540487668E+03  0.23891622605E+03 -0.57195038415E+03  0.84575349667E+03  0.50400001928E-02 0. -1.
       -1    1    3    3    0  502  0.57540487668E+03 -0.23891622605E+03 -0.13576017945E+03  0.63765395124E+03  0.50400001928E-02 0.  1.
</event>
<event>
 5   0  0.5787604E-04  0.1282619E+04  0.7818609E-02  0.9043463E-01
        2   -1    0    0  501    0  0.00000000000E+00  0.00000000000E+00  0.18004305421E+04  0.18004305421E+04  0.25500000920E-02 0.  1.
       -2   -1    0    0    0  501  0.00000000000E+00  0.00000000000E+00 -0.22843319242E+03  0.22843319243E+03  0.25500000920E-02 0. -1.
    10030    2    1    2    0    0  0.00000000000E+00  0.00000000000E+00  0.15719973497E+04  0.20288637346E+04  0.12826193457E+04 0.  0.
        4    1    3    3  502    0 -0.21213720033E+03 -0.57853449813E+03  0.50493351886E+03  0.79665791194E+03  0.12699999809E+01 0.  1.
       -4    1    3    3    0  502  0.21213720033E+03  0.57853449813E+03  0.10670638309E+04  0.12322058226E+04  0.12699999809E+01 0. -1.
</event>
<event>
 5   0  0.5787604E-04  0.1296659E+04  0.7818609E-02  0.9032219E-01
       -2   -1    0    0    0  501  0.00000000000E+00  0.00000000000E+00  0.41350820787E+03  0.41350820788E+03  0.25500000920E-02 0.  1.
        2   -1    0    0  501    0  0.00000000000E+00  0.00000000000E+00 -0.10165001779E+04  0.10165001779E+04  0.25500000920E-02 0. -1.
    10030    2    1    2    0    0  0.00000000000E+00  0.00000000000E+00 -0.60299196998E+03  0.14300083857E+04  0.12966590405E+04 0.  0.
        4    1    3    3  502    0  0.19089619768E+03 -0.21183516825E+03  0.34063207026E+03  0.44423790584E+03  0.12699999809E+01 0.  1.
       -4    1    3    3    0  502 -0.19089619768E+03  0.21183516825E+03 -0.94362404024E+03  0.98577047989E+03  0.12699999809E+01 0. -1.
</event>
<event>
 5   0  0.5787604E-04  0.1303161E+04  0.7818609E-02  0.9027062E-01
       -2   -1    0    0    0  501  0.00000000000E+00  0.00000000000E+00  0.19168010593E+03  0.19168010595E+03  0.25500000920E-02 0. -1.
        2   -1    0    0  501    0  0.00000000000E+00  0.00000000000E+00 -0.22149251583E+04  0.22149251583E+04  0.25500000920E-02 0.  1.
    10030    2    1    2    0    0  0.00000000000E+00  0.00000000000E+00 -0.20232450523E+04  0.24066052642E+04  0.13031609095E+04 0.  0.
        4    1    3    3  502    0 -0.10952668123E+03 -0.83489321719E+02  0.16449265791E+03  0.21453672914E+03  0.12699999809E+01 0. -1.
       -4    1    3    3    0  502  0.10952668123E+03  0.83489321719E+02 -0.21877377103E+04  0.21920685351E+04  0.12699999809E+01 0.  1.
</event>
<event>
 5   0  0.5384960E-04  0.1303699E+04  0.7818609E-02  0.9026637E-01
       -2   -1    0    0    0  501  0.00000000000E+00  0.00000000000E+00  0.65936731719E+03  0.65936731719E+03  0.25500000920E-02 0. -1.
        2   -1    0    0  501    0  0.00000000000E+00  0.00000000000E+00 -0.64441701588E+03  0.64441701589E+03  0.25500000920E-02 0.  1.
    10030    2    1    2    0    0  0.00000000000E+00  0.00000000000E+00  0.14950301301E+02  0.13037843331E+04  0.13036986138E+04 0.  0.
        3    1    3    3  502    0 -0.42075643912E+03  0.49091691325E+03 -0.75428502306E+02  0.65094152266E+03  0.10100000352E+00 0.  1.
       -3    1    3    3    0  502  0.42075643912E+03 -0.49091691325E+03  0.90378803607E+02  0.65284281041E+03  0.10100000352E+00 0. -1.
</event>
<event>
 5   0  0.3335747E-04  0.1285328E+04  0.7818609E-02  0.9041282E-01
        1   -1    0    0  501    0  0.00000000000E+00  0.00000000000E+00  0.82956674074E+03  0.82956674075E+03  0.50400001928E-02 0.  1.
       -1   -1    0    0    0  501  0.00000000000E+00  0.00000000000E+00 -0.49787087680E+03  0.49787087683E+03  0.50400001928E-02 0. -1.
    10030    2    1    2    0    0  0.00000000000E+00  0.00000000000E+00  0.33169586393E+03  0.13274376176E+04  0.12853281614E+04 0.  0.
        3    1    3    3  502    0  0.55694924584E+03 -0.22782870307E+03  0.39889244355E+03  0.72195122558E+03  0.10100000352E+00 0.  1.
       -3    1    3    3    0  502 -0.55694924584E+03  0.22782870307E+03 -0.67196579616E+02  0.60548639200E+03  0.10100000352E+00 0. -1.
</event>
<event>
 5   0  0.3274879E-04  0.1300904E+04  0.7818609E-02  0.9028849E-01
        1   -1    0    0  501    0  0.00000000000E+00  0.00000000000E+00  0.65004416407E+03  0.65004416409E+03  0.50400001928E-02 0.  1.
       -1   -1    0    0    0  501  0.00000000000E+00  0.00000000000E+00 -0.65085961718E+03  0.65085961720E+03  0.50400001928E-02 0. -1.
    10030    2    1    2    0    0  0.00000000000E+00  0.00000000000E+00 -0.81545311219E+00  0.13009037813E+04  0.13009035257E+04 0.  0.
        4    1    3    3  502    0  0.37463087461E+03  0.31806743640E+03 -0.42651894201E+03  0.65071899243E+03  0.12699999809E+01 0. -1.
       -4    1    3    3    0  502 -0.37463087461E+03 -0.31806743640E+03  0.42570348890E+03  0.65018478886E+03  0.12699999809E+01 0.  1.
</event>
<event>
 5   0  0.5384960E-04  0.1310475E+04  0.7818609E-02  0.9021299E-01
        2   -1    0    0  501    0  0.00000000000E+00  0.00000000000E+00  0.14430237047E+04  0.14430237047E+04  0.25500000920E-02 0.  1.
       -2   -1    0    0    0  501  0.00000000000E+00  0.00000000000E+00 -0.29752553692E+03  0.29752553693E+03  0.25500000920E-02 0. -1.
    10030    2    1    2    0    0  0.00000000000E+00  0.00000000000E+00  0.11454981678E+04  0.17405492416E+04  0.13104753375E+04 0.  0.
        3    1    3    3  502    0 -0.65018388982E+03 -0.30150095858E+02  0.67292139555E+03  0.93620047728E+03  0.10100000352E+00 0.  1.
       -3    1    3    3    0  502  0.65018388982E+03  0.30150095858E+02  0.47257677221E+03  0.80434876434E+03  0.10100000352E+00 0. -1.
</event>
<event>
 5   0  0.6052864E-04  0.1298902E+04  0.7818609E-02  0.9030436E-01
       -2   -1    0    0    0  501  0.00000000000E+00  0.00000000000E+00  0.47309347935E+03  0.47309347936E+03  0.25500000920E-02 0. -1.
        2   -1    0    0  501    0  0.00000000000E+00  0.00000000000E+00 -0.89155040088E+03  0.89155040088E+03  0.25500000920E-02 0.  1.
    10030    2    1    2    0    0  0.00000000000E+00  0.00000000000E+00 -0.41845692152E+03  0.13646438802E+04  0.12989021228E+04 0.  0.
        2    1    3    3  502    0  0.27008149255E+03 -0.34609523317E+03 -0.71205507008E+03  0.83650962091E+03  0.25500000920E-02 0.  1.
       -2    1    3    3    0  502 -0.27008149255E+03  0.34609523317E+03  0.29359814856E+03  0.52813425933E+03  0.25500000920E-02 0. -1.
</event>
<event>
 5   0  0.3403833E-04  0.1278662E+04  0.7818609E-02  0.9046659E-01
        1   -1    0    0  501    0  0.00000000000E+00  0.00000000000E+00  0.59876553887E+03  0.59876553889E+03  0.50400001928E-02 0. -1.
       -1   -1    0    0    0  501  0.00000000000E+00  0.00000000000E+00 -0.68264512297E+03  0.68264512299E+03  0.50400001928E-02 0.  1.
    10030    2    1    2    0    0  0.00000000000E+00  0.00000000000E+00 -0.83879584101E+02  0.12814106619E+04  0.12786623869E+04 0.  0.
        1    1    3    3  502    0 -0.60397954971E+03  0.18371413626E+03 -0.14316280130E+03  0.64733126607E+03  0.50400001928E-02 0.  1.
       -1    1    3    3    0  502  0.60397954971E+03 -0.18371413626E+03  0.59283217196E+02  0.63407939581E+03  0.50400001928E-02 0. -1.
</event>
<event>
 5   0  0.5957913E-04  0.1299849E+04  0.7818609E-02  0.9029685E-01
        2   -1    0    0  501    0  0.00000000000E+00  0.00000000000E+00  0.92522979885E+03  0.92522979885E+03  0.25500000920E-02 0. -1.
       -2   -1    0    0    0  501  0.00000000000E+00  0.00000000000E+00 -0.45653698464E+03  0.45653698464E+03  0.25500000920E-02 0.  1.
    10030    2    1    2    0    0  0.00000000000E+00  0.00000000000E+00  0.46869281421E+03  0.13817667835E+04  0.12998486411E+04 0.  0.
        1    1    3    3  502    0 -0.48484680961E+03  0.43216549916E+03  0.25946105829E+03  0.69940223637E+03  0.50400001928E-02 0. -1.
       -1    1    3    3    0  502  0.48484680961E+03 -0.43216549916E+03  0.20923175593E+03  0.68236454712E+03  0.50400001928E-02 0.  1.
</event>
<event>
 5   0  0.3263679E-04  0.1301645E+04  0.7818609E-02  0.9028262E-01
       -1   -1    0    0    0  501  0.00000000000E+00  0.00000000000E+00  0.24269703512E+03  0.24269703518E+03  0.50400001928E-02 0.  1.
        1   -1    0    0  501    0  0.00000000000E+00  0.00000000000E+00 -0.17452620347E+04  0.17452620347E+04  0.50400001928E-02 0. -1.
    10030    2    1    2    0    0  0.00000000000E+00  0.00000000000E+00 -0.15025649996E+04  0.19879590699E+04  0.13016449922E+04 0.  0.
        2    1    3    3  502    0  0.10867079136E+03  0.26991574557E+03  0.13782558795E+03  0.32196233212E+03  0.25500000920E-02 0.  1.
       -2    1    3    3    0  502 -0.10867079136E+03 -0.26991574557E+03 -0.16403905875E+04  0.16659967378E+04  0.25500000920E-02 0. -1.
</event>
<event>
 5   0  0.6007125E-04  0.1299023E+04  0.7818609E-02  0.9030340E-01
       -2   -1    0    0    0  501  0.00000000000E+00  0.00000000000E+00  0.31128867732E+03  0.31128867733E+03  0.25500000920E-02 0.  1.
        2   -1    0    0  501    0  0.00000000000E+00  0.00000000000E+00 -0.13552226949E+04  0.13552226949E+04  0.25500000920E-02 0. -1.
    10030    2    1    2    0    0  0.00000000000E+00  0.00000000000E+00 -0.10439340176E+04  0.16665113722E+04  0.12990234489E+04 0.  0.
        5    1    3    3  502    0  0.29373622976E+03  0.21441257770E+03 -0.12123384532E+04  0.12657173228E+04  0.46999998093E+01 0. -1.
       -5    1    3    3    0  502 -0.29373622976E+03 -0.21441257770E+03  0.16840443559E+03  0.40079404945E+03  0.46999998093E+01 0.  1.
</event>
<event>
 5   0  0.3263679E-04  0.1291123E+04  0.7818609E-02  0.9036634E-01
       -1   -1    0    0    0  501  0.00000000000E+00  0.00000000000E+00  0.36957689127E+03  0.36957689130E+03  0.50400001928E-02 0. -1.
        1   -1    0    0  501    0  0.00000000000E+00  0.00000000000E+00 -0.11276398630E+04  0.11276398630E+04  0.50400001928E-02 0.  1.
    10030    2    1    2    0    0  0.00000000000E+00  0.00000000000E+00 -0.75806297173E+03  0.14972167543E+04  0.12911229764E+04 0.  0.
        2    1    3    3  502    0  0.62315341331E+02  0.26455132007E+03  0.29999627907E+03  0.40480658366E+03  0.25500000920E-02 0. -1.
       -2    1    3    3    0  502 -0.62315341331E+02 -0.26455132007E+03 -0.10580592508E+04  0.10924101706E+04  0.25500000920E-02 0.  1.
</event>
<event>
 5   0  0.3403833E-04  0.1296169E+04  0.7818609E-02  0.9032609E-01
       -1   -1    0    0    0  501  0.00000000000E+00  0.00000000000E+00  0.51910285309E+03  0.51910285312E+03  0.50400001928E-02 0.  1.
        1   -1    0    0  501    0  0.00000000000E+00  0.00000000000E+00 -0.80911444745E+03  0.80911444747E+03  0.50400001928E-02 0. -1.
    10030    2    1    2    0    0  0.00000000000E+00  0.00000000000E+00 -0.29001159436E+03  0.13282173006E+04  0.12961691528E+04 0.  0.
        1    1    3    3  502    0 -0.45770897063E+02  0.10726969301E+03 -0.79827267007E+03  0.80674718336E+03  0.50400001928E-02 0. -1.
       -1    1    3    3    0  502  0.45770897063E+02 -0.10726969301E+03  0.50826107571E+03  0.52147011723E+03  0.50400001928E-02 0.  1.
</event>
<event>
 5   0  0.3337520E-04  0.1291513E+04  0.7818609E-02  0.9036323E-01
        1   -1    0    0  501    0  0.00000000000E+00  0.00000000000E+00  0.48549554204E+03  0.48549554207E+03  0.50400001928E-02 0. -1.
       -1   -1    0    0    0  501  0.00000000000E+00  0.00000000000E+00 -0.85891928818E+03  0.85891928820E+03  0.50400001928E-02 0.  1.
    10030    2    1    2    0    0  0.00000000000E+00  0.00000000000E+00 -0.37342374614E+03  0.13444148303E+04  0.12915130436E+04 0.  0.
        5    1    3    3  502    0 -0.29619241462E+03  0.26739838819E+03 -0.71519578559E+03  0.81899874616E+03  0.46999998093E+01 0.  1.
       -5    1    3    3    0  502  0.29619241462E+03 -0.26739838819E+03  0.34177203945E+03  0.52541608410E+03  0.46999998093E+01 0. -1.
</event>
<event>
 5   0  0.5957913E-04  0.1299673E+04  0.7818609E-02  0.9029825E-01
        2   -1    0    0  501    0  0.00000000000E+00  0.00000000000E+00  0.12026614166E+04  0.12026614166E+04  0.25500000920E-02 0. -1.
       -2   -1    0    0    0  501  0.00000000000E+00  0.00000000000E+00 -0.35112743212E+03  0.35112743213E+03  0.25500000920E-02 0.  1.
    10030    2    1    2    0    0  0.00000000000E+00  0.00000000000E+00  0.85153398446E+03  0.15537888487E+04  0.12996729049E+04 0.  0.
        1    1    3    3  502    0  0.17128034046E+03 -0.25085659704E+03  0.11125649650E+04  0.11532852156E+04  0.50400001928E-02 0. -1.
       -1    1    3    3    0  502 -0.17128034046E+03  0.25085659704E+03 -0.26103098050E+03  0.40050363308E+03  0.50400001928E-02 0.  1.
</event>
<event>
 5   0  0.3335747E-04  0.1280889E+04  0.7818609E-02  0.9044859E-01
        1   -1    0    0  501    0  0.00000000000E+00  0.00000000000E+00  0.47021708833E+03  0.47021708835E+03  0.50400001928E-02 0. -1.
       -1   -1    0    0    0  501  0.00000000000E+00  0.00000000000E+00 -0.87229760199E+03  0.87229760201E+03  0.50400001928E-02 0.  1.
    10030    2    1    2    0    0  0.00000000000E+00  0.00000000000E+00 -0.40208051367E+03  0.13425146904E+04  0.12808891265E+04 0.  0.
        3    1    3    3  502    0 -0.39622925605E+03  0.19676697334E+03 -0.68641251590E+03  0.81662538372E+03  0.10100000352E+00 0.  1.
       -3    1    3    3    0  502  0.39622925605E+03 -0.19676697334E+03  0.28433200223E+03  0.52588930664E+03  0.10100000352E+00 0. -1.
</event>
<event>
 5   0  0.6052864E-04  0.1299801E+04  0.7818609E-02  0.9029723E-01
       -2   -1    0    0    0  501  0.00000000000E+00  0.00000000000E+00  0.79190048316E+03  0.79190048316E+03  0.25500000920E-02 0.  1.
        2   -1    0    0  501    0  0.00000000000E+00  0.00000000000E+00 -0.53336326777E+03  0.53336326777E+03  0.25500000920E-02 0. -1.
    10030    2    1    2    0    0  0.00000000000E+00  0.00000000000E+00  0.25853721539E+03  0.13252637509E+04  0.12998009531E+04 0.  0.
        2    1    3    3  502    0  0.24436778425E+03  0.33746425751E+03 -0.37927358829E+03  0.56342363623E+03  0.25500000920E-02 0. -1.
       -2    1    3    3    0  502 -0.24436778425E+03 -0.33746425751E+03  0.63781080368E+03  0.76184011471E+03  0.25500000920E-02 0.  1.
</event>
<event>
 5   0  0.3274879E-04  0.1306163E+04  0.7818609E-02  0.9024692E-01
       -1   -1    0    0    0  501  0.00000000000E+00  0.00000000000E+00  0.33602071057E+03  0.33602071061E+03  0.50400001928E-02 0.  1.
        1   -1    0    0  501    0  0.00000000000E+00  0.00000000000E+00 -0.12693132736E+04  0.12693132736E+04  0.50400001928E-02 0. -1.
    10030    2    1    2    0    0  0.00000000000E+00  0.00000000000E+00 -0.93329256300E+03  0.16053339842E+04  0.13061631570E+04 0.  0.
        4    1    3    3  502    0  0.10567678178E+03 -0.41643779307E+03  0.13787162353E+03  0.45121858913E+03  0.12699999809E+01 0.  1.
       -4    1    3    3    0  502 -0.10567678178E+03  0.41643779307E+03 -0.10711641865E+04  0.11541153951E+04  0.12699999809E+01 0. -1.
</event>
<event>
 5   0  0.3337520E-04  0.1296840E+04  0.7818609E-02  0.9032075E-01
        1   -1    0    0  501    0  0.00000000000E+00  0.00000000000E+00  0.32705905116E+03  0.32705905120E+03  0.50400001928E-02 0. -1.
       -1   -1    0    0    0  501  0.00000000000E+00  0.00000000000E+00 -0.12855424908E+04  0.12855424908E+04  0.50400001928E-02 0.  1.
    10030    2    1    2    0    0  0.00000000000E+00  0.00000000000E+00 -0.95848343965E+03  0.16126015420E+04  0.12968397084E+04 0.  0.
        5    1    3    3  502    0 -0.41429371782E+03 -0.29950965938E+03 -0.97520529955E+03  0.11010870933E+04  0.46999998093E+01 0.  1.
       -5    1    3    3    0  502  0.41429371782E+03  0.29950965938E+03  0.16721859897E+02  0.51151444876E+03  0.46999998093E+01 0. -1.
</event>
<event>
 5   0  0.6007125E-04  0.1301139E+04  0.7818609E-02  0.9028662E-01
        2   -1    0    0  501    0  0.00000000000E+00  0.00000000000E+00  0.10853615855E+04  0.10853615856E+04  0.25500000920E-02 0. -1.
       -2   -1    0    0    0  501  0.00000000000E+00  0.00000000000E+00 -0.38995389055E+03  0.38995389056E+03  0.25500000920E-02 0.  1.
    10030    2    1    2    0    0  0.00000000000E+00  0.00000000000E+00  0.69540769500E+03  0.14753154761E+04  0.13011394590E+04 0.  0.
        5    1    3    3  502    0  0.88214764477E+02  0.64360875222E+03  0.38706073587E+03  0.75620908078E+03  0.46999998093E+01 0. -1.
       -5    1    3    3    0  502 -0.88214764477E+02 -0.64360875222E+03  0.30834695913E+03  0.71910639533E+03  0.46999998093E+01 0.  1.
</event>
<event>
 5   0  0.3337520E-04  0.1305663E+04  0.7818609E-02  0.9025086E-01
        1   -1    0    0  501    0  0.00000000000E+00  0.00000000000E+00  0.11773353034E+04  0.11773353035E+04  0.50400001928E-02 0.  1.
       -1   -1    0    0    0  501  0.00000000000E+00  0.00000000000E+00 -0.36199465615E+03  0.36199465619E+03  0.50400001928E-02 0. -1.
    10030    2    1    2    0    0  0.00000000000E+00  0.00000000000E+00  0.81534064729E+03  0.15393299596E+04  0.13056631853E+04 0.  0.
        5    1    3    3  502    0 -0.31029135927E+03  0.57071321233E+03  0.48382720395E+03  0.81000318002E+03  0.46999998093E+01 0. -1.
       -5    1    3    3    0  502  0.31029135927E+03 -0.57071321233E+03  0.33151344335E+03  0.72932677963E+03  0.46999998093E+01 0.  1.
</event>
<event>
 5   0  0.2255875E-04  0.1298908E+04  0.7818609E-02  0.9030431E-01
        4   -1    0    0  501    0  0.00000000000E+00  0.00000000000E+00  0.73381138562E+03  0.73381248461E+03  0.12699999809E+01 0.  1.
       -4   -1    0    0    0  501  0.00000000000E+00  0.00000000000E+00 -0.57479202863E+03  0.57479343166E+03  0.12699999809E+01 0. -1.
    10030    2    1    2    0    0  0.00000000000E+00  0.00000000000E+00  0.15901935699E+03  0.13086059163E+04  0.12989081138E+04 0.  0.
        5    1    3    3  502    0  0.18652351350E+03  0.13876756220E+03  0.69043718670E+03  0.72854173263E+03  0.46999998093E+01 0.  1.
       -5    1    3    3    0  502 -0.18652351350E+03 -0.13876756220E+03 -0.53141782971E+03  0.58006418363E+03  0.46999998093E+01 0. -1.
</event>
<event>
 5   0  0.5957913E-04  0.1297986E+04  0.7818609E-02  0.9031163E-01
       -2   -1    0    0    0  501  0.00000000000E+00  0.00000000000E+00  0.34041012941E+03  0.34041012942E+03  0.25500000920E-02 0. -1.
        2   -1    0    0  501    0  0.00000000000E+00  0.00000000000E+00 -0.12373080047E+04  0.12373080047E+04  0.25500000920E-02 0.  1.
    10030    2    1    2    0    0  0.00000000000E+00  0.00000000000E+00 -0.89689787528E+03  0.15777181341E+04  0.12979864067E+04 0.  0.
        1    1    3    3  502    0  0.32032394594E+03 -0.55562943771E+03 -0.56915042122E+03  0.85747519171E+03  0.50400001928E-02 0.  1.
       -1    1    3    3    0  502 -0.32032394594E+03  0.55562943771E+03 -0.32774745405E+03  0.72024294239E+03  0.50400001928E-02 0. -1.
</event>
<event>
 5   0  0.3274879E-04  0.1300670E+04  0.7818609E-02  0.9029034E-01
        1   -1    0    0  501    0  0.00000000000E+00  0.00000000000E+00  0.11122110367E+04  0.11122110368E+04  0.50400001928E-02 0.  1.
       -1   -1    0    0    0  501  0.00000000000E+00  0.00000000000E+00 -0.38026570057E+03  0.38026570060E+03  0.50400001928E-02 0. -1.
    10030    2    1    2    0    0  0.00000000000E+00  0.00000000000E+00  0.73194533618E+03  0.14924767374E+04  0.13006701490E+04 0.  0.
        4    1    3    3  502    0 -0.99024973212E+02 -0.56169531819E+03  0.72450167887E+03  0.92206934196E+03  0.12699999809E+01 0.  1.
       -4    1    3    3    0  502  0.99024973212E+02  0.56169531819E+03  0.74436573095E+01  0.57040739541E+03  0.12699999809E+01 0. -1.
</event>
<event>
 5   0  0.5957913E-04  0.1289880E+04  0.7818609E-02  0.9037629E-01
        2   -1    0    0  501    0  0.00000000000E+00  0.00000000000E+00  0.28434247871E+03  0.28434247873E+03  0.25500000920E-02 0.  1.
       -2   -1    0    0    0  501  0.00000000000E+00  0.00000000000E+00 -0.14628406157E+04  0.14628406158E+04  0.25500000920E-02 0. -1.
    10030    2    1    2    0    0  0.00000000000E+00  0.00000000000E+00 -0.11784981370E+04  0.17471830945E+04  0.12898801908E+04 0.  0.
        1    1    3    3  502    0 -0.35393671783E+03 -0.50775387942E+03 -0.83479882405E+03  0.10392181094E+04  0.50400001928E-02 0. -1.
       -1    1    3    3    0  502  0.35393671783E+03  0.50775387942E+03 -0.34369931298E+03  0.70796498505E+03  0.50400001928E-02 0.  1.
</event>
<event>
 5   0  0.5957913E-04  0.1300460E+04  0.7818609E-02  0.9029201E-01
       -2   -1    0    0    0  501  0.00000000000E+00  0.00000000000E+00  0.52170600211E+03  0.52170600212E+03  0.25500000920E-02 0. -1.
        2   -1    0    0  501    0  0.00000000000E+00  0.00000000000E+00 -0.81041570950E+03  0.81041570951E+03  0.25500000920E-02 0.  1.
    10030    2    1    2    0    0  0.00000000000E+00  0.00000000000E+00 -0.28870970739E+03  0.13321217116E+04  0.13004595186E+04 0.  0.
        1    1    3    3  502    0 -0.23113514152E+03  0.35561853839E+03 -0.64921423258E+03  0.77547863820E+03  0.50400001928E-02 0.  1.
       -1    1    3    3    0  502  0.23113514152E+03 -0.35561853839E+03  0.36050452518E+03  0.55664307343E+03  0.50400001928E-02 0. -1.
</event>
<event>
 5   0  0.3274879E-04  0.1291797E+04  0.7818609E-02  0.9036095E-01
       -1   -1    0    0    0  501  0.00000000000E+00  0.00000000000E+00  0.59438796488E+03  0.59438796490E+03  0.50400001928E-02 0. -1.
        1   -1    0    0  501    0  0.00000000000E+00  0.00000000000E+00 -0.70187317402E+03  0.70187317404E+03  0.50400001928E-02 0.  1.
    10030    2    1    2    0    0  0.00000000000E+00  0.00000000000E+00 -0.10748520914E+03  0.12962611389E+04  0.12917971474E+04 0.  0.
        4    1    3    3  502    0 -0.22032150075E+03  0.54512707414E+03 -0.32202067758E+03  0.67037602906E+03  0.12699999809E+01 0.  1.
       -4    1    3    3    0  502  0.22032150075E+03 -0.54512707414E+03  0.21453546844E+03  0.62588510988E+03  0.12699999809E+01 0. -1.
</event>
<event>
 5   0  0.3335747E-04  0.1305440E+04  0.7818609E-02  0.9025262E-01
        1   -1    0    0  501    0  0.00000000000E+00  0.00000000000E+00  0.42426766859E+03  0.42426766862E+03  0.50400001928E-02 0.  1.
       -1   -1    0    0    0  501  0.00000000000E+00  0.00000000000E+00 -0.10041852582E+04  0.10041852582E+04  0.50400001928E-02 0. -1.
    10030    2    1    2    0    0  0.00000000000E+00  0.00000000000E+00 -0.57991758962E+03  0.14284529268E+04  0.13054399080E+04 0.  0.
        3    1    3    3  502    0  0.72132450202E+02 -0.28102042975E+03  0.34983219352E+03  0.45448668422E+03  0.10100000352E+00 0.  1.
       -3    1    3    3    0  502 -0.72132450202E+02  0.28102042975E+03 -0.92974978314E+03  0.97396624261E+03  0.10100000352E+00 0. -1.
</event>
<event>
 5   0  0.5787604E-04  0.1301608E+04  0.7818609E-02  0.9028291E-01
        2   -1    0    0  501    0  0.00000000000E+00  0.00000000000E+00  0.83582980705E+03  0.83582980706E+03  0.25500000920E-02 0. -1.
       -2   -1    0    0    0  501  0.00000000000E+00  0.00000000000E+00 -0.50673691021E+03  0.50673691022E+03  0.25500000920E-02 0.  1.
    10030    2    1    2    0    0  0.00000000000E+00  0.00000000000E+00  0.32909289684E+03  0.13425667173E+04  0.13016079500E+04 0.  0.
        4    1    3    3  502    0 -0.27969303798E+03 -0.49429377082E+03 -0.16324239542E+03  0.59093503867E+03  0.12699999809E+01 0.  1.
       -4    1    3    3    0  502  0.27969303798E+03  0.49429377082E+03  0.49233529226E+03  0.75163167860E+03  0.12699999809E+01 0. -1.
</event>
<event>
 5   0  0.3274879E-04  0.1303960E+04  0.7818609E-02  0.9026431E-01
        1   -1    0    0  501    0  0.00000000000E+00  0.00000000000E+00  0.67551920623E+03  0.67551920624E+03  0.50400001928E-02 0. -1.
       -1   -1    0    0    0  501  0.00000000000E+00  0.00000000000E+00 -0.62926086390E+03  0.62926086392E+03  0.50400001928E-02 0.  1.
    10030    2    1    2    0    0  0.00000000000E+00  0.00000000000E+00  0.46258342323E+02  0.13047800702E+04  0.13039598143E+04 0.  0.
        4    1    3    3  502    0  0.30491511763E+03 -0.16914901193E+03  0.57437640430E+03  0.67193339246E+03  0.12699999809E+01 0. -1.
       -4    1    3    3    0  502 -0.30491511763E+03  0.16914901193E+03 -0.52811806197E+03  0.63284667770E+03  0.12699999809E+01 0.  1.
</event>
<event>
 5   0  0.3403833E-04  0.1306063E+04  0.7818609E-02  0.9024771E-01
        1   -1    0    0  501    0  0.00000000000E+00  0.00000000000E+00  0.15171421633E+04  0.15171421633E+04  0.50400001928E-02 0.  1.
       -1   -1    0    0    0  501  0.00000000000E+00  0.00000000000E+00 -0.28108771770E+03  0.28108771774E+03  0.50400001928E-02 0. -1.
    10030    2    1    2    0    0  0.00000000000E+00  0.00000000000E+00  0.12360544456E+04  0.17982298811E+04  0.13060628288E+04 0.  0.
        1    1    3    3  502    0 -0.15533951884E+03  0.13152276093E+03  0.14723531555E+04  0.14863554142E+04  0.50400001928E-02 0.  1.
       -1    1    3    3    0  502  0.15533951884E+03 -0.13152276093E+03 -0.23629870990E+03  0.31187446686E+03  0.50400001928E-02 0. -1.
</event>
<event>
 5   0  0.3337520E-04  0.1300772E+04  0.7818609E-02  0.9028953E-01
       -1   -1    0    0    0  501  0.00000000000E+00  0.00000000000E+00  0.32358838817E+03  0.32358838821E+03  0.50400001928E-02 0.  1.
        1   -1    0    0  501    0  0.00000000000E+00  0.00000000000E+00 -0.13072218259E+04  0.13072218259E+04  0.50400001928E-02 0. -1.
    10030    2    1    2    0    0  0.00000000000E+00  0.00000000000E+00 -0.98363343771E+03  0.16308102141E+04  0.13007717765E+04 0.  0.
        5    1    3    3  502    0 -0.40390545048E+02 -0.28743014517E+03  0.23786014765E+03  0.37529591567E+03  0.46999998093E+01 0.  1.
       -5    1    3    3    0  502  0.40390545048E+02  0.28743014517E+03 -0.12214935854E+04  0.12555142984E+04  0.46999998093E+01 0. -1.
</event>
<event>
 5   0  0.5787604E-04  0.1299417E+04  0.7818609E-02  0.9030028E-01
       -2   -1    0    0    0  501  0.00000000000E+00  0.00000000000E+00  0.35880480343E+03  0.35880480344E+03  0.25500000920E-02 0.  1.
        2   -1    0    0  501    0  0.00000000000E+00  0.00000000000E+00 -0.11764636856E+04  0.11764636856E+04  0.25500000920E-02 0. -1.
    10030    2    1    2    0    0  0.00000000000E+00  0.00000000000E+00 -0.81765888221E+03  0.15352684891E+04  0.12994165175E+04 0.  0.
        4    1    3    3  502    0  0.45415821195E+02 -0.41887543983E+03 -0.99316748150E+03  0.10788431258E+04  0.12699999809E+01 0. -1.
       -4    1    3    3    0  502 -0.45415821195E+02  0.41887543983E+03  0.17550859929E+03  0.45642536327E+03  0.12699999809E+01 0.  1.
</event>
<event>
 5   0  0.6052864E-04  0.1302540E+04  0.7818609E-02  0.9027553E-01
       -2   -1    0    0    0  501  0.00000000000E+00  0.00000000000E+00  0.51341672247E+03  0.51341672248E+03  0.25500000920E-02 0. -1.
        2   -1    0    0  501    0  0.00000000000E+00  0.00000000000E+00 -0.82613730465E+03  0.82613730465E+03  0.25500000920E-02 0.  1.
    10030    2    1    2    0    0  0.00000000000E+00  0.00000000000E+00 -0.31272058217E+03  0.13395540271E+04  0.13025401449E+04 0.  0.
        2    1    3    3  502    0  0.14267094321E+03 -0.29784805981E+03  0.42091432248E+03  0.53501152478E+03  0.25500000920E-02 0. -1.
       -2    1    3    3    0  502 -0.14267094321E+03  0.29784805981E+03 -0.73363490465E+03  0.80454250236E+03  0.25500000920E-02 0.  1.
</event>
<event>
 5   0  0.3337520E-04  0.1300613E+04  0.7818609E-02  0.9029079E-01
        1   -1    0    0  501    0  0.00000000000E+00  0.00000000000E+00  0.13435251329E+04  0.13435251329E+04  0.50400001928E-02 0.  1.
       -1   -1    0    0    0  501  0.00000000000E+00  0.00000000000E+00 -0.31476803347E+03  0.31476803351E+03  0.50400001928E-02 0. -1.
    10030    2    1    2    0    0  0.00000000000E+00  0.00000000000E+00  0.10287570994E+04  0.16582931664E+04  0.13006133385E+04 0.  0.
        5    1    3    3  502    0 -0.41938740396E+03  0.41118268974E+03  0.87028566785E+03  0.10499410615E+04  0.46999998093E+01 0.  1.
       -5    1    3    3    0  502  0.41938740396E+03 -0.41118268974E+03  0.15847143156E+03  0.60835210492E+03  0.46999998093E+01 0. -1.
</event>
<event>
 5   0  0.3403833E-04  0.1301096E+04  0.7818609E-02  0.9028696E-01
       -1   -1    0    0    0  501  0.00000000000E+00  0.00000000000E+00  0.21663061953E+03  0.21663061959E+03  0.50400001928E-02 0.  1.
        1   -1    0    0  501    0  0.00000000000E+00  0.00000000000E+00 -0.19536149743E+04  0.19536149743E+04  0.50400001928E-02 0. -1.
    10030    2    1    2    0    0  0.00000000000E+00  0.00000000000E+00 -0.17369843548E+04  0.21702455939E+04  0.13010961875E+04 0.  0.
        1    1    3    3  502    0  0.56183162266E+03  0.31884827674E+03 -0.74043670266E+03  0.98263192828E+03  0.50400001928E-02 0. -1.
       -1    1    3    3    0  502 -0.56183162266E+03 -0.31884827674E+03 -0.99654765214E+03  0.11876136656E+04  0.50400001928E-02 0.  1.
</event>
<event>
 5   0  0.5384960E-04  0.1296667E+04  0.7818609E-02  0.9032213E-01
        2   -1    0    0  501    0  0.00000000000E+00  0.00000000000E+00  0.19454744750E+04  0.19454744750E+04  0.25500000920E-02 0.  1.
       -2   -1    0    0    0  501  0.00000000000E+00  0.00000000000E+00 -0.21605841034E+03  0.21605841035E+03  0.25500000920E-02 0. -1.
    10030    2    1    2    0    0  0.00000000000E+00  0.00000000000E+00  0.17294160647E+04  0.21615328854E+04  0.12966666841E+04 0.  0.
        3    1    3    3  502    0  0.19393948953E+03 -0.58809210911E+03  0.54461407802E+03  0.82466317886E+03  0.10100000352E+00 0. -1.
       -3    1    3    3    0  502 -0.19393948953E+03  0.58809210911E+03  0.11848019866E+04  0.13368697065E+04  0.10100000352E+00 0.  1.
</event>
<event>
 5   0  0.5787604E-04  0.1296095E+04  0.7818609E-02  0.9032667E-01
       -2   -1    0    0    0  501  0.00000000000E+00  0.00000000000E+00  0.34993378441E+03  0.34993378442E+03  0.25500000920E-02 0. -1.
        2   -1    0    0  501    0  0.00000000000E+00  0.00000000000E+00 -0.12001295435E+04  0.12001295435E+04  0.25500000920E-02 0.  1.
    10030    2    1    2    0    0  0.00000000000E+00  0.00000000000E+00 -0.85019575906E+03  0.15500633279E+04  0.12960954794E+04 0.  0.
        4    1    3    3  502    0 -0.11920056694E+03 -0.31732773466E+03 -0.10856454168E+04  0.11373360322E+04  0.12699999809E+01 0.  1.
       -4    1    3    3    0  502  0.11920056694E+03  0.31732773466E+03  0.23544965773E+03  0.41272729564E+03  0.12699999809E+01 0. -1.
</event>
<event>
 5   0  0.5787604E-04  0.1304694E+04  0.7818609E-02  0.9025851E-01
        2   -1    0    0  501    0  0.00000000000E+00  0.00000000000E+00  0.91734183940E+03  0.91734183940E+03  0.25500000920E-02 0. -1.
       -2   -1    0    0    0  501  0.00000000000E+00  0.00000000000E+00 -0.46390159245E+03  0.46390159245E+03  0.25500000920E-02 0.  1.
    10030    2    1    2    0    0  0.00000000000E+00  0.00000000000E+00  0.45344024695E+03  0.13812434319E+04  0.13046935887E+04 0.  0.
        4    1    3    3  502    0 -0.57185901154E+03 -0.40197854072E+02  0.55629927472E+03  0.79881730860E+03  0.12699999809E+01 0. -1.
       -4    1    3    3    0  502  0.57185901154E+03  0.40197854072E+02 -0.10285902777E+03  0.58242612326E+03  0.12699999809E+01 0.  1.
</event>
<event>
 5   0  0.3335747E-04  0.1307048E+04  0.7818609E-02  0.9023995E-01
       -1   -1    0    0    0  501  0.00000000000E+00  0.00000000000E+00  0.76045056854E+03  0.76045056855E+03  0.50400001928E-02 0. -1.
        1   -1    0    0  501    0  0.00000000000E+00  0.00000000000E+00 -0.56163201798E+03  0.56163201800E+03  0.50400001928E-02 0.  1.
    10030    2    1    2    0    0  0.00000000000E+00  0.00000000000E+00  0.19881855056E+03  0.13220825866E+04  0.13070476463E+04 0.  0.
        3    1    3    3  502    0  0.64308581319E+02 -0.59685343581E+03  0.36069002925E+03  0.70033343835E+03  0.10100000352E+00 0. -1.
       -3    1    3    3    0  502 -0.64308581319E+02  0.59685343581E+03 -0.16187147870E+03  0.62174914820E+03  0.10100000352E+00 0.  1.
</event>
<event>
 5   0  0.3335747E-04  0.1299220E+04  0.7818609E-02  0.9030184E-01
       -1   -1    0    0    0  501  0.00000000000E+00  0.00000000000E+00  0.70790657346E+03  0.70790657348E+03  0.50400001928E-02 0. -1.
        1   -1    0    0  501    0  0.00000000000E+00  0.00000000000E+00 -0.59611418120E+03  0.59611418122E+03  0.50400001928E-02 0.  1.
    10030    2    1    2    0    0  0.00000000000E+00  0.00000000000E+00  0.11179239226E+03  0.13040207547E+04  0.12992199928E+04 0.  0.
        3    1    3    3  502    0  0.40544127892E+03  0.42337326101E+03 -0.22507675186E+03  0.62792284814E+03  0.10100000352E+00 0.  1.
       -3    1    3    3    0  502 -0.40544127892E+03 -0.42337326101E+03  0.33686914412E+03  0.67609790656E+03  0.10100000352E+00 0. -1.
</event>
<event>
 5   0  0.3403833E-04  0.1295872E+04  0.7818609E-02  0.9032845E-01
       -1   -1    0    0    0  501  0.00000000000E+00  0.00000000000E+00  0.80151828268E+03  0.80151828270E+03  0.50400001928E-02 0.  1.
        1   -1    0    0  501    0  0.00000000000E+00  0.00000000000E+00 -0.52378257421E+03  0.52378257423E+03  0.50400001928E-02 0. -1.
    10030    2    1    2    0    0  0.00000000000E+00  0.00000000000E+00  0.27773570848E+03  0.13253008569E+04  0.12958723848E+04 0.  0.
        1    1    3    3  502    0  0.41899278060E+03 -0.38829996129E+03  0.45157201544E+03  0.72818204817E+03  0.50400001928E-02 0.  1.
       -1    1    3    3    0  502 -0.41899278060E+03  0.38829996129E+03 -0.17383630696E+03  0.59711880876E+03  0.50400001928E-02 0. -1.
</event>
<event>
 5   0  0.2255875E-04  0.1293387E+04  0.7818609E-02  0.9034826E-01
       -4   -1    0    0    0  501  0.00000000000E+00  0.00000000000E+00  0.80074082388E+03  0.80074183101E+03  0.12699999809E+01 0. -1.
        4   -1    0    0  501    0  0.00000000000E+00  0.00000000000E+00 -0.52227993444E+03  0.52228147854E+03  0.12699999809E+01 0.  1.
    10030    2    1    2    0    0  0.00000000000E+00  0.00000000000E+00  0.27846088943E+03  0.13230233095E+04  0.12933871078E+04 0.  0.
        3    1    3    3  502    0  0.42133182512E+03  0.13251696669E+03 -0.34396096581E+03  0.55981283437E+03  0.10100000352E+00 0.  1.
       -3    1    3    3    0  502 -0.42133182512E+03 -0.13251696669E+03  0.62242185525E+03  0.76321047517E+03  0.10100000352E+00 0. -1.
</event>
<event>
 5   0  0.5384960E-04  0.1305280E+04  0.7818609E-02  0.9025389E-01
       -2   -1    0    0    0  501  0.00000000000E+00  0.00000000000E+00  0.34941976255E+03  0.34941976256E+03  0.25500000920E-02 0.  1.
        2   -1    0    0  501    0  0.00000000000E+00  0.00000000000E+00 -0.12189888013E+04  0.12189888013E+04  0.25500000920E-02 0. -1.
    10030    2    1    2    0    0  0.00000000000E+00  0.00000000000E+00 -0.86956903873E+03  0.15684085638E+04  0.13052797057E+04 0.  0.
        3    1    3    3  502    0 -0.31644926644E+03  0.37045233456E+03 -0.95656119489E+03  0.10734916861E+04  0.10100000352E+00 0. -1.
       -3    1    3    3    0  502  0.31644926644E+03 -0.37045233456E+03  0.86992156160E+02  0.49491687772E+03  0.10100000352E+00 0.  1.
</event>
<event>
 5   0  0.5384960E-04  0.1220551E+04  0.7818609E-02  0.9095056E-01
       -2   -1    0    0    0  501  0.00000000000E+00  0.00000000000E+00  0.32463447656E+03  0.32463447657E+03  0.25500000920E-02 0. -1.
        2   -1    0    0  501    0  0.00000000000E+00  0.00000000000E+00 -0.11472478223E+04  0.11472478223E+04  0.25500000920E-02 0.  1.
    10030    2    1    2    0    0  0.00000000000E+00  0.00000000000E+00 -0.82261334579E+03  0.14718822989E+04  0.12205510170E+04 0.  0.
        3    1    3    3  502    0 -0.20819238415E+03 -0.55853431047E+03 -0.56914605220E+03  0.82415525462E+03  0.10100000352E+00 0.  1.
       -3    1    3    3    0  502  0.20819238415E+03  0.55853431047E+03 -0.25346729359E+03  0.64772704429E+03  0.10100000352E+00 0. -1.
</event>
<event>
 5   0  0.3335747E-04  0.1294108E+04  0.7818609E-02  0.9034250E-01
       -1   -1    0    0    0  501  0.00000000000E+00  0.00000000000E+00  0.82103777571E+03  0.82103777573E+03  0.50400001928E-02 0. -1.
        1   -1    0    0  501    0  0.00000000000E+00  0.00000000000E+00 -0.50993888744E+03  0.50993888747E+03  0.50400001928E-02 0.  1.
    10030    2    1    2    0    0  0.00000000000E+00  0.00000000000E+00  0.31109888827E+03  0.13309766632E+04  0.12941083261E+04 0.  0.
        3    1    3    3  502    0  0.41912304418E+03 -0.49199917517E+03  0.18727905292E+03  0.67290472461E+03  0.10100000352E+00 0.  1.
       -3    1    3    3    0  502 -0.41912304418E+03  0.49199917517E+03  0.12381983534E+03  0.65807193859E+03  0.10100000352E+00 0. -1.
</event>
<event>
 5   0  0.6052864E-04  0.1301485E+04  0.7818609E-02  0.9028389E-01
       -2   -1    0    0    0  501  0.00000000000E+00  0.00000000000E+00  0.26499799543E+03  0.26499799544E+03  0.25500000920E-02 0.  1.
        2   -1    0    0  501    0  0.00000000000E+00  0.00000000000E+00 -0.15979955793E+04  0.15979955793E+04  0.25500000920E-02 0. -1.
    10030    2    1    2    0    0  0.00000000000E+00  0.00000000000E+00 -0.13329975839E+04  0.18629935748E+04  0.13014847294E+04 0.  0.
        2    1    3    3  502    0  0.59660849602E+03  0.20698409873E+02 -0.10372810872E+04  0.11967966308E+04  0.25500000920E-02 0. -1.
       -2    1    3    3    0  502 -0.59660849602E+03 -0.20698409873E+02 -0.29571649672E+03  0.66619694395E+03  0.25500000920E-02 0.  1.
</event>
<event>
 5   0  0.5957913E-04  0.1301222E+04  0.7818609E-02  0.9028597E-01
        2   -1    0    0  501    0  0.00000000000E+00  0.00000000000E+00  0.20474848125E+03  0.20474848126E+03  0.25500000920E-02 0. -1.
       -2   -1    0    0    0  501  0.00000000000E+00  0.00000000000E+00 -0.20673874951E+04  0.20673874951E+04  0.25500000920E-02 0.  1.
    10030    2    1    2    0    0  0.00000000000E+00  0.00000000000E+00 -0.18626390139E+04  0.22721359764E+04  0.13012216564E+04 0.  0.
        1    1    3    3  502    0 -0.60536194577E+03  0.23825526248E+03 -0.94548321980E+03  0.11476790381E+04  0.50400001928E-02 0. -1.
       -1    1    3    3    0  502  0.60536194577E+03 -0.23825526248E+03 -0.91715579408E+03  0.11244569383E+04  0.50400001928E-02 0.  1.
</event>
<event>
 5   0  0.5787604E-04  0.1280821E+04  0.7818609E-02  0.9044914E-01
        2   -1    0    0  501    0  0.00000000000E+00  0.00000000000E+00  0.71521589617E+03  0.71521589618E+03  0.25500000920E-02 0.  1.
       -2   -1    0    0    0  501  0.00000000000E+00  0.00000000000E+00 -0.57342876722E+03  0.57342876722E+03  0.25500000920E-02 0. -1.
    10030    2    1    2    0    0  0.00000000000E+00  0.00000000000E+00  0.14178712896E+03  0.12886446634E+04  0.12808206270E+04 0.  0.
        4    1    3    3  502    0 -0.19759662602E+03  0.15884137385E+03  0.66257503721E+03  0.70942392228E+03  0.12699999809E+01 0.  1.
       -4    1    3    3    0  502  0.19759662602E+03 -0.15884137385E+03 -0.52078790826E+03  0.57922074112E+03  0.12699999809E+01 0. -1.
</event>
<event>
 5   0  0.3337520E-04  0.1302205E+04  0.7818609E-02  0.9027819E-01
       -1   -1    0    0    0  501  0.00000000000E+00  0.00000000000E+00  0.47524352803E+03  0.47524352806E+03  0.50400001928E-02 0.  1.
        1   -1    0    0  501    0  0.00000000000E+00  0.00000000000E+00 -0.89203573986E+03  0.89203573987E+03  0.50400001928E-02 0. -1.
    10030    2    1    2    0    0  0.00000000000E+00  0.00000000000E+00 -0.41679221183E+03  0.13672792679E+04  0.13022046109E+04 0.  0.
        5    1    3    3  502    0  0.12814210617E+03 -0.26679301465E+03  0.40050948687E+03  0.49802495029E+03  0.46999998093E+01 0.  1.
       -5    1    3    3    0  502 -0.12814210617E+03  0.26679301465E+03 -0.81730169870E+03  0.86925431764E+03  0.46999998093E+01 0. -1.
</event>
<event>
 5   0  0.5957913E-04  0.1295364E+04  0.7818609E-02  0.9033250E-01
       -2   -1    0    0    0  501  0.00000000000E+00  0.00000000000E+00  0.31885969477E+03  0.31885969478E+03  0.25500000920E-02 0.  1.
        2   -1    0    0  501    0  0.00000000000E+00  0.00000000000E+00 -0.13155999614E+04  0.13155999614E+04  0.25500000920E-02 0. -1.
    10030    2    1    2    0    0  0.00000000000E+00  0.00000000000E+00 -0.99674026662E+03  0.16344596562E+04  0.12953637360E+04 0.  0.
        1    1    3    3  502    0 -0.56221974452E+02 -0.21666993781E+03  0.26850051533E+03  0.34957016337E+03  0.50400001928E-02 0.  1.
       -1    1    3    3    0  502  0.56221974452E+02  0.21666993781E+03 -0.12652407819E+04  0.12848894928E+04  0.50400001928E-02 0. -1.
</event>
<event>
 5   0  0.5384960E-04  0.1298811E+04  0.7818609E-02  0.9030509E-01
       -2   -1    0    0    0  501  0.00000000000E+00  0.00000000000E+00  0.26280507469E+03  0.26280507470E+03  0.25500000920E-02 0. -1.
        2   -1    0    0  501    0  0.00000000000E+00  0.00000000000E+00 -0.16047151779E+04  0.16047151779E+04  0.25500000920E-02 0.  1.
    10030    2    1    2    0    0  0.00000000000E+00  0.00000000000E+00 -0.13419101032E+04  0.18675202526E+04  0.12988106747E+04 0.  0.
        3    1    3    3  502    0  0.20762320577E+03  0.27244207123E+03  0.12234662808E+03  0.36373174917E+03  0.10100000352E+00 0. -1.
       -3    1    3    3    0  502 -0.20762320577E+03 -0.27244207123E+03 -0.14642567313E+04  0.15037885034E+04  0.10100000352E+00 0.  1.
</event>
<event>
 5   0  0.3274879E-04  0.1300273E+04  0.7818609E-02  0.9029349E-01
        1   -1    0    0  501    0  0.00000000000E+00  0.00000000000E+00  0.51241130153E+03  0.51241130155E+03  0.50400001928E-02 0.  1.
       -1   -1    0    0    0  501  0.00000000000E+00  0.00000000000E+00 -0.82487883541E+03  0.82487883542E+03  0.50400001928E-02 0. -1.
    10030    2    1    2    0    0  0.00000000000E+00  0.00000000000E+00 -0.31246753388E+03  0.13372901370E+04  0.13002726448E+04 0.  0.
        4    1    3    3  502    0 -0.11092040167E+03  0.46604584369E+02 -0.81332833406E+03  0.82217997706E+03  0.12699999809E+01 0. -1.
       -4    1    3    3    0  502  0.11092040167E+03 -0.46604584369E+02  0.50086080018E+03  0.51511015991E+03  0.12699999809E+01 0.  1.
</event>
<event>
 5   0  0.6007125E-04  0.1258704E+04  0.7818609E-02  0.9062970E-01
        2   -1    0    0  501    0  0.00000000000E+00  0.00000000000E+00  0.11179040703E+04  0.11179040703E+04  0.25500000920E-02 0.  1.
       -2   -1    0    0    0  501  0.00000000000E+00  0.00000000000E+00 -0.35430945174E+03  0.35430945175E+03  0.25500000920E-02 0. -1.
    10030    2    1    2    0    0  0.00000000000E+00  0.00000000000E+00  0.76359461853E+03  0.14722135220E+04  0.12587040609E+04 0.  0.
        5    1    3    3  502    0  0.53985337218E+03 -0.18980510378E+03  0.68812835721E+03  0.89499182503E+03  0.46999998093E+01 0. -1.
       -5    1    3    3    0  502 -0.53985337218E+03  0.18980510378E+03  0.75466261322E+02  0.57722169699E+03  0.46999998093E+01 0.  1.
</event>
<event>
 5   0  0.6052864E-04  0.1302010E+04  0.7818609E-02  0.9027973E-01
        2   -1    0    0  501    0  0.00000000000E+00  0.00000000000E+00  0.17401739942E+04  0.17401739942E+04  0.25500000920E-02 0. -1.
       -2   -1    0    0    0  501  0.00000000000E+00  0.00000000000E+00 -0.24354314621E+03  0.24354314622E+03  0.25500000920E-02 0.  1.
    10030    2    1    2    0    0  0.00000000000E+00  0.00000000000E+00  0.14966308480E+04  0.19837171404E+04  0.13020099070E+04 0.  0.
        2    1    3    3  502    0 -0.46407121471E+02 -0.49698126721E+03  0.13850617862E+04  0.14722568228E+04  0.25500000920E-02 0. -1.
       -2    1    3    3    0  502  0.46407121471E+02  0.49698126721E+03  0.11156906180E+03  0.51146031756E+03  0.25500000920E-02 0.  1.
</event>
<event>
 5   0  0.6052864E-04  0.1309109E+04  0.7818609E-02  0.9022373E-01
        2   -1    0    0  501    0  0.00000000000E+00  0.00000000000E+00  0.17528186553E+04  0.17528186553E+04  0.25500000920E-02 0.  1.
       -2   -1    0    0    0  501  0.00000000000E+00  0.00000000000E+00 -0.24442991093E+03  0.24442991094E+03  0.25500000920E-02 0. -1.
    10030    2    1    2    0    0  0.00000000000E+00  0.00000000000E+00  0.15083887444E+04  0.19972485662E+04  0.13091085636E+04 0.  0.
        2    1    3    3  502    0  0.37624910352E+03  0.33083077243E+03  0.13968357109E+04  0.14839684603E+04  0.25500000920E-02 0. -1.
       -2    1    3    3    0  502 -0.37624910352E+03 -0.33083077243E+03  0.11155303347E+03  0.51328010595E+03  0.25500000920E-02 0.  1.
</event>
<event>
 5   0  0.3335747E-04  0.1302043E+04  0.7818609E-02  0.9027946E-01
       -1   -1    0    0    0  501  0.00000000000E+00  0.00000000000E+00  0.10564934623E+04  0.10564934623E+04  0.50400001928E-02 0.  1.
        1   -1    0    0  501    0  0.00000000000E+00  0.00000000000E+00 -0.40116601144E+03  0.40116601147E+03  0.50400001928E-02 0. -1.
    10030    2    1    2    0    0  0.00000000000E+00  0.00000000000E+00  0.65532745088E+03  0.14576594738E+04  0.13020434223E+04 0.  0.
        3    1    3    3  502    0  0.24818246531E+03 -0.11030658029E+03 -0.33471490063E+03  0.43104077840E+03  0.10100000352E+00 0. -1.
       -3    1    3    3    0  502 -0.24818246531E+03  0.11030658029E+03  0.99004235151E+03  0.10266186954E+04  0.10100000352E+00 0.  1.
</event>
<event>
 5   0  0.3263679E-04  0.1345977E+04  0.7818609E-02  0.8993879E-01
        1   -1    0    0  501    0  0.00000000000E+00  0.00000000000E+00  0.11243936060E+04  0.11243936060E+04  0.50400001928E-02 0. -1.
       -1   -1    0    0    0  501  0.00000000000E+00  0.00000000000E+00 -0.40280690892E+03  0.40280690895E+03  0.50400001928E-02 0.  1.
    10030    2    1    2    0    0  0.00000000000E+00  0.00000000000E+00  0.72158669707E+03  0.15272005150E+04  0.13459769877E+04 0.  0.
        2    1    3    3  502    0  0.12270937350E+03 -0.53298356420E+03  0.80574685007E+03  0.97383625752E+03  0.25500000920E-02 0. -1.
       -2    1    3    3    0  502 -0.12270937350E+03  0.53298356420E+03 -0.84160153002E+02  0.55336425744E+03  0.25500000920E-02 0.  1.
</event>
<event>
 5   0  0.5957913E-04  0.1300635E+04  0.7818609E-02  0.9029062E-01
        2   -1    0    0  501    0  0.00000000000E+00  0.00000000000E+00  0.14944291048E+04  0.14944291048E+04  0.25500000920E-02 0. -1.
       -2   -1    0    0    0  501  0.00000000000E+00  0.00000000000E+00 -0.28299274474E+03  0.28299274475E+03  0.25500000920E-02 0.  1.
    10030    2    1    2    0    0  0.00000000000E+00  0.00000000000E+00  0.12114363601E+04  0.17774218496E+04  0.13006346054E+04 0.  0.
        1    1    3    3  502    0  0.24803873492E+03 -0.34443404023E+02  0.14258976455E+04  0.14477201586E+04  0.50400001928E-02 0. -1.
       -1    1    3    3    0  502 -0.24803873492E+03  0.34443404023E+02 -0.21446128539E+03  0.32970169102E+03  0.50400001928E-02 0.  1.
</event>
<event>
 5   0  0.2255875E-04  0.1303497E+04  0.7818609E-02  0.9026796E-01
        4   -1    0    0  501    0  0.00000000000E+00  0.00000000000E+00  0.43180105756E+03  0.43180292520E+03  0.12699999809E+01 0. -1.
       -4   -1    0    0    0  501  0.00000000000E+00  0.00000000000E+00 -0.98372726194E+03  0.98372808173E+03  0.12699999809E+01 0.  1.
    10030    2    1    2    0    0  0.00000000000E+00  0.00000000000E+00 -0.55192620438E+03  0.14155310069E+04  0.13034974095E+04 0.  0.
        4    1    3    3  502    0 -0.24611256484E+02  0.65003181333E+03 -0.23215091629E+03  0.69068280210E+03  0.12699999809E+01 0.  1.
       -4    1    3    3    0  502  0.24611256484E+02 -0.65003181333E+03 -0.31977528808E+03  0.72484820483E+03  0.12699999809E+01 0. -1.
</event>
<event>
 5   0  0.3337520E-04  0.1277175E+04  0.7818609E-02  0.9047864E-01
       -1   -1    0    0    0  501  0.00000000000E+00  0.00000000000E+00  0.29403366353E+03  0.29403366358E+03  0.50400001928E-02 0. -1.
        1   -1    0    0  501    0  0.00000000000E+00  0.00000000000E+00 -0.13868957960E+04  0.13868957960E+04  0.50400001928E-02 0.  1.
    10030    2    1    2    0    0  0.00000000000E+00  0.00000000000E+00 -0.10928621325E+04  0.16809294596E+04  0.12771750888E+04 0.  0.
        5    1    3    3  502    0 -0.14124864600E+03  0.60761727407E+03 -0.72603364259E+03  0.95723396927E+03  0.46999998093E+01 0.  1.
       -5    1    3    3    0  502  0.14124864600E+03 -0.60761727407E+03 -0.36682848990E+03  0.72369549034E+03  0.46999998093E+01 0. -1.
</event>
<event>
 5   0  0.6007125E-04  0.1304222E+04  0.7818609E-02  0.9026224E-01
        2   -1    0    0  501    0  0.00000000000E+00  0.00000000000E+00  0.88950953678E+03  0.88950953678E+03  0.25500000920E-02 0.  1.
       -2   -1    0    0    0  501  0.00000000000E+00  0.00000000000E+00 -0.47807086450E+03  0.47807086451E+03  0.25500000920E-02 0. -1.
    10030    2    1    2    0    0  0.00000000000E+00  0.00000000000E+00  0.41143867227E+03  0.13675804013E+04  0.13042217499E+04 0.  0.
        5    1    3    3  502    0  0.54765817155E+03  0.10036707302E+03 -0.15021667216E+03  0.57670630376E+03  0.46999998093E+01 0.  1.
       -5    1    3    3    0  502 -0.54765817155E+03 -0.10036707302E+03  0.56165534443E+03  0.79087409753E+03  0.46999998093E+01 0. -1.
</event>
<event>
 5   0  0.2255875E-04  0.1300506E+04  0.7818609E-02  0.9029164E-01
        4   -1    0    0  501    0  0.00000000000E+00  0.00000000000E+00  0.28213288210E+03  0.28213574049E+03  0.12699999809E+01 0. -1.
       -4   -1    0    0    0  501  0.00000000000E+00  0.00000000000E+00 -0.14986763592E+04  0.14986768973E+04  0.12699999809E+01 0.  1.
    10030    2    1    2    0    0  0.00000000000E+00  0.00000000000E+00 -0.12165434771E+04  0.17808126378E+04  0.13005059090E+04 0.  0.
        1    1    3    3  502    0 -0.36058161576E+03  0.27093870131E+03  0.33124211558E+02  0.45224340228E+03  0.50400001928E-02 0. -1.
       -1    1    3    3    0  502  0.36058161576E+03 -0.27093870131E+03 -0.12496676887E+04  0.13285692356E+04  0.50400001928E-02 0.  1.
</event>
<event>
 5   0  0.3335747E-04  0.1298151E+04  0.7818609E-02  0.9031033E-01
        1   -1    0    0  501    0  0.00000000000E+00  0.00000000000E+00  0.11960528986E+04  0.11960528986E+04  0.50400001928E-02 0. -1.
       -1   -1    0    0    0  501  0.00000000000E+00  0.00000000000E+00 -0.35224108625E+03  0.35224108628E+03  0.50400001928E-02 0.  1.
    10030    2    1    2    0    0  0.00000000000E+00  0.00000000000E+00  0.84381181233E+03  0.15482939849E+04  0.12981509500E+04 0.  0.
        3    1    3    3  502    0  0.56424816275E+03  0.17073316708E+03  0.74585548521E+03  0.95069775351E+03  0.10100000352E+00 0. -1.
       -3    1    3    3    0  502 -0.56424816275E+03 -0.17073316708E+03  0.97956327114E+02  0.59759623136E+03  0.10100000352E+00 0.  1.
</event>
<event>
 5   0  0.3335747E-04  0.1304117E+04  0.7818609E-02  0.9026306E-01
        1   -1    0    0  501    0  0.00000000000E+00  0.00000000000E+00  0.64993557371E+03  0.64993557373E+03  0.50400001928E-02 0.  1.
       -1   -1    0    0    0  501  0.00000000000E+00  0.00000000000E+00 -0.65418869120E+03  0.65418869122E+03  0.50400001928E-02 0. -1.
    10030    2    1    2    0    0  0.00000000000E+00  0.00000000000E+00 -0.42531174915E+01  0.13041242649E+04  0.13041173296E+04 0.  0.
        3    1    3    3  502    0  0.58791640803E+03  0.10140297354E+03 -0.26528613552E+03  0.65292037016E+03  0.10100000352E+00 0. -1.
       -3    1    3    3    0  502 -0.58791640803E+03 -0.10140297354E+03  0.26103301803E+03  0.65120389478E+03  0.10100000352E+00 0.  1.
</event>
<event>
 5   0  0.6052864E-04  0.1298127E+04  0.7818609E-02  0.9031051E-01
       -2   -1    0    0    0  501  0.00000000000E+00  0.00000000000E+00  0.11222723516E+04  0.11222723516E+04  0.25500000920E-02 0. -1.
        2   -1    0    0  501    0  0.00000000000E+00  0.00000000000E+00 -0.37538458088E+03  0.37538458089E+03  0.25500000920E-02 0.  1.
    10030    2    1    2    0    0  0.00000000000E+00  0.00000000000E+00  0.74688777069E+03  0.14976569325E+04  0.12981274765E+04 0.  0.
        2    1    3    3  502    0  0.55513302999E+02 -0.22241680342E+03  0.10740128106E+04  0.10982051168E+04  0.25500000920E-02 0. -1.
       -2    1    3    3    0  502 -0.55513302999E+02  0.22241680342E+03 -0.32712503993E+03  0.39945181563E+03  0.25500000920E-02 0.  1.
</event>
<event>
 5   0  0.5957913E-04  0.1305248E+04  0.7818609E-02  0.9025414E-01
        2   -1    0    0  501    0  0.00000000000E+00  0.00000000000E+00  0.70602923261E+03  0.70602923261E+03  0.25500000920E-02 0. -1.
       -2   -1    0    0    0  501  0.00000000000E+00  0.00000000000E+00 -0.60325847470E+03  0.60325847471E+03  0.25500000920E-02 0.  1.
    10030    2    1    2    0    0  0.00000000000E+00  0.00000000000E+00  0.10277075791E+03  0.13092877073E+04  0.13052480499E+04 0.  0.
        1    1    3    3  502    0 -0.23503321052E+03  0.37952865598E+03 -0.42615050682E+03  0.61716032377E+03  0.50400001928E-02 0.  1.
       -1    1    3    3    0  502  0.23503321052E+03 -0.37952865598E+03  0.52892126472E+03  0.69212738355E+03  0.50400001928E-02 0. -1.
</event>
<event>
 5   0  0.3403833E-04  0.1291288E+04  0.7818609E-02  0.9036503E-01
       -1   -1    0    0    0  501  0.00000000000E+00  0.00000000000E+00  0.86993030122E+03  0.86993030124E+03  0.50400001928E-02 0.  1.
        1   -1    0    0  501    0  0.00000000000E+00  0.00000000000E+00 -0.47918320898E+03  0.47918320901E+03  0.50400001928E-02 0. -1.
    10030    2    1    2    0    0  0.00000000000E+00  0.00000000000E+00  0.39074709224E+03  0.13491135102E+04  0.12912877191E+04 0.  0.
        1    1    3    3  502    0 -0.45382216043E+03  0.32517529985E+02  0.67397476557E+03  0.81317521341E+03  0.50400001928E-02 0.  1.
       -1    1    3    3    0  502  0.45382216043E+03 -0.32517529985E+02 -0.28322767333E+03  0.53593829684E+03  0.50400001928E-02 0. -1.
</event>
<event>
 5   0  0.5957913E-04  0.1296532E+04  0.7818609E-02  0.9032320E-01
        2   -1    0    0  501    0  0.00000000000E+00  0.00000000000E+00  0.23701602948E+04  0.23701602948E+04  0.25500000920E-02 0.  1.
       -2   -1    0    0    0  501  0.00000000000E+00  0.00000000000E+00 -0.17730822961E+03  0.17730822963E+03  0.25500000920E-02 0. -1.
    10030    2    1    2    0    0  0.00000000000E+00  0.00000000000E+00  0.21928520652E+04  0.25474685245E+04  0.12965321836E+04 0.  0.
        1    1    3    3  502    0  0.45526292831E+03  0.23267667019E+03  0.31333205509E+03  0.59964968400E+03  0.50400001928E-02 0.  1.
       -1    1    3    3    0  502 -0.45526292831E+03 -0.23267667019E+03  0.18795200101E+04  0.19478188405E+04  0.50400001928E-02 0. -1.
</event>
<event>
 5   0  0.5957913E-04  0.1300717E+04  0.7818609E-02  0.9028997E-01
        2   -1    0    0  501    0  0.00000000000E+00  0.00000000000E+00  0.11995449877E+04  0.11995449877E+04  0.25500000920E-02 0.  1.
       -2   -1    0    0    0  501  0.00000000000E+00  0.00000000000E+00 -0.35260545663E+03  0.35260545664E+03  0.25500000920E-02 0. -1.
    10030    2    1    2    0    0  0.00000000000E+00  0.00000000000E+00  0.84693953109E+03  0.15521504444E+04  0.13007168918E+04 0.  0.
        1    1    3    3  502    0  0.12852841968E+03 -0.46727999619E+03 -0.94066473623E+02  0.49367869206E+03  0.50400001928E-02 0. -1.
       -1    1    3    3    0  502 -0.12852841968E+03  0.46727999619E+03  0.94100600471E+03  0.10584717523E+04  0.50400001928E-02 0.  1.
</event>
<event>
 5   0  0.6007125E-04  0.1301387E+04  0.7818609E-02  0.9028466E-01
        2   -1    0    0  501    0  0.00000000000E+00  0.00000000000E+00  0.20633802004E+04  0.20633802004E+04  0.25500000920E-02 0. -1.
       -2   -1    0    0    0  501  0.00000000000E+00  0.00000000000E+00 -0.20519826225E+03  0.20519826227E+03  0.25500000920E-02 0.  1.
    10030    2    1    2    0    0  0.00000000000E+00  0.00000000000E+00  0.18581819381E+04  0.22685784626E+04  0.13013870009E+04 0.  0.
        5    1    3    3  502    0 -0.50319943895E+03  0.30971073531E+03  0.14040915981E+04  0.15233600102E+04  0.46999998093E+01 0. -1.
       -5    1    3    3    0  502  0.50319943895E+03 -0.30971073531E+03  0.45409034006E+03  0.74521845244E+03  0.46999998093E+01 0.  1.
</event>
<event>
 5   0  0.5384960E-04  0.1309340E+04  0.7818609E-02  0.9022191E-01
        2   -1    0    0  501    0  0.00000000000E+00  0.00000000000E+00  0.12148192560E+04  0.12148192560E+04  0.25500000920E-02 0.  1.
       -2   -1    0    0    0  501  0.00000000000E+00  0.00000000000E+00 -0.35280380592E+03  0.35280380593E+03  0.25500000920E-02 0. -1.
    10030    2    1    2    0    0  0.00000000000E+00  0.00000000000E+00  0.86201545006E+03  0.15676230619E+04  0.13093400735E+04 0.  0.
        3    1    3    3  502    0 -0.26062544733E+03  0.56773393575E+03  0.66545534435E+03  0.91273121516E+03  0.10100000352E+00 0.  1.
       -3    1    3    3    0  502  0.26062544733E+03 -0.56773393575E+03  0.19656010571E+03  0.65489184676E+03  0.10100000352E+00 0. -1.
</event>
<event>
 5   0  0.3274879E-04  0.1294632E+04  0.7818609E-02  0.9033833E-01
        1   -1    0    0  501    0  0.00000000000E+00  0.00000000000E+00  0.88813524648E+03  0.88813524649E+03  0.50400001928E-02 0.  1.
       -1   -1    0    0    0  501  0.00000000000E+00  0.00000000000E+00 -0.47179535634E+03  0.47179535637E+03  0.50400001928E-02 0. -1.
    10030    2    1    2    0    0  0.00000000000E+00  0.00000000000E+00  0.41633989014E+03  0.13599306029E+04  0.12946321255E+04 0.  0.
        4    1    3    3  502    0  0.14745159396E+03  0.48742366334E+03 -0.21160146990E+03  0.55145316675E+03  0.12699999809E+01 0. -1.
       -4    1    3    3    0  502 -0.14745159396E+03 -0.48742366334E+03  0.62794136004E+03  0.80847743611E+03  0.12699999809E+01 0.  1.
</event>
<event>
 5   0  0.3403833E-04  0.1308399E+04  0.7818609E-02  0.9022931E-01
        1   -1    0    0  501    0  0.00000000000E+00  0.00000000000E+00  0.10564466669E+04  0.10564466669E+04  0.50400001928E-02 0. -1.
       -1   -1    0    0    0  501  0.00000000000E+00  0.00000000000E+00 -0.40510984954E+03  0.40510984957E+03  0.50400001928E-02 0.  1.
    10030    2    1    2    0    0  0.00000000000E+00  0.00000000000E+00  0.65133681735E+03  0.14615565165E+04  0.13083989457E+04 0.  0.
        1    1    3    3  502    0 -0.33354131429E+03 -0.47618779200E+03 -0.93972422744E+01  0.58145759069E+03  0.50400001928E-02 0.  1.
       -1    1    3    3    0  502  0.33354131429E+03  0.47618779200E+03  0.66073405963E+03  0.88009892578E+03  0.50400001928E-02 0. -1.
</event>
<event>
 5   0  0.3403833E-04  0.1300458E+04  0.7818609E-02  0.9029202E-01
       -1   -1    0    0    0  501  0.00000000000E+00  0.00000000000E+00  0.19592279774E+04  0.19592279774E+04  0.50400001928E-02 0.  1.
        1   -1    0    0  501    0  0.00000000000E+00  0.00000000000E+00 -0.21579811704E+03  0.21579811710E+03  0.50400001928E-02 0. -1.
    10030    2    1    2    0    0  0.00000000000E+00  0.00000000000E+00  0.17434298604E+04  0.21750260945E+04  0.13004579323E+04 0.  0.
        1    1    3    3  502    0  0.51441056291E+03 -0.71196924045E+02  0.15261561139E+04  0.16120917199E+04  0.50400001928E-02 0.  1.
       -1    1    3    3    0  502 -0.51441056291E+03  0.71196924045E+02  0.21727374645E+03  0.56293437463E+03  0.50400001928E-02 0. -1.
</event>
<event>
 5   0  0.6007125E-04  0.1301479E+04  0.7818609E-02  0.9028393E-01
        2   -1    0    0  501    0  0.00000000000E+00  0.00000000000E+00  0.16124932732E+04  0.16124932732E+04  0.25500000920E-02 0.  1.
       -2   -1    0    0    0  501  0.00000000000E+00  0.00000000000E+00 -0.26261303094E+03  0.26261303095E+03  0.25500000920E-02 0. -1.
    10030    2    1    2    0    0  0.00000000000E+00  0.00000000000E+00  0.13498802423E+04  0.18751063042E+04  0.13014787680E+04 0.  0.
        5    1    3    3  502    0 -0.19966619383E+03 -0.53153957570E+03  0.11329056407E+04  0.12672403837E+04  0.46999998093E+01 0.  1.
       -5    1    3    3    0  502  0.19966619383E+03  0.53153957570E+03  0.21697460162E+03  0.60786592045E+03  0.46999998093E+01 0. -1.
</event>
<event>
 5   0  0.5957913E-04  0.1290125E+04  0.7818609E-02  0.9037433E-01
       -2   -1    0    0    0  501  0.00000000000E+00  0.00000000000E+00  0.61979857517E+03  0.61979857518E+03  0.25500000920E-02 0. -1.
        2   -1    0    0  501    0  0.00000000000E+00  0.00000000000E+00 -0.67135619813E+03  0.67135619813E+03  0.25500000920E-02 0.  1.
    10030    2    1    2    0    0  0.00000000000E+00  0.00000000000E+00 -0.51557622954E+02  0.12911547733E+04  0.12901249785E+04 0.  0.
        1    1    3    3  502    0 -0.29678540190E+03 -0.42166516990E+03 -0.41367369369E+03  0.66106657393E+03  0.50400001928E-02 0.  1.
       -1    1    3    3    0  502  0.29678540190E+03  0.42166516990E+03  0.36211607073E+03  0.63008819938E+03  0.50400001928E-02 0. -1.
</event>
<event>
 5   0  0.3335747E-04  0.1284833E+04  0.7818609E-02  0.9041680E-01
       -1   -1    0    0    0  501  0.00000000000E+00  0.00000000000E+00  0.57408047537E+03  0.57408047540E+03  0.50400001928E-02 0. -1.
        1   -1    0    0  501    0  0.00000000000E+00  0.00000000000E+00 -0.71888700237E+03  0.71888700238E+03  0.50400001928E-02 0.  1.
    10030    2    1    2    0    0  0.00000000000E+00  0.00000000000E+00 -0.14480652699E+03  0.12929674778E+04  0.12848330508E+04 0.  0.
        3    1    3    3  502    0 -0.11735817252E+03  0.32287405127E+02  0.56237040250E+03  0.57539195075E+03  0.10100000352E+00 0. -1.
       -3    1    3    3    0  502  0.11735817252E+03 -0.32287405127E+02 -0.70717692949E+03  0.71757552703E+03  0.10100000352E+00 0.  1.
</event>
<event>
 5   0  0.3335747E-04  0.1303417E+04  0.7818609E-02  0.9026860E-01
        1   -1    0    0  501    0  0.00000000000E+00  0.00000000000E+00  0.13269241135E+04  0.13269241135E+04  0.50400001928E-02 0.  1.
       -1   -1    0    0    0  501  0.00000000000E+00  0.00000000000E+00 -0.32008140576E+03  0.32008140580E+03  0.50400001928E-02 0. -1.
    10030    2    1    2    0    0  0.00000000000E+00  0.00000000000E+00  0.10068427078E+04  0.16470055193E+04  0.13034166420E+04 0.  0.
        3    1    3    3  502    0  0.53826198976E+03 -0.33894000122E+03  0.32419657334E+03  0.71393957897E+03  0.10100000352E+00 0. -1.
       -3    1    3    3    0  502 -0.53826198976E+03  0.33894000122E+03  0.68264613443E+03  0.93306594038E+03  0.10100000352E+00 0.  1.
</event>
<event>
 5   0  0.5957913E-04  0.1288018E+04  0.7818609E-02  0.9039121E-01
       -2   -1    0    0    0  501  0.00000000000E+00  0.00000000000E+00  0.95832975421E+03  0.95832975421E+03  0.25500000920E-02 0.  1.
        2   -1    0    0  501    0  0.00000000000E+00  0.00000000000E+00 -0.43278159696E+03  0.43278159697E+03  0.25500000920E-02 0. -1.
    10030    2    1    2    0    0  0.00000000000E+00  0.00000000000E+00  0.52554815725E+03  0.13911113512E+04  0.12880178282E+04 0.  0.
        1    1    3    3  502    0  0.47003467084E+03  0.20080620486E+03 -0.16036442874E+03  0.53569811810E+03  0.50400001928E-02 0. -1.
       -1    1    3    3    0  502 -0.47003467084E+03 -0.20080620486E+03  0.68591258599E+03  0.85541323309E+03  0.50400001928E-02 0.  1.
</event>
<event>
 5   0  0.3403833E-04  0.1299772E+04  0.7818609E-02  0.9029746E-01
        1   -1    0    0  501    0  0.00000000000E+00  0.00000000000E+00  0.10828099352E+04  0.10828099352E+04  0.50400001928E-02 0. -1.
       -1   -1    0    0    0  501  0.00000000000E+00  0.00000000000E+00 -0.39005138114E+03  0.39005138117E+03  0.50400001928E-02 0.  1.
    10030    2    1    2    0    0  0.00000000000E+00  0.00000000000E+00  0.69275855405E+03  0.14728613164E+04  0.12997715350E+04 0.  0.
        1    1    3    3  502    0  0.44631829738E+03  0.21618323899E+03  0.82233240259E+03  0.96029464008E+03  0.50400001928E-02 0. -1.
       -1    1    3    3    0  502 -0.44631829738E+03 -0.21618323899E+03 -0.12957384854E+03  0.51256667629E+03  0.50400001928E-02 0.  1.
</event>
<event>
 5   0  0.3263679E-04  0.1298865E+04  0.7818609E-02  0.9030466E-01
        1   -1    0    0  501    0  0.00000000000E+00  0.00000000000E+00  0.15054932968E+04  0.15054932968E+04  0.50400001928E-02 0. -1.
       -1   -1    0    0    0  501  0.00000000000E+00  0.00000000000E+00 -0.28014897835E+03  0.28014897839E+03  0.50400001928E-02 0.  1.
    10030    2    1    2    0    0  0.00000000000E+00  0.00000000000E+00  0.12253443184E+04  0.17856422752E+04  0.12988647490E+04 0.  0.
        2    1    3    3  502    0 -0.24470791290E+03 -0.53012542681E+03  0.10035704470E+04  0.11610635525E+04  0.25500000920E-02 0. -1.
       -2    1    3    3    0  502  0.24470791290E+03  0.53012542681E+03  0.22177387141E+03  0.62457872269E+03  0.25500000920E-02 0.  1.
</event>
<event>
 5   0  0.3274879E-04  0.1288266E+04  0.7818609E-02  0.9038922E-01
        1   -1    0    0  501    0  0.00000000000E+00  0.00000000000E+00  0.11655132833E+04  0.11655132833E+04  0.50400001928E-02 0.  1.
       -1   -1    0    0    0  501  0.00000000000E+00  0.00000000000E+00 -0.35598681862E+03  0.35598681865E+03  0.50400001928E-02 0. -1.
    10030    2    1    2    0    0  0.00000000000E+00  0.00000000000E+00  0.80952646469E+03  0.15215001020E+04  0.12882660685E+04 0.  0.
        4    1    3    3  502    0  0.12098644734E+03 -0.38189706237E+02  0.11506093065E+04  0.11575835016E+04  0.12699999809E+01 0.  1.
       -4    1    3    3    0  502 -0.12098644734E+03  0.38189706237E+02 -0.34108284184E+03  0.36391660033E+03  0.12699999809E+01 0. -1.
</event>
<event>
 5   0  0.3263679E-04  0.1299147E+04  0.7818609E-02  0.9030242E-01
        1   -1    0    0  501    0  0.00000000000E+00  0.00000000000E+00  0.84429593488E+03  0.84429593489E+03  0.50400001928E-02 0.  1.
       -1   -1    0    0    0  501  0.00000000000E+00  0.00000000000E+00 -0.49976046620E+03  0.49976046622E+03  0.50400001928E-02 0. -1.
    10030    2    1    2    0    0  0.00000000000E+00  0.00000000000E+00  0.34453546868E+03  0.13440564011E+04  0.12991469971E+04 0.  0.
        2    1    3    3  502    0 -0.53426503314E+02  0.37040664495E+03 -0.37701915333E+03  0.53122397900E+03  0.25500000920E-02 0. -1.
       -2    1    3    3    0  502  0.53426503314E+02 -0.37040664495E+03  0.72155462201E+03  0.81283242211E+03  0.25500000920E-02 0.  1.
</event>
<event>
 5   0  0.3403833E-04  0.1300112E+04  0.7818609E-02  0.9029477E-01
       -1   -1    0    0    0  501  0.00000000000E+00  0.00000000000E+00  0.87135723246E+03  0.87135723248E+03  0.50400001928E-02 0.  1.
        1   -1    0    0  501    0  0.00000000000E+00  0.00000000000E+00 -0.48495913158E+03  0.48495913160E+03  0.50400001928E-02 0. -1.
    10030    2    1    2    0    0  0.00000000000E+00  0.00000000000E+00  0.38639810089E+03  0.13563163641E+04  0.13001117595E+04 0.  0.
        1    1    3    3  502    0  0.50098773616E+03 -0.33785113599E+03 -0.56829492827E+02  0.60692807906E+03  0.50400001928E-02 0. -1.
       -1    1    3    3    0  502 -0.50098773616E+03  0.33785113599E+03  0.44322759371E+03  0.74938828502E+03  0.50400001928E-02 0.  1.
</event>
<event>
 5   0  0.3335747E-04  0.1299763E+04  0.7818609E-02  0.9029753E-01
        1   -1    0    0  501    0  0.00000000000E+00  0.00000000000E+00  0.96590712594E+03  0.96590712595E+03  0.50400001928E-02 0.  1.
       -1   -1    0    0    0  501  0.00000000000E+00  0.00000000000E+00 -0.43725326181E+03  0.43725326184E+03  0.50400001928E-02 0. -1.
    10030    2    1    2    0    0  0.00000000000E+00  0.00000000000E+00  0.52865386413E+03  0.14031603878E+04  0.12997631191E+04 0.  0.
        3    1    3    3  502    0 -0.48657390872E+03  0.27365608481E+02 -0.19980836137E+03  0.52671285978E+03  0.10100000352E+00 0. -1.
       -3    1    3    3    0  502  0.48657390872E+03 -0.27365608481E+02  0.72846222550E+03  0.87644752801E+03  0.10100000352E+00 0.  1.
</event>
<event>
 5   0  0.3274879E-04  0.1298223E+04  0.7818609E-02  0.9030976E-01
       -1   -1    0    0    0  501  0.00000000000E+00  0.00000000000E+00  0.59643001504E+03  0.59643001506E+03  0.50400001928E-02 0.  1.
        1   -1    0    0  501    0  0.00000000000E+00  0.00000000000E+00 -0.70644595428E+03  0.70644595430E+03  0.50400001928E-02 0. -1.
    10030    2    1    2    0    0  0.00000000000E+00  0.00000000000E+00 -0.11001593924E+03  0.13028759694E+04  0.12982227408E+04 0.  0.
        4    1    3    3  502    0  0.26831484976E+03 -0.33904665066E+03 -0.54089045723E+03  0.69246630932E+03  0.12699999809E+01 0.  1.
       -4    1    3    3    0  502 -0.26831484976E+03  0.33904665066E+03  0.43087451798E+03  0.61040966004E+03  0.12699999809E+01 0. -1.
</event>
<event>
 5   0  0.5384960E-04  0.1300742E+04  0.7818609E-02  0.9028977E-01
        2   -1    0    0  501    0  0.00000000000E+00  0.00000000000E+00  0.19153976799E+04  0.19153976799E+04  0.25500000920E-02 0.  1.
       -2   -1    0    0    0  501  0.00000000000E+00  0.00000000000E+00 -0.22083277661E+03  0.22083277662E+03  0.25500000920E-02 0. -1.
    10030    2    1    2    0    0  0.00000000000E+00  0.00000000000E+00  0.16945649033E+04  0.21362304565E+04  0.13007422312E+04 0.  0.
        3    1    3    3  502    0  0.23554080027E+02  0.47441604273E+03  0.11768492844E+03  0.48936196100E+03  0.10100000352E+00 0. -1.
       -3    1    3    3    0  502 -0.23554080027E+02 -0.47441604273E+03  0.15768799748E+04  0.16468684955E+04  0.10100000352E+00 0.  1.
</event>
<event>
 5   0  0.3263679E-04  0.1297946E+04  0.7818609E-02  0.9031196E-01
        1   -1    0    0  501    0  0.00000000000E+00  0.00000000000E+00  0.91501946439E+03  0.91501946440E+03  0.50400001928E-02 0.  1.
       -1   -1    0    0    0  501  0.00000000000E+00  0.00000000000E+00 -0.46028085115E+03  0.46028085117E+03  0.50400001928E-02 0. -1.
    10030    2    1    2    0    0  0.00000000000E+00  0.00000000000E+00  0.45473861324E+03  0.13753003156E+04  0.12979459741E+04 0.  0.
        2    1    3    3  502    0 -0.45839893941E+03 -0.45754407697E+03  0.18381265844E+03  0.67324829256E+03  0.25500000920E-02 0.  1.
       -2    1    3    3    0  502  0.45839893941E+03  0.45754407697E+03  0.27092595480E+03  0.70205202302E+03  0.25500000920E-02 0. -1.
</event>
<event>
 5   0  0.3335747E-04  0.1300337E+04  0.7818609E-02  0.9029298E-01
        1   -1    0    0  501    0  0.00000000000E+00  0.00000000000E+00  0.57202449312E+03  0.57202449314E+03  0.50400001928E-02 0. -1.
       -1   -1    0    0    0  501  0.00000000000E+00  0.00000000000E+00 -0.73898797534E+03  0.73898797536E+03  0.50400001928E-02 0.  1.
    10030    2    1    2    0    0  0.00000000000E+00  0.00000000000E+00 -0.16696348222E+03  0.13110124685E+04  0.13003372209E+04 0.  0.
        3    1    3    3  502    0  0.50348269703E+03  0.35071532613E+03  0.13327897484E+03  0.62790075771E+03  0.10100000352E+00 0. -1.
       -3    1    3    3    0  502 -0.50348269703E+03 -0.35071532613E+03 -0.30024245707E+03  0.68311171079E+03  0.10100000352E+00 0.  1.
</event>
<event>
 5   0  0.2255875E-04  0.1307457E+04  0.7818609E-02  0.9023672E-01
       -4   -1    0    0    0  501  0.00000000000E+00  0.00000000000E+00  0.43516526312E+03  0.43516711632E+03  0.12699999809E+01 0. -1.
        4   -1    0    0  501    0  0.00000000000E+00  0.00000000000E+00 -0.98206161959E+03  0.98206244077E+03  0.12699999809E+01 0.  1.
    10030    2    1    2    0    0  0.00000000000E+00  0.00000000000E+00 -0.54689635647E+03  0.14172295571E+04  0.13074570711E+04 0.  0.
        3    1    3    3  502    0 -0.25225249105E+03 -0.35579295110E+03  0.25440862998E+03  0.50491950300E+03  0.10100000352E+00 0. -1.
       -3    1    3    3    0  502  0.25225249105E+03  0.35579295110E+03 -0.80130498645E+03  0.91231005410E+03  0.10100000352E+00 0.  1.
</event>
<event>
 5   0  0.5957913E-04  0.1295947E+04  0.7818609E-02  0.9032785E-01
       -2   -1    0    0    0  501  0.00000000000E+00  0.00000000000E+00  0.21731808309E+03  0.21731808311E+03  0.25500000920E-02 0.  1.
        2   -1    0    0  501    0  0.00000000000E+00  0.00000000000E+00 -0.19320509402E+04  0.19320509402E+04  0.25500000920E-02 0. -1.
    10030    2    1    2    0    0  0.00000000000E+00  0.00000000000E+00 -0.17147328571E+04  0.21493690233E+04  0.12959469229E+04 0.  0.
        1    1    3    3  502    0  0.57049006818E+03  0.19643674483E+03 -0.46550591708E+03  0.76206434864E+03  0.50400001928E-02 0. -1.
       -1    1    3    3    0  502 -0.57049006818E+03 -0.19643674483E+03 -0.12492269400E+04  0.13873046746E+04  0.50400001928E-02 0.  1.
</event>
<event>
 5   0  0.3403833E-04  0.1303807E+04  0.7818609E-02  0.9026551E-01
        1   -1    0    0  501    0  0.00000000000E+00  0.00000000000E+00  0.10641904833E+04  0.10641904833E+04  0.50400001928E-02 0. -1.
       -1   -1    0    0    0  501  0.00000000000E+00  0.00000000000E+00 -0.39934432779E+03  0.39934432782E+03  0.50400001928E-02 0.  1.
    10030    2    1    2    0    0  0.00000000000E+00  0.00000000000E+00  0.66484615548E+03  0.14635348111E+04  0.13038073987E+04 0.  0.
        1    1    3    3  502    0 -0.25119778415E+03 -0.22411933938E+03 -0.29422285529E+03  0.44709830423E+03  0.50400001928E-02 0.  1.
       -1    1    3    3    0  502  0.25119778415E+03  0.22411933938E+03  0.95906901077E+03  0.10164365069E+04  0.50400001928E-02 0. -1.
</event>
<event>
 5   0  0.6052864E-04  0.1295766E+04  0.7818609E-02  0.9032930E-01
       -2   -1    0    0    0  501  0.00000000000E+00  0.00000000000E+00  0.26324597013E+03  0.26324597015E+03  0.25500000920E-02 0.  1.
        2   -1    0    0  501    0  0.00000000000E+00  0.00000000000E+00 -0.15945254096E+04  0.15945254096E+04  0.25500000920E-02 0. -1.
    10030    2    1    2    0    0  0.00000000000E+00  0.00000000000E+00 -0.13312794394E+04  0.18577713797E+04  0.12957660103E+04 0.  0.
        2    1    3    3  502    0  0.43182971927E+02  0.61745989237E+03 -0.94004311607E+03  0.11255232329E+04  0.25500000920E-02 0. -1.
       -2    1    3    3    0  502 -0.43182971927E+02 -0.61745989237E+03 -0.39123632335E+03  0.73224814679E+03  0.25500000920E-02 0.  1.
</event>
<event>
 5   0  0.3337520E-04  0.1300483E+04  0.7818609E-02  0.9029182E-01
       -1   -1    0    0    0  501  0.00000000000E+00  0.00000000000E+00  0.30829708393E+03  0.30829708397E+03  0.50400001928E-02 0.  1.
        1   -1    0    0  501    0  0.00000000000E+00  0.00000000000E+00 -0.13714504367E+04  0.13714504367E+04  0.50400001928E-02 0. -1.
    10030    2    1    2    0    0  0.00000000000E+00  0.00000000000E+00 -0.10631533528E+04  0.16797475207E+04  0.13004832493E+04 0.  0.
        5    1    3    3  502    0  0.35039185010E+03  0.53147682898E+03 -0.70268768685E+03  0.94817411039E+03  0.46999998093E+01 0. -1.
       -5    1    3    3    0  502 -0.35039185010E+03 -0.53147682898E+03 -0.36046566594E+03  0.73157341032E+03  0.46999998093E+01 0.  1.
</event>
<event>
 5   0  0.3274879E-04  0.1310519E+04  0.7818609E-02  0.9021265E-01
       -1   -1    0    0    0  501  0.00000000000E+00  0.00000000000E+00  0.61558614112E+03  0.61558614114E+03  0.50400001928E-02 0.  1.
        1   -1    0    0  501    0  0.00000000000E+00  0.00000000000E+00 -0.69748947937E+03  0.69748947939E+03  0.50400001928E-02 0. -1.
    10030    2    1    2    0    0  0.00000000000E+00  0.00000000000E+00 -0.81903338256E+02  0.13130756205E+04  0.13105187631E+04 0.  0.
        4    1    3    3  502    0  0.17092191097E+03  0.63244979704E+03 -0.53474003840E+02  0.65731889324E+03  0.12699999809E+01 0. -1.
       -4    1    3    3    0  502 -0.17092191097E+03 -0.63244979704E+03 -0.28429334416E+02  0.65575672729E+03  0.12699999809E+01 0.  1.
</event>
<event>
 5   0  0.3335747E-04  0.1300143E+04  0.7818609E-02  0.9029452E-01
        1   -1    0    0  501    0  0.00000000000E+00  0.00000000000E+00  0.97575567188E+03  0.97575567189E+03  0.50400001928E-02 0.  1.
       -1   -1    0    0    0  501  0.00000000000E+00  0.00000000000E+00 -0.43309278264E+03  0.43309278267E+03  0.50400001928E-02 0. -1.
    10030    2    1    2    0    0  0.00000000000E+00  0.00000000000E+00  0.54266288924E+03  0.14088484546E+04  0.13001426678E+04 0.  0.
        3    1    3    3  502    0 -0.10960784127E+03  0.40694441284E+02 -0.42160585358E+03  0.43751733954E+03  0.10100000352E+00 0. -1.
       -3    1    3    3    0  502  0.10960784127E+03 -0.40694441284E+02  0.96426874283E+03  0.97133111502E+03  0.10100000352E+00 0.  1.
</event>
<event>
 5   0  0.2255875E-04  0.1288325E+04  0.7818609E-02  0.9038875E-01
       -3   -1    0    0    0  501  0.00000000000E+00  0.00000000000E+00  0.16163779723E+04  0.16163779755E+04  0.10100000352E+00 0.  1.
        3   -1    0    0  501    0  0.00000000000E+00  0.00000000000E+00 -0.25671308918E+03  0.25671310905E+03  0.10100000352E+00 0. -1.
    10030    2    1    2    0    0  0.00000000000E+00  0.00000000000E+00  0.13596648831E+04  0.18730910845E+04  0.12883251207E+04 0.  0.
        1    1    3    3  502    0  0.31557872714E+03 -0.41499152954E+03  0.12977234875E+03  0.53726042581E+03  0.50400001928E-02 0. -1.
       -1    1    3    3    0  502 -0.31557872714E+03  0.41499152954E+03  0.12298925344E+04  0.13358306587E+04  0.50400001928E-02 0.  1.
</event>
<event>
 5   0  0.5384960E-04  0.1300415E+04  0.7818609E-02  0.9029236E-01
       -2   -1    0    0    0  501  0.00000000000E+00  0.00000000000E+00  0.31044467773E+03  0.31044467774E+03  0.25500000920E-02 0. -1.
        2   -1    0    0  501    0  0.00000000000E+00  0.00000000000E+00 -0.13618195531E+04  0.13618195531E+04  0.25500000920E-02 0.  1.
    10030    2    1    2    0    0  0.00000000000E+00  0.00000000000E+00 -0.10513748754E+04  0.16722642308E+04  0.13004147528E+04 0.  0.
        3    1    3    3  502    0 -0.19097401476E+03 -0.46041521917E+03 -0.10625858307E+04  0.11736873119E+04  0.10100000352E+00 0.  1.
       -3    1    3    3    0  502  0.19097401476E+03  0.46041521917E+03  0.11210955328E+02  0.49857691892E+03  0.10100000352E+00 0. -1.
</event>
<event>
 5   0  0.5787604E-04  0.1313978E+04  0.7818609E-02  0.9018553E-01
       -2   -1    0    0    0  501  0.00000000000E+00  0.00000000000E+00  0.17613543039E+03  0.17613543040E+03  0.25500000920E-02 0.  1.
        2   -1    0    0  501    0  0.00000000000E+00  0.00000000000E+00 -0.24505831011E+04  0.24505831011E+04  0.25500000920E-02 0. -1.
    10030    2    1    2    0    0  0.00000000000E+00  0.00000000000E+00 -0.22744476708E+04  0.26267185316E+04  0.13139779439E+04 0.  0.
        4    1    3    3  502    0 -0.36740913380E+03  0.43335310622E+03 -0.47769056721E+03  0.74227641561E+03  0.12699999809E+01 0.  1.
       -4    1    3    3    0  502  0.36740913380E+03 -0.43335310622E+03 -0.17967571036E+04  0.18844421159E+04  0.12699999809E+01 0. -1.
</event>
<event>
 5   0  0.3274879E-04  0.1298407E+04  0.7818609E-02  0.9030829E-01
       -1   -1    0    0    0  501  0.00000000000E+00  0.00000000000E+00  0.35100506582E+03  0.35100506586E+03  0.50400001928E-02 0. -1.
        1   -1    0    0  501    0  0.00000000000E+00  0.00000000000E+00 -0.12007391001E+04  0.12007391001E+04  0.50400001928E-02 0.  1.
    10030    2    1    2    0    0  0.00000000000E+00  0.00000000000E+00 -0.84973403428E+03  0.15517441660E+04  0.12984074967E+04 0.  0.
        4    1    3    3  502    0  0.33577942448E+03  0.21885223405E+03 -0.10352175979E+04  0.11100996398E+04  0.12699999809E+01 0.  1.
       -4    1    3    3    0  502 -0.33577942448E+03 -0.21885223405E+03  0.18548356364E+03  0.44164452621E+03  0.12699999809E+01 0. -1.
</event>
<event>
 5   0  0.3337520E-04  0.1300201E+04  0.7818609E-02  0.9029406E-01
       -1   -1    0    0    0  501  0.00000000000E+00  0.00000000000E+00  0.47406121880E+03  0.47406121882E+03  0.50400001928E-02 0. -1.
        1   -1    0    0  501    0  0.00000000000E+00  0.00000000000E+00 -0.89151099229E+03  0.89151099230E+03  0.50400001928E-02 0.  1.
    10030    2    1    2    0    0  0.00000000000E+00  0.00000000000E+00 -0.41744977349E+03  0.13655722111E+04  0.13002011961E+04 0.  0.
        5    1    3    3  502    0  0.36451996881E+03 -0.39609616917E+03 -0.59152437246E+03  0.79980632412E+03  0.46999998093E+01 0.  1.
       -5    1    3    3    0  502 -0.36451996881E+03  0.39609616917E+03  0.17407459897E+03  0.56576588700E+03  0.46999998093E+01 0. -1.
</event>
<event>
 5   0  0.5384960E-04  0.1301061E+04  0.7818609E-02  0.9028725E-01
        2   -1    0    0  501    0  0.00000000000E+00  0.00000000000E+00  0.50426560940E+03  0.50426560941E+03  0.25500000920E-02 0.  1.
       -2   -1    0    0    0  501  0.00000000000E+00  0.00000000000E+00 -0.83921976877E+03  0.83921976877E+03  0.25500000920E-02 0. -1.
    10030    2    1    2    0    0  0.00000000000E+00  0.00000000000E+00 -0.33495415937E+03  0.13434853782E+04  0.13010605952E+04 0.  0.
        3    1    3    3  502    0  0.42073045497E+03  0.18932733072E+03 -0.64104988814E+03  0.78981258738E+03  0.10100000352E+00 0. -1.
       -3    1    3    3    0  502 -0.42073045497E+03 -0.18932733072E+03  0.30609572877E+03  0.55367279080E+03  0.10100000352E+00 0.  1.
</event>
<event>
 5   0  0.3274879E-04  0.1312622E+04  0.7818609E-02  0.9019615E-01
        1   -1    0    0  501    0  0.00000000000E+00  0.00000000000E+00  0.81745349458E+03  0.81745349460E+03  0.50400001928E-02 0.  1.
       -1   -1    0    0    0  501  0.00000000000E+00  0.00000000000E+00 -0.52693434816E+03  0.52693434818E+03  0.50400001928E-02 0. -1.
    10030    2    1    2    0    0  0.00000000000E+00  0.00000000000E+00  0.29051914642E+03  0.13443878428E+04  0.13126222981E+04 0.  0.
        4    1    3    3  502    0  0.41654980507E+03  0.47646002934E+03  0.32329021016E+03  0.71066593597E+03  0.12699999809E+01 0.  1.
       -4    1    3    3    0  502 -0.41654980507E+03 -0.47646002934E+03 -0.32771063741E+02  0.63372190681E+03  0.12699999809E+01 0. -1.
</event>
<event>
 5   0  0.5384960E-04  0.1285068E+04  0.7818609E-02  0.9041491E-01
       -2   -1    0    0    0  501  0.00000000000E+00  0.00000000000E+00  0.13911131784E+04  0.13911131784E+04  0.25500000920E-02 0. -1.
        2   -1    0    0  501    0  0.00000000000E+00  0.00000000000E+00 -0.29677687937E+03  0.29677687938E+03  0.25500000920E-02 0.  1.
    10030    2    1    2    0    0  0.00000000000E+00  0.00000000000E+00  0.10943362990E+04  0.16878900578E+04  0.12850684463E+04 0.  0.
        3    1    3    3  502    0 -0.45561324059E+03  0.45172321436E+03  0.50142397166E+03  0.81428698685E+03  0.10100000352E+00 0.  1.
       -3    1    3    3    0  502  0.45561324059E+03 -0.45172321436E+03  0.59291232736E+03  0.87360307092E+03  0.10100000352E+00 0. -1.
</event>
<event>
 5   0  0.3337520E-04  0.1293764E+04  0.7818609E-02  0.9034525E-01
        1   -1    0    0  501    0  0.00000000000E+00  0.00000000000E+00  0.73483297280E+03  0.73483297281E+03  0.50400001928E-02 0. -1.
       -1   -1    0    0    0  501  0.00000000000E+00  0.00000000000E+00 -0.56945804607E+03  0.56945804609E+03  0.50400001928E-02 0.  1.
    10030    2    1    2    0    0  0.00000000000E+00  0.00000000000E+00  0.16537492673E+03  0.13042910189E+04  0.12937643509E+04 0.  0.
        5    1    3    3  502    0 -0.64363617839E+02  0.28819629166E+03  0.66290015549E+03  0.72571239756E+03  0.46999998093E+01 0. -1.
       -5    1    3    3    0  502  0.64363617839E+02 -0.28819629166E+03 -0.49752522876E+03  0.57857862134E+03  0.46999998093E+01 0.  1.
</event>
<event>
 5   0  0.3263679E-04  0.1298514E+04  0.7818609E-02  0.9030745E-01
       -1   -1    0    0    0  501  0.00000000000E+00  0.00000000000E+00  0.20737758446E+03  0.20737758453E+03  0.50400001928E-02 0. -1.
        1   -1    0    0  501    0  0.00000000000E+00  0.00000000000E+00 -0.20326900744E+04  0.20326900744E+04  0.50400001928E-02 0.  1.
    10030    2    1    2    0    0  0.00000000000E+00  0.00000000000E+00 -0.18253124899E+04  0.22400676589E+04  0.12985135466E+04 0.  0.
        2    1    3    3  502    0  0.39156865410E+03 -0.51657132418E+03 -0.84898121302E+03  0.10681484185E+04  0.25500000920E-02 0. -1.
       -2    1    3    3    0  502 -0.39156865410E+03  0.51657132418E+03 -0.97633127691E+03  0.11719192404E+04  0.25500000920E-02 0.  1.
</event>
<event>
 5   0  0.6007125E-04  0.1300048E+04  0.7818609E-02  0.9029527E-01
        2   -1    0    0  501    0  0.00000000000E+00  0.00000000000E+00  0.36877953555E+03  0.36877953556E+03  0.25500000920E-02 0. -1.
       -2   -1    0    0    0  501  0.00000000000E+00  0.00000000000E+00 -0.11457562278E+04  0.11457562278E+04  0.25500000920E-02 0.  1.
    10030    2    1    2    0    0  0.00000000000E+00  0.00000000000E+00 -0.77697669228E+03  0.15145357634E+04  0.13000483830E+04 0.  0.
        5    1    3    3  502    0  0.64858778045E+03  0.29359537442E+02 -0.35199498407E+03  0.73854630877E+03  0.46999998093E+01 0.  1.
       -5    1    3    3    0  502 -0.64858778045E+03 -0.29359537442E+02 -0.42498170821E+03  0.77598945463E+03  0.46999998093E+01 0. -1.
</event>
<event>
 5   0  0.3403833E-04  0.1301305E+04  0.7818609E-02  0.9028531E-01
        1   -1    0    0  501    0  0.00000000000E+00  0.00000000000E+00  0.21263063611E+04  0.21263063612E+04  0.50400001928E-02 0. -1.
       -1   -1    0    0    0  501  0.00000000000E+00  0.00000000000E+00 -0.19910057375E+03  0.19910057381E+03  0.50400001928E-02 0.  1.
    10030    2    1    2    0    0  0.00000000000E+00  0.00000000000E+00  0.19272057874E+04  0.23254069350E+04  0.13013052164E+04 0.  0.
        1    1    3    3  502    0  0.21627493413E+03 -0.93393055018E+02  0.20474204465E+04  0.20609288184E+04  0.50400001928E-02 0. -1.
       -1    1    3    3    0  502 -0.21627493413E+03  0.93393055018E+02 -0.12021465908E+03  0.26447811656E+03  0.50400001928E-02 0.  1.
</event>
<event>
 5   0  0.3403833E-04  0.1301462E+04  0.7818609E-02  0.9028407E-01
       -1   -1    0    0    0  501  0.00000000000E+00  0.00000000000E+00  0.31280285130E+03  0.31280285134E+03  0.50400001928E-02 0.  1.
        1   -1    0    0  501    0  0.00000000000E+00  0.00000000000E+00 -0.13537297036E+04  0.13537297036E+04  0.50400001928E-02 0. -1.
    10030    2    1    2    0    0  0.00000000000E+00  0.00000000000E+00 -0.10409268523E+04  0.16665325549E+04  0.13014615034E+04 0.  0.
        1    1    3    3  502    0  0.26787499989E+03  0.56340249628E+03 -0.28340977868E+03  0.68520105886E+03  0.50400001928E-02 0.  1.
       -1    1    3    3    0  502 -0.26787499989E+03 -0.56340249628E+03 -0.75751707361E+03  0.98133149609E+03  0.50400001928E-02 0. -1.
</event>
<event>
 5   0  0.5384960E-04  0.1295758E+04  0.7818609E-02  0.9032936E-01
       -2   -1    0    0    0  501  0.00000000000E+00  0.00000000000E+00  0.38288646491E+03  0.38288646492E+03  0.25500000920E-02 0. -1.
        2   -1    0    0  501    0  0.00000000000E+00  0.00000000000E+00 -0.10962704103E+04  0.10962704103E+04  0.25500000920E-02 0.  1.
    10030    2    1    2    0    0  0.00000000000E+00  0.00000000000E+00 -0.71338394542E+03  0.14791568753E+04  0.12957578509E+04 0.  0.
        3    1    3    3  502    0  0.59845874753E+03 -0.15481079564E+03 -0.57812633404E+03  0.84637422175E+03  0.10100000352E+00 0.  1.
       -3    1    3    3    0  502 -0.59845874753E+03  0.15481079564E+03 -0.13525761138E+03  0.63278265350E+03  0.10100000352E+00 0. -1.
</event>
<event>
 5   0  0.3274879E-04  0.1281149E+04  0.7818609E-02  0.9044649E-01
       -1   -1    0    0    0  501  0.00000000000E+00  0.00000000000E+00  0.53773550129E+03  0.53773550131E+03  0.50400001928E-02 0. -1.
        1   -1    0    0  501    0  0.00000000000E+00  0.00000000000E+00 -0.76308079091E+03  0.76308079093E+03  0.50400001928E-02 0.  1.
    10030    2    1    2    0    0  0.00000000000E+00  0.00000000000E+00 -0.22534528962E+03  0.13008162922E+04  0.12811489088E+04 0.  0.
        4    1    3    3  502    0 -0.83144114083E+02 -0.81006048440E+02 -0.75231104084E+03  0.76121510669E+03  0.12699999809E+01 0.  1.
       -4    1    3    3    0  502  0.83144114083E+02  0.81006048440E+02  0.52696575122E+03  0.53960118555E+03  0.12699999809E+01 0. -1.
</event>
<event>
 5   0  0.3403833E-04  0.1301030E+04  0.7818609E-02  0.9028749E-01
       -1   -1    0    0    0  501  0.00000000000E+00  0.00000000000E+00  0.23384777614E+03  0.23384777620E+03  0.50400001928E-02 0.  1.
        1   -1    0    0  501    0  0.00000000000E+00  0.00000000000E+00 -0.18095952761E+04  0.18095952761E+04  0.50400001928E-02 0. -1.
    10030    2    1    2    0    0  0.00000000000E+00  0.00000000000E+00 -0.15757475000E+04  0.20434430523E+04  0.13010301013E+04 0.  0.
        1    1    3    3  502    0 -0.53949632056E+03 -0.34304459583E+03 -0.59917549262E+03  0.87621181549E+03  0.50400001928E-02 0.  1.
       -1    1    3    3    0  502  0.53949632056E+03  0.34304459583E+03 -0.97657200734E+03  0.11672312368E+04  0.50400001928E-02 0. -1.
</event>
<event>
 5   0  0.6007125E-04  0.1301918E+04  0.7818609E-02  0.9028045E-01
        2   -1    0    0  501    0  0.00000000000E+00  0.00000000000E+00  0.14145998247E+04  0.14145998247E+04  0.25500000920E-02 0. -1.
       -2   -1    0    0    0  501  0.00000000000E+00  0.00000000000E+00 -0.29955312745E+03  0.29955312746E+03  0.25500000920E-02 0.  1.
    10030    2    1    2    0    0  0.00000000000E+00  0.00000000000E+00  0.11150466972E+04  0.17141529521E+04  0.13019182794E+04 0.  0.
        5    1    3    3  502    0  0.17710294848E+02 -0.54786355996E+03  0.10197688133E+04  0.11577645086E+04  0.46999998093E+01 0. -1.
       -5    1    3    3    0  502 -0.17710294848E+02  0.54786355996E+03  0.95277883907E+02  0.55638844348E+03  0.46999998093E+01 0.  1.
</event>
<event>
 5   0  0.3337520E-04  0.1297261E+04  0.7818609E-02  0.9031740E-01
       -1   -1    0    0    0  501  0.00000000000E+00  0.00000000000E+00  0.58095180073E+03  0.58095180076E+03  0.50400001928E-02 0. -1.
        1   -1    0    0  501    0  0.00000000000E+00  0.00000000000E+00 -0.72419360081E+03  0.72419360083E+03  0.50400001928E-02 0.  1.
    10030    2    1    2    0    0  0.00000000000E+00  0.00000000000E+00 -0.14324180007E+03  0.13051454016E+04  0.12972610786E+04 0.  0.
        5    1    3    3  502    0 -0.30280329100E+03  0.55829185102E+03  0.60783900031E+02  0.63804106173E+03  0.46999998093E+01 0.  1.
       -5    1    3    3    0  502  0.30280329100E+03 -0.55829185102E+03 -0.20402570011E+03  0.66710433985E+03  0.46999998093E+01 0. -1.
</event>
<event>
 5   0  0.5384960E-04  0.1303188E+04  0.7818609E-02  0.9027041E-01
        2   -1    0    0  501    0  0.00000000000E+00  0.00000000000E+00  0.13329764795E+04  0.13329764795E+04  0.25500000920E-02 0.  1.
       -2   -1    0    0    0  501  0.00000000000E+00  0.00000000000E+00 -0.31851620617E+03  0.31851620618E+03  0.25500000920E-02 0. -1.
    10030    2    1    2    0    0  0.00000000000E+00  0.00000000000E+00  0.10144602733E+04  0.16514926856E+04  0.13031878010E+04 0.  0.
        3    1    3    3  502    0  0.64127960342E+03 -0.95950244358E+02  0.58865784264E+03  0.87576483433E+03  0.10100000352E+00 0.  1.
       -3    1    3    3    0  502 -0.64127960342E+03  0.95950244358E+02  0.42580243064E+03  0.77572785131E+03  0.10100000352E+00 0. -1.
</event>
<event>
 5   0  0.3263679E-04  0.1300150E+04  0.7818609E-02  0.9029446E-01
       -1   -1    0    0    0  501  0.00000000000E+00  0.00000000000E+00  0.57446545458E+03  0.57446545461E+03  0.50400001928E-02 0. -1.
        1   -1    0    0  501    0  0.00000000000E+00  0.00000000000E+00 -0.73563604623E+03  0.73563604625E+03  0.50400001928E-02 0.  1.
    10030    2    1    2    0    0  0.00000000000E+00  0.00000000000E+00 -0.16117059165E+03  0.13101015009E+04  0.13001499848E+04 0.  0.
        2    1    3    3  502    0 -0.25374159178E+03 -0.32221151545E+02 -0.68280049208E+03  0.72913613955E+03  0.25500000920E-02 0.  1.
       -2    1    3    3    0  502  0.25374159178E+03  0.32221151545E+02  0.52162990043E+03  0.58096536131E+03  0.25500000920E-02 0. -1.
</event>
<event>
 5   0  0.3274879E-04  0.1345479E+04  0.7818609E-02  0.8994258E-01
        1   -1    0    0  501    0  0.00000000000E+00  0.00000000000E+00  0.77259024061E+03  0.77259024063E+03  0.50400001928E-02 0.  1.
       -1   -1    0    0    0  501  0.00000000000E+00  0.00000000000E+00 -0.58579358498E+03  0.58579358500E+03  0.50400001928E-02 0. -1.
    10030    2    1    2    0    0  0.00000000000E+00  0.00000000000E+00  0.18679665563E+03  0.13583838256E+04  0.13454789583E+04 0.  0.
        4    1    3    3  502    0 -0.34904546345E+02  0.14674187614E+03 -0.56850044067E+03  0.58817163269E+03  0.12699999809E+01 0. -1.
       -4    1    3    3    0  502  0.34904546345E+02 -0.14674187614E+03  0.75529709630E+03  0.77021219293E+03  0.12699999809E+01 0.  1.
</event>
<event>
 5   0  0.3403833E-04  0.1299035E+04  0.7818609E-02  0.9030331E-01
        1   -1    0    0  501    0  0.00000000000E+00  0.00000000000E+00  0.61910972639E+03  0.61910972641E+03  0.50400001928E-02 0.  1.
       -1   -1    0    0    0  501  0.00000000000E+00  0.00000000000E+00 -0.68141895555E+03  0.68141895557E+03  0.50400001928E-02 0. -1.
    10030    2    1    2    0    0  0.00000000000E+00  0.00000000000E+00 -0.62309229157E+02  0.13005286820E+04  0.12990351853E+04 0.  0.
        1    1    3    3  502    0  0.28947469481E+03  0.54579382708E+03  0.16954182401E+03  0.64064883573E+03  0.50400001928E-02 0. -1.
       -1    1    3    3    0  502 -0.28947469481E+03 -0.54579382708E+03 -0.23185105316E+03  0.65987984625E+03  0.50400001928E-02 0.  1.
</event>
<event>
 5   0  0.3274879E-04  0.1321161E+04  0.7818609E-02  0.9012951E-01
        1   -1    0    0  501    0  0.00000000000E+00  0.00000000000E+00  0.21222454743E+04  0.21222454743E+04  0.50400001928E-02 0. -1.
       -1   -1    0    0    0  501  0.00000000000E+00  0.00000000000E+00 -0.20561545280E+03  0.20561545287E+03  0.50400001928E-02 0.  1.
    10030    2    1    2    0    0  0.00000000000E+00  0.00000000000E+00  0.19166300215E+04  0.23278609272E+04  0.13211607991E+04 0.  0.
        4    1    3    3  502    0  0.33284385629E+03 -0.55889473255E+03  0.11608777336E+04  0.13307092395E+04  0.12699999809E+01 0.  1.
       -4    1    3    3    0  502 -0.33284385629E+03  0.55889473255E+03  0.75575228791E+03  0.99715168772E+03  0.12699999809E+01 0. -1.
</event>
<event>
 5   0  0.6052864E-04  0.1308542E+04  0.7818609E-02  0.9022819E-01
        2   -1    0    0  501    0  0.00000000000E+00  0.00000000000E+00  0.22358288453E+04  0.22358288453E+04  0.25500000920E-02 0. -1.
       -2   -1    0    0    0  501  0.00000000000E+00  0.00000000000E+00 -0.19145930521E+03  0.19145930523E+03  0.25500000920E-02 0.  1.
    10030    2    1    2    0    0  0.00000000000E+00  0.00000000000E+00  0.20443695401E+04  0.24272881505E+04  0.13085415352E+04 0.  0.
        2    1    3    3  502    0  0.53912308451E+02  0.55497157488E+03  0.16571391221E+04  0.17484307409E+04  0.25500000920E-02 0. -1.
       -2    1    3    3    0  502 -0.53912308451E+02 -0.55497157488E+03  0.38723041804E+03  0.67885740962E+03  0.25500000920E-02 0.  1.
</event>
<event>
 5   0  0.5957913E-04  0.1301144E+04  0.7818609E-02  0.9028658E-01
       -2   -1    0    0    0  501  0.00000000000E+00  0.00000000000E+00  0.24415057165E+03  0.24415057166E+03  0.25500000920E-02 0. -1.
        2   -1    0    0  501    0  0.00000000000E+00  0.00000000000E+00 -0.17335365444E+04  0.17335365444E+04  0.25500000920E-02 0.  1.
    10030    2    1    2    0    0  0.00000000000E+00  0.00000000000E+00 -0.14893859728E+04  0.19776871161E+04  0.13011440171E+04 0.  0.
        1    1    3    3  502    0  0.15942623910E+03 -0.62911883860E+03 -0.67609747597E+03  0.93718463274E+03  0.50400001928E-02 0.  1.
       -1    1    3    3    0  502 -0.15942623910E+03  0.62911883860E+03 -0.81328849680E+03  0.10405024833E+04  0.50400001928E-02 0. -1.
</event>
<event>
 5   0  0.5384960E-04  0.1306836E+04  0.7818609E-02  0.9024162E-01
        2   -1    0    0  501    0  0.00000000000E+00  0.00000000000E+00  0.13601721542E+04  0.13601721542E+04  0.25500000920E-02 0.  1.
       -2   -1    0    0    0  501  0.00000000000E+00  0.00000000000E+00 -0.31389771892E+03  0.31389771893E+03  0.25500000920E-02 0. -1.
    10030    2    1    2    0    0  0.00000000000E+00  0.00000000000E+00  0.10462744353E+04  0.16740698731E+04  0.13068357763E+04 0.  0.
        3    1    3    3  502    0 -0.57112229201E+03 -0.31744760756E+03  0.52458105344E+03  0.83793731735E+03  0.10100000352E+00 0. -1.
       -3    1    3    3    0  502  0.57112229201E+03  0.31744760756E+03  0.52169338182E+03  0.83613255577E+03  0.10100000352E+00 0.  1.
</event>
<event>
 5   0  0.5957913E-04  0.1293663E+04  0.7818609E-02  0.9034605E-01
        2   -1    0    0  501    0  0.00000000000E+00  0.00000000000E+00  0.84499445099E+03  0.84499445099E+03  0.25500000920E-02 0.  1.
       -2   -1    0    0    0  501  0.00000000000E+00  0.00000000000E+00 -0.49514063111E+03  0.49514063112E+03  0.25500000920E-02 0. -1.
    10030    2    1    2    0    0  0.00000000000E+00  0.00000000000E+00  0.34985381987E+03  0.13401350821E+04  0.12936631490E+04 0.  0.
        1    1    3    3  502    0  0.85846321457E+02  0.51644608474E+03 -0.21859413527E+03  0.56733547866E+03  0.50400001928E-02 0. -1.
       -1    1    3    3    0  502 -0.85846321457E+02 -0.51644608474E+03  0.56844795515E+03  0.77279960345E+03  0.50400001928E-02 0.  1.
</event>
<event>
 5   0  0.5787604E-04  0.1291532E+04  0.7818609E-02  0.9036308E-01
        2   -1    0    0  501    0  0.00000000000E+00  0.00000000000E+00  0.32854985194E+03  0.32854985195E+03  0.25500000920E-02 0.  1.
       -2   -1    0    0    0  501  0.00000000000E+00  0.00000000000E+00 -0.12692547372E+04  0.12692547372E+04  0.25500000920E-02 0. -1.
    10030    2    1    2    0    0  0.00000000000E+00  0.00000000000E+00 -0.94070488523E+03  0.15978045891E+04  0.12915315807E+04 0.  0.
        4    1    3    3  502    0  0.17334816580E+03 -0.60281615240E+03 -0.66030448123E+03  0.91073625217E+03  0.12699999809E+01 0. -1.
       -4    1    3    3    0  502 -0.17334816580E+03  0.60281615240E+03 -0.28040040401E+03  0.68706833696E+03  0.12699999809E+01 0.  1.
</event>
<event>
 5   0  0.3335747E-04  0.1305853E+04  0.7818609E-02  0.9024936E-01
       -1   -1    0    0    0  501  0.00000000000E+00  0.00000000000E+00  0.37469949780E+03  0.37469949784E+03  0.50400001928E-02 0. -1.
        1   -1    0    0  501    0  0.00000000000E+00  0.00000000000E+00 -0.11377470500E+04  0.11377470501E+04  0.50400001928E-02 0.  1.
    10030    2    1    2    0    0  0.00000000000E+00  0.00000000000E+00 -0.76304755224E+03  0.15124465479E+04  0.13058533582E+04 0.  0.
        3    1    3    3  502    0 -0.45316363752E+03 -0.34965963536E+03 -0.74538117416E+03  0.93979372629E+03  0.10100000352E+00 0.  1.
       -3    1    3    3    0  502  0.45316363752E+03  0.34965963536E+03 -0.17666378082E+02  0.57265282160E+03  0.10100000352E+00 0. -1.
</event>
<event>
 5   0  0.3403833E-04  0.1299887E+04  0.7818609E-02  0.9029655E-01
        1   -1    0    0  501    0  0.00000000000E+00  0.00000000000E+00  0.66964875190E+03  0.66964875192E+03  0.50400001928E-02 0.  1.
       -1   -1    0    0    0  501  0.00000000000E+00  0.00000000000E+00 -0.63081791579E+03  0.63081791581E+03  0.50400001928E-02 0. -1.
    10030    2    1    2    0    0  0.00000000000E+00  0.00000000000E+00  0.38830836111E+02  0.13004666677E+04  0.12998868105E+04 0.  0.
        1    1    3    3  502    0  0.34480037112E+02 -0.26754236094E+03  0.61099860339E+03  0.66789750803E+03  0.50400001928E-02 0.  1.
       -1    1    3    3    0  502 -0.34480037112E+02  0.26754236094E+03 -0.57216776728E+03  0.63256915970E+03  0.50400001928E-02 0. -1.
</event>
<event>
 5   0  0.3337520E-04  0.1302630E+04  0.7818609E-02  0.9027482E-01
       -1   -1    0    0    0  501  0.00000000000E+00  0.00000000000E+00  0.25324806723E+03  0.25324806728E+03  0.50400001928E-02 0. -1.
        1   -1    0    0  501    0  0.00000000000E+00  0.00000000000E+00 -0.16750810129E+04  0.16750810129E+04  0.50400001928E-02 0.  1.
    10030    2    1    2    0    0  0.00000000000E+00  0.00000000000E+00 -0.14218329456E+04  0.19283290801E+04  0.13026296926E+04 0.  0.
        5    1    3    3  502    0 -0.17022504529E+03 -0.30757202034E+02 -0.16404285631E+04  0.16495303974E+04  0.46999998093E+01 0.  1.
       -5    1    3    3    0  502  0.17022504529E+03  0.30757202034E+02  0.21859561744E+03  0.27879868271E+03  0.46999998093E+01 0. -1.
</event>
<event>
 5   0  0.3403833E-04  0.1304933E+04  0.7818609E-02  0.9025662E-01
       -1   -1    0    0    0  501  0.00000000000E+00  0.00000000000E+00  0.20102667288E+03  0.20102667294E+03  0.50400001928E-02 0. -1.
        1   -1    0    0  501    0  0.00000000000E+00  0.00000000000E+00 -0.21176922137E+04  0.21176922137E+04  0.50400001928E-02 0.  1.
    10030    2    1    2    0    0  0.00000000000E+00  0.00000000000E+00 -0.19166655409E+04  0.23187188867E+04  0.13049331324E+04 0.  0.
        1    1    3    3  502    0  0.21601185681E+03 -0.48376847553E+03 -0.28166867544E+03  0.60002525192E+03  0.50400001928E-02 0. -1.
       -1    1    3    3    0  502 -0.21601185681E+03  0.48376847553E+03 -0.16349968654E+04  0.17186936348E+04  0.50400001928E-02 0.  1.
</event>
<event>
 5   0  0.3274879E-04  0.1301250E+04  0.7818609E-02  0.9028575E-01
        1   -1    0    0  501    0  0.00000000000E+00  0.00000000000E+00  0.31242824546E+03  0.31242824550E+03  0.50400001928E-02 0. -1.
       -1   -1    0    0    0  501  0.00000000000E+00  0.00000000000E+00 -0.13549116921E+04  0.13549116921E+04  0.50400001928E-02 0.  1.
    10030    2    1    2    0    0  0.00000000000E+00  0.00000000000E+00 -0.10424834466E+04  0.16673399376E+04  0.13012496805E+04 0.  0.
        4    1    3    3  502    0 -0.39422453756E+03  0.36024612129E+03 -0.45037673336E+02  0.53592934127E+03  0.12699999809E+01 0. -1.
       -4    1    3    3    0  502  0.39422453756E+03 -0.36024612129E+03 -0.99744577329E+03  0.11314105963E+04  0.12699999809E+01 0.  1.
</event>
<event>
 5   0  0.3335747E-04  0.1291595E+04  0.7818609E-02  0.9036257E-01
        1   -1    0    0  501    0  0.00000000000E+00  0.00000000000E+00  0.56646184262E+03  0.56646184264E+03  0.50400001928E-02 0.  1.
       -1   -1    0    0    0  501  0.00000000000E+00  0.00000000000E+00 -0.73624401138E+03  0.73624401140E+03  0.50400001928E-02 0. -1.
    10030    2    1    2    0    0  0.00000000000E+00  0.00000000000E+00 -0.16978216876E+03  0.13027058540E+04  0.12915945793E+04 0.  0.
        3    1    3    3  502    0  0.41647740619E+03  0.40796473962E+03  0.19528538313E+03  0.61483741729E+03  0.10100000352E+00 0.  1.
       -3    1    3    3    0  502 -0.41647740619E+03 -0.40796473962E+03 -0.36506755189E+03  0.68786843675E+03  0.10100000352E+00 0. -1.
</event>
<event>
 5   0  0.5787604E-04  0.1300013E+04  0.7818609E-02  0.9029555E-01
        2   -1    0    0  501    0  0.00000000000E+00  0.00000000000E+00  0.18853513069E+04  0.18853513069E+04  0.25500000920E-02 0.  1.
       -2   -1    0    0    0  501  0.00000000000E+00  0.00000000000E+00 -0.22410077619E+03  0.22410077621E+03  0.25500000920E-02 0. -1.
    10030    2    1    2    0    0  0.00000000000E+00  0.00000000000E+00  0.16612505307E+04  0.21094520831E+04  0.13000133711E+04 0.  0.
        4    1    3    3  502    0 -0.34127805486E+03 -0.32156671442E+03  0.10020128893E+03  0.47949741788E+03  0.12699999809E+01 0. -1.
       -4    1    3    3    0  502  0.34127805486E+03  0.32156671442E+03  0.15610492417E+04  0.16299546652E+04  0.12699999809E+01 0.  1.
</event>
<event>
 5   0  0.3263679E-04  0.1303722E+04  0.7818609E-02  0.9026619E-01
        1   -1    0    0  501    0  0.00000000000E+00  0.00000000000E+00  0.12559163370E+04  0.12559163370E+04  0.50400001928E-02 0.  1.
       -1   -1    0    0    0  501  0.00000000000E+00  0.00000000000E+00 -0.33833691880E+03  0.33833691884E+03  0.50400001928E-02 0. -1.
    10030    2    1    2    0    0  0.00000000000E+00  0.00000000000E+00  0.91757941824E+03  0.15942532559E+04  0.13037221541E+04 0.  0.
        2    1    3    3  502    0  0.34741082099E+03 -0.37954013120E+03  0.94820048750E+03  0.10788091371E+04  0.25500000920E-02 0.  1.
       -2    1    3    3    0  502 -0.34741082099E+03  0.37954013120E+03 -0.30621069256E+02  0.51544411882E+03  0.25500000920E-02 0. -1.
</event>
<event>
 5   0  0.3335747E-04  0.1304956E+04  0.7818609E-02  0.9025644E-01
        1   -1    0    0  501    0  0.00000000000E+00  0.00000000000E+00  0.60373751453E+03  0.60373751455E+03  0.50400001928E-02 0.  1.
       -1   -1    0    0    0  501  0.00000000000E+00  0.00000000000E+00 -0.70515357677E+03  0.70515357679E+03  0.50400001928E-02 0. -1.
    10030    2    1    2    0    0  0.00000000000E+00  0.00000000000E+00 -0.10141606224E+03  0.13088910913E+04  0.13049561952E+04 0.  0.
        3    1    3    3  502    0  0.96387410893E+02 -0.37114234159E+03 -0.58021130599E+03  0.69547274605E+03  0.10100000352E+00 0. -1.
       -3    1    3    3    0  502 -0.96387410893E+02  0.37114234159E+03  0.47879524374E+03  0.61341834529E+03  0.10100000352E+00 0.  1.
</event>
<event>
 5   0  0.6007125E-04  0.1302562E+04  0.7818609E-02  0.9027536E-01
        2   -1    0    0  501    0  0.00000000000E+00  0.00000000000E+00  0.14790650425E+04  0.14790650426E+04  0.25500000920E-02 0. -1.
       -2   -1    0    0    0  501  0.00000000000E+00  0.00000000000E+00 -0.28678049256E+03  0.28678049258E+03  0.25500000920E-02 0.  1.
    10030    2    1    2    0    0  0.00000000000E+00  0.00000000000E+00  0.11922845500E+04  0.17658455351E+04  0.13025620929E+04 0.  0.
        5    1    3    3  502    0  0.32149887222E+03 -0.27899755560E+03  0.12643433074E+04  0.13340866726E+04  0.46999998093E+01 0. -1.
       -5    1    3    3    0  502 -0.32149887222E+03  0.27899755560E+03 -0.72058757458E+02  0.43175886255E+03  0.46999998093E+01 0.  1.
</event>
<event>
 5   0  0.3263679E-04  0.1289769E+04  0.7818609E-02  0.9037718E-01
       -1   -1    0    0    0  501  0.00000000000E+00  0.00000000000E+00  0.59371901077E+03  0.59371901079E+03  0.50400001928E-02 0.  1.
        1   -1    0    0  501    0  0.00000000000E+00  0.00000000000E+00 -0.70045943590E+03  0.70045943592E+03  0.50400001928E-02 0. -1.
    10030    2    1    2    0    0  0.00000000000E+00  0.00000000000E+00 -0.10674042512E+03  0.12941784467E+04  0.12897691009E+04 0.  0.
        2    1    3    3  502    0  0.14518178934E+02 -0.33959251188E+03 -0.60327866647E+03  0.69244422235E+03  0.25500000920E-02 0. -1.
       -2    1    3    3    0  502 -0.14518178934E+02  0.33959251188E+03  0.49653824135E+03  0.60173422436E+03  0.25500000920E-02 0.  1.
</event>
<event>
 5   0  0.3335747E-04  0.1305020E+04  0.7818609E-02  0.9025594E-01
        1   -1    0    0  501    0  0.00000000000E+00  0.00000000000E+00  0.59214679125E+03  0.59214679127E+03  0.50400001928E-02 0. -1.
       -1   -1    0    0    0  501  0.00000000000E+00  0.00000000000E+00 -0.71902662837E+03  0.71902662839E+03  0.50400001928E-02 0.  1.
    10030    2    1    2    0    0  0.00000000000E+00  0.00000000000E+00 -0.12687983712E+03  0.13111734197E+04  0.13050200165E+04 0.  0.
        3    1    3    3  502    0  0.11061020070E+02  0.32458402728E+03  0.50517221164E+03  0.60056316116E+03  0.10100000352E+00 0. -1.
       -3    1    3    3    0  502 -0.11061020070E+02 -0.32458402728E+03 -0.63205204876E+03  0.71061025850E+03  0.10100000352E+00 0.  1.
</event>
<event>
 5   0  0.3337520E-04  0.1309160E+04  0.7818609E-02  0.9022332E-01
        1   -1    0    0  501    0  0.00000000000E+00  0.00000000000E+00  0.47722506576E+03  0.47722506579E+03  0.50400001928E-02 0. -1.
       -1   -1    0    0    0  501  0.00000000000E+00  0.00000000000E+00 -0.89784696213E+03  0.89784696214E+03  0.50400001928E-02 0.  1.
    10030    2    1    2    0    0  0.00000000000E+00  0.00000000000E+00 -0.42062189636E+03  0.13750720279E+04  0.13091601515E+04 0.  0.
        5    1    3    3  502    0 -0.46238872497E+03  0.23082195614E+03  0.21162375809E+03  0.55847006492E+03  0.46999998093E+01 0. -1.
       -5    1    3    3    0  502  0.46238872497E+03 -0.23082195614E+03 -0.63224565446E+03  0.81660196301E+03  0.46999998093E+01 0.  1.
</event>
<event>
 5   0  0.6052864E-04  0.1227575E+04  0.7818609E-02  0.9089057E-01
        2   -1    0    0  501    0  0.00000000000E+00  0.00000000000E+00  0.19071286017E+04  0.19071286017E+04  0.25500000920E-02 0. -1.
       -2   -1    0    0    0  501  0.00000000000E+00  0.00000000000E+00 -0.19754049924E+03  0.19754049926E+03  0.25500000920E-02 0.  1.
    10030    2    1    2    0    0  0.00000000000E+00  0.00000000000E+00  0.17095881024E+04  0.21046691009E+04  0.12275750667E+04 0.  0.
        2    1    3    3  502    0  0.16326980741E+03  0.52854002603E+02 -0.15557143920E+03  0.23163127661E+03  0.25500000920E-02 0.  1.
       -2    1    3    3    0  502 -0.16326980741E+03 -0.52854002603E+02  0.18651595416E+04  0.18730378243E+04  0.25500000920E-02 0. -1.
</event>
<event>
 5   0  0.6052864E-04  0.1301048E+04  0.7818609E-02  0.9028735E-01
        2   -1    0    0  501    0  0.00000000000E+00  0.00000000000E+00  0.58546923808E+03  0.58546923808E+03  0.25500000920E-02 0.  1.
       -2   -1    0    0    0  501  0.00000000000E+00  0.00000000000E+00 -0.72280690572E+03  0.72280690573E+03  0.25500000920E-02 0. -1.
    10030    2    1    2    0    0  0.00000000000E+00  0.00000000000E+00 -0.13733766765E+03  0.13082761438E+04  0.13010475908E+04 0.  0.
        2    1    3    3  502    0 -0.33858921047E+03  0.53653829254E+03  0.75883866593E+02  0.63896349976E+03  0.25500000920E-02 0.  1.
       -2    1    3    3    0  502  0.33858921047E+03 -0.53653829254E+03 -0.21322153424E+03  0.66931264405E+03  0.25500000920E-02 0. -1.
</event>
<event>
 5   0  0.5384960E-04  0.1301034E+04  0.7818609E-02  0.9028746E-01
       -2   -1    0    0    0  501  0.00000000000E+00  0.00000000000E+00  0.48859602553E+03  0.48859602554E+03  0.25500000920E-02 0.  1.
        2   -1    0    0  501    0  0.00000000000E+00  0.00000000000E+00 -0.86609833888E+03  0.86609833888E+03  0.25500000920E-02 0. -1.
    10030    2    1    2    0    0  0.00000000000E+00  0.00000000000E+00 -0.37750231334E+03  0.13546943644E+04  0.13010337522E+04 0.  0.
        3    1    3    3  502    0 -0.33819675543E+03  0.31659245690E+03 -0.66427556763E+03  0.80985793142E+03  0.10100000352E+00 0. -1.
       -3    1    3    3    0  502  0.33819675543E+03 -0.31659245690E+03  0.28677325429E+03  0.54483643300E+03  0.10100000352E+00 0.  1.
</event>
<event>
 5   0  0.5787604E-04  0.1308009E+04  0.7818609E-02  0.9023238E-01
        2   -1    0    0  501    0  0.00000000000E+00  0.00000000000E+00  0.15640466634E+04  0.15640466634E+04  0.25500000920E-02 0. -1.
       -2   -1    0    0    0  501  0.00000000000E+00  0.00000000000E+00 -0.27347116924E+03  0.27347116925E+03  0.25500000920E-02 0.  1.
    10030    2    1    2    0    0  0.00000000000E+00  0.00000000000E+00  0.12905754942E+04  0.18375178327E+04  0.13080086694E+04 0.  0.
        4    1    3    3  502    0 -0.33098443140E+03 -0.26094340598E+03 -0.57232100758E+02  0.42534607229E+03  0.12699999809E+01 0.  1.
       -4    1    3    3    0  502  0.33098443140E+03  0.26094340598E+03  0.13478075949E+04  0.14121717604E+04  0.12699999809E+01 0. -1.
</event>
<event>
 5   0  0.3403833E-04  0.1302084E+04  0.7818609E-02  0.9027914E-01
        1   -1    0    0  501    0  0.00000000000E+00  0.00000000000E+00  0.10886973506E+04  0.10886973506E+04  0.50400001928E-02 0.  1.
       -1   -1    0    0    0  501  0.00000000000E+00  0.00000000000E+00 -0.38932371497E+03  0.38932371500E+03  0.50400001928E-02 0. -1.
    10030    2    1    2    0    0  0.00000000000E+00  0.00000000000E+00  0.69937363567E+03  0.14780210657E+04  0.13020840174E+04 0.  0.
        1    1    3    3  502    0  0.48317001286E+03  0.42609902738E+03  0.24294902665E+03  0.68850408281E+03  0.50400001928E-02 0. -1.
       -1    1    3    3    0  502 -0.48317001286E+03 -0.42609902738E+03  0.45642460901E+03  0.78951698285E+03  0.50400001928E-02 0.  1.
</event>
<event>
 5   0  0.5787604E-04  0.1304933E+04  0.7818609E-02  0.9025662E-01
        2   -1    0    0  501    0  0.00000000000E+00  0.00000000000E+00  0.12471330703E+04  0.12471330703E+04  0.25500000920E-02 0. -1.
       -2   -1    0    0    0  501  0.00000000000E+00  0.00000000000E+00 -0.34135286165E+03  0.34135286166E+03  0.25500000920E-02 0.  1.
    10030    2    1    2    0    0  0.00000000000E+00  0.00000000000E+00  0.90578020862E+03  0.15884859319E+04  0.13049328602E+04 0.  0.
        4    1    3    3  502    0  0.42267121023E+03 -0.15392294052E+03 -0.12242436952E+03  0.46618940650E+03  0.12699999809E+01 0.  1.
       -4    1    3    3    0  502 -0.42267121023E+03  0.15392294052E+03  0.10282045781E+04  0.11222965254E+04  0.12699999809E+01 0. -1.
</event>
<event>
 5   0  0.3274879E-04  0.1298271E+04  0.7818609E-02  0.9030937E-01
        1   -1    0    0  501    0  0.00000000000E+00  0.00000000000E+00  0.58722883297E+03  0.58722883299E+03  0.50400001928E-02 0. -1.
       -1   -1    0    0    0  501  0.00000000000E+00  0.00000000000E+00 -0.71756840876E+03  0.71756840878E+03  0.50400001928E-02 0.  1.
    10030    2    1    2    0    0  0.00000000000E+00  0.00000000000E+00 -0.13033957579E+03  0.13047972418E+04  0.12982709413E+04 0.  0.
        4    1    3    3  502    0 -0.50681784773E+03  0.36513330771E+03 -0.24266045293E+03  0.67012862310E+03  0.12699999809E+01 0.  1.
       -4    1    3    3    0  502  0.50681784773E+03 -0.36513330771E+03  0.11232087714E+03  0.63466861867E+03  0.12699999809E+01 0. -1.
</event>
<event>
 5   0  0.5957913E-04  0.1305232E+04  0.7818609E-02  0.9025427E-01
       -2   -1    0    0    0  501  0.00000000000E+00  0.00000000000E+00  0.27414175000E+03  0.27414175001E+03  0.25500000920E-02 0. -1.
        2   -1    0    0  501    0  0.00000000000E+00  0.00000000000E+00 -0.15536026796E+04  0.15536026796E+04  0.25500000920E-02 0.  1.
    10030    2    1    2    0    0  0.00000000000E+00  0.00000000000E+00 -0.12794609296E+04  0.18277444296E+04  0.13052315617E+04 0.  0.
        1    1    3    3  502    0  0.51024778825E+03  0.95475610229E+02 -0.11935909246E+04  0.13015866060E+04  0.50400001928E-02 0.  1.
       -1    1    3    3    0  502 -0.51024778825E+03 -0.95475610229E+02 -0.85870004990E+02  0.52615782361E+03  0.50400001928E-02 0. -1.
</event>
<event>
 5   0  0.3335747E-04  0.1303645E+04  0.7818609E-02  0.9026680E-01
       -1   -1    0    0    0  501  0.00000000000E+00  0.00000000000E+00  0.76105766878E+03  0.76105766880E+03  0.50400001928E-02 0. -1.
        1   -1    0    0  501    0  0.00000000000E+00  0.00000000000E+00 -0.55826589082E+03  0.55826589085E+03  0.50400001928E-02 0.  1.
    10030    2    1    2    0    0  0.00000000000E+00  0.00000000000E+00  0.20279177796E+03  0.13193235596E+04  0.13036449478E+04 0.  0.
        3    1    3    3  502    0 -0.33400359305E+03  0.55910176282E+03  0.74252699605E+02  0.65548962994E+03  0.10100000352E+00 0. -1.
       -3    1    3    3    0  502  0.33400359305E+03 -0.55910176282E+03  0.12853907835E+03  0.66383392970E+03  0.10100000352E+00 0.  1.
</event>
<event>
 5   0  0.5384960E-04  0.1298639E+04  0.7818609E-02  0.9030645E-01
       -2   -1    0    0    0  501  0.00000000000E+00  0.00000000000E+00  0.68826879498E+03  0.68826879499E+03  0.25500000920E-02 0.  1.
        2   -1    0    0  501    0  0.00000000000E+00  0.00000000000E+00 -0.61257433227E+03  0.61257433227E+03  0.25500000920E-02 0. -1.
    10030    2    1    2    0    0  0.00000000000E+00  0.00000000000E+00  0.75694462713E+02  0.13008431273E+04  0.12986389760E+04 0.  0.
        3    1    3    3  502    0  0.57831541364E+03  0.69139616583E+02 -0.24967091927E+03  0.63369123583E+03  0.10100000352E+00 0. -1.
       -3    1    3    3    0  502 -0.57831541364E+03 -0.69139616583E+02  0.32536538198E+03  0.66715189143E+03  0.10100000352E+00 0.  1.
</event>
<event>
 5   0  0.3337520E-04  0.1299198E+04  0.7818609E-02  0.9030201E-01
        1   -1    0    0  501    0  0.00000000000E+00  0.00000000000E+00  0.99346888453E+03  0.99346888454E+03  0.50400001928E-02 0. -1.
       -1   -1    0    0    0  501  0.00000000000E+00  0.00000000000E+00 -0.42475303935E+03  0.42475303938E+03  0.50400001928E-02 0.  1.
    10030    2    1    2    0    0  0.00000000000E+00  0.00000000000E+00  0.56871584518E+03  0.14182219239E+04  0.12991981038E+04 0.  0.
        5    1    3    3  502    0 -0.17096416585E+03 -0.25159662368E+03 -0.34218173403E+03  0.45786464829E+03  0.46999998093E+01 0.  1.
       -5    1    3    3    0  502  0.17096416585E+03  0.25159662368E+03  0.91089757921E+03  0.96035727563E+03  0.46999998093E+01 0. -1.
</event>
<event>
 5   0  0.5957913E-04  0.1302264E+04  0.7818609E-02  0.9027772E-01
       -2   -1    0    0    0  501  0.00000000000E+00  0.00000000000E+00  0.41799513844E+03  0.41799513845E+03  0.25500000920E-02 0. -1.
        2   -1    0    0  501    0  0.00000000000E+00  0.00000000000E+00 -0.10143007787E+04  0.10143007787E+04  0.25500000920E-02 0.  1.
    10030    2    1    2    0    0  0.00000000000E+00  0.00000000000E+00 -0.59630564024E+03  0.14322959171E+04  0.13022638664E+04 0.  0.
        1    1    3    3  502    0 -0.32533088747E+03  0.65534365008E+02  0.31799714317E+03  0.45962715589E+03  0.50400001928E-02 0. -1.
       -1    1    3    3    0  502  0.32533088747E+03 -0.65534365008E+02 -0.91430278341E+03  0.97266876125E+03  0.50400001928E-02 0.  1.
</event>
<event>
 5   0  0.5384960E-04  0.1299356E+04  0.7818609E-02  0.9030076E-01
        2   -1    0    0  501    0  0.00000000000E+00  0.00000000000E+00  0.17509831624E+04  0.17509831624E+04  0.25500000920E-02 0.  1.
       -2   -1    0    0    0  501  0.00000000000E+00  0.00000000000E+00 -0.24105393786E+03  0.24105393787E+03  0.25500000920E-02 0. -1.
    10030    2    1    2    0    0  0.00000000000E+00  0.00000000000E+00  0.15099292246E+04  0.19920371003E+04  0.12993558195E+04 0.  0.
        3    1    3    3  502    0 -0.15722524289E+03  0.53042154468E+03  0.23277813548E+03  0.60021034865E+03  0.10100000352E+00 0. -1.
       -3    1    3    3    0  502  0.15722524289E+03 -0.53042154468E+03  0.12771510891E+04  0.13918267517E+04  0.10100000352E+00 0.  1.
</event>
<event>
 5   0  0.3337520E-04  0.1304299E+04  0.7818609E-02  0.9026163E-01
       -1   -1    0    0    0  501  0.00000000000E+00  0.00000000000E+00  0.39526350363E+03  0.39526350366E+03  0.50400001928E-02 0.  1.
        1   -1    0    0  501    0  0.00000000000E+00  0.00000000000E+00 -0.10759887978E+04  0.10759887978E+04  0.50400001928E-02 0. -1.
    10030    2    1    2    0    0  0.00000000000E+00  0.00000000000E+00 -0.68072529417E+03  0.14712523015E+04  0.13042992020E+04 0.  0.
        5    1    3    3  502    0  0.21271442330E+03 -0.29225783227E+03 -0.95262465858E+03  0.10189101514E+04  0.46999998093E+01 0. -1.
       -5    1    3    3    0  502 -0.21271442330E+03  0.29225783227E+03  0.27189936441E+03  0.45234215011E+03  0.46999998093E+01 0.  1.
</event>
<event>
 5   0  0.3274879E-04  0.1294857E+04  0.7818609E-02  0.9033654E-01
       -1   -1    0    0    0  501  0.00000000000E+00  0.00000000000E+00  0.64673087732E+03  0.64673087734E+03  0.50400001928E-02 0. -1.
        1   -1    0    0  501    0  0.00000000000E+00  0.00000000000E+00 -0.64812665017E+03  0.64812665018E+03  0.50400001928E-02 0.  1.
    10030    2    1    2    0    0  0.00000000000E+00  0.00000000000E+00 -0.13957728493E+01  0.12948575275E+04  0.12948567752E+04 0.  0.
        4    1    3    3  502    0 -0.51605875503E+03  0.30310074126E+03  0.24623383907E+03  0.64716258730E+03  0.12699999809E+01 0.  1.
       -4    1    3    3    0  502  0.51605875503E+03 -0.30310074126E+03 -0.24762961192E+03  0.64769494022E+03  0.12699999809E+01 0. -1.
</event>
<event>
 5   0  0.3263679E-04  0.1300550E+04  0.7818609E-02  0.9029129E-01
       -1   -1    0    0    0  501  0.00000000000E+00  0.00000000000E+00  0.50061842477E+03  0.50061842480E+03  0.50400001928E-02 0.  1.
        1   -1    0    0  501    0  0.00000000000E+00  0.00000000000E+00 -0.84467037191E+03  0.84467037192E+03  0.50400001928E-02 0. -1.
    10030    2    1    2    0    0  0.00000000000E+00  0.00000000000E+00 -0.34405194714E+03  0.13452887967E+04  0.13005499622E+04 0.  0.
        2    1    3    3  502    0  0.40755103044E+03  0.15576111515E+03 -0.67079361145E+03  0.80020212232E+03  0.25500000920E-02 0. -1.
       -2    1    3    3    0  502 -0.40755103044E+03 -0.15576111515E+03  0.32674166431E+03  0.54508667440E+03  0.25500000920E-02 0.  1.
</event>
<event>
 5   0  0.5787604E-04  0.1299612E+04  0.7818609E-02  0.9029873E-01
        2   -1    0    0  501    0  0.00000000000E+00  0.00000000000E+00  0.10051213116E+04  0.10051213116E+04  0.25500000920E-02 0. -1.
       -2   -1    0    0    0  501  0.00000000000E+00  0.00000000000E+00 -0.42009619004E+03  0.42009619005E+03  0.25500000920E-02 0.  1.
    10030    2    1    2    0    0  0.00000000000E+00  0.00000000000E+00  0.58502512154E+03  0.14252175016E+04  0.12996116859E+04 0.  0.
        4    1    3    3  502    0 -0.20502274166E+03 -0.57663411818E+03  0.52988838413E+02  0.61428874379E+03  0.12699999809E+01 0.  1.
       -4    1    3    3    0  502  0.20502274166E+03  0.57663411818E+03  0.53203628312E+03  0.81092875785E+03  0.12699999809E+01 0. -1.
</event>
<event>
 5   0  0.5957913E-04  0.1302326E+04  0.7818609E-02  0.9027723E-01
       -2   -1    0    0    0  501  0.00000000000E+00  0.00000000000E+00  0.21993251831E+03  0.21993251833E+03  0.25500000920E-02 0.  1.
        2   -1    0    0  501    0  0.00000000000E+00  0.00000000000E+00 -0.19279240126E+04  0.19279240126E+04  0.25500000920E-02 0. -1.
    10030    2    1    2    0    0  0.00000000000E+00  0.00000000000E+00 -0.17079914943E+04  0.21478565309E+04  0.13023258935E+04 0.  0.
        1    1    3    3  502    0  0.11370155210E+03 -0.37910323109E+03 -0.12126465946E+01  0.39578879887E+03  0.50400001928E-02 0.  1.
       -1    1    3    3    0  502 -0.11370155210E+03  0.37910323109E+03 -0.17067788477E+04  0.17520677320E+04  0.50400001928E-02 0. -1.
</event>
<event>
 5   0  0.3403833E-04  0.1296715E+04  0.7818609E-02  0.9032174E-01
        1   -1    0    0  501    0  0.00000000000E+00  0.00000000000E+00  0.94148001436E+03  0.94148001438E+03  0.50400001928E-02 0. -1.
       -1   -1    0    0    0  501  0.00000000000E+00  0.00000000000E+00 -0.44649659656E+03  0.44649659658E+03  0.50400001928E-02 0.  1.
    10030    2    1    2    0    0  0.00000000000E+00  0.00000000000E+00  0.49498341781E+03  0.13879766110E+04  0.12967152689E+04 0.  0.
        1    1    3    3  502    0 -0.16435181349E+03 -0.26063306834E+03 -0.36311839385E+03  0.47623112339E+03  0.50400001928E-02 0.  1.
       -1    1    3    3    0  502  0.16435181349E+03  0.26063306834E+03  0.85810181166E+03  0.91174548757E+03  0.50400001928E-02 0. -1.
</event>
<event>
 5   0  0.6007125E-04  0.1307355E+04  0.7818609E-02  0.9023753E-01
        2   -1    0    0  501    0  0.00000000000E+00  0.00000000000E+00  0.75057430306E+03  0.75057430306E+03  0.25500000920E-02 0.  1.
       -2   -1    0    0    0  501  0.00000000000E+00  0.00000000000E+00 -0.56928992628E+03  0.56928992628E+03  0.25500000920E-02 0. -1.
    10030    2    1    2    0    0  0.00000000000E+00  0.00000000000E+00  0.18128437678E+03  0.13198642293E+04  0.13073551769E+04 0.  0.
        5    1    3    3  502    0 -0.58381785072E+03 -0.28626895941E+03  0.15820862792E+03  0.66921241761E+03  0.46999998093E+01 0. -1.
       -5    1    3    3    0  502  0.58381785072E+03  0.28626895941E+03  0.23075748860E+02  0.65065181174E+03  0.46999998093E+01 0.  1.
</event>
<event>
 5   0  0.3274879E-04  0.1283048E+04  0.7818609E-02  0.9043117E-01
        1   -1    0    0  501    0  0.00000000000E+00  0.00000000000E+00  0.85051761514E+03  0.85051761515E+03  0.50400001928E-02 0.  1.
       -1   -1    0    0    0  501  0.00000000000E+00  0.00000000000E+00 -0.48388572467E+03  0.48388572470E+03  0.50400001928E-02 0. -1.
    10030    2    1    2    0    0  0.00000000000E+00  0.00000000000E+00  0.36663189047E+03  0.13344033398E+04  0.12830484520E+04 0.  0.
        4    1    3    3  502    0  0.45093475880E+03  0.17810836848E+03  0.62023440025E+03  0.78724651271E+03  0.12699999809E+01 0.  1.
       -4    1    3    3    0  502 -0.45093475880E+03 -0.17810836848E+03 -0.25360250978E+03  0.54715682714E+03  0.12699999809E+01 0. -1.
</event>
<event>
 5   0  0.3335747E-04  0.1275069E+04  0.7818609E-02  0.9049573E-01
       -1   -1    0    0    0  501  0.00000000000E+00  0.00000000000E+00  0.76238053552E+03  0.76238053553E+03  0.50400001928E-02 0.  1.
        1   -1    0    0  501    0  0.00000000000E+00  0.00000000000E+00 -0.53313306715E+03  0.53313306718E+03  0.50400001928E-02 0. -1.
    10030    2    1    2    0    0  0.00000000000E+00  0.00000000000E+00  0.22924746836E+03  0.12955136027E+04  0.12750690542E+04 0.  0.
        3    1    3    3  502    0  0.10258433924E+03 -0.50989502193E+03  0.48922735728E+03  0.71404474465E+03  0.10100000352E+00 0.  1.
       -3    1    3    3    0  502 -0.10258433924E+03  0.50989502193E+03 -0.25997988892E+03  0.58146885806E+03  0.10100000352E+00 0. -1.
</event>
<event>
 5   0  0.2255875E-04  0.1298177E+04  0.7818609E-02  0.9031012E-01
       -3   -1    0    0    0  501  0.00000000000E+00  0.00000000000E+00  0.50149133541E+03  0.50149134558E+03  0.10100000352E+00 0.  1.
        3   -1    0    0  501    0  0.00000000000E+00  0.00000000000E+00 -0.84012545990E+03  0.84012546597E+03  0.10100000352E+00 0. -1.
    10030    2    1    2    0    0  0.00000000000E+00  0.00000000000E+00 -0.33863412449E+03  0.13416168116E+04  0.12981766439E+04 0.  0.
        1    1    3    3  502    0  0.25663987619E+03  0.50118952661E+03  0.16438199615E+03  0.58658026589E+03  0.50400001928E-02 0.  1.
       -1    1    3    3    0  502 -0.25663987619E+03 -0.50118952661E+03 -0.50301612064E+03  0.75503654567E+03  0.50400001928E-02 0. -1.
</event>
<event>
 5   0  0.3263679E-04  0.1304911E+04  0.7818609E-02  0.9025680E-01
        1   -1    0    0  501    0  0.00000000000E+00  0.00000000000E+00  0.42557241473E+03  0.42557241476E+03  0.50400001928E-02 0. -1.
       -1   -1    0    0    0  501  0.00000000000E+00  0.00000000000E+00 -0.10002951719E+04  0.10002951719E+04  0.50400001928E-02 0.  1.
    10030    2    1    2    0    0  0.00000000000E+00  0.00000000000E+00 -0.57472275718E+03  0.14258675867E+04  0.13049107736E+04 0.  0.
        2    1    3    3  502    0  0.56714197116E+03 -0.29920801766E+03 -0.41904150844E+03  0.76600994712E+03  0.25500000920E-02 0. -1.
       -2    1    3    3    0  502 -0.56714197116E+03  0.29920801766E+03 -0.15568124874E+03  0.65985763957E+03  0.25500000920E-02 0.  1.
</event>
<event>
 5   0  0.2255875E-04  0.1306370E+04  0.7818609E-02  0.9024529E-01
       -3   -1    0    0    0  501  0.00000000000E+00  0.00000000000E+00  0.52321826249E+03  0.52321827224E+03  0.10100000352E+00 0. -1.
        3   -1    0    0  501    0  0.00000000000E+00  0.00000000000E+00 -0.81543466779E+03  0.81543467404E+03  0.10100000352E+00 0.  1.
    10030    2    1    2    0    0  0.00000000000E+00  0.00000000000E+00 -0.29221640529E+03  0.13386529463E+04  0.13063695048E+04 0.  0.
        5    1    3    3  502    0  0.54461838226E+03 -0.31846080457E+03 -0.31940812851E+03  0.70715635393E+03  0.46999998093E+01 0.  1.
       -5    1    3    3    0  502 -0.54461838226E+03  0.31846080457E+03  0.27191723217E+02  0.63149659235E+03  0.46999998093E+01 0. -1.
</event>
<event>
 5   0  0.5787604E-04  0.1299575E+04  0.7818609E-02  0.9029902E-01
        2   -1    0    0  501    0  0.00000000000E+00  0.00000000000E+00  0.10600072963E+04  0.10600072963E+04  0.25500000920E-02 0. -1.
       -2   -1    0    0    0  501  0.00000000000E+00  0.00000000000E+00 -0.39832156245E+03  0.39832156245E+03  0.25500000920E-02 0.  1.
    10030    2    1    2    0    0  0.00000000000E+00  0.00000000000E+00  0.66168573388E+03  0.14583288588E+04  0.12995749497E+04 0.  0.
        4    1    3    3  502    0 -0.21514082814E+02  0.60949360604E+03  0.79226946340E+02  0.61499905162E+03  0.12699999809E+01 0.  1.
       -4    1    3    3    0  502  0.21514082814E+02 -0.60949360604E+03  0.58245878754E+03  0.84332980716E+03  0.12699999809E+01 0. -1.
</event>
<event>
 5   0  0.3403833E-04  0.1295244E+04  0.7818609E-02  0.9033345E-01
       -1   -1    0    0    0  501  0.00000000000E+00  0.00000000000E+00  0.54404668154E+03  0.54404668156E+03  0.50400001928E-02 0. -1.
        1   -1    0    0  501    0  0.00000000000E+00  0.00000000000E+00 -0.77091585608E+03  0.77091585609E+03  0.50400001928E-02 0.  1.
    10030    2    1    2    0    0  0.00000000000E+00  0.00000000000E+00 -0.22686917454E+03  0.13149625377E+04  0.12952439357E+04 0.  0.
        1    1    3    3  502    0  0.28358124908E+03 -0.32538387192E+02 -0.70360818378E+03  0.75930333055E+03  0.50400001928E-02 0.  1.
       -1    1    3    3    0  502 -0.28358124908E+03  0.32538387192E+02  0.47673900925E+03  0.55565920710E+03  0.50400001928E-02 0. -1.
</event>
<event>
 5   0  0.3335747E-04  0.1297198E+04  0.7818609E-02  0.9031790E-01
        1   -1    0    0  501    0  0.00000000000E+00  0.00000000000E+00  0.99686825635E+03  0.99686825636E+03  0.50400001928E-02 0. -1.
       -1   -1    0    0    0  501  0.00000000000E+00  0.00000000000E+00 -0.42200258122E+03  0.42200258125E+03  0.50400001928E-02 0.  1.
    10030    2    1    2    0    0  0.00000000000E+00  0.00000000000E+00  0.57486567513E+03  0.14188708376E+04  0.12971984850E+04 0.  0.
        3    1    3    3  502    0 -0.13915562133E+03 -0.40449788260E+03  0.82070550462E+03  0.92549465665E+03  0.10100000352E+00 0. -1.
       -3    1    3    3    0  502  0.13915562133E+03  0.40449788260E+03 -0.24583982949E+03  0.49337618096E+03  0.10100000352E+00 0.  1.
</event>
<event>
 5   0  0.6052864E-04  0.1291174E+04  0.7818609E-02  0.9036594E-01
       -2   -1    0    0    0  501  0.00000000000E+00  0.00000000000E+00  0.51799091693E+03  0.51799091694E+03  0.25500000920E-02 0. -1.
        2   -1    0    0  501    0  0.00000000000E+00  0.00000000000E+00 -0.80461346351E+03  0.80461346351E+03  0.25500000920E-02 0.  1.
    10030    2    1    2    0    0  0.00000000000E+00  0.00000000000E+00 -0.28662254658E+03  0.13226043805E+04  0.12911738314E+04 0.  0.
        2    1    3    3  502    0 -0.53457890698E+03  0.23559924404E+03 -0.42477418346E+03  0.72229821993E+03  0.25500000920E-02 0.  1.
       -2    1    3    3    0  502  0.53457890698E+03 -0.23559924404E+03  0.13815163688E+03  0.60030616052E+03  0.25500000920E-02 0. -1.
</event>
<event>
 5   0  0.5787604E-04  0.1310532E+04  0.7818609E-02  0.9021254E-01
       -2   -1    0    0    0  501  0.00000000000E+00  0.00000000000E+00  0.80761049977E+03  0.80761049977E+03  0.25500000920E-02 0. -1.
        2   -1    0    0  501    0  0.00000000000E+00  0.00000000000E+00 -0.53165957843E+03  0.53165957844E+03  0.25500000920E-02 0.  1.
    10030    2    1    2    0    0  0.00000000000E+00  0.00000000000E+00  0.27595092133E+03  0.13392700782E+04  0.13105324992E+04 0.  0.
        4    1    3    3  502    0  0.18541060724E+02 -0.45076979652E+03  0.62361725806E+03  0.76969947242E+03  0.12699999809E+01 0. -1.
       -4    1    3    3    0  502 -0.18541060724E+02  0.45076979652E+03 -0.34766633672E+03  0.56957060579E+03  0.12699999809E+01 0.  1.
</event>
<event>
 5   0  0.3337520E-04  0.1297405E+04  0.7818609E-02  0.9031625E-01
       -1   -1    0    0    0  501  0.00000000000E+00  0.00000000000E+00  0.62132593596E+03  0.62132593598E+03  0.50400001928E-02 0.  1.
        1   -1    0    0  501    0  0.00000000000E+00  0.00000000000E+00 -0.67728559424E+03  0.67728559426E+03  0.50400001928E-02 0. -1.
    10030    2    1    2    0    0  0.00000000000E+00  0.00000000000E+00 -0.55959658287E+02  0.12986115302E+04  0.12974052656E+04 0.  0.
        5    1    3    3  502    0 -0.26439493763E+02 -0.39980998580E+03 -0.53859719798E+03  0.67130924561E+03  0.46999998093E+01 0. -1.
       -5    1    3    3    0  502  0.26439493763E+02  0.39980998580E+03  0.48263753970E+03  0.62730228462E+03  0.46999998093E+01 0.  1.
</event>
<event>
 5   0  0.5787604E-04  0.1299645E+04  0.7818609E-02  0.9029847E-01
       -2   -1    0    0    0  501  0.00000000000E+00  0.00000000000E+00  0.89799889634E+03  0.89799889634E+03  0.25500000920E-02 0.  1.
        2   -1    0    0  501    0  0.00000000000E+00  0.00000000000E+00 -0.47023346867E+03  0.47023346868E+03  0.25500000920E-02 0. -1.
    10030    2    1    2    0    0  0.00000000000E+00  0.00000000000E+00  0.42776542766E+03  0.13682323650E+04  0.12996447759E+04 0.  0.
        4    1    3    3  502    0  0.53436377785E+03 -0.24782222419E+03  0.50278629698E+03  0.77443926502E+03  0.12699999809E+01 0.  1.
       -4    1    3    3    0  502 -0.53436377785E+03  0.24782222419E+03 -0.75020869314E+02  0.59379310000E+03  0.12699999809E+01 0. -1.
</event>
<event>
 5   0  0.3263679E-04  0.1290657E+04  0.7818609E-02  0.9037007E-01
        1   -1    0    0  501    0  0.00000000000E+00  0.00000000000E+00  0.62127369331E+03  0.62127369333E+03  0.50400001928E-02 0.  1.
       -1   -1    0    0    0  501  0.00000000000E+00  0.00000000000E+00 -0.67031460118E+03  0.67031460120E+03  0.50400001928E-02 0. -1.
    10030    2    1    2    0    0  0.00000000000E+00  0.00000000000E+00 -0.49040907867E+02  0.12915882945E+04  0.12906569304E+04 0.  0.
        2    1    3    3  502    0  0.17954395035E+03  0.16904915368E+03  0.57226144407E+03  0.62313466189E+03  0.25500000920E-02 0.  1.
       -2    1    3    3    0  502 -0.17954395035E+03 -0.16904915368E+03 -0.62130235194E+03  0.66845363265E+03  0.25500000920E-02 0. -1.
</event>
<event>
 5   0  0.6007125E-04  0.1277037E+04  0.7818609E-02  0.9047976E-01
       -2   -1    0    0    0  501  0.00000000000E+00  0.00000000000E+00  0.28216008627E+03  0.28216008628E+03  0.25500000920E-02 0.  1.
        2   -1    0    0  501    0  0.00000000000E+00  0.00000000000E+00 -0.14449456353E+04  0.14449456353E+04  0.25500000920E-02 0. -1.
    10030    2    1    2    0    0  0.00000000000E+00  0.00000000000E+00 -0.11627855490E+04  0.17271057216E+04  0.12770371727E+04 0.  0.
        5    1    3    3  502    0  0.48173979814E+03 -0.41890469083E+03 -0.59678449610E+03  0.87391544093E+03  0.46999998093E+01 0.  1.
       -5    1    3    3    0  502 -0.48173979814E+03  0.41890469083E+03 -0.56600105294E+03  0.85319028067E+03  0.46999998093E+01 0. -1.
</event>
<event>
 5   0  0.3263679E-04  0.1319388E+04  0.7818609E-02  0.9014330E-01
        1   -1    0    0  501    0  0.00000000000E+00  0.00000000000E+00  0.82033469389E+03  0.82033469391E+03  0.50400001928E-02 0. -1.
       -1   -1    0    0    0  501  0.00000000000E+00  0.00000000000E+00 -0.53051031889E+03  0.53051031891E+03  0.50400001928E-02 0.  1.
    10030    2    1    2    0    0  0.00000000000E+00  0.00000000000E+00  0.28982437500E+03  0.13508450128E+04  0.13193877672E+04 0.  0.
        2    1    3    3  502    0 -0.50548337843E+03  0.32371080798E+03 -0.13528015116E+03  0.61530712036E+03  0.25500000920E-02 0. -1.
       -2    1    3    3    0  502  0.50548337843E+03 -0.32371080798E+03  0.42510452616E+03  0.73553789245E+03  0.25500000920E-02 0.  1.
</event>
<event>
 5   0  0.5384960E-04  0.1314813E+04  0.7818609E-02  0.9017900E-01
       -2   -1    0    0    0  501  0.00000000000E+00  0.00000000000E+00  0.41258868530E+03  0.41258868531E+03  0.25500000920E-02 0.  1.
        2   -1    0    0  501    0  0.00000000000E+00  0.00000000000E+00 -0.10474911711E+04  0.10474911711E+04  0.25500000920E-02 0. -1.
    10030    2    1    2    0    0  0.00000000000E+00  0.00000000000E+00 -0.63490248576E+03  0.14600798564E+04  0.13148125420E+04 0.  0.
        3    1    3    3  502    0 -0.35792131888E+03 -0.28773418225E+03  0.20493067535E+03  0.50288688792E+03  0.10100000352E+00 0.  1.
       -3    1    3    3    0  502  0.35792131888E+03  0.28773418225E+03 -0.83983316110E+03  0.95719296844E+03  0.10100000352E+00 0. -1.
</event>
<event>
 5   0  0.6007125E-04  0.1287456E+04  0.7818609E-02  0.9039572E-01
        2   -1    0    0  501    0  0.00000000000E+00  0.00000000000E+00  0.53472194400E+03  0.53472194400E+03  0.25500000920E-02 0. -1.
       -2   -1    0    0    0  501  0.00000000000E+00  0.00000000000E+00 -0.77495592346E+03  0.77495592346E+03  0.25500000920E-02 0.  1.
    10030    2    1    2    0    0  0.00000000000E+00  0.00000000000E+00 -0.24023397946E+03  0.13096778675E+04  0.12874563106E+04 0.  0.
        5    1    3    3  502    0  0.37742570046E+03  0.36496060198E+03 -0.49899337087E+03  0.72433616128E+03  0.46999998093E+01 0.  1.
       -5    1    3    3    0  502 -0.37742570046E+03 -0.36496060198E+03  0.25875939141E+03  0.58534170619E+03  0.46999998093E+01 0. -1.
</event>
<event>
 5   0  0.6052864E-04  0.1299559E+04  0.7818609E-02  0.9029915E-01
       -2   -1    0    0    0  501  0.00000000000E+00  0.00000000000E+00  0.11190333526E+04  0.11190333526E+04  0.25500000920E-02 0. -1.
        2   -1    0    0  501    0  0.00000000000E+00  0.00000000000E+00 -0.37730202806E+03  0.37730202807E+03  0.25500000920E-02 0.  1.
    10030    2    1    2    0    0  0.00000000000E+00  0.00000000000E+00  0.74173132454E+03  0.14963353807E+04  0.12995592382E+04 0.  0.
        2    1    3    3  502    0 -0.14302011354E+02  0.48287327381E+03  0.87122571320E+03  0.99619545745E+03  0.25500000920E-02 0. -1.
       -2    1    3    3    0  502  0.14302011354E+02 -0.48287327381E+03 -0.12949438866E+03  0.50013992321E+03  0.25500000920E-02 0.  1.
</event>
<event>
 5   0  0.3337520E-04  0.1310337E+04  0.7818609E-02  0.9021408E-01
       -1   -1    0    0    0  501  0.00000000000E+00  0.00000000000E+00  0.21563868020E+03  0.21563868026E+03  0.50400001928E-02 0. -1.
        1   -1    0    0  501    0  0.00000000000E+00  0.00000000000E+00 -0.19905797126E+04  0.19905797126E+04  0.50400001928E-02 0.  1.
    10030    2    1    2    0    0  0.00000000000E+00  0.00000000000E+00 -0.17749410324E+04  0.22062183928E+04  0.13103373338E+04 0.  0.
        5    1    3    3  502    0  0.26273583006E+03  0.18549318328E+03  0.73547724803E+02  0.32995332285E+03  0.46999998093E+01 0. -1.
       -5    1    3    3    0  502 -0.26273583006E+03 -0.18549318328E+03 -0.18484887572E+04  0.18762650700E+04  0.46999998093E+01 0.  1.
</event>
<event>
 5   0  0.5787604E-04  0.1298115E+04  0.7818609E-02  0.9031061E-01
       -2   -1    0    0    0  501  0.00000000000E+00  0.00000000000E+00  0.41021797569E+03  0.41021797569E+03  0.25500000920E-02 0. -1.
        2   -1    0    0  501    0  0.00000000000E+00  0.00000000000E+00 -0.10269556147E+04  0.10269556147E+04  0.25500000920E-02 0.  1.
    10030    2    1    2    0    0  0.00000000000E+00  0.00000000000E+00 -0.61673763898E+03  0.14371735904E+04  0.12981150232E+04 0.  0.
        4    1    3    3  502    0 -0.32785087147E+03 -0.46252848111E+03 -0.65821851890E+03  0.86871860880E+03  0.12699999809E+01 0.  1.
       -4    1    3    3    0  502  0.32785087147E+03  0.46252848111E+03  0.41480879916E+02  0.56845498156E+03  0.12699999809E+01 0. -1.
</event>
<event>
 5   0  0.6007125E-04  0.1298025E+04  0.7818609E-02  0.9031133E-01
       -2   -1    0    0    0  501  0.00000000000E+00  0.00000000000E+00  0.46568124047E+03  0.46568124048E+03  0.25500000920E-02 0.  1.
        2   -1    0    0  501    0  0.00000000000E+00  0.00000000000E+00 -0.90451868301E+03  0.90451868302E+03  0.25500000920E-02 0. -1.
    10030    2    1    2    0    0  0.00000000000E+00  0.00000000000E+00 -0.43883744254E+03  0.13701999235E+04  0.12980252422E+04 0.  0.
        5    1    3    3  502    0 -0.28236118389E+02  0.36230580760E+02 -0.90278264104E+03  0.90396267640E+03  0.46999998093E+01 0. -1.
       -5    1    3    3    0  502  0.28236118389E+02 -0.36230580760E+02  0.46394519850E+03  0.46623724709E+03  0.46999998093E+01 0.  1.
</event>
<event>
 5   0  0.3274879E-04  0.1294970E+04  0.7818609E-02  0.9033563E-01
        1   -1    0    0  501    0  0.00000000000E+00  0.00000000000E+00  0.59151276080E+03  0.59151276082E+03  0.50400001928E-02 0. -1.
       -1   -1    0    0    0  501  0.00000000000E+00  0.00000000000E+00 -0.70875379918E+03  0.70875379920E+03  0.50400001928E-02 0.  1.
    10030    2    1    2    0    0  0.00000000000E+00  0.00000000000E+00 -0.11724103838E+03  0.13002665600E+04  0.12949701410E+04 0.  0.
        4    1    3    3  502    0 -0.62785475875E+03  0.19497607738E+01  0.10023497153E+03  0.63580976877E+03  0.12699999809E+01 0. -1.
       -4    1    3    3    0  502  0.62785475875E+03 -0.19497607738E+01 -0.21747600991E+03  0.66445679125E+03  0.12699999809E+01 0.  1.
</event>
<event>
 5   0  0.2255875E-04  0.1299070E+04  0.7818609E-02  0.9030303E-01
       -4   -1    0    0    0  501  0.00000000000E+00  0.00000000000E+00  0.75446999670E+03  0.75447106559E+03  0.12699999809E+01 0.  1.
        4   -1    0    0  501    0  0.00000000000E+00  0.00000000000E+00 -0.55919293960E+03  0.55919438176E+03  0.12699999809E+01 0. -1.
    10030    2    1    2    0    0  0.00000000000E+00  0.00000000000E+00  0.19527705710E+03  0.13136654474E+04  0.12990703517E+04 0.  0.
        4    1    3    3  502    0  0.17550177333E+03 -0.25339082454E+03 -0.48052491887E+03  0.57088842426E+03  0.12699999809E+01 0. -1.
       -4    1    3    3    0  502 -0.17550177333E+03  0.25339082454E+03  0.67580197597E+03  0.74277702309E+03  0.12699999809E+01 0.  1.
</event>
<event>
 5   0  0.6007125E-04  0.1317637E+04  0.7818609E-02  0.9015694E-01
       -2   -1    0    0    0  501  0.00000000000E+00  0.00000000000E+00  0.29197862048E+03  0.29197862049E+03  0.25500000920E-02 0.  1.
        2   -1    0    0  501    0  0.00000000000E+00  0.00000000000E+00 -0.14865542798E+04  0.14865542798E+04  0.25500000920E-02 0. -1.
    10030    2    1    2    0    0  0.00000000000E+00  0.00000000000E+00 -0.11945756593E+04  0.17785329003E+04  0.13176373824E+04 0.  0.
        5    1    3    3  502    0  0.41502213178E+03 -0.39401658800E+03 -0.15673607275E+03  0.59336390856E+03  0.46999998093E+01 0.  1.
       -5    1    3    3    0  502 -0.41502213178E+03  0.39401658800E+03 -0.10378395865E+04  0.11851689917E+04  0.46999998093E+01 0. -1.
</event>
<event>
 5   0  0.3335747E-04  0.1301450E+04  0.7818609E-02  0.9028416E-01
       -1   -1    0    0    0  501  0.00000000000E+00  0.00000000000E+00  0.39714988040E+03  0.39714988043E+03  0.50400001928E-02 0. -1.
        1   -1    0    0  501    0  0.00000000000E+00  0.00000000000E+00 -0.10662039176E+04  0.10662039176E+04  0.50400001928E-02 0.  1.
    10030    2    1    2    0    0  0.00000000000E+00  0.00000000000E+00 -0.66905403717E+03  0.14633537980E+04  0.13014495893E+04 0.  0.
        3    1    3    3  502    0  0.57554700012E+03  0.21450030486E+03 -0.92903261564E+02  0.62120508397E+03  0.10100000352E+00 0. -1.
       -3    1    3    3    0  502 -0.57554700012E+03 -0.21450030486E+03 -0.57615077561E+03  0.84214871404E+03  0.10100000352E+00 0.  1.
</event>
<event>
 5   0  0.5957913E-04  0.1298771E+04  0.7818609E-02  0.9030541E-01
        2   -1    0    0  501    0  0.00000000000E+00  0.00000000000E+00  0.98684584401E+03  0.98684584402E+03  0.25500000920E-02 0.  1.
       -2   -1    0    0    0  501  0.00000000000E+00  0.00000000000E+00 -0.42732231138E+03  0.42732231139E+03  0.25500000920E-02 0. -1.
    10030    2    1    2    0    0  0.00000000000E+00  0.00000000000E+00  0.55952353264E+03  0.14141681554E+04  0.12987705680E+04 0.  0.
        1    1    3    3  502    0  0.42796223850E+03 -0.29794479247E+03  0.70116058152E+03  0.87381287359E+03  0.50400001928E-02 0.  1.
       -1    1    3    3    0  502 -0.42796223850E+03  0.29794479247E+03 -0.14163704889E+03  0.54035528181E+03  0.50400001928E-02 0. -1.
</event>
<event>
 5   0  0.3403833E-04  0.1305791E+04  0.7818609E-02  0.9024986E-01
       -1   -1    0    0    0  501  0.00000000000E+00  0.00000000000E+00  0.66892482043E+03  0.66892482045E+03  0.50400001928E-02 0. -1.
        1   -1    0    0  501    0  0.00000000000E+00  0.00000000000E+00 -0.63725011533E+03  0.63725011535E+03  0.50400001928E-02 0.  1.
    10030    2    1    2    0    0  0.00000000000E+00  0.00000000000E+00  0.31674705107E+02  0.13061749358E+04  0.13057908240E+04 0.  0.
        1    1    3    3  502    0 -0.46779863257E+03 -0.44743612795E+03 -0.69262756121E+02  0.65102379268E+03  0.50400001928E-02 0.  1.
       -1    1    3    3    0  502  0.46779863257E+03  0.44743612795E+03  0.10093746123E+03  0.65515114312E+03  0.50400001928E-02 0. -1.
</event>
<event>
 5   0  0.5957913E-04  0.1308696E+04  0.7818609E-02  0.9022697E-01
       -2   -1    0    0    0  501  0.00000000000E+00  0.00000000000E+00  0.47215077593E+03  0.47215077594E+03  0.25500000920E-02 0.  1.
        2   -1    0    0  501    0  0.00000000000E+00  0.00000000000E+00 -0.90685292858E+03  0.90685292858E+03  0.25500000920E-02 0. -1.
    10030    2    1    2    0    0  0.00000000000E+00  0.00000000000E+00 -0.43470215265E+03  0.13790037045E+04  0.13086960134E+04 0.  0.
        1    1    3    3  502    0 -0.18463140092E+03  0.70164482066E+02 -0.87469170316E+03  0.89671477313E+03  0.50400001928E-02 0. -1.
       -1    1    3    3    0  502  0.18463140092E+03 -0.70164482066E+02  0.43998955051E+03  0.48228893138E+03  0.50400001928E-02 0.  1.
</event>
<event>
 5   0  0.5957913E-04  0.1303759E+04  0.7818609E-02  0.9026590E-01
        2   -1    0    0  501    0  0.00000000000E+00  0.00000000000E+00  0.98631303437E+03  0.98631303438E+03  0.25500000920E-02 0.  1.
       -2   -1    0    0    0  501  0.00000000000E+00  0.00000000000E+00 -0.43084364649E+03  0.43084364649E+03  0.25500000920E-02 0. -1.
    10030    2    1    2    0    0  0.00000000000E+00  0.00000000000E+00  0.55546938789E+03  0.14171566809E+04  0.13037587266E+04 0.  0.
        1    1    3    3  502    0  0.43900298538E+03  0.29914238791E+03 -0.13293134849E+03  0.54761348856E+03  0.50400001928E-02 0. -1.
       -1    1    3    3    0  502 -0.43900298538E+03 -0.29914238791E+03  0.68840073638E+03  0.86954319231E+03  0.50400001928E-02 0.  1.
</event>
<event>
 5   0  0.6007125E-04  0.1310314E+04  0.7818609E-02  0.9021426E-01
        2   -1    0    0  501    0  0.00000000000E+00  0.00000000000E+00  0.70056660418E+03  0.70056660418E+03  0.25500000920E-02 0. -1.
       -2   -1    0    0    0  501  0.00000000000E+00  0.00000000000E+00 -0.61269077526E+03  0.61269077526E+03  0.25500000920E-02 0.  1.
    10030    2    1    2    0    0  0.00000000000E+00  0.00000000000E+00  0.87875828919E+02  0.13132573794E+04  0.13103140018E+04 0.  0.
        5    1    3    3  502    0 -0.95909119031E+01 -0.63522395765E+03  0.20431969800E+03  0.66736054046E+03  0.46999998093E+01 0.  1.
       -5    1    3    3    0  502  0.95909119031E+01  0.63522395765E+03 -0.11644386908E+03  0.64589683899E+03  0.46999998093E+01 0. -1.
</event>
<event>
 5   0  0.5384960E-04  0.1305322E+04  0.7818609E-02  0.9025355E-01
       -2   -1    0    0    0  501  0.00000000000E+00  0.00000000000E+00  0.83589107863E+03  0.83589107863E+03  0.25500000920E-02 0. -1.
        2   -1    0    0  501    0  0.00000000000E+00  0.00000000000E+00 -0.50959563885E+03  0.50959563886E+03  0.25500000920E-02 0.  1.
    10030    2    1    2    0    0  0.00000000000E+00  0.00000000000E+00  0.32629543978E+03  0.13454867175E+04  0.13053221031E+04 0.  0.
        3    1    3    3  502    0 -0.34268410567E+03 -0.10166842207E+03  0.72602507298E+03  0.80924735472E+03  0.10100000352E+00 0. -1.
       -3    1    3    3    0  502  0.34268410567E+03  0.10166842207E+03 -0.39972963320E+03  0.53623936277E+03  0.10100000352E+00 0.  1.
</event>
<event>
 5   0  0.3263679E-04  0.1304414E+04  0.7818609E-02  0.9026073E-01
       -1   -1    0    0    0  501  0.00000000000E+00  0.00000000000E+00  0.38435517689E+03  0.38435517692E+03  0.50400001928E-02 0. -1.
        1   -1    0    0  501    0  0.00000000000E+00  0.00000000000E+00 -0.11067202518E+04  0.11067202519E+04  0.50400001928E-02 0.  1.
    10030    2    1    2    0    0  0.00000000000E+00  0.00000000000E+00 -0.72236507495E+03  0.14910754288E+04  0.13044135206E+04 0.  0.
        2    1    3    3  502    0 -0.58913550584E+03  0.24627724725E+03 -0.51300644128E+03  0.81909018768E+03  0.25500000920E-02 0. -1.
       -2    1    3    3    0  502  0.58913550584E+03 -0.24627724725E+03 -0.20935863367E+03  0.67198524110E+03  0.25500000920E-02 0.  1.
</event>
<event>
 5   0  0.3335747E-04  0.1297961E+04  0.7818609E-02  0.9031184E-01
       -1   -1    0    0    0  501  0.00000000000E+00  0.00000000000E+00  0.50390636148E+03  0.50390636150E+03  0.50400001928E-02 0.  1.
        1   -1    0    0  501    0  0.00000000000E+00  0.00000000000E+00 -0.83582149257E+03  0.83582149258E+03  0.50400001928E-02 0. -1.
    10030    2    1    2    0    0  0.00000000000E+00  0.00000000000E+00 -0.33191513109E+03  0.13397278541E+04  0.12979611199E+04 0.  0.
        3    1    3    3  502    0  0.18813296913E+02  0.50880785912E+03  0.24940477287E+03  0.56695866566E+03  0.10100000352E+00 0.  1.
       -3    1    3    3    0  502 -0.18813296913E+02 -0.50880785912E+03 -0.58131990396E+03  0.77276918842E+03  0.10100000352E+00 0. -1.
</event>
<event>
 5   0  0.2255875E-04  0.1306774E+04  0.7818609E-02  0.9024210E-01
        3   -1    0    0  501    0  0.00000000000E+00  0.00000000000E+00  0.37278793615E+03  0.37278794983E+03  0.10100000352E+00 0.  1.
       -3   -1    0    0    0  501  0.00000000000E+00  0.00000000000E+00 -0.11451950074E+04  0.11451950119E+04  0.10100000352E+00 0. -1.
    10030    2    1    2    0    0  0.00000000000E+00  0.00000000000E+00 -0.77240707128E+03  0.15179829617E+04  0.13067744979E+04 0.  0.
        2    1    3    3  502    0  0.93602852034E+02  0.16314738174E+03 -0.11130660668E+04  0.11288465932E+04  0.25500000920E-02 0. -1.
       -2    1    3    3    0  502 -0.93602852034E+02 -0.16314738174E+03  0.34065899547E+03  0.38913636849E+03  0.25500000920E-02 0.  1.
</event>
<event>
 5   0  0.3263679E-04  0.1301054E+04  0.7818609E-02  0.9028730E-01
        1   -1    0    0  501    0  0.00000000000E+00  0.00000000000E+00  0.30565836480E+03  0.30565836484E+03  0.50400001928E-02 0. -1.
       -1   -1    0    0    0  501  0.00000000000E+00  0.00000000000E+00 -0.13845037382E+04  0.13845037382E+04  0.50400001928E-02 0.  1.
    10030    2    1    2    0    0  0.00000000000E+00  0.00000000000E+00 -0.10788453734E+04  0.16901621030E+04  0.13010536480E+04 0.  0.
        2    1    3    3  502    0  0.37491338019E+03 -0.36857414046E+03 -0.10371184538E+04  0.11627646481E+04  0.25500000920E-02 0.  1.
       -2    1    3    3    0  502 -0.37491338019E+03  0.36857414046E+03 -0.41726919599E+02  0.52739745494E+03  0.25500000920E-02 0. -1.
</event>
<event>
 5   0  0.3403833E-04  0.1307391E+04  0.7818609E-02  0.9023725E-01
       -1   -1    0    0    0  501  0.00000000000E+00  0.00000000000E+00  0.46654856033E+03  0.46654856036E+03  0.50400001928E-02 0. -1.
        1   -1    0    0  501    0  0.00000000000E+00  0.00000000000E+00 -0.91591267800E+03  0.91591267801E+03  0.50400001928E-02 0.  1.
    10030    2    1    2    0    0  0.00000000000E+00  0.00000000000E+00 -0.44936411767E+03  0.13824612384E+04  0.13073909000E+04 0.  0.
        1    1    3    3  502    0  0.46834169825E+03 -0.45602101144E+03 -0.22924640560E+03  0.69271424390E+03  0.50400001928E-02 0.  1.
       -1    1    3    3    0  502 -0.46834169825E+03  0.45602101144E+03 -0.22011771207E+03  0.68974699447E+03  0.50400001928E-02 0. -1.
</event>
<event>
 5   0  0.5957913E-04  0.1300961E+04  0.7818609E-02  0.9028803E-01
        2   -1    0    0  501    0  0.00000000000E+00  0.00000000000E+00  0.58805979435E+03  0.58805979435E+03  0.25500000920E-02 0.  1.
       -2   -1    0    0    0  501  0.00000000000E+00  0.00000000000E+00 -0.71952734970E+03  0.71952734970E+03  0.25500000920E-02 0. -1.
    10030    2    1    2    0    0  0.00000000000E+00  0.00000000000E+00 -0.13146755535E+03  0.13075871441E+04  0.13009613450E+04 0.  0.
        1    1    3    3  502    0 -0.24566765481E+03  0.14085942317E+03  0.52285192108E+03  0.59461593077E+03  0.50400001928E-02 0.  1.
       -1    1    3    3    0  502  0.24566765481E+03 -0.14085942317E+03 -0.65431947643E+03  0.71297121329E+03  0.50400001928E-02 0. -1.
</event>
<event>
 5   0  0.3335747E-04  0.1298819E+04  0.7818609E-02  0.9030502E-01
       -1   -1    0    0    0  501  0.00000000000E+00  0.00000000000E+00  0.52855072590E+03  0.52855072593E+03  0.50400001928E-02 0. -1.
        1   -1    0    0  501    0  0.00000000000E+00  0.00000000000E+00 -0.79790400475E+03  0.79790400477E+03  0.50400001928E-02 0.  1.
    10030    2    1    2    0    0  0.00000000000E+00  0.00000000000E+00 -0.26935327885E+03  0.13264547307E+04  0.12988190651E+04 0.  0.
        3    1    3    3  502    0 -0.10595025036E+03 -0.30689369269E+03 -0.70907015944E+03  0.77986517769E+03  0.10100000352E+00 0.  1.
       -3    1    3    3    0  502  0.10595025036E+03  0.30689369269E+03  0.43971688060E+03  0.54658955300E+03  0.10100000352E+00 0. -1.
</event>
<event>
 5   0  0.6052864E-04  0.1341334E+04  0.7818609E-02  0.8997414E-01
        2   -1    0    0  501    0  0.00000000000E+00  0.00000000000E+00  0.10548595720E+04  0.10548595720E+04  0.25500000920E-02 0.  1.
       -2   -1    0    0    0  501  0.00000000000E+00  0.00000000000E+00 -0.42640229574E+03  0.42640229575E+03  0.25500000920E-02 0. -1.
    10030    2    1    2    0    0  0.00000000000E+00  0.00000000000E+00  0.62845727628E+03  0.14812618678E+04  0.13413344746E+04 0.  0.
        2    1    3    3  502    0 -0.98470665327E+02 -0.10085525811E+03 -0.40986003959E+03  0.43342070449E+03  0.25500000920E-02 0. -1.
       -2    1    3    3    0  502  0.98470665327E+02  0.10085525811E+03  0.10383173159E+04  0.10478411633E+04  0.25500000920E-02 0.  1.
</event>
<event>
 5   0  0.3337520E-04  0.1302263E+04  0.7818609E-02  0.9027772E-01
       -1   -1    0    0    0  501  0.00000000000E+00  0.00000000000E+00  0.29939788638E+03  0.29939788642E+03  0.50400001928E-02 0. -1.
        1   -1    0    0  501    0  0.00000000000E+00  0.00000000000E+00 -0.14160831393E+04  0.14160831393E+04  0.50400001928E-02 0.  1.
    10030    2    1    2    0    0  0.00000000000E+00  0.00000000000E+00 -0.11166852529E+04  0.17154810257E+04  0.13022631054E+04 0.  0.
        5    1    3    3  502    0 -0.58815776346E+03 -0.22437410355E+03 -0.77749492434E+03  0.10003967915E+04  0.46999998093E+01 0. -1.
       -5    1    3    3    0  502  0.58815776346E+03  0.22437410355E+03 -0.33919032858E+03  0.71508423424E+03  0.46999998093E+01 0.  1.
</event>
<event>
 5   0  0.5787604E-04  0.1299600E+04  0.7818609E-02  0.9029883E-01
        2   -1    0    0  501    0  0.00000000000E+00  0.00000000000E+00  0.22515920195E+04  0.22515920195E+04  0.25500000920E-02 0.  1.
       -2   -1    0    0    0  501  0.00000000000E+00  0.00000000000E+00 -0.18752941445E+03  0.18752941447E+03  0.25500000920E-02 0. -1.
    10030    2    1    2    0    0  0.00000000000E+00  0.00000000000E+00  0.20640626051E+04  0.24391214340E+04  0.12995995276E+04 0.  0.
        4    1    3    3  502    0  0.19354407821E+03  0.45718927214E+03  0.24520309523E+03  0.55372151085E+03  0.12699999809E+01 0. -1.
       -4    1    3    3    0  502 -0.19354407821E+03 -0.45718927214E+03  0.18188595098E+04  0.18853999231E+04  0.12699999809E+01 0.  1.
</event>
<event>
 5   0  0.5957913E-04  0.1319171E+04  0.7818609E-02  0.9014499E-01
       -2   -1    0    0    0  501  0.00000000000E+00  0.00000000000E+00  0.14584575187E+04  0.14584575187E+04  0.25500000920E-02 0. -1.
        2   -1    0    0  501    0  0.00000000000E+00  0.00000000000E+00 -0.29829655885E+03  0.29829655886E+03  0.25500000920E-02 0.  1.
    10030    2    1    2    0    0  0.00000000000E+00  0.00000000000E+00  0.11601609598E+04  0.17567540775E+04  0.13191707381E+04 0.  0.
        1    1    3    3  502    0 -0.12655625165E+02 -0.97459135928E+02 -0.28849157188E+03  0.30477177543E+03  0.50400001928E-02 0.  1.
       -1    1    3    3    0  502  0.12655625165E+02  0.97459135928E+02  0.14486525317E+04  0.14519823021E+04  0.50400001928E-02 0. -1.
</event>
<event>
 5   0  0.5957913E-04  0.1317959E+04  0.7818609E-02  0.9015443E-01
       -2   -1    0    0    0  501  0.00000000000E+00  0.00000000000E+00  0.12377758218E+04  0.12377758218E+04  0.25500000920E-02 0.  1.
        2   -1    0    0  501    0  0.00000000000E+00  0.00000000000E+00 -0.35083426701E+03  0.35083426702E+03  0.25500000920E-02 0. -1.
    10030    2    1    2    0    0  0.00000000000E+00  0.00000000000E+00  0.88694155475E+03  0.15886100888E+04  0.13179592910E+04 0.  0.
        1    1    3    3  502    0 -0.46438278454E+03  0.38665628045E+03  0.76032060455E+03  0.97120640006E+03  0.50400001928E-02 0.  1.
       -1    1    3    3    0  502  0.46438278454E+03 -0.38665628045E+03  0.12662095020E+03  0.61740368872E+03  0.50400001928E-02 0. -1.
</event>
<event>
 5   0  0.3263679E-04  0.1301264E+04  0.7818609E-02  0.9028563E-01
       -1   -1    0    0    0  501  0.00000000000E+00  0.00000000000E+00  0.37479956213E+03  0.37479956217E+03  0.50400001928E-02 0.  1.
        1   -1    0    0  501    0  0.00000000000E+00  0.00000000000E+00 -0.11294624684E+04  0.11294624684E+04  0.50400001928E-02 0. -1.
    10030    2    1    2    0    0  0.00000000000E+00  0.00000000000E+00 -0.75466290630E+03  0.15042620306E+04  0.13012640603E+04 0.  0.
        2    1    3    3  502    0 -0.37065898597E+03 -0.47997804040E+03 -0.10486077472E+03  0.61543706845E+03  0.25500000920E-02 0.  1.
       -2    1    3    3    0  502  0.37065898597E+03  0.47997804040E+03 -0.64980213158E+03  0.88882496216E+03  0.25500000920E-02 0. -1.
</event>
<event>
 5   0  0.5787604E-04  0.1299954E+04  0.7818609E-02  0.9029602E-01
       -2   -1    0    0    0  501  0.00000000000E+00  0.00000000000E+00  0.22067922228E+03  0.22067922229E+03  0.25500000920E-02 0. -1.
        2   -1    0    0  501    0  0.00000000000E+00  0.00000000000E+00 -0.19144075010E+04  0.19144075010E+04  0.25500000920E-02 0.  1.
    10030    2    1    2    0    0  0.00000000000E+00  0.00000000000E+00 -0.16937282788E+04  0.21350867233E+04  0.12999537814E+04 0.  0.
        4    1    3    3  502    0  0.32844352362E+03 -0.69882094583E+02  0.67175447170E+02  0.34245117748E+03  0.12699999809E+01 0. -1.
       -4    1    3    3    0  502 -0.32844352362E+03  0.69882094583E+02 -0.17609037259E+04  0.17926355459E+04  0.12699999809E+01 0.  1.
</event>
<event>
 5   0  0.5787604E-04  0.1300661E+04  0.7818609E-02  0.9029041E-01
       -2   -1    0    0    0  501  0.00000000000E+00  0.00000000000E+00  0.38424903277E+03  0.38424903278E+03  0.25500000920E-02 0.  1.
        2   -1    0    0  501    0  0.00000000000E+00  0.00000000000E+00 -0.11006662722E+04  0.11006662722E+04  0.25500000920E-02 0. -1.
    10030    2    1    2    0    0  0.00000000000E+00  0.00000000000E+00 -0.71641723941E+03  0.14849153050E+04  0.13006612941E+04 0.  0.
        4    1    3    3  502    0 -0.19081926695E+03  0.49766003217E+03 -0.78362256152E+03  0.94770429569E+03  0.12699999809E+01 0. -1.
       -4    1    3    3    0  502  0.19081926695E+03 -0.49766003217E+03  0.67205322109E+02  0.53721100927E+03  0.12699999809E+01 0.  1.
</event>
<event>
 5   0  0.2255875E-04  0.1300910E+04  0.7818609E-02  0.9028844E-01
        4   -1    0    0  501    0  0.00000000000E+00  0.00000000000E+00  0.54220782925E+03  0.54220931659E+03  0.12699999809E+01 0.  1.
       -4   -1    0    0    0  501  0.00000000000E+00  0.00000000000E+00 -0.78031002832E+03  0.78031106182E+03  0.12699999809E+01 0. -1.
    10030    2    1    2    0    0  0.00000000000E+00  0.00000000000E+00 -0.23810219908E+03  0.13225203784E+04  0.13009102560E+04 0.  0.
        4    1    3    3  502    0 -0.61355244271E+03 -0.20546622011E+03 -0.51407895444E+02  0.64908193025E+03  0.12699999809E+01 0. -1.
       -4    1    3    3    0  502  0.61355244271E+03  0.20546622011E+03 -0.18669430363E+03  0.67343844817E+03  0.12699999809E+01 0.  1.
</event>
<event>
 5   0  0.5957913E-04  0.1305590E+04  0.7818609E-02  0.9025144E-01
        2   -1    0    0  501    0  0.00000000000E+00  0.00000000000E+00  0.39648591788E+03  0.39648591789E+03  0.25500000920E-02 0. -1.
       -2   -1    0    0    0  501  0.00000000000E+00  0.00000000000E+00 -0.10747958264E+04  0.10747958264E+04  0.25500000920E-02 0.  1.
    10030    2    1    2    0    0  0.00000000000E+00  0.00000000000E+00 -0.67830990850E+03  0.14712817443E+04  0.13055901497E+04 0.  0.
        1    1    3    3  502    0 -0.32360036575E+03 -0.53155633199E+03 -0.11697346907E+03  0.63320780419E+03  0.50400001928E-02 0. -1.
       -1    1    3    3    0  502  0.32360036575E+03  0.53155633199E+03 -0.56133643943E+03  0.83807394009E+03  0.50400001928E-02 0.  1.
</event>
<event>
 5   0  0.3335747E-04  0.1297140E+04  0.7818609E-02  0.9031836E-01
        1   -1    0    0  501    0  0.00000000000E+00  0.00000000000E+00  0.65429689493E+03  0.65429689495E+03  0.50400001928E-02 0.  1.
       -1   -1    0    0    0  501  0.00000000000E+00  0.00000000000E+00 -0.64289291044E+03  0.64289291046E+03  0.50400001928E-02 0. -1.
    10030    2    1    2    0    0  0.00000000000E+00  0.00000000000E+00  0.11403984491E+02  0.12971898054E+04  0.12971396765E+04 0.  0.
        3    1    3    3  502    0  0.46822838518E+02  0.62284415159E+03  0.18039591933E+03  0.65013068939E+03  0.10100000352E+00 0.  1.
       -3    1    3    3    0  502 -0.46822838518E+02 -0.62284415159E+03 -0.16899193484E+03  0.64705911601E+03  0.10100000352E+00 0. -1.
</event>
<event>
 5   0  0.3337520E-04  0.1302925E+04  0.7818609E-02  0.9027248E-01
       -1   -1    0    0    0  501  0.00000000000E+00  0.00000000000E+00  0.96826917119E+03  0.96826917120E+03  0.50400001928E-02 0. -1.
        1   -1    0    0  501    0  0.00000000000E+00  0.00000000000E+00 -0.43831165576E+03  0.43831165579E+03  0.50400001928E-02 0.  1.
    10030    2    1    2    0    0  0.00000000000E+00  0.00000000000E+00  0.52995751543E+03  0.14065808270E+04  0.13029254218E+04 0.  0.
        5    1    3    3  502    0  0.57832446703E+03 -0.41725543272E+02 -0.55599113372E+02  0.58250627596E+03  0.46999998093E+01 0.  1.
       -5    1    3    3    0  502 -0.57832446703E+03  0.41725543272E+02  0.58555662881E+03  0.82407455103E+03  0.46999998093E+01 0. -1.
</event>
<event>
 5   0  0.3335747E-04  0.1319668E+04  0.7818609E-02  0.9014112E-01
       -1   -1    0    0    0  501  0.00000000000E+00  0.00000000000E+00  0.31650050873E+03  0.31650050877E+03  0.50400001928E-02 0.  1.
        1   -1    0    0  501    0  0.00000000000E+00  0.00000000000E+00 -0.13756088693E+04  0.13756088693E+04  0.50400001928E-02 0. -1.
    10030    2    1    2    0    0  0.00000000000E+00  0.00000000000E+00 -0.10591083606E+04  0.16921093781E+04  0.13196679991E+04 0.  0.
        3    1    3    3  502    0 -0.26422625532E+03 -0.27175928880E+03  0.16297981432E+03  0.41259066292E+03  0.10100000352E+00 0.  1.
       -3    1    3    3    0  502  0.26422625532E+03  0.27175928880E+03 -0.12220881749E+04  0.12795187152E+04  0.10100000352E+00 0. -1.
</event>
<event>
 5   0  0.2255875E-04  0.1298980E+04  0.7818609E-02  0.9030374E-01
       -4   -1    0    0    0  501  0.00000000000E+00  0.00000000000E+00  0.10538513230E+04  0.10538520882E+04  0.12699999809E+01 0. -1.
        4   -1    0    0  501    0  0.00000000000E+00  0.00000000000E+00 -0.40027981719E+03  0.40028183190E+03  0.12699999809E+01 0.  1.
    10030    2    1    2    0    0  0.00000000000E+00  0.00000000000E+00  0.65357150578E+03  0.14541339201E+04  0.12989802710E+04 0.  0.
        5    1    3    3  502    0 -0.39892794034E+03 -0.68639815661E+01 -0.24689418157E+03  0.46922216776E+03  0.46999998093E+01 0.  1.
       -5    1    3    3    0  502  0.39892794034E+03  0.68639815661E+01  0.90046568734E+03  0.98491175235E+03  0.46999998093E+01 0. -1.
</event>
<event>
 5   0  0.5384960E-04  0.1293876E+04  0.7818609E-02  0.9034436E-01
       -2   -1    0    0    0  501  0.00000000000E+00  0.00000000000E+00  0.51492734856E+03  0.51492734857E+03  0.25500000920E-02 0.  1.
        2   -1    0    0  501    0  0.00000000000E+00  0.00000000000E+00 -0.81279214674E+03  0.81279214675E+03  0.25500000920E-02 0. -1.
    10030    2    1    2    0    0  0.00000000000E+00  0.00000000000E+00 -0.29786479819E+03  0.13277194953E+04  0.12938761997E+04 0.  0.
        3    1    3    3  502    0  0.52529429433E+02 -0.24450404867E+02 -0.81012425500E+03  0.81219362346E+03  0.10100000352E+00 0. -1.
       -3    1    3    3    0  502 -0.52529429433E+02  0.24450404867E+02  0.51225945681E+03  0.51552587185E+03  0.10100000352E+00 0.  1.
</event>
<event>
 5   0  0.6007125E-04  0.1304959E+04  0.7818609E-02  0.9025642E-01
        2   -1    0    0  501    0  0.00000000000E+00  0.00000000000E+00  0.39681210494E+03  0.39681210495E+03  0.25500000920E-02 0.  1.
       -2   -1    0    0    0  501  0.00000000000E+00  0.00000000000E+00 -0.10728738887E+04  0.10728738887E+04  0.25500000920E-02 0. -1.
    10030    2    1    2    0    0  0.00000000000E+00  0.00000000000E+00 -0.67606178371E+03  0.14696859936E+04  0.13049587673E+04 0.  0.
        5    1    3    3  502    0 -0.64997485076E+03  0.42690541961E+02 -0.38043268884E+03  0.75434800306E+03  0.46999998093E+01 0.  1.
       -5    1    3    3    0  502  0.64997485076E+03 -0.42690541961E+02 -0.29562909487E+03  0.71533799055E+03  0.46999998093E+01 0. -1.
</event>
<event>
 5   0  0.6052864E-04  0.1299080E+04  0.7818609E-02  0.9030295E-01
       -2   -1    0    0    0  501  0.00000000000E+00  0.00000000000E+00  0.21441363047E+03  0.21441363049E+03  0.25500000920E-02 0.  1.
        2   -1    0    0  501    0  0.00000000000E+00  0.00000000000E+00 -0.19677032862E+04  0.19677032862E+04  0.25500000920E-02 0. -1.
    10030    2    1    2    0    0  0.00000000000E+00  0.00000000000E+00 -0.17532896557E+04  0.21821169167E+04  0.12990802982E+04 0.  0.
        2    1    3    3  502    0 -0.53449617327E+03  0.32354645867E+03 -0.11749296152E+04  0.13307246413E+04  0.25500000920E-02 0. -1.
       -2    1    3    3    0  502  0.53449617327E+03 -0.32354645867E+03 -0.57836004048E+03  0.85139227539E+03  0.25500000920E-02 0.  1.
</event>
<event>
 5   0  0.3263679E-04  0.1300218E+04  0.7818609E-02  0.9029392E-01
       -1   -1    0    0    0  501  0.00000000000E+00  0.00000000000E+00  0.32606092534E+03  0.32606092538E+03  0.50400001928E-02 0. -1.
        1   -1    0    0  501    0  0.00000000000E+00  0.00000000000E+00 -0.12962049693E+04  0.12962049693E+04  0.50400001928E-02 0.  1.
    10030    2    1    2    0    0  0.00000000000E+00  0.00000000000E+00 -0.97014404392E+03  0.16222658947E+04  0.13002181229E+04 0.  0.
        2    1    3    3  502    0 -0.79863391586E+02  0.55321206615E+03 -0.89929683028E+03  0.10588467974E+04  0.25500000920E-02 0.  1.
       -2    1    3    3    0  502  0.79863391586E+02 -0.55321206615E+03 -0.70847213644E+02  0.56341909724E+03  0.25500000920E-02 0. -1.
</event>
<event>
 5   0  0.5957913E-04  0.1301384E+04  0.7818609E-02  0.9028469E-01
        2   -1    0    0  501    0  0.00000000000E+00  0.00000000000E+00  0.11013155886E+04  0.11013155886E+04  0.25500000920E-02 0. -1.
       -2   -1    0    0    0  501  0.00000000000E+00  0.00000000000E+00 -0.38444918152E+03  0.38444918152E+03  0.25500000920E-02 0.  1.
    10030    2    1    2    0    0  0.00000000000E+00  0.00000000000E+00  0.71686640710E+03  0.14857647701E+04  0.13013836892E+04 0.  0.
        1    1    3    3  502    0 -0.43079845093E+01 -0.63874309036E+03  0.50005953456E+03  0.81121565094E+03  0.50400001928E-02 0.  1.
       -1    1    3    3    0  502  0.43079845093E+01  0.63874309036E+03  0.21680687254E+03  0.67454911920E+03  0.50400001928E-02 0. -1.
</event>
<event>
 5   0  0.2255875E-04  0.1292117E+04  0.7818609E-02  0.9035840E-01
        3   -1    0    0  501    0  0.00000000000E+00  0.00000000000E+00  0.81743161607E+03  0.81743162231E+03  0.10100000352E+00 0. -1.
       -3   -1    0    0    0  501  0.00000000000E+00  0.00000000000E+00 -0.51061336834E+03  0.51061337833E+03  0.10100000352E+00 0.  1.
    10030    2    1    2    0    0  0.00000000000E+00  0.00000000000E+00  0.30681824773E+03  0.13280450006E+04  0.12921169013E+04 0.  0.
        4    1    3    3  502    0 -0.61102178922E+03 -0.20417480227E+03  0.20328610582E+03  0.67554557988E+03  0.12699999809E+01 0. -1.
       -4    1    3    3    0  502  0.61102178922E+03  0.20417480227E+03  0.10353214191E+03  0.65249942076E+03  0.12699999809E+01 0.  1.
</event>
<event>
 5   0  0.2255875E-04  0.1300767E+04  0.7818609E-02  0.9028957E-01
        4   -1    0    0  501    0  0.00000000000E+00  0.00000000000E+00  0.53008647660E+03  0.53008799795E+03  0.12699999809E+01 0.  1.
       -4   -1    0    0    0  501  0.00000000000E+00  0.00000000000E+00 -0.79797738709E+03  0.79797839771E+03  0.12699999809E+01 0. -1.
    10030    2    1    2    0    0  0.00000000000E+00  0.00000000000E+00 -0.26789091049E+03  0.13280663957E+04  0.13007670089E+04 0.  0.
        2    1    3    3  502    0  0.19885313463E+03 -0.40007302651E+03  0.34862377858E+03  0.56669174574E+03  0.25500000920E-02 0.  1.
       -2    1    3    3    0  502 -0.19885313463E+03  0.40007302651E+03 -0.61651468907E+03  0.76137464992E+03  0.25500000920E-02 0. -1.
</event>
<event>
 5   0  0.3403833E-04  0.1325927E+04  0.7818609E-02  0.9009254E-01
        1   -1    0    0  501    0  0.00000000000E+00  0.00000000000E+00  0.14704813920E+04  0.14704813920E+04  0.50400001928E-02 0. -1.
       -1   -1    0    0    0  501  0.00000000000E+00  0.00000000000E+00 -0.29889584611E+03  0.29889584616E+03  0.50400001928E-02 0.  1.
    10030    2    1    2    0    0  0.00000000000E+00  0.00000000000E+00  0.11715855458E+04  0.17693772381E+04  0.13259272678E+04 0.  0.
        1    1    3    3  502    0  0.21667625843E+03 -0.32251895293E+03 -0.13103374118E+03  0.41004501865E+03  0.50400001928E-02 0.  1.
       -1    1    3    3    0  502 -0.21667625843E+03  0.32251895293E+03  0.13026192870E+04  0.13593322195E+04  0.50400001928E-02 0. -1.
</event>
<event>
 5   0  0.3335747E-04  0.1286711E+04  0.7818609E-02  0.9040170E-01
        1   -1    0    0  501    0  0.00000000000E+00  0.00000000000E+00  0.78435334220E+03  0.78435334221E+03  0.50400001928E-02 0.  1.
       -1   -1    0    0    0  501  0.00000000000E+00  0.00000000000E+00 -0.52770415194E+03  0.52770415197E+03  0.50400001928E-02 0. -1.
    10030    2    1    2    0    0  0.00000000000E+00  0.00000000000E+00  0.25664919025E+03  0.13120574942E+04  0.12867113356E+04 0.  0.
        3    1    3    3  502    0  0.37347605760E+03 -0.41687637081E+03  0.45180570219E+03  0.71930430061E+03  0.10100000352E+00 0. -1.
       -3    1    3    3    0  502 -0.37347605760E+03  0.41687637081E+03 -0.19515651194E+03  0.59275319357E+03  0.10100000352E+00 0.  1.
</event>
<event>
 5   0  0.3263679E-04  0.1300794E+04  0.7818609E-02  0.9028936E-01
        1   -1    0    0  501    0  0.00000000000E+00  0.00000000000E+00  0.12539771762E+04  0.12539771763E+04  0.50400001928E-02 0.  1.
       -1   -1    0    0    0  501  0.00000000000E+00  0.00000000000E+00 -0.33733957414E+03  0.33733957418E+03  0.50400001928E-02 0. -1.
    10030    2    1    2    0    0  0.00000000000E+00  0.00000000000E+00  0.91663760210E+03  0.15913167504E+04  0.13007937987E+04 0.  0.
        2    1    3    3  502    0 -0.22206965416E+03 -0.12975031571E+03  0.11891225960E+04  0.12166193423E+04  0.25500000920E-02 0.  1.
       -2    1    3    3    0  502  0.22206965416E+03  0.12975031571E+03 -0.27248499392E+03  0.37469740811E+03  0.25500000920E-02 0. -1.
</event>
<event>
 5   0  0.3335747E-04  0.1302197E+04  0.7818609E-02  0.9027825E-01
       -1   -1    0    0    0  501  0.00000000000E+00  0.00000000000E+00  0.12248538632E+04  0.12248538633E+04  0.50400001928E-02 0. -1.
        1   -1    0    0  501    0  0.00000000000E+00  0.00000000000E+00 -0.34610599856E+03  0.34610599859E+03  0.50400001928E-02 0.  1.
    10030    2    1    2    0    0  0.00000000000E+00  0.00000000000E+00  0.87874786469E+03  0.15709598618E+04  0.13021970196E+04 0.  0.
        3    1    3    3  502    0 -0.14947550771E+03  0.60903831235E+02 -0.32158783870E+03  0.35982072240E+03  0.10100000352E+00 0.  1.
       -3    1    3    3    0  502  0.14947550771E+03 -0.60903831235E+02  0.12003357034E+04  0.12111391394E+04  0.10100000352E+00 0. -1.
</event>
<event>
 5   0  0.3274879E-04  0.1298317E+04  0.7818609E-02  0.9030901E-01
       -1   -1    0    0    0  501  0.00000000000E+00  0.00000000000E+00  0.81804563915E+03  0.81804563916E+03  0.50400001928E-02 0.  1.
        1   -1    0    0  501    0  0.00000000000E+00  0.00000000000E+00 -0.51513841711E+03  0.51513841713E+03  0.50400001928E-02 0. -1.
    10030    2    1    2    0    0  0.00000000000E+00  0.00000000000E+00  0.30290722204E+03  0.13331840563E+04  0.12983169655E+04 0.  0.
        4    1    3    3  502    0 -0.63922840615E+03 -0.66445050521E+02  0.57468423382E+02  0.64523804333E+03  0.12699999809E+01 0. -1.
       -4    1    3    3    0  502  0.63922840615E+03  0.66445050521E+02  0.24543879866E+03  0.68794601297E+03  0.12699999809E+01 0.  1.
</event>
<event>
 5   0  0.3263679E-04  0.1295048E+04  0.7818609E-02  0.9033501E-01
        1   -1    0    0  501    0  0.00000000000E+00  0.00000000000E+00  0.11220258179E+04  0.11220258179E+04  0.50400001928E-02 0. -1.
       -1   -1    0    0    0  501  0.00000000000E+00  0.00000000000E+00 -0.37368793069E+03  0.37368793073E+03  0.50400001928E-02 0.  1.
    10030    2    1    2    0    0  0.00000000000E+00  0.00000000000E+00  0.74833788719E+03  0.14957137486E+04  0.12950482711E+04 0.  0.
        2    1    3    3  502    0  0.26965014508E+03 -0.51328003700E+03  0.41191312907E+02  0.58126097529E+03  0.25500000920E-02 0.  1.
       -2    1    3    3    0  502 -0.26965014508E+03  0.51328003700E+03  0.70714657428E+03  0.91445277333E+03  0.25500000920E-02 0. -1.
</event>
<event>
 5   0  0.6052864E-04  0.1297768E+04  0.7818609E-02  0.9031337E-01
       -2   -1    0    0    0  501  0.00000000000E+00  0.00000000000E+00  0.40347069356E+03  0.40347069357E+03  0.25500000920E-02 0.  1.
        2   -1    0    0  501    0  0.00000000000E+00  0.00000000000E+00 -0.10435712187E+04  0.10435712187E+04  0.25500000920E-02 0. -1.
    10030    2    1    2    0    0  0.00000000000E+00  0.00000000000E+00 -0.64010052517E+03  0.14470419123E+04  0.12977679352E+04 0.  0.
        2    1    3    3  502    0  0.12667988865E+03 -0.48221099058E+03  0.14302049994E+03  0.51868111304E+03  0.25500000920E-02 0.  1.
       -2    1    3    3    0  502 -0.12667988865E+03  0.48221099058E+03 -0.78312102510E+03  0.92836079925E+03  0.25500000920E-02 0. -1.
</event>
<event>
 5   0  0.3263679E-04  0.1299010E+04  0.7818609E-02  0.9030351E-01
        1   -1    0    0  501    0  0.00000000000E+00  0.00000000000E+00  0.10044836022E+04  0.10044836022E+04  0.50400001928E-02 0.  1.
       -1   -1    0    0    0  501  0.00000000000E+00  0.00000000000E+00 -0.41997374063E+03  0.41997374066E+03  0.50400001928E-02 0. -1.
    10030    2    1    2    0    0  0.00000000000E+00  0.00000000000E+00  0.58450986158E+03  0.14244573429E+04  0.12990099859E+04 0.  0.
        2    1    3    3  502    0  0.49581141779E+03  0.16791254042E+03  0.71387655592E+03  0.88523630763E+03  0.25500000920E-02 0.  1.
       -2    1    3    3    0  502 -0.49581141779E+03 -0.16791254042E+03 -0.12936669434E+03  0.53922103525E+03  0.25500000920E-02 0. -1.
</event>
<event>
 5   0  0.3337520E-04  0.1329612E+04  0.7818609E-02  0.9006407E-01
       -1   -1    0    0    0  501  0.00000000000E+00  0.00000000000E+00  0.37095172490E+03  0.37095172494E+03  0.50400001928E-02 0. -1.
        1   -1    0    0  501    0  0.00000000000E+00  0.00000000000E+00 -0.11914408698E+04  0.11914408698E+04  0.50400001928E-02 0.  1.
    10030    2    1    2    0    0  0.00000000000E+00  0.00000000000E+00 -0.82048914488E+03  0.15623925947E+04  0.13296120424E+04 0.  0.
        5    1    3    3  502    0  0.64165395611E+03 -0.12292428101E+03 -0.55471072674E+03  0.85706257567E+03  0.46999998093E+01 0.  1.
       -5    1    3    3    0  502 -0.64165395611E+03  0.12292428101E+03 -0.26577841814E+03  0.70533001907E+03  0.46999998093E+01 0. -1.
</event>
<event>
 5   0  0.2255875E-04  0.1300422E+04  0.7818609E-02  0.9029231E-01
       -3   -1    0    0    0  501  0.00000000000E+00  0.00000000000E+00  0.24949428858E+03  0.24949430902E+03  0.10100000352E+00 0. -1.
        3   -1    0    0  501    0  0.00000000000E+00  0.00000000000E+00 -0.16945253053E+04  0.16945253083E+04  0.10100000352E+00 0.  1.
    10030    2    1    2    0    0  0.00000000000E+00  0.00000000000E+00 -0.14450310168E+04  0.19440196174E+04  0.13004220981E+04 0.  0.
        2    1    3    3  502    0 -0.26237757926E+03  0.35875799230E+03 -0.13060738341E+02  0.44465702966E+03  0.25500000920E-02 0. -1.
       -2    1    3    3    0  502  0.26237757926E+03 -0.35875799230E+03 -0.14319702784E+04  0.14993625877E+04  0.25500000920E-02 0.  1.
</event>
<event>
 5   0  0.5384960E-04  0.1297090E+04  0.7818609E-02  0.9031876E-01
       -2   -1    0    0    0  501  0.00000000000E+00  0.00000000000E+00  0.49505065051E+03  0.49505065052E+03  0.25500000920E-02 0. -1.
        2   -1    0    0  501    0  0.00000000000E+00  0.00000000000E+00 -0.84963208316E+03  0.84963208317E+03  0.25500000920E-02 0.  1.
    10030    2    1    2    0    0  0.00000000000E+00  0.00000000000E+00 -0.35458143265E+03  0.13446827337E+04  0.12970904602E+04 0.  0.
        3    1    3    3  502    0 -0.46467746367E+03 -0.39982355369E+03 -0.39678279337E+03  0.73021956605E+03  0.10100000352E+00 0.  1.
       -3    1    3    3    0  502  0.46467746367E+03  0.39982355369E+03  0.42201360716E+02  0.61446316763E+03  0.10100000352E+00 0. -1.
</event>
<event>
 5   0  0.5384960E-04  0.1299654E+04  0.7818609E-02  0.9029839E-01
       -2   -1    0    0    0  501  0.00000000000E+00  0.00000000000E+00  0.40674626981E+03  0.40674626982E+03  0.25500000920E-02 0.  1.
        2   -1    0    0  501    0  0.00000000000E+00  0.00000000000E+00 -0.10381790183E+04  0.10381790183E+04  0.25500000920E-02 0. -1.
    10030    2    1    2    0    0  0.00000000000E+00  0.00000000000E+00 -0.63143274849E+03  0.14449252881E+04  0.12996544819E+04 0.  0.
        3    1    3    3  502    0 -0.25507875006E+03 -0.59444162649E+03 -0.24673768224E+03  0.69231893667E+03  0.10100000352E+00 0.  1.
       -3    1    3    3    0  502  0.25507875006E+03  0.59444162649E+03 -0.38469506625E+03  0.75260635145E+03  0.10100000352E+00 0. -1.
</event>
<event>
 5   0  0.5787604E-04  0.1299689E+04  0.7818609E-02  0.9029812E-01
       -2   -1    0    0    0  501  0.00000000000E+00  0.00000000000E+00  0.63841606222E+03  0.63841606222E+03  0.25500000920E-02 0.  1.
        2   -1    0    0  501    0  0.00000000000E+00  0.00000000000E+00 -0.66147717842E+03  0.66147717843E+03  0.25500000920E-02 0. -1.
    10030    2    1    2    0    0  0.00000000000E+00  0.00000000000E+00 -0.23061116204E+02  0.12998932406E+04  0.12996886635E+04 0.  0.
        4    1    3    3  502    0 -0.18612742951E+03  0.57843167859E+03  0.21887370370E+03  0.64585906968E+03  0.12699999809E+01 0.  1.
       -4    1    3    3    0  502  0.18612742951E+03 -0.57843167859E+03 -0.24193481990E+03  0.65403417097E+03  0.12699999809E+01 0. -1.
</event>
<event>
 5   0  0.5384960E-04  0.1283010E+04  0.7818609E-02  0.9043148E-01
       -2   -1    0    0    0  501  0.00000000000E+00  0.00000000000E+00  0.33312470570E+03  0.33312470571E+03  0.25500000920E-02 0.  1.
        2   -1    0    0  501    0  0.00000000000E+00  0.00000000000E+00 -0.12353596255E+04  0.12353596255E+04  0.25500000920E-02 0. -1.
    10030    2    1    2    0    0  0.00000000000E+00  0.00000000000E+00 -0.90223491977E+03  0.15684843312E+04  0.12830102286E+04 0.  0.
        3    1    3    3  502    0  0.55413717244E+03 -0.30627535359E+03 -0.57731512391E+03  0.85683450012E+03  0.10100000352E+00 0. -1.
       -3    1    3    3    0  502 -0.55413717244E+03  0.30627535359E+03 -0.32491979587E+03  0.71164983106E+03  0.10100000352E+00 0.  1.
</event>
<event>
 5   0  0.5957913E-04  0.1300144E+04  0.7818609E-02  0.9029451E-01
        2   -1    0    0  501    0  0.00000000000E+00  0.00000000000E+00  0.85390333744E+03  0.85390333745E+03  0.25500000920E-02 0.  1.
       -2   -1    0    0    0  501  0.00000000000E+00  0.00000000000E+00 -0.49489628131E+03  0.49489628131E+03  0.25500000920E-02 0. -1.
    10030    2    1    2    0    0  0.00000000000E+00  0.00000000000E+00  0.35900705614E+03  0.13487996188E+04  0.13001439710E+04 0.  0.
        1    1    3    3  502    0  0.46517038210E+03  0.85264566426E+02  0.64222228611E+03  0.79756065317E+03  0.50400001928E-02 0. -1.
       -1    1    3    3    0  502 -0.46517038210E+03 -0.85264566426E+02 -0.28321522997E+03  0.55123896559E+03  0.50400001928E-02 0.  1.
</event>
<event>
 5   0  0.5384960E-04  0.1298407E+04  0.7818609E-02  0.9030829E-01
        2   -1    0    0  501    0  0.00000000000E+00  0.00000000000E+00  0.74389980708E+03  0.74389980708E+03  0.25500000920E-02 0.  1.
       -2   -1    0    0    0  501  0.00000000000E+00  0.00000000000E+00 -0.56656191686E+03  0.56656191686E+03  0.25500000920E-02 0. -1.
    10030    2    1    2    0    0  0.00000000000E+00  0.00000000000E+00  0.17733789022E+03  0.13104617239E+04  0.12984071791E+04 0.  0.
        3    1    3    3  502    0 -0.56848026137E+03 -0.28688389057E+03 -0.38969051521E+02  0.63795828345E+03  0.10100000352E+00 0. -1.
       -3    1    3    3    0  502  0.56848026137E+03  0.28688389057E+03  0.21630694174E+03  0.67250344050E+03  0.10100000352E+00 0.  1.
</event>
<event>
 5   0  0.6007125E-04  0.1297474E+04  0.7818609E-02  0.9031571E-01
        2   -1    0    0  501    0  0.00000000000E+00  0.00000000000E+00  0.46534237716E+03  0.46534237716E+03  0.25500000920E-02 0.  1.
       -2   -1    0    0    0  501  0.00000000000E+00  0.00000000000E+00 -0.90440887862E+03  0.90440887863E+03  0.25500000920E-02 0. -1.
    10030    2    1    2    0    0  0.00000000000E+00  0.00000000000E+00 -0.43906650147E+03  0.13697512558E+04  0.12974741269E+04 0.  0.
        5    1    3    3  502    0  0.51723907827E+01 -0.60783409309E+03  0.19692272145E+02  0.60819315511E+03  0.46999998093E+01 0. -1.
       -5    1    3    3    0  502 -0.51723907827E+01  0.60783409309E+03 -0.45875877361E+03  0.76155810068E+03  0.46999998093E+01 0.  1.
</event>
<event>
 5   0  0.3335747E-04  0.1300475E+04  0.7818609E-02  0.9029188E-01
       -1   -1    0    0    0  501  0.00000000000E+00  0.00000000000E+00  0.10585891284E+04  0.10585891284E+04  0.50400001928E-02 0.  1.
        1   -1    0    0  501    0  0.00000000000E+00  0.00000000000E+00 -0.39940803376E+03  0.39940803380E+03  0.50400001928E-02 0. -1.
    10030    2    1    2    0    0  0.00000000000E+00  0.00000000000E+00  0.65918109463E+03  0.14579971622E+04  0.13004753014E+04 0.  0.
        3    1    3    3  502    0 -0.29539803955E+03 -0.36119295849E+03  0.83731183139E+03  0.95854653941E+03  0.10100000352E+00 0.  1.
       -3    1    3    3    0  502  0.29539803955E+03  0.36119295849E+03 -0.17813073676E+03  0.49945062279E+03  0.10100000352E+00 0. -1.
</event>
<event>
 5   0  0.3403833E-04  0.1296441E+04  0.7818609E-02  0.9032392E-01
       -1   -1    0    0    0  501  0.00000000000E+00  0.00000000000E+00  0.56514313690E+03  0.56514313693E+03  0.50400001928E-02 0. -1.
        1   -1    0    0  501    0  0.00000000000E+00  0.00000000000E+00 -0.74351094740E+03  0.74351094742E+03  0.50400001928E-02 0.  1.
    10030    2    1    2    0    0  0.00000000000E+00  0.00000000000E+00 -0.17836781050E+03  0.13086540843E+04  0.12964414513E+04 0.  0.
        1    1    3    3  502    0 -0.32408033429E+03 -0.47915139809E+03 -0.38447333888E+03  0.69457459909E+03  0.50400001928E-02 0. -1.
       -1    1    3    3    0  502  0.32408033429E+03  0.47915139809E+03  0.20610552838E+03  0.61407948526E+03  0.50400001928E-02 0.  1.
</event>
<event>
 5   0  0.3335747E-04  0.1299288E+04  0.7818609E-02  0.9030130E-01
        1   -1    0    0  501    0  0.00000000000E+00  0.00000000000E+00  0.38113709111E+03  0.38113709115E+03  0.50400001928E-02 0. -1.
       -1   -1    0    0    0  501  0.00000000000E+00  0.00000000000E+00 -0.11073111236E+04  0.11073111237E+04  0.50400001928E-02 0.  1.
    10030    2    1    2    0    0  0.00000000000E+00  0.00000000000E+00 -0.72617403253E+03  0.14884482148E+04  0.12992880214E+04 0.  0.
        3    1    3    3  502    0  0.20736878748E+03 -0.45623674470E+03  0.11047670305E+03  0.51318504786E+03  0.10100000352E+00 0. -1.
       -3    1    3    3    0  502 -0.20736878748E+03  0.45623674470E+03 -0.83665073558E+03  0.97526316694E+03  0.10100000352E+00 0.  1.
</event>
<event>
 5   0  0.3274879E-04  0.1296254E+04  0.7818609E-02  0.9032541E-01
       -1   -1    0    0    0  501  0.00000000000E+00  0.00000000000E+00  0.16070494133E+03  0.16070494140E+03  0.50400001928E-02 0. -1.
        1   -1    0    0  501    0  0.00000000000E+00  0.00000000000E+00 -0.26139116633E+04  0.26139116633E+04  0.50400001928E-02 0.  1.
    10030    2    1    2    0    0  0.00000000000E+00  0.00000000000E+00 -0.24532067220E+04  0.27746166047E+04  0.12962538650E+04 0.  0.
        4    1    3    3  502    0  0.47557590670E+03 -0.13620075171E+03 -0.21229131683E+04  0.21797901323E+04  0.12699999809E+01 0.  1.
       -4    1    3    3    0  502 -0.47557590670E+03  0.13620075171E+03 -0.33029355370E+03  0.59482647244E+03  0.12699999809E+01 0. -1.
</event>
<event>
 5   0  0.3274879E-04  0.1301142E+04  0.7818609E-02  0.9028660E-01
        1   -1    0    0  501    0  0.00000000000E+00  0.00000000000E+00  0.14444038061E+04  0.14444038061E+04  0.50400001928E-02 0.  1.
       -1   -1    0    0    0  501  0.00000000000E+00  0.00000000000E+00 -0.29302250062E+03  0.29302250067E+03  0.50400001928E-02 0. -1.
    10030    2    1    2    0    0  0.00000000000E+00  0.00000000000E+00  0.11513813055E+04  0.17374263068E+04  0.13011422908E+04 0.  0.
        4    1    3    3  502    0  0.36060832382E+03 -0.50286761851E+03  0.30753957700E+03  0.69101114989E+03  0.12699999809E+01 0.  1.
       -4    1    3    3    0  502 -0.36060832382E+03  0.50286761851E+03  0.84384172850E+03  0.10464151569E+04  0.12699999809E+01 0. -1.
</event>
<event>
 5   0  0.5787604E-04  0.1298636E+04  0.7818609E-02  0.9030648E-01
       -2   -1    0    0    0  501  0.00000000000E+00  0.00000000000E+00  0.52066634052E+03  0.52066634053E+03  0.25500000920E-02 0. -1.
        2   -1    0    0  501    0  0.00000000000E+00  0.00000000000E+00 -0.80975771913E+03  0.80975771913E+03  0.25500000920E-02 0.  1.
    10030    2    1    2    0    0  0.00000000000E+00  0.00000000000E+00 -0.28909137860E+03  0.13304240597E+04  0.12986355737E+04 0.  0.
        4    1    3    3  502    0 -0.40831081553E+03 -0.11127179421E+03 -0.64905613734E+03  0.77483844547E+03  0.12699999809E+01 0.  1.
       -4    1    3    3    0  502  0.40831081553E+03  0.11127179421E+03  0.35996475873E+03  0.55558561419E+03  0.12699999809E+01 0. -1.
</event>
<event>
 5   0  0.5384960E-04  0.1296616E+04  0.7818609E-02  0.9032253E-01
       -2   -1    0    0    0  501  0.00000000000E+00  0.00000000000E+00  0.22066094518E+03  0.22066094519E+03  0.25500000920E-02 0.  1.
        2   -1    0    0  501    0  0.00000000000E+00  0.00000000000E+00 -0.19047469868E+04  0.19047469868E+04  0.25500000920E-02 0. -1.
    10030    2    1    2    0    0  0.00000000000E+00  0.00000000000E+00 -0.16840860416E+04  0.21254079320E+04  0.12966160117E+04 0.  0.
        3    1    3    3  502    0  0.39438510356E+03  0.19577574513E+03 -0.62027611962E+02  0.44465175940E+03  0.10100000352E+00 0.  1.
       -3    1    3    3    0  502 -0.39438510356E+03 -0.19577574513E+03 -0.16220584297E+04  0.16807561726E+04  0.10100000352E+00 0. -1.
</event>
<event>
 5   0  0.3274879E-04  0.1300100E+04  0.7818609E-02  0.9029486E-01
       -1   -1    0    0    0  501  0.00000000000E+00  0.00000000000E+00  0.40531112874E+03  0.40531112877E+03  0.50400001928E-02 0. -1.
        1   -1    0    0  501    0  0.00000000000E+00  0.00000000000E+00 -0.10425692411E+04  0.10425692411E+04  0.50400001928E-02 0.  1.
    10030    2    1    2    0    0  0.00000000000E+00  0.00000000000E+00 -0.63725811239E+03  0.14478803699E+04  0.13000998668E+04 0.  0.
        4    1    3    3  502    0 -0.44836901947E+03  0.34679649196E+03  0.35756871979E+02  0.56796368832E+03  0.12699999809E+01 0. -1.
       -4    1    3    3    0  502  0.44836901947E+03 -0.34679649196E+03 -0.67301498437E+03  0.87991668159E+03  0.12699999809E+01 0.  1.
</event>
<event>
 5   0  0.5384960E-04  0.1297812E+04  0.7818609E-02  0.9031302E-01
        2   -1    0    0  501    0  0.00000000000E+00  0.00000000000E+00  0.16709515247E+04  0.16709515247E+04  0.25500000920E-02 0. -1.
       -2   -1    0    0    0  501  0.00000000000E+00  0.00000000000E+00 -0.25199944510E+03  0.25199944512E+03  0.25500000920E-02 0.  1.
    10030    2    1    2    0    0  0.00000000000E+00  0.00000000000E+00  0.14189520796E+04  0.19229509698E+04  0.12978117846E+04 0.  0.
        3    1    3    3  502    0  0.46717468173E+03  0.14925343586E+02  0.13764062583E+04  0.14536055680E+04  0.10100000352E+00 0. -1.
       -3    1    3    3    0  502 -0.46717468173E+03 -0.14925343586E+02  0.42545821295E+02  0.46934540185E+03  0.10100000352E+00 0.  1.
</event>
<event>
 5   0  0.5957913E-04  0.1300910E+04  0.7818609E-02  0.9028844E-01
        2   -1    0    0  501    0  0.00000000000E+00  0.00000000000E+00  0.41136500301E+03  0.41136500301E+03  0.25500000920E-02 0.  1.
       -2   -1    0    0    0  501  0.00000000000E+00  0.00000000000E+00 -0.10285069839E+04  0.10285069839E+04  0.25500000920E-02 0. -1.
    10030    2    1    2    0    0  0.00000000000E+00  0.00000000000E+00 -0.61714198093E+03  0.14398719870E+04  0.13009101100E+04 0.  0.
        1    1    3    3  502    0 -0.84245132041E+02 -0.52335802164E+03 -0.72578583559E+03  0.89875799872E+03  0.50400001928E-02 0. -1.
       -1    1    3    3    0  502  0.84245132041E+02  0.52335802164E+03  0.10864385466E+03  0.54111398824E+03  0.50400001928E-02 0.  1.
</event>
<event>
 5   0  0.6052864E-04  0.1322928E+04  0.7818609E-02  0.9011578E-01
        2   -1    0    0  501    0  0.00000000000E+00  0.00000000000E+00  0.12027272765E+04  0.12027272765E+04  0.25500000920E-02 0. -1.
       -2   -1    0    0    0  501  0.00000000000E+00  0.00000000000E+00 -0.36378539514E+03  0.36378539515E+03  0.25500000920E-02 0.  1.
    10030    2    1    2    0    0  0.00000000000E+00  0.00000000000E+00  0.83894188135E+03  0.15665126716E+04  0.13229279913E+04 0.  0.
        2    1    3    3  502    0 -0.26972498626E+03  0.18959973829E+02  0.11342979193E+04  0.11660801081E+04  0.25500000920E-02 0. -1.
       -2    1    3    3    0  502  0.26972498626E+03 -0.18959973829E+02 -0.29535603791E+03  0.40043256355E+03  0.25500000920E-02 0.  1.
</event>
<event>
 5   0  0.2255875E-04  0.1298351E+04  0.7818609E-02  0.9030874E-01
        4   -1    0    0  501    0  0.00000000000E+00  0.00000000000E+00  0.19314415517E+04  0.19314419692E+04  0.12699999809E+01 0.  1.
       -4   -1    0    0    0  501  0.00000000000E+00  0.00000000000E+00 -0.21819166869E+03  0.21819536472E+03  0.12699999809E+01 0. -1.
    10030    2    1    2    0    0  0.00000000000E+00  0.00000000000E+00  0.17132498830E+04  0.21496373340E+04  0.12983510719E+04 0.  0.
        4    1    3    3  502    0 -0.27283914259E+03 -0.41429079222E+03  0.16331894529E+03  0.52225735901E+03  0.12699999809E+01 0. -1.
       -4    1    3    3    0  502  0.27283914259E+03  0.41429079222E+03  0.15499309377E+04  0.16273799750E+04  0.12699999809E+01 0.  1.
</event>
<event>
 5   0  0.3274879E-04  0.1346281E+04  0.7818609E-02  0.8993648E-01
        1   -1    0    0  501    0  0.00000000000E+00  0.00000000000E+00  0.16761428878E+04  0.16761428878E+04  0.50400001928E-02 0. -1.
       -1   -1    0    0    0  501  0.00000000000E+00  0.00000000000E+00 -0.27033397438E+03  0.27033397443E+03  0.50400001928E-02 0.  1.
    10030    2    1    2    0    0  0.00000000000E+00  0.00000000000E+00  0.14058089135E+04  0.19464768623E+04  0.13462813503E+04 0.  0.
        4    1    3    3  502    0  0.30633742615E+03  0.76643652476E+02 -0.15659700466E+03  0.35247851409E+03  0.12699999809E+01 0.  1.
       -4    1    3    3    0  502 -0.30633742615E+03 -0.76643652476E+02  0.15624059181E+04  0.15939983482E+04  0.12699999809E+01 0. -1.
</event>
<event>
 5   0  0.6007125E-04  0.1296262E+04  0.7818609E-02  0.9032535E-01
        2   -1    0    0  501    0  0.00000000000E+00  0.00000000000E+00  0.12243254079E+04  0.12243254079E+04  0.25500000920E-02 0. -1.
       -2   -1    0    0    0  501  0.00000000000E+00  0.00000000000E+00 -0.34310614734E+03  0.34310614735E+03  0.25500000920E-02 0.  1.
    10030    2    1    2    0    0  0.00000000000E+00  0.00000000000E+00  0.88121926057E+03  0.15674315553E+04  0.12962616615E+04 0.  0.
        5    1    3    3  502    0 -0.37006272122E+03 -0.24410469116E+03 -0.13106922270E+03  0.46231455636E+03  0.46999998093E+01 0.  1.
       -5    1    3    3    0  502  0.37006272122E+03  0.24410469116E+03  0.10122884833E+04  0.11051169989E+04  0.46999998093E+01 0. -1.
</event>
<event>
 5   0  0.6007125E-04  0.1299250E+04  0.7818609E-02  0.9030160E-01
        2   -1    0    0  501    0  0.00000000000E+00  0.00000000000E+00  0.83894381343E+03  0.83894381343E+03  0.25500000920E-02 0. -1.
       -2   -1    0    0    0  501  0.00000000000E+00  0.00000000000E+00 -0.50302858473E+03  0.50302858474E+03  0.25500000920E-02 0.  1.
    10030    2    1    2    0    0  0.00000000000E+00  0.00000000000E+00  0.33591522870E+03  0.13419723982E+04  0.12992501209E+04 0.  0.
        5    1    3    3  502    0 -0.55367121909E+03  0.89168497632E+02 -0.17067624709E+03  0.58622121348E+03  0.46999998093E+01 0.  1.
       -5    1    3    3    0  502  0.55367121909E+03 -0.89168497632E+02  0.50659147579E+03  0.75575118469E+03  0.46999998093E+01 0. -1.
</event>
<event>
 5   0  0.3337520E-04  0.1297793E+04  0.7818609E-02  0.9031318E-01
        1   -1    0    0  501    0  0.00000000000E+00  0.00000000000E+00  0.75575094958E+03  0.75575094960E+03  0.50400001928E-02 0.  1.
       -1   -1    0    0    0  501  0.00000000000E+00  0.00000000000E+00 -0.55714963178E+03  0.55714963181E+03  0.50400001928E-02 0. -1.
    10030    2    1    2    0    0  0.00000000000E+00  0.00000000000E+00  0.19860131780E+03  0.13129005814E+04  0.12977925309E+04 0.  0.
        5    1    3    3  502    0  0.60019796417E+03  0.22915551193E+03  0.19143463275E+03  0.67038731600E+03  0.46999998093E+01 0.  1.
       -5    1    3    3    0  502 -0.60019796417E+03 -0.22915551193E+03  0.71666850551E+01  0.64251326540E+03  0.46999998093E+01 0. -1.
</event>
<event>
 5   0  0.3274879E-04  0.1285928E+04  0.7818609E-02  0.9040799E-01
        1   -1    0    0  501    0  0.00000000000E+00  0.00000000000E+00  0.66517409544E+03  0.66517409545E+03  0.50400001928E-02 0.  1.
       -1   -1    0    0    0  501  0.00000000000E+00  0.00000000000E+00 -0.62149544540E+03  0.62149544542E+03  0.50400001928E-02 0. -1.
    10030    2    1    2    0    0  0.00000000000E+00  0.00000000000E+00  0.43678650038E+02  0.12866695409E+04  0.12859279462E+04 0.  0.
        4    1    3    3  502    0  0.13092100640E+03 -0.11154729432E+03 -0.59804838442E+03  0.62229140424E+03  0.12699999809E+01 0. -1.
       -4    1    3    3    0  502 -0.13092100640E+03  0.11154729432E+03  0.64172703445E+03  0.66437813663E+03  0.12699999809E+01 0.  1.
</event>
<event>
 5   0  0.3335747E-04  0.1304898E+04  0.7818609E-02  0.9025690E-01
       -1   -1    0    0    0  501  0.00000000000E+00  0.00000000000E+00  0.36735624027E+03  0.36735624030E+03  0.50400001928E-02 0.  1.
        1   -1    0    0  501    0  0.00000000000E+00  0.00000000000E+00 -0.11587921343E+04  0.11587921343E+04  0.50400001928E-02 0. -1.
    10030    2    1    2    0    0  0.00000000000E+00  0.00000000000E+00 -0.79143589403E+03  0.15261483746E+04  0.13048977305E+04 0.  0.
        3    1    3    3  502    0 -0.59862331894E+02 -0.64888250556E+03 -0.43375105819E+03  0.78279754438E+03  0.10100000352E+00 0. -1.
       -3    1    3    3    0  502  0.59862331894E+02  0.64888250556E+03 -0.35768483584E+03  0.74335083023E+03  0.10100000352E+00 0.  1.
</event>
<event>
 5   0  0.2255875E-04  0.1294326E+04  0.7818609E-02  0.9034077E-01
        3   -1    0    0  501    0  0.00000000000E+00  0.00000000000E+00  0.31885877753E+03  0.31885879353E+03  0.10100000352E+00 0.  1.
       -3   -1    0    0    0  501  0.00000000000E+00  0.00000000000E+00 -0.13134970816E+04  0.13134970855E+04  0.10100000352E+00 0. -1.
    10030    2    1    2    0    0  0.00000000000E+00  0.00000000000E+00 -0.99463830407E+03  0.16323558790E+04  0.12943262185E+04 0.  0.
        3    1    3    3  502    0  0.10730855998E+03  0.20929106512E+03  0.26305023340E+03  0.35286443924E+03  0.10100000352E+00 0.  1.
       -3    1    3    3    0  502 -0.10730855998E+03 -0.20929106512E+03 -0.12576885375E+04  0.12794914398E+04  0.10100000352E+00 0. -1.
</event>
<event>
 5   0  0.3337520E-04  0.1330449E+04  0.7818609E-02  0.9005761E-01
       -1   -1    0    0    0  501  0.00000000000E+00  0.00000000000E+00  0.11902647063E+04  0.11902647063E+04  0.50400001928E-02 0.  1.
        1   -1    0    0  501    0  0.00000000000E+00  0.00000000000E+00 -0.37178580699E+03  0.37178580702E+03  0.50400001928E-02 0. -1.
    10030    2    1    2    0    0  0.00000000000E+00  0.00000000000E+00  0.81847889931E+03  0.15620505133E+04  0.13304488331E+04 0.  0.
        5    1    3    3  502    0 -0.55535052832E+03  0.35581230312E+03  0.51081469229E+03  0.83424837082E+03  0.46999998093E+01 0.  1.
       -5    1    3    3    0  502  0.55535052832E+03 -0.35581230312E+03  0.30766420701E+03  0.72780214251E+03  0.46999998093E+01 0. -1.
</event>
<event>
 5   0  0.3274879E-04  0.1303004E+04  0.7818609E-02  0.9027186E-01
        1   -1    0    0  501    0  0.00000000000E+00  0.00000000000E+00  0.87603395927E+03  0.87603395929E+03  0.50400001928E-02 0. -1.
       -1   -1    0    0    0  501  0.00000000000E+00  0.00000000000E+00 -0.48451907848E+03  0.48451907850E+03  0.50400001928E-02 0.  1.
    10030    2    1    2    0    0  0.00000000000E+00  0.00000000000E+00  0.39151488079E+03  0.13605530378E+04  0.13030044769E+04 0.  0.
        4    1    3    3  502    0  0.57201375724E+03  0.26411191432E+03  0.22606145001E+02  0.63045022996E+03  0.12699999809E+01 0.  1.
       -4    1    3    3    0  502 -0.57201375724E+03 -0.26411191432E+03  0.36890873579E+03  0.73010280783E+03  0.12699999809E+01 0. -1.
</event>
<event>
 5   0  0.2255875E-04  0.1293462E+04  0.7818609E-02  0.9034766E-01
        3   -1    0    0  501    0  0.00000000000E+00  0.00000000000E+00  0.68283415927E+03  0.68283416674E+03  0.10100000352E+00 0.  1.
       -3   -1    0    0    0  501  0.00000000000E+00  0.00000000000E+00 -0.61253710682E+03  0.61253711515E+03  0.10100000352E+00 0. -1.
    10030    2    1    2    0    0  0.00000000000E+00  0.00000000000E+00  0.70297052449E+02  0.12953712819E+04  0.12934624395E+04 0.  0.
        2    1    3    3  502    0 -0.48080256871E+03 -0.91306756576E+02 -0.38826760525E+03  0.62470774541E+03  0.25500000920E-02 0. -1.
       -2    1    3    3    0  502  0.48080256871E+03  0.91306756576E+02  0.45856465770E+03  0.67066353649E+03  0.25500000920E-02 0.  1.
</event>
<event>
 5   0  0.5957913E-04  0.1266365E+04  0.7818609E-02  0.9056672E-01
       -2   -1    0    0    0  501  0.00000000000E+00  0.00000000000E+00  0.34031413622E+03  0.34031413623E+03  0.25500000920E-02 0.  1.
        2   -1    0    0  501    0  0.00000000000E+00  0.00000000000E+00 -0.11780878644E+04  0.11780878644E+04  0.25500000920E-02 0. -1.
    10030    2    1    2    0    0  0.00000000000E+00  0.00000000000E+00 -0.83777372813E+03  0.15184020006E+04  0.12663648036E+04 0.  0.
        1    1    3    3  502    0 -0.52687613906E+03  0.28008996076E+03 -0.67287375570E+03  0.89933750236E+03  0.50400001928E-02 0. -1.
       -1    1    3    3    0  502  0.52687613906E+03 -0.28008996076E+03 -0.16489997244E+03  0.61906449823E+03  0.50400001928E-02 0.  1.
</event>
<event>
 5   0  0.3403833E-04  0.1264194E+04  0.7818609E-02  0.9058452E-01
        1   -1    0    0  501    0  0.00000000000E+00  0.00000000000E+00  0.96534258055E+03  0.96534258056E+03  0.50400001928E-02 0. -1.
       -1   -1    0    0    0  501  0.00000000000E+00  0.00000000000E+00 -0.41389086591E+03  0.41389086594E+03  0.50400001928E-02 0.  1.
    10030    2    1    2    0    0  0.00000000000E+00  0.00000000000E+00  0.55145171464E+03  0.13792334465E+04  0.12641937772E+04 0.  0.
        1    1    3    3  502    0  0.49024643091E+03  0.26139263007E+03 -0.53167755476E+02  0.55811690560E+03  0.50400001928E-02 0.  1.
       -1    1    3    3    0  502 -0.49024643091E+03 -0.26139263007E+03  0.60461947011E+03  0.82111654090E+03  0.50400001928E-02 0. -1.
</event>
<event>
 5   0  0.5787604E-04  0.1300157E+04  0.7818609E-02  0.9029441E-01
        2   -1    0    0  501    0  0.00000000000E+00  0.00000000000E+00  0.11036078659E+04  0.11036078659E+04  0.25500000920E-02 0. -1.
       -2   -1    0    0    0  501  0.00000000000E+00  0.00000000000E+00 -0.38292775176E+03  0.38292775177E+03  0.25500000920E-02 0.  1.
    10030    2    1    2    0    0  0.00000000000E+00  0.00000000000E+00  0.72068011413E+03  0.14865356177E+04  0.13001570350E+04 0.  0.
        4    1    3    3  502    0  0.11527852077E+03 -0.99940246796E+01 -0.37105731696E+03  0.38868259962E+03  0.12699999809E+01 0.  1.
       -4    1    3    3    0  502 -0.11527852077E+03  0.99940246796E+01  0.10917374311E+04  0.10978530180E+04  0.12699999809E+01 0. -1.
</event>
<event>
 5   0  0.6007125E-04  0.1305905E+04  0.7818609E-02  0.9024896E-01
       -2   -1    0    0    0  501  0.00000000000E+00  0.00000000000E+00  0.18799989708E+03  0.18799989710E+03  0.25500000920E-02 0. -1.
        2   -1    0    0  501    0  0.00000000000E+00  0.00000000000E+00 -0.22678035247E+04  0.22678035247E+04  0.25500000920E-02 0.  1.
    10030    2    1    2    0    0  0.00000000000E+00  0.00000000000E+00 -0.20798036276E+04  0.24558034218E+04  0.13059047886E+04 0.  0.
        5    1    3    3  502    0 -0.25745476175E+03  0.38660468415E+03 -0.17694471441E+03  0.49706906775E+03  0.46999998093E+01 0. -1.
       -5    1    3    3    0  502  0.25745476175E+03 -0.38660468415E+03 -0.19028589132E+04  0.19587343540E+04  0.46999998093E+01 0.  1.
</event>
<event>
 5   0  0.2255875E-04  0.1301092E+04  0.7818609E-02  0.9028700E-01
        4   -1    0    0  501    0  0.00000000000E+00  0.00000000000E+00  0.51439878535E+03  0.51440035310E+03  0.12699999809E+01 0. -1.
       -4   -1    0    0    0  501  0.00000000000E+00  0.00000000000E+00 -0.82272450332E+03  0.82272548354E+03  0.12699999809E+01 0.  1.
    10030    2    1    2    0    0  0.00000000000E+00  0.00000000000E+00 -0.30832571797E+03  0.13371258366E+04  0.13010921392E+04 0.  0.
        5    1    3    3  502    0 -0.32420554854E+03  0.25206413584E+01  0.42543569560E+03  0.53491421034E+03  0.46999998093E+01 0. -1.
       -5    1    3    3    0  502  0.32420554854E+03 -0.25206413584E+01 -0.73376141357E+03  0.80221162630E+03  0.46999998093E+01 0.  1.
</event>
<event>
 5   0  0.3403833E-04  0.1301715E+04  0.7818609E-02  0.9028206E-01
        1   -1    0    0  501    0  0.00000000000E+00  0.00000000000E+00  0.15435173131E+04  0.15435173131E+04  0.50400001928E-02 0. -1.
       -1   -1    0    0    0  501  0.00000000000E+00  0.00000000000E+00 -0.27444832033E+03  0.27444832038E+03  0.50400001928E-02 0.  1.
    10030    2    1    2    0    0  0.00000000000E+00  0.00000000000E+00  0.12690689928E+04  0.18179656335E+04  0.13017153822E+04 0.  0.
        1    1    3    3  502    0  0.28131113334E+03 -0.25217468304E+03  0.13747122033E+04  0.14256793701E+04  0.50400001928E-02 0. -1.
       -1    1    3    3    0  502 -0.28131113334E+03  0.25217468304E+03 -0.10564321049E+03  0.39228626340E+03  0.50400001928E-02 0.  1.
</event>
<event>
 5   0  0.6052864E-04  0.1307422E+04  0.7818609E-02  0.9023700E-01
        2   -1    0    0  501    0  0.00000000000E+00  0.00000000000E+00  0.29440369485E+04  0.29440369485E+04  0.25500000920E-02 0.  1.
       -2   -1    0    0    0  501  0.00000000000E+00  0.00000000000E+00 -0.14515371843E+03  0.14515371845E+03  0.25500000920E-02 0. -1.
    10030    2    1    2    0    0  0.00000000000E+00  0.00000000000E+00  0.27988832300E+04  0.30891906669E+04  0.13074217534E+04 0.  0.
        2    1    3    3  502    0 -0.15833125199E+03  0.26438269999E+03  0.27616404747E+04  0.27787812272E+04  0.25500000920E-02 0.  1.
       -2    1    3    3    0  502  0.15833125199E+03 -0.26438269999E+03  0.37242755344E+02  0.31040943968E+03  0.25500000920E-02 0. -1.
</event>
<event>
 5   0  0.3335747E-04  0.1307871E+04  0.7818609E-02  0.9023346E-01
        1   -1    0    0  501    0  0.00000000000E+00  0.00000000000E+00  0.49535847029E+03  0.49535847031E+03  0.50400001928E-02 0. -1.
       -1   -1    0    0    0  501  0.00000000000E+00  0.00000000000E+00 -0.86327753411E+03  0.86327753413E+03  0.50400001928E-02 0.  1.
    10030    2    1    2    0    0  0.00000000000E+00  0.00000000000E+00 -0.36791906383E+03  0.13586360044E+04  0.13078713068E+04 0.  0.
        3    1    3    3  502    0 -0.35201715347E+03 -0.42861884802E+03 -0.54381796923E+03  0.77676778195E+03  0.10100000352E+00 0.  1.
       -3    1    3    3    0  502  0.35201715347E+03  0.42861884802E+03  0.17589890540E+03  0.58186822249E+03  0.10100000352E+00 0. -1.
</event>
<event>
 5   0  0.3335747E-04  0.1365388E+04  0.7818609E-02  0.8979260E-01
       -1   -1    0    0    0  501  0.00000000000E+00  0.00000000000E+00  0.71493888568E+03  0.71493888569E+03  0.50400001928E-02 0. -1.
        1   -1    0    0  501    0  0.00000000000E+00  0.00000000000E+00 -0.65190369644E+03  0.65190369646E+03  0.50400001928E-02 0.  1.
    10030    2    1    2    0    0  0.00000000000E+00  0.00000000000E+00  0.63035189233E+02  0.13668425822E+04  0.13653882998E+04 0.  0.
        3    1    3    3  502    0 -0.38827570112E+03 -0.53628600866E+03  0.19815987553E+03  0.69110639531E+03  0.10100000352E+00 0.  1.
       -3    1    3    3    0  502  0.38827570112E+03  0.53628600866E+03 -0.13512468630E+03  0.67573618685E+03  0.10100000352E+00 0. -1.
</event>
<event>
 5   0  0.6052864E-04  0.1312565E+04  0.7818609E-02  0.9019660E-01
       -2   -1    0    0    0  501  0.00000000000E+00  0.00000000000E+00  0.23370575430E+03  0.23370575431E+03  0.25500000920E-02 0. -1.
        2   -1    0    0  501    0  0.00000000000E+00  0.00000000000E+00 -0.18429436497E+04  0.18429436497E+04  0.25500000920E-02 0.  1.
    10030    2    1    2    0    0  0.00000000000E+00  0.00000000000E+00 -0.16092378954E+04  0.20766494040E+04  0.13125647196E+04 0.  0.
        2    1    3    3  502    0 -0.50032703279E+03  0.39963861607E+03 -0.10320740043E+04  0.12145842554E+04  0.25500000920E-02 0.  1.
       -2    1    3    3    0  502  0.50032703279E+03 -0.39963861607E+03 -0.57716389110E+03  0.86206514858E+03  0.25500000920E-02 0. -1.
</event>
<event>
 5   0  0.3335747E-04  0.1294889E+04  0.7818609E-02  0.9033628E-01
        1   -1    0    0  501    0  0.00000000000E+00  0.00000000000E+00  0.80310438636E+03  0.80310438638E+03  0.50400001928E-02 0.  1.
       -1   -1    0    0    0  501  0.00000000000E+00  0.00000000000E+00 -0.52195499285E+03  0.52195499288E+03  0.50400001928E-02 0. -1.
    10030    2    1    2    0    0  0.00000000000E+00  0.00000000000E+00  0.28114939351E+03  0.13250593793E+04  0.12948889439E+04 0.  0.
        3    1    3    3  502    0 -0.23185917294E+03  0.85015772904E+02  0.75301587276E+03  0.79247667003E+03  0.10100000352E+00 0.  1.
       -3    1    3    3    0  502  0.23185917294E+03 -0.85015772904E+02 -0.47186647925E+03  0.53258270922E+03  0.10100000352E+00 0. -1.
</event>
<event>
 5   0  0.5384960E-04  0.1308926E+04  0.7818609E-02  0.9022517E-01
       -2   -1    0    0    0  501  0.00000000000E+00  0.00000000000E+00  0.45339959688E+03  0.45339959688E+03  0.25500000920E-02 0. -1.
        2   -1    0    0  501    0  0.00000000000E+00  0.00000000000E+00 -0.94468941951E+03  0.94468941951E+03  0.25500000920E-02 0.  1.
    10030    2    1    2    0    0  0.00000000000E+00  0.00000000000E+00 -0.49128982264E+03  0.13980890164E+04  0.13089259750E+04 0.  0.
        3    1    3    3  502    0 -0.43230625568E+03  0.48043071106E+03 -0.13557458913E+03  0.66036569130E+03  0.10100000352E+00 0. -1.
       -3    1    3    3    0  502  0.43230625568E+03 -0.48043071106E+03 -0.35571523351E+03  0.73772332509E+03  0.10100000352E+00 0.  1.
</event>
<event>
 5   0  0.5384960E-04  0.1300002E+04  0.7818609E-02  0.9029564E-01
       -2   -1    0    0    0  501  0.00000000000E+00  0.00000000000E+00  0.30753329011E+03  0.30753329012E+03  0.25500000920E-02 0. -1.
        2   -1    0    0  501    0  0.00000000000E+00  0.00000000000E+00 -0.13738388655E+04  0.13738388655E+04  0.25500000920E-02 0.  1.
    10030    2    1    2    0    0  0.00000000000E+00  0.00000000000E+00 -0.10663055754E+04  0.16813721557E+04  0.13000018252E+04 0.  0.
        3    1    3    3  502    0 -0.64637535130E+03  0.16680535175E+02 -0.61915734385E+03  0.89522911127E+03  0.10100000352E+00 0. -1.
       -3    1    3    3    0  502  0.64637535130E+03 -0.16680535175E+02 -0.44714823158E+03  0.78614304438E+03  0.10100000352E+00 0.  1.
</event>
<event>
 5   0  0.6052864E-04  0.1301051E+04  0.7818609E-02  0.9028732E-01
       -2   -1    0    0    0  501  0.00000000000E+00  0.00000000000E+00  0.57298226231E+03  0.57298226232E+03  0.25500000920E-02 0.  1.
        2   -1    0    0  501    0  0.00000000000E+00  0.00000000000E+00 -0.73856276833E+03  0.73856276834E+03  0.25500000920E-02 0. -1.
    10030    2    1    2    0    0  0.00000000000E+00  0.00000000000E+00 -0.16558050602E+03  0.13115450307E+04  0.13010509073E+04 0.  0.
        2    1    3    3  502    0  0.31870688994E+03  0.27210795284E+03 -0.58436411362E+03  0.71909542968E+03  0.25500000920E-02 0. -1.
       -2    1    3    3    0  502 -0.31870688994E+03 -0.27210795284E+03  0.41878360760E+03  0.59244960098E+03  0.25500000920E-02 0.  1.
</event>
<event>
 5   0  0.3274879E-04  0.1300857E+04  0.7818609E-02  0.9028885E-01
       -1   -1    0    0    0  501  0.00000000000E+00  0.00000000000E+00  0.16200483942E+03  0.16200483950E+03  0.50400001928E-02 0.  1.
        1   -1    0    0  501    0  0.00000000000E+00  0.00000000000E+00 -0.26113883902E+04  0.26113883902E+04  0.50400001928E-02 0. -1.
    10030    2    1    2    0    0  0.00000000000E+00  0.00000000000E+00 -0.24493835508E+04  0.27733932297E+04  0.13008574971E+04 0.  0.
        4    1    3    3  502    0  0.25882127830E+01  0.26386501747E+03 -0.24921394868E+04  0.25060710846E+04  0.12699999809E+01 0. -1.
       -4    1    3    3    0  502 -0.25882127830E+01 -0.26386501747E+03  0.42755936070E+02  0.26732214510E+03  0.12699999809E+01 0.  1.
</event>
<event>
 5   0  0.5957913E-04  0.1297972E+04  0.7818609E-02  0.9031175E-01
       -2   -1    0    0    0  501  0.00000000000E+00  0.00000000000E+00  0.60940813822E+03  0.60940813823E+03  0.25500000920E-02 0.  1.
        2   -1    0    0  501    0  0.00000000000E+00  0.00000000000E+00 -0.69113466533E+03  0.69113466534E+03  0.25500000920E-02 0. -1.
    10030    2    1    2    0    0  0.00000000000E+00  0.00000000000E+00 -0.81726527111E+02  0.13005428036E+04  0.12979724029E+04 0.  0.
        1    1    3    3  502    0 -0.27128944864E+03  0.22621239469E+03 -0.58637973911E+03  0.68455183216E+03  0.50400001928E-02 0. -1.
       -1    1    3    3    0  502  0.27128944864E+03 -0.22621239469E+03  0.50465321200E+03  0.61599097141E+03  0.50400001928E-02 0.  1.
</event>
<event>
 5   0  0.6052864E-04  0.1303494E+04  0.7818609E-02  0.9026799E-01
        2   -1    0    0  501    0  0.00000000000E+00  0.00000000000E+00  0.20957064909E+04  0.20957064909E+04  0.25500000920E-02 0. -1.
       -2   -1    0    0    0  501  0.00000000000E+00  0.00000000000E+00 -0.20268770059E+03  0.20268770060E+03  0.25500000920E-02 0.  1.
    10030    2    1    2    0    0  0.00000000000E+00  0.00000000000E+00  0.18930187903E+04  0.22983941915E+04  0.13034936590E+04 0.  0.
        2    1    3    3  502    0  0.64685407723E+02 -0.67140008240E+02  0.20838879336E+04  0.20859724117E+04  0.25500000920E-02 0. -1.
       -2    1    3    3    0  502 -0.64685407723E+02  0.67140008240E+02 -0.19086914326E+03  0.21242177980E+03  0.25500000920E-02 0.  1.
</event>
<event>
 5   0  0.5957913E-04  0.1299470E+04  0.7818609E-02  0.9029986E-01
       -2   -1    0    0    0  501  0.00000000000E+00  0.00000000000E+00  0.57199921808E+03  0.57199921808E+03  0.25500000920E-02 0.  1.
        2   -1    0    0  501    0  0.00000000000E+00  0.00000000000E+00 -0.73803511572E+03  0.73803511573E+03  0.25500000920E-02 0. -1.
    10030    2    1    2    0    0  0.00000000000E+00  0.00000000000E+00 -0.16603589764E+03  0.13100343338E+04  0.12994699059E+04 0.  0.
        1    1    3    3  502    0 -0.51744087217E+03 -0.32788703735E+03  0.13530801702E+03  0.62734617632E+03  0.50400001928E-02 0. -1.
       -1    1    3    3    0  502  0.51744087217E+03  0.32788703735E+03 -0.30134391466E+03  0.68268815749E+03  0.50400001928E-02 0.  1.
</event>
<event>
 5   0  0.5384960E-04  0.1297951E+04  0.7818609E-02  0.9031192E-01
       -2   -1    0    0    0  501  0.00000000000E+00  0.00000000000E+00  0.16420159222E+03  0.16420159224E+03  0.25500000920E-02 0. -1.
        2   -1    0    0  501    0  0.00000000000E+00  0.00000000000E+00 -0.25649514222E+04  0.25649514222E+04  0.25500000920E-02 0.  1.
    10030    2    1    2    0    0  0.00000000000E+00  0.00000000000E+00 -0.24007498299E+04  0.27291530144E+04  0.12979508581E+04 0.  0.
        3    1    3    3  502    0  0.11914572867E+02  0.64648296211E+03 -0.10835508479E+04  0.12618100600E+04  0.10100000352E+00 0. -1.
       -3    1    3    3    0  502 -0.11914572867E+02 -0.64648296211E+03 -0.13171989820E+04  0.14673429544E+04  0.10100000352E+00 0.  1.
</event>
<event>
 5   0  0.2255875E-04  0.1304427E+04  0.7818609E-02  0.9026062E-01
       -4   -1    0    0    0  501  0.00000000000E+00  0.00000000000E+00  0.48638692063E+03  0.48638857867E+03  0.12699999809E+01 0.  1.
        4   -1    0    0  501    0  0.00000000000E+00  0.00000000000E+00 -0.87457292286E+03  0.87457384496E+03  0.12699999809E+01 0. -1.
    10030    2    1    2    0    0  0.00000000000E+00  0.00000000000E+00 -0.38818600223E+03  0.13609624236E+04  0.13044272100E+04 0.  0.
        3    1    3    3  502    0  0.47876329653E+03 -0.42925843011E+03 -0.30793428471E+03  0.71295205157E+03  0.10100000352E+00 0. -1.
       -3    1    3    3    0  502 -0.47876329653E+03  0.42925843011E+03 -0.80251717515E+02  0.64801037206E+03  0.10100000352E+00 0.  1.
</event>
<event>
 5   0  0.5957913E-04  0.1296344E+04  0.7818609E-02  0.9032469E-01
       -2   -1    0    0    0  501  0.00000000000E+00  0.00000000000E+00  0.15424877671E+03  0.15424877673E+03  0.25500000920E-02 0.  1.
        2   -1    0    0  501    0  0.00000000000E+00  0.00000000000E+00 -0.27236988911E+04  0.27236988911E+04  0.25500000920E-02 0. -1.
    10030    2    1    2    0    0  0.00000000000E+00  0.00000000000E+00 -0.25694501144E+04  0.28779476678E+04  0.12963444328E+04 0.  0.
        1    1    3    3  502    0  0.60376015241E+03  0.15041517874E+03 -0.88157880990E+03  0.10790422817E+04  0.50400001928E-02 0.  1.
       -1    1    3    3    0  502 -0.60376015241E+03 -0.15041517874E+03 -0.16878713045E+04  0.17989053861E+04  0.50400001928E-02 0. -1.
</event>
<event>
 5   0  0.5787604E-04  0.1300455E+04  0.7818609E-02  0.9029204E-01
       -2   -1    0    0    0  501  0.00000000000E+00  0.00000000000E+00  0.28131373588E+03  0.28131373589E+03  0.25500000920E-02 0. -1.
        2   -1    0    0  501    0  0.00000000000E+00  0.00000000000E+00 -0.15029341821E+04  0.15029341821E+04  0.25500000920E-02 0.  1.
    10030    2    1    2    0    0  0.00000000000E+00  0.00000000000E+00 -0.12216204462E+04  0.17842479179E+04  0.13004553503E+04 0.  0.
        4    1    3    3  502    0 -0.32941018120E+03 -0.14044556729E+02  0.15811500665E+03  0.36566417008E+03  0.12699999809E+01 0. -1.
       -4    1    3    3    0  502  0.32941018120E+03  0.14044556729E+02 -0.13797354528E+04  0.14185837479E+04  0.12699999809E+01 0.  1.
</event>
<event>
 5   0  0.3403833E-04  0.1300865E+04  0.7818609E-02  0.9028880E-01
        1   -1    0    0  501    0  0.00000000000E+00  0.00000000000E+00  0.62174612938E+03  0.62174612940E+03  0.50400001928E-02 0. -1.
       -1   -1    0    0    0  501  0.00000000000E+00  0.00000000000E+00 -0.68044227123E+03  0.68044227125E+03  0.50400001928E-02 0.  1.
    10030    2    1    2    0    0  0.00000000000E+00  0.00000000000E+00 -0.58696141855E+02  0.13021884006E+04  0.13008648637E+04 0.  0.
        1    1    3    3  502    0  0.47898381395E+03 -0.16966617260E+03  0.37708256467E+03  0.63277433952E+03  0.50400001928E-02 0. -1.
       -1    1    3    3    0  502 -0.47898381395E+03  0.16966617260E+03 -0.43577870653E+03  0.66941406113E+03  0.50400001928E-02 0.  1.
</event>
<event>
 5   0  0.3263679E-04  0.1304181E+04  0.7818609E-02  0.9026256E-01
        1   -1    0    0  501    0  0.00000000000E+00  0.00000000000E+00  0.67382724455E+03  0.67382724456E+03  0.50400001928E-02 0.  1.
       -1   -1    0    0    0  501  0.00000000000E+00  0.00000000000E+00 -0.63105512878E+03  0.63105512880E+03  0.50400001928E-02 0. -1.
    10030    2    1    2    0    0  0.00000000000E+00  0.00000000000E+00  0.42772115765E+02  0.13048823734E+04  0.13041811816E+04 0.  0.
        2    1    3    3  502    0 -0.43521956839E+02 -0.41902864269E+03 -0.47661940759E+03  0.63611730351E+03  0.25500000920E-02 0. -1.
       -2    1    3    3    0  502  0.43521956839E+02  0.41902864269E+03  0.51939152335E+03  0.66876506986E+03  0.25500000920E-02 0.  1.
</event>
<event>
 5   0  0.3337520E-04  0.1310287E+04  0.7818609E-02  0.9021447E-01
        1   -1    0    0  501    0  0.00000000000E+00  0.00000000000E+00  0.15924167175E+04  0.15924167175E+04  0.50400001928E-02 0. -1.
       -1   -1    0    0    0  501  0.00000000000E+00  0.00000000000E+00 -0.26953556100E+03  0.26953556105E+03  0.50400001928E-02 0.  1.
    10030    2    1    2    0    0  0.00000000000E+00  0.00000000000E+00  0.13228811565E+04  0.18619522786E+04  0.13102868897E+04 0.  0.
        5    1    3    3  502    0  0.21591241164E+03  0.45752133703E+03  0.12529135265E+04  0.13512062530E+04  0.46999998093E+01 0. -1.
       -5    1    3    3    0  502 -0.21591241164E+03 -0.45752133703E+03  0.69967629991E+02  0.51074602552E+03  0.46999998093E+01 0.  1.
</event>
<event>
 5   0  0.3337520E-04  0.1287686E+04  0.7818609E-02  0.9039387E-01
        1   -1    0    0  501    0  0.00000000000E+00  0.00000000000E+00  0.76024572931E+03  0.76024572933E+03  0.50400001928E-02 0. -1.
       -1   -1    0    0    0  501  0.00000000000E+00  0.00000000000E+00 -0.54526317087E+03  0.54526317089E+03  0.50400001928E-02 0.  1.
    10030    2    1    2    0    0  0.00000000000E+00  0.00000000000E+00  0.21498255845E+03  0.13055089002E+04  0.12876862926E+04 0.  0.
        5    1    3    3  502    0 -0.17682760393E+03 -0.89530787843E+02  0.72852826690E+03  0.75502270770E+03  0.46999998093E+01 0. -1.
       -5    1    3    3    0  502  0.17682760393E+03  0.89530787843E+02 -0.51354570845E+03  0.55048619252E+03  0.46999998093E+01 0.  1.
</event>
<event>
 5   0  0.3403833E-04  0.1299914E+04  0.7818609E-02  0.9029633E-01
       -1   -1    0    0    0  501  0.00000000000E+00  0.00000000000E+00  0.15464106938E+03  0.15464106946E+03  0.50400001928E-02 0.  1.
        1   -1    0    0  501    0  0.00000000000E+00  0.00000000000E+00 -0.27317734402E+04  0.27317734402E+04  0.50400001928E-02 0. -1.
    10030    2    1    2    0    0  0.00000000000E+00  0.00000000000E+00 -0.25771323708E+04  0.28864145096E+04  0.12999144067E+04 0.  0.
        1    1    3    3  502    0  0.48060755870E+03 -0.38020959572E+03 -0.17694463504E+04  0.18725606396E+04  0.50400001928E-02 0.  1.
       -1    1    3    3    0  502 -0.48060755870E+03  0.38020959572E+03 -0.80768602043E+03  0.10138538700E+04  0.50400001928E-02 0. -1.
</event>
<event>
 5   0  0.5787604E-04  0.1301309E+04  0.7818609E-02  0.9028527E-01
        2   -1    0    0  501    0  0.00000000000E+00  0.00000000000E+00  0.16064780747E+04  0.16064780747E+04  0.25500000920E-02 0.  1.
       -2   -1    0    0    0  501  0.00000000000E+00  0.00000000000E+00 -0.26352777701E+03  0.26352777702E+03  0.25500000920E-02 0. -1.
    10030    2    1    2    0    0  0.00000000000E+00  0.00000000000E+00  0.13429502977E+04  0.18700058517E+04  0.13013094879E+04 0.  0.
        4    1    3    3  502    0 -0.15302593563E+03 -0.62527654721E+03  0.80751675660E+03  0.10327016135E+04  0.12699999809E+01 0.  1.
       -4    1    3    3    0  502  0.15302593563E+03  0.62527654721E+03  0.53543354106E+03  0.83730423817E+03  0.12699999809E+01 0. -1.
</event>
<event>
 5   0  0.3403833E-04  0.1299246E+04  0.7818609E-02  0.9030163E-01
        1   -1    0    0  501    0  0.00000000000E+00  0.00000000000E+00  0.68071261222E+03  0.68071261224E+03  0.50400001928E-02 0. -1.
       -1   -1    0    0    0  501  0.00000000000E+00  0.00000000000E+00 -0.61995359839E+03  0.61995359841E+03  0.50400001928E-02 0.  1.
    10030    2    1    2    0    0  0.00000000000E+00  0.00000000000E+00  0.60759013829E+02  0.13006662107E+04  0.12992462945E+04 0.  0.
        1    1    3    3  502    0 -0.65264500922E+02  0.15376826812E+03  0.65884429320E+03  0.67969106076E+03  0.50400001928E-02 0. -1.
       -1    1    3    3    0  502  0.65264500922E+02 -0.15376826812E+03 -0.59808527937E+03  0.62097514990E+03  0.50400001928E-02 0.  1.
</event>
<event>
 5   0  0.6007125E-04  0.1298943E+04  0.7818609E-02  0.9030404E-01
        2   -1    0    0  501    0  0.00000000000E+00  0.00000000000E+00  0.10920918315E+04  0.10920918315E+04  0.25500000920E-02 0. -1.
       -2   -1    0    0    0  501  0.00000000000E+00  0.00000000000E+00 -0.38624353059E+03  0.38624353060E+03  0.25500000920E-02 0.  1.
    10030    2    1    2    0    0  0.00000000000E+00  0.00000000000E+00  0.70584830095E+03  0.14783353621E+04  0.12989432701E+04 0.  0.
        5    1    3    3  502    0 -0.55311547553E+03 -0.32450378618E+03  0.23601522561E+03  0.68334816400E+03  0.46999998093E+01 0.  1.
       -5    1    3    3    0  502  0.55311547553E+03  0.32450378618E+03  0.46983307534E+03  0.79498719814E+03  0.46999998093E+01 0. -1.
</event>
<event>
 5   0  0.6007125E-04  0.1301623E+04  0.7818609E-02  0.9028279E-01
        2   -1    0    0  501    0  0.00000000000E+00  0.00000000000E+00  0.22856748307E+04  0.22856748307E+04  0.25500000920E-02 0. -1.
       -2   -1    0    0    0  501  0.00000000000E+00  0.00000000000E+00 -0.18530863769E+03  0.18530863771E+03  0.25500000920E-02 0.  1.
    10030    2    1    2    0    0  0.00000000000E+00  0.00000000000E+00  0.21003661931E+04  0.24709834685E+04  0.13016225092E+04 0.  0.
        5    1    3    3  502    0 -0.44834815455E+02  0.21163011912E+03 -0.11502420056E+03  0.24505126955E+03  0.46999998093E+01 0.  1.
       -5    1    3    3    0  502  0.44834815455E+02 -0.21163011912E+03  0.22153903936E+04  0.22259321989E+04  0.46999998093E+01 0. -1.
</event>
<event>
 5   0  0.6007125E-04  0.1299092E+04  0.7818609E-02  0.9030285E-01
       -2   -1    0    0    0  501  0.00000000000E+00  0.00000000000E+00  0.41433466097E+03  0.41433466098E+03  0.25500000920E-02 0. -1.
        2   -1    0    0  501    0  0.00000000000E+00  0.00000000000E+00 -0.10182832784E+04  0.10182832784E+04  0.25500000920E-02 0.  1.
    10030    2    1    2    0    0  0.00000000000E+00  0.00000000000E+00 -0.60394861738E+03  0.14326179393E+04  0.12990920782E+04 0.  0.
        5    1    3    3  502    0 -0.11674203235E+03 -0.45256133745E+03 -0.79938673446E+03  0.92600308180E+03  0.46999998093E+01 0.  1.
       -5    1    3    3    0  502  0.11674203235E+03  0.45256133745E+03  0.19543811708E+03  0.50661485754E+03  0.46999998093E+01 0. -1.
</event>
<event>
 5   0  0.6052864E-04  0.1296564E+04  0.7818609E-02  0.9032294E-01
        2   -1    0    0  501    0  0.00000000000E+00  0.00000000000E+00  0.11786108062E+04  0.11786108062E+04  0.25500000920E-02 0. -1.
       -2   -1    0    0    0  501  0.00000000000E+00  0.00000000000E+00 -0.35658056418E+03  0.35658056419E+03  0.25500000920E-02 0.  1.
    10030    2    1    2    0    0  0.00000000000E+00  0.00000000000E+00  0.82203024199E+03  0.15351913704E+04  0.12965642386E+04 0.  0.
        2    1    3    3  502    0 -0.13161803601E+02  0.19076239076E+03 -0.32243043340E+03  0.37486651916E+03  0.25500000920E-02 0.  1.
       -2    1    3    3    0  502  0.13161803601E+02 -0.19076239076E+03  0.11444606754E+04  0.11603248512E+04  0.25500000920E-02 0. -1.
</event>
<event>
 5   0  0.3274879E-04  0.1301665E+04  0.7818609E-02  0.9028246E-01
        1   -1    0    0  501    0  0.00000000000E+00  0.00000000000E+00  0.37525690996E+03  0.37525690999E+03  0.50400001928E-02 0.  1.
       -1   -1    0    0    0  501  0.00000000000E+00  0.00000000000E+00 -0.11287817048E+04  0.11287817048E+04  0.50400001928E-02 0. -1.
    10030    2    1    2    0    0  0.00000000000E+00  0.00000000000E+00 -0.75352479485E+03  0.15040386148E+04  0.13016652943E+04 0.  0.
        4    1    3    3  502    0 -0.39707749898E+03 -0.21313116733E+03  0.16580070519E+03  0.48019467035E+03  0.12699999809E+01 0.  1.
       -4    1    3    3    0  502  0.39707749898E+03  0.21313116733E+03 -0.91932550004E+03  0.10238439445E+04  0.12699999809E+01 0. -1.
</event>
<event>
 5   0  0.5957913E-04  0.1308820E+04  0.7818609E-02  0.9022600E-01
        2   -1    0    0  501    0  0.00000000000E+00  0.00000000000E+00  0.12945540640E+04  0.12945540640E+04  0.25500000920E-02 0.  1.
       -2   -1    0    0    0  501  0.00000000000E+00  0.00000000000E+00 -0.33081098733E+03  0.33081098734E+03  0.25500000920E-02 0. -1.
    10030    2    1    2    0    0  0.00000000000E+00  0.00000000000E+00  0.96374307664E+03  0.16253650513E+04  0.13088203973E+04 0.  0.
        1    1    3    3  502    0 -0.25399794434E+03  0.67000387705E+02 -0.26246350404E+03  0.37133690721E+03  0.50400001928E-02 0. -1.
       -1    1    3    3    0  502  0.25399794434E+03 -0.67000387705E+02  0.12262065807E+04  0.12540281441E+04  0.50400001928E-02 0.  1.
</event>
<event>
 5   0  0.6007125E-04  0.1303049E+04  0.7818609E-02  0.9027151E-01
       -2   -1    0    0    0  501  0.00000000000E+00  0.00000000000E+00  0.85952463613E+03  0.85952463613E+03  0.25500000920E-02 0. -1.
        2   -1    0    0  501    0  0.00000000000E+00  0.00000000000E+00 -0.49385932284E+03  0.49385932285E+03  0.25500000920E-02 0.  1.
    10030    2    1    2    0    0  0.00000000000E+00  0.00000000000E+00  0.36566531329E+03  0.13533839590E+04  0.13030491238E+04 0.  0.
        5    1    3    3  502    0 -0.24378685737E+03 -0.15339419452E+03  0.78978670889E+03  0.84068242891E+03  0.46999998093E+01 0. -1.
       -5    1    3    3    0  502  0.24378685737E+03  0.15339419452E+03 -0.42412139560E+03  0.51270153007E+03  0.46999998093E+01 0.  1.
</event>
<event>
 5   0  0.5787604E-04  0.1300033E+04  0.7818609E-02  0.9029539E-01
        2   -1    0    0  501    0  0.00000000000E+00  0.00000000000E+00  0.12129287780E+04  0.12129287780E+04  0.25500000920E-02 0. -1.
       -2   -1    0    0    0  501  0.00000000000E+00  0.00000000000E+00 -0.34834794903E+03  0.34834794904E+03  0.25500000920E-02 0.  1.
    10030    2    1    2    0    0  0.00000000000E+00  0.00000000000E+00  0.86458082900E+03  0.15612767271E+04  0.13000326952E+04 0.  0.
        4    1    3    3  502    0  0.13177545324E+03 -0.61386950819E+03  0.63438994511E+03  0.89255406476E+03  0.12699999809E+01 0. -1.
       -4    1    3    3    0  502 -0.13177545324E+03  0.61386950819E+03  0.23019088390E+03  0.66872266232E+03  0.12699999809E+01 0.  1.
</event>
<event>
 5   0  0.5384960E-04  0.1314830E+04  0.7818609E-02  0.9017887E-01
       -2   -1    0    0    0  501  0.00000000000E+00  0.00000000000E+00  0.14638253098E+04  0.14638253098E+04  0.25500000920E-02 0. -1.
        2   -1    0    0  501    0  0.00000000000E+00  0.00000000000E+00 -0.29525000168E+03  0.29525000169E+03  0.25500000920E-02 0.  1.
    10030    2    1    2    0    0  0.00000000000E+00  0.00000000000E+00  0.11685753082E+04  0.17590753115E+04  0.13148299133E+04 0.  0.
        3    1    3    3  502    0 -0.65066110852E+03  0.12523877247E+01  0.45854917713E+03  0.79600804309E+03  0.10100000352E+00 0. -1.
       -3    1    3    3    0  502  0.65066110852E+03 -0.12523877247E+01  0.71002613103E+03  0.96306726845E+03  0.10100000352E+00 0.  1.
</event>
<event>
 5   0  0.6007125E-04  0.1279563E+04  0.7818609E-02  0.9045931E-01
       -2   -1    0    0    0  501  0.00000000000E+00  0.00000000000E+00  0.53543713946E+03  0.53543713947E+03  0.25500000920E-02 0. -1.
        2   -1    0    0  501    0  0.00000000000E+00  0.00000000000E+00 -0.76446039313E+03  0.76446039313E+03  0.25500000920E-02 0.  1.
    10030    2    1    2    0    0  0.00000000000E+00  0.00000000000E+00 -0.22902325366E+03  0.12998975326E+04  0.12795631851E+04 0.  0.
        5    1    3    3  502    0  0.39136542854E+03  0.15592886176E+03  0.37461428189E+03  0.56377181446E+03  0.46999998093E+01 0. -1.
       -5    1    3    3    0  502 -0.39136542854E+03 -0.15592886176E+03 -0.60363753556E+03  0.73612571814E+03  0.46999998093E+01 0.  1.
</event>
<event>
 5   0  0.3274879E-04  0.1301106E+04  0.7818609E-02  0.9028689E-01
       -1   -1    0    0    0  501  0.00000000000E+00  0.00000000000E+00  0.55196423760E+03  0.55196423762E+03  0.50400001928E-02 0. -1.
        1   -1    0    0  501    0  0.00000000000E+00  0.00000000000E+00 -0.76675106646E+03  0.76675106647E+03  0.50400001928E-02 0.  1.
    10030    2    1    2    0    0  0.00000000000E+00  0.00000000000E+00 -0.21478682886E+03  0.13187153041E+04  0.13011059417E+04 0.  0.
        4    1    3    3  502    0 -0.55097220997E+02 -0.62928571427E+03 -0.26500153016E+03  0.68502820222E+03  0.12699999809E+01 0.  1.
       -4    1    3    3    0  502  0.55097220997E+02  0.62928571427E+03  0.50214701301E+02  0.63368710187E+03  0.12699999809E+01 0. -1.
</event>
<event>
 5   0  0.3335747E-04  0.1309526E+04  0.7818609E-02  0.9022045E-01
        1   -1    0    0  501    0  0.00000000000E+00  0.00000000000E+00  0.14381857367E+04  0.14381857367E+04  0.50400001928E-02 0.  1.
       -1   -1    0    0    0  501  0.00000000000E+00  0.00000000000E+00 -0.29809415123E+03  0.29809415127E+03  0.50400001928E-02 0. -1.
    10030    2    1    2    0    0  0.00000000000E+00  0.00000000000E+00  0.11400915855E+04  0.17362798880E+04  0.13095262602E+04 0.  0.
        3    1    3    3  502    0  0.51483616956E+03  0.14349269421E+03  0.10715530808E+04  0.11974441323E+04  0.10100000352E+00 0.  1.
       -3    1    3    3    0  502 -0.51483616956E+03 -0.14349269421E+03  0.68538504652E+02  0.53883575568E+03  0.10100000352E+00 0. -1.
</event>
<event>
 5   0  0.3337520E-04  0.1292074E+04  0.7818609E-02  0.9035874E-01
       -1   -1    0    0    0  501  0.00000000000E+00  0.00000000000E+00  0.26375765440E+03  0.26375765445E+03  0.50400001928E-02 0.  1.
        1   -1    0    0  501    0  0.00000000000E+00  0.00000000000E+00 -0.15823759095E+04  0.15823759095E+04  0.50400001928E-02 0. -1.
    10030    2    1    2    0    0  0.00000000000E+00  0.00000000000E+00 -0.13186182551E+04  0.18461335640E+04  0.12920739272E+04 0.  0.
        5    1    3    3  502    0  0.28031349489E+03 -0.12708814743E+03  0.15224553008E+03  0.34340623766E+03  0.46999998093E+01 0.  1.
       -5    1    3    3    0  502 -0.28031349489E+03  0.12708814743E+03 -0.14708637852E+04  0.15027273263E+04  0.46999998093E+01 0. -1.
</event>
<event>
 5   0  0.5957913E-04  0.1298815E+04  0.7818609E-02  0.9030505E-01
        2   -1    0    0  501    0  0.00000000000E+00  0.00000000000E+00  0.11621353966E+04  0.11621353966E+04  0.25500000920E-02 0.  1.
       -2   -1    0    0    0  501  0.00000000000E+00  0.00000000000E+00 -0.36289240372E+03  0.36289240373E+03  0.25500000920E-02 0. -1.
    10030    2    1    2    0    0  0.00000000000E+00  0.00000000000E+00  0.79924299286E+03  0.15250278003E+04  0.12988150099E+04 0.  0.
        1    1    3    3  502    0  0.56092362376E+03  0.24864029711E+03  0.64945411035E+03  0.89344722873E+03  0.50400001928E-02 0.  1.
       -1    1    3    3    0  502 -0.56092362376E+03 -0.24864029711E+03  0.14978888250E+03  0.63158057157E+03  0.50400001928E-02 0. -1.
</event>
<event>
 5   0  0.6007125E-04  0.1298330E+04  0.7818609E-02  0.9030890E-01
       -2   -1    0    0    0  501  0.00000000000E+00  0.00000000000E+00  0.99203927246E+03  0.99203927246E+03  0.25500000920E-02 0. -1.
        2   -1    0    0  501    0  0.00000000000E+00  0.00000000000E+00 -0.42479704816E+03  0.42479704817E+03  0.25500000920E-02 0.  1.
    10030    2    1    2    0    0  0.00000000000E+00  0.00000000000E+00  0.56724222429E+03  0.14168363206E+04  0.12983302424E+04 0.  0.
        5    1    3    3  502    0  0.62666340739E+03  0.15312440695E+03  0.20463238628E+03  0.67679436588E+03  0.46999998093E+01 0.  1.
       -5    1    3    3    0  502 -0.62666340739E+03 -0.15312440695E+03  0.36260983801E+03  0.74004195475E+03  0.46999998093E+01 0. -1.
</event>
<event>
 5   0  0.3337520E-04  0.1304996E+04  0.7818609E-02  0.9025613E-01
        1   -1    0    0  501    0  0.00000000000E+00  0.00000000000E+00  0.92349499122E+03  0.92349499123E+03  0.50400001928E-02 0. -1.
       -1   -1    0    0    0  501  0.00000000000E+00  0.00000000000E+00 -0.46102400145E+03  0.46102400148E+03  0.50400001928E-02 0.  1.
    10030    2    1    2    0    0  0.00000000000E+00  0.00000000000E+00  0.46247098977E+03  0.13845189927E+04  0.13049955650E+04 0.  0.
        5    1    3    3  502    0 -0.96891147556E+02 -0.52823414070E+03  0.62437277629E+03  0.82357917388E+03  0.46999998093E+01 0. -1.
       -5    1    3    3    0  502  0.96891147556E+02  0.52823414070E+03 -0.16190178652E+03  0.56093981883E+03  0.46999998093E+01 0.  1.
</event>
<event>
 5   0  0.3403833E-04  0.1298335E+04  0.7818609E-02  0.9030886E-01
       -1   -1    0    0    0  501  0.00000000000E+00  0.00000000000E+00  0.10061181253E+04  0.10061181253E+04  0.50400001928E-02 0. -1.
        1   -1    0    0  501    0  0.00000000000E+00  0.00000000000E+00 -0.41885599336E+03  0.41885599339E+03  0.50400001928E-02 0.  1.
    10030    2    1    2    0    0  0.00000000000E+00  0.00000000000E+00  0.58726213190E+03  0.14249741187E+04  0.12983352523E+04 0.  0.
        1    1    3    3  502    0  0.15272088469E+03 -0.58866226838E+03  0.54287565172E+03  0.81520605253E+03  0.50400001928E-02 0.  1.
       -1    1    3    3    0  502 -0.15272088469E+03  0.58866226838E+03  0.44386480182E+02  0.60976806614E+03  0.50400001928E-02 0. -1.
</event>
<event>
 5   0  0.5787604E-04  0.1298889E+04  0.7818609E-02  0.9030447E-01
        2   -1    0    0  501    0  0.00000000000E+00  0.00000000000E+00  0.11294722098E+04  0.11294722098E+04  0.25500000920E-02 0. -1.
       -2   -1    0    0    0  501  0.00000000000E+00  0.00000000000E+00 -0.37342917534E+03  0.37342917534E+03  0.25500000920E-02 0.  1.
    10030    2    1    2    0    0  0.00000000000E+00  0.00000000000E+00  0.75604303444E+03  0.15029013851E+04  0.12988885647E+04 0.  0.
        4    1    3    3  502    0  0.26206767340E+03  0.44272799853E+03 -0.80575354084E+02  0.52075094499E+03  0.12699999809E+01 0. -1.
       -4    1    3    3    0  502 -0.26206767340E+03 -0.44272799853E+03  0.83661838852E+03  0.98215044013E+03  0.12699999809E+01 0.  1.
</event>
<event>
 5   0  0.3274879E-04  0.1304475E+04  0.7818609E-02  0.9026024E-01
       -1   -1    0    0    0  501  0.00000000000E+00  0.00000000000E+00  0.66197582253E+03  0.66197582255E+03  0.50400001928E-02 0. -1.
        1   -1    0    0  501    0  0.00000000000E+00  0.00000000000E+00 -0.64264215622E+03  0.64264215624E+03  0.50400001928E-02 0.  1.
    10030    2    1    2    0    0  0.00000000000E+00  0.00000000000E+00  0.19333666310E+02  0.13046179788E+04  0.13044747142E+04 0.  0.
        4    1    3    3  502    0  0.36146161122E+03 -0.65667730042E+02  0.54865571062E+03  0.66029648556E+03  0.12699999809E+01 0. -1.
       -4    1    3    3    0  502 -0.36146161122E+03  0.65667730042E+02 -0.52932204431E+03  0.64432149323E+03  0.12699999809E+01 0.  1.
</event>
<event>
 5   0  0.5787604E-04  0.1310606E+04  0.7818609E-02  0.9021196E-01
        2   -1    0    0  501    0  0.00000000000E+00  0.00000000000E+00  0.66899325587E+03  0.66899325587E+03  0.25500000920E-02 0.  1.
       -2   -1    0    0    0  501  0.00000000000E+00  0.00000000000E+00 -0.64189297635E+03  0.64189297636E+03  0.25500000920E-02 0. -1.
    10030    2    1    2    0    0  0.00000000000E+00  0.00000000000E+00  0.27100279514E+02  0.13108862322E+04  0.13106060769E+04 0.  0.
        4    1    3    3  502    0 -0.17458184348E+03 -0.23196919335E+03 -0.57405474384E+03  0.64329541313E+03  0.12699999809E+01 0. -1.
       -4    1    3    3    0  502  0.17458184348E+03  0.23196919335E+03  0.60115502335E+03  0.66759081909E+03  0.12699999809E+01 0.  1.
</event>
<event>
 5   0  0.5957913E-04  0.1306167E+04  0.7818609E-02  0.9024689E-01
        2   -1    0    0  501    0  0.00000000000E+00  0.00000000000E+00  0.11579470197E+04  0.11579470197E+04  0.25500000920E-02 0.  1.
       -2   -1    0    0    0  501  0.00000000000E+00  0.00000000000E+00 -0.36834001539E+03  0.36834001540E+03  0.25500000920E-02 0. -1.
    10030    2    1    2    0    0  0.00000000000E+00  0.00000000000E+00  0.78960700434E+03  0.15262870351E+04  0.13061672528E+04 0.  0.
        1    1    3    3  502    0 -0.47267718524E+03  0.44917538011E+03  0.43751426459E+03  0.78523943819E+03  0.50400001928E-02 0.  1.
       -1    1    3    3    0  502  0.47267718524E+03 -0.44917538011E+03  0.35209273975E+03  0.74104759695E+03  0.50400001928E-02 0. -1.
</event>
<event>
 5   0  0.6007125E-04  0.1285564E+04  0.7818609E-02  0.9041092E-01
        2   -1    0    0  501    0  0.00000000000E+00  0.00000000000E+00  0.10034170913E+04  0.10034170913E+04  0.25500000920E-02 0. -1.
       -2   -1    0    0    0  501  0.00000000000E+00  0.00000000000E+00 -0.41176151131E+03  0.41176151131E+03  0.25500000920E-02 0.  1.
    10030    2    1    2    0    0  0.00000000000E+00  0.00000000000E+00  0.59165558001E+03  0.14151786026E+04  0.12855637487E+04 0.  0.
        5    1    3    3  502    0  0.53542691774E+02  0.14962313759E+03 -0.38977622536E+03  0.42095308408E+03  0.46999998093E+01 0.  1.
       -5    1    3    3    0  502 -0.53542691774E+02 -0.14962313759E+03  0.98143180537E+03  0.99422551855E+03  0.46999998093E+01 0. -1.
</event>
<event>
 5   0  0.3403833E-04  0.1303707E+04  0.7818609E-02  0.9026631E-01
       -1   -1    0    0    0  501  0.00000000000E+00  0.00000000000E+00  0.39530331201E+03  0.39530331204E+03  0.50400001928E-02 0. -1.
        1   -1    0    0  501    0  0.00000000000E+00  0.00000000000E+00 -0.10749032363E+04  0.10749032363E+04  0.50400001928E-02 0.  1.
    10030    2    1    2    0    0  0.00000000000E+00  0.00000000000E+00 -0.67959992429E+03  0.14702065484E+04  0.13037067300E+04 0.  0.
        1    1    3    3  502    0  0.19343694058E+03  0.24861776672E+03 -0.98337140859E+03  0.10325928390E+04  0.50400001928E-02 0.  1.
       -1    1    3    3    0  502 -0.19343694058E+03 -0.24861776672E+03  0.30377148430E+03  0.43761370935E+03  0.50400001928E-02 0. -1.
</event>
<event>
 5   0  0.3337520E-04  0.1293728E+04  0.7818609E-02  0.9034554E-01
        1   -1    0    0  501    0  0.00000000000E+00  0.00000000000E+00  0.55901476509E+03  0.55901476512E+03  0.50400001928E-02 0.  1.
       -1   -1    0    0    0  501  0.00000000000E+00  0.00000000000E+00 -0.74851910082E+03  0.74851910084E+03  0.50400001928E-02 0. -1.
    10030    2    1    2    0    0  0.00000000000E+00  0.00000000000E+00 -0.18950433573E+03  0.13075338660E+04  0.12937283012E+04 0.  0.
        5    1    3    3  502    0  0.49216529242E+03 -0.33251285156E+03 -0.35364908632E+03  0.69128954699E+03  0.46999998093E+01 0. -1.
       -5    1    3    3    0  502 -0.49216529242E+03  0.33251285156E+03  0.16414475059E+03  0.61624431897E+03  0.46999998093E+01 0.  1.
</event>
<event>
 5   0  0.5787604E-04  0.1302623E+04  0.7818609E-02  0.9027487E-01
       -2   -1    0    0    0  501  0.00000000000E+00  0.00000000000E+00  0.70241529172E+03  0.70241529172E+03  0.25500000920E-02 0. -1.
        2   -1    0    0  501    0  0.00000000000E+00  0.00000000000E+00 -0.60392601022E+03  0.60392601022E+03  0.25500000920E-02 0.  1.
    10030    2    1    2    0    0  0.00000000000E+00  0.00000000000E+00  0.98489281499E+02  0.13063413019E+04  0.13026232988E+04 0.  0.
        4    1    3    3  502    0 -0.21032139729E+03 -0.26614519226E+02  0.66684477786E+03  0.69973351603E+03  0.12699999809E+01 0. -1.
       -4    1    3    3    0  502  0.21032139729E+03  0.26614519226E+02 -0.56835549636E+03  0.60660778592E+03  0.12699999809E+01 0.  1.
</event>
<event>
 5   0  0.3274879E-04  0.1295888E+04  0.7818609E-02  0.9032832E-01
       -1   -1    0    0    0  501  0.00000000000E+00  0.00000000000E+00  0.73327418648E+03  0.73327418649E+03  0.50400001928E-02 0.  1.
        1   -1    0    0  501    0  0.00000000000E+00  0.00000000000E+00 -0.57254370958E+03  0.57254370960E+03  0.50400001928E-02 0. -1.
    10030    2    1    2    0    0  0.00000000000E+00  0.00000000000E+00  0.16073047690E+03  0.13058178961E+04  0.12958881478E+04 0.  0.
        4    1    3    3  502    0 -0.36598285772E+03 -0.16892925974E+03  0.59154852669E+03  0.71582946242E+03  0.12699999809E+01 0.  1.
       -4    1    3    3    0  502  0.36598285772E+03  0.16892925974E+03 -0.43081804979E+03  0.58998843367E+03  0.12699999809E+01 0. -1.
</event>
<event>
 5   0  0.5787604E-04  0.1301580E+04  0.7818609E-02  0.9028313E-01
        2   -1    0    0  501    0  0.00000000000E+00  0.00000000000E+00  0.83163286003E+03  0.83163286003E+03  0.25500000920E-02 0. -1.
       -2   -1    0    0    0  501  0.00000000000E+00  0.00000000000E+00 -0.50927257136E+03  0.50927257137E+03  0.25500000920E-02 0.  1.
    10030    2    1    2    0    0  0.00000000000E+00  0.00000000000E+00  0.32236028866E+03  0.13409054314E+04  0.13015802781E+04 0.  0.
        4    1    3    3  502    0  0.32114416252E+02 -0.57200750567E+03  0.47921799723E+03  0.74691058638E+03  0.12699999809E+01 0. -1.
       -4    1    3    3    0  502 -0.32114416252E+02  0.57200750567E+03 -0.15685770857E+03  0.59399484502E+03  0.12699999809E+01 0.  1.
</event>
<event>
 5   0  0.2255875E-04  0.1299233E+04  0.7818609E-02  0.9030173E-01
        4   -1    0    0  501    0  0.00000000000E+00  0.00000000000E+00  0.23199304431E+03  0.23199652047E+03  0.12699999809E+01 0. -1.
       -4   -1    0    0    0  501  0.00000000000E+00  0.00000000000E+00 -0.18190101775E+04  0.18190106209E+04  0.12699999809E+01 0.  1.
    10030    2    1    2    0    0  0.00000000000E+00  0.00000000000E+00 -0.15870171332E+04  0.20510071413E+04  0.12992332018E+04 0.  0.
        5    1    3    3  502    0 -0.35343364975E+02 -0.39558095040E+03  0.17983791680E+02  0.39759143418E+03  0.46999998093E+01 0. -1.
       -5    1    3    3    0  502  0.35343364975E+02  0.39558095040E+03 -0.16050009249E+04  0.16534157071E+04  0.46999998093E+01 0.  1.
</event>
<event>
 5   0  0.5957913E-04  0.1307595E+04  0.7818609E-02  0.9023564E-01
        2   -1    0    0  501    0  0.00000000000E+00  0.00000000000E+00  0.17112548791E+04  0.17112548791E+04  0.25500000920E-02 0. -1.
       -2   -1    0    0    0  501  0.00000000000E+00  0.00000000000E+00 -0.24978795655E+03  0.24978795656E+03  0.25500000920E-02 0.  1.
    10030    2    1    2    0    0  0.00000000000E+00  0.00000000000E+00  0.14614669225E+04  0.19610428356E+04  0.13075945234E+04 0.  0.
        1    1    3    3  502    0 -0.19269251154E+03  0.37135167630E+03 -0.22751314180E+02  0.41898698526E+03  0.50400001928E-02 0.  1.
       -1    1    3    3    0  502  0.19269251154E+03 -0.37135167630E+03  0.14842182367E+04  0.15420558504E+04  0.50400001928E-02 0. -1.
</event>
<event>
 5   0  0.3403833E-04  0.1299557E+04  0.7818609E-02  0.9029916E-01
       -1   -1    0    0    0  501  0.00000000000E+00  0.00000000000E+00  0.46968037432E+03  0.46968037434E+03  0.50400001928E-02 0. -1.
        1   -1    0    0  501    0  0.00000000000E+00  0.00000000000E+00 -0.89893536290E+03  0.89893536291E+03  0.50400001928E-02 0.  1.
    10030    2    1    2    0    0  0.00000000000E+00  0.00000000000E+00 -0.42925498858E+03  0.13686157373E+04  0.12995573058E+04 0.  0.
        1    1    3    3  502    0 -0.57571233208E+03 -0.24304846322E+03 -0.27135885645E+02  0.62550267873E+03  0.50400001928E-02 0. -1.
       -1    1    3    3    0  502  0.57571233208E+03  0.24304846322E+03 -0.40211910294E+03  0.74311305853E+03  0.50400001928E-02 0.  1.
</event>
<event>
 5   0  0.3274879E-04  0.1300075E+04  0.7818609E-02  0.9029506E-01
       -1   -1    0    0    0  501  0.00000000000E+00  0.00000000000E+00  0.37914520367E+03  0.37914520370E+03  0.50400001928E-02 0. -1.
        1   -1    0    0  501    0  0.00000000000E+00  0.00000000000E+00 -0.11144765395E+04  0.11144765395E+04  0.50400001928E-02 0.  1.
    10030    2    1    2    0    0  0.00000000000E+00  0.00000000000E+00 -0.73533133585E+03  0.14936217432E+04  0.13000745126E+04 0.  0.
        4    1    3    3  502    0 -0.47991717616E+03 -0.39167303233E+03 -0.59402171523E+03  0.85824918951E+03  0.12699999809E+01 0.  1.
       -4    1    3    3    0  502  0.47991717616E+03  0.39167303233E+03 -0.14130962061E+03  0.63537255371E+03  0.12699999809E+01 0. -1.
</event>
<event>
 5   0  0.3335747E-04  0.1299910E+04  0.7818609E-02  0.9029637E-01
        1   -1    0    0  501    0  0.00000000000E+00  0.00000000000E+00  0.10134397625E+04  0.10134397626E+04  0.50400001928E-02 0. -1.
       -1   -1    0    0    0  501  0.00000000000E+00  0.00000000000E+00 -0.41683905193E+03  0.41683905196E+03  0.50400001928E-02 0.  1.
    10030    2    1    2    0    0  0.00000000000E+00  0.00000000000E+00  0.59660071061E+03  0.14302788145E+04  0.12999096428E+04 0.  0.
        3    1    3    3  502    0 -0.21419341272E+03 -0.42735931994E+03  0.78283637546E+03  0.91725002444E+03  0.10100000352E+00 0. -1.
       -3    1    3    3    0  502  0.21419341272E+03  0.42735931994E+03 -0.18623566485E+03  0.51302879008E+03  0.10100000352E+00 0.  1.
</event>
<event>
 5   0  0.5384960E-04  0.1301183E+04  0.7818609E-02  0.9028628E-01
       -2   -1    0    0    0  501  0.00000000000E+00  0.00000000000E+00  0.31872842301E+03  0.31872842302E+03  0.25500000920E-02 0.  1.
        2   -1    0    0  501    0  0.00000000000E+00  0.00000000000E+00 -0.13279929326E+04  0.13279929326E+04  0.25500000920E-02 0. -1.
    10030    2    1    2    0    0  0.00000000000E+00  0.00000000000E+00 -0.10092645096E+04  0.16467213556E+04  0.13011826823E+04 0.  0.
        3    1    3    3  502    0  0.97694042755E+02 -0.13517999380E+03  0.29121250566E+03  0.33559274481E+03  0.10100000352E+00 0.  1.
       -3    1    3    3    0  502 -0.97694042755E+02  0.13517999380E+03 -0.13004770153E+04  0.13111286108E+04  0.10100000352E+00 0. -1.
</event>
<event>
 5   0  0.6052864E-04  0.1296061E+04  0.7818609E-02  0.9032695E-01
        2   -1    0    0  501    0  0.00000000000E+00  0.00000000000E+00  0.36886802906E+03  0.36886802907E+03  0.25500000920E-02 0. -1.
       -2   -1    0    0    0  501  0.00000000000E+00  0.00000000000E+00 -0.11384648927E+04  0.11384648927E+04  0.25500000920E-02 0.  1.
    10030    2    1    2    0    0  0.00000000000E+00  0.00000000000E+00 -0.76959686366E+03  0.15073329218E+04  0.12960606485E+04 0.  0.
        2    1    3    3  502    0  0.59012164756E+03  0.15929672050E+03 -0.63511424093E+03  0.88146985378E+03  0.25500000920E-02 0.  1.
       -2    1    3    3    0  502 -0.59012164756E+03 -0.15929672050E+03 -0.13448262273E+03  0.62586306802E+03  0.25500000920E-02 0. -1.
</event>
<event>
 5   0  0.3263679E-04  0.1298060E+04  0.7818609E-02  0.9031105E-01
       -1   -1    0    0    0  501  0.00000000000E+00  0.00000000000E+00  0.23501247263E+03  0.23501247269E+03  0.50400001928E-02 0.  1.
        1   -1    0    0  501    0  0.00000000000E+00  0.00000000000E+00 -0.17924149486E+04  0.17924149486E+04  0.50400001928E-02 0. -1.
    10030    2    1    2    0    0  0.00000000000E+00  0.00000000000E+00 -0.15574024759E+04  0.20274274213E+04  0.12980598894E+04 0.  0.
        2    1    3    3  502    0 -0.16358695262E+03  0.25799402160E+03 -0.16731045282E+04  0.17007646423E+04  0.25500000920E-02 0. -1.
       -2    1    3    3    0  502  0.16358695262E+03 -0.25799402160E+03  0.11570205226E+03  0.32666277895E+03  0.25500000920E-02 0.  1.
</event>
<event>
 5   0  0.5957913E-04  0.1301840E+04  0.7818609E-02  0.9028108E-01
       -2   -1    0    0    0  501  0.00000000000E+00  0.00000000000E+00  0.67320822070E+03  0.67320822071E+03  0.25500000920E-02 0. -1.
        2   -1    0    0  501    0  0.00000000000E+00  0.00000000000E+00 -0.62936938589E+03  0.62936938589E+03  0.25500000920E-02 0.  1.
    10030    2    1    2    0    0  0.00000000000E+00  0.00000000000E+00  0.43838834818E+02  0.13025776066E+04  0.13018396897E+04 0.  0.
        1    1    3    3  502    0 -0.22002132422E+02 -0.42372231195E+03 -0.47199177960E+03  0.63466599997E+03  0.50400001928E-02 0.  1.
       -1    1    3    3    0  502  0.22002132422E+02  0.42372231195E+03  0.51583061442E+03  0.66791160663E+03  0.50400001928E-02 0. -1.
</event>
<event>
 5   0  0.6007125E-04  0.1296960E+04  0.7818609E-02  0.9031979E-01
       -2   -1    0    0    0  501  0.00000000000E+00  0.00000000000E+00  0.85958154049E+03  0.85958154049E+03  0.25500000920E-02 0. -1.
        2   -1    0    0  501    0  0.00000000000E+00  0.00000000000E+00 -0.48922219087E+03  0.48922219088E+03  0.25500000920E-02 0.  1.
    10030    2    1    2    0    0  0.00000000000E+00  0.00000000000E+00  0.37035934961E+03  0.13488037314E+04  0.12969600834E+04 0.  0.
        5    1    3    3  502    0 -0.15751201215E+03 -0.50599114524E+03  0.57383924344E+03  0.78112139923E+03  0.46999998093E+01 0. -1.
       -5    1    3    3    0  502  0.15751201215E+03  0.50599114524E+03 -0.20347989382E+03  0.56768233214E+03  0.46999998093E+01 0.  1.
</event>
<event>
 5   0  0.3274879E-04  0.1303003E+04  0.7818609E-02  0.9027187E-01
        1   -1    0    0  501    0  0.00000000000E+00  0.00000000000E+00  0.41650865919E+03  0.41650865922E+03  0.50400001928E-02 0.  1.
       -1   -1    0    0    0  501  0.00000000000E+00  0.00000000000E+00 -0.10190762357E+04  0.10190762357E+04  0.50400001928E-02 0. -1.
    10030    2    1    2    0    0  0.00000000000E+00  0.00000000000E+00 -0.60256757647E+03  0.14355848949E+04  0.13030028036E+04 0.  0.
        4    1    3    3  502    0  0.45535989082E+03 -0.45319810927E+03 -0.18205360338E+03  0.66774717057E+03  0.12699999809E+01 0. -1.
       -4    1    3    3    0  502 -0.45535989082E+03  0.45319810927E+03 -0.42051397310E+03  0.76783772431E+03  0.12699999809E+01 0.  1.
</event>
<event>
 5   0  0.5957913E-04  0.1294303E+04  0.7818609E-02  0.9034095E-01
        2   -1    0    0  501    0  0.00000000000E+00  0.00000000000E+00  0.10566680539E+04  0.10566680539E+04  0.25500000920E-02 0.  1.
       -2   -1    0    0    0  501  0.00000000000E+00  0.00000000000E+00 -0.39634517789E+03  0.39634517790E+03  0.25500000920E-02 0. -1.
    10030    2    1    2    0    0  0.00000000000E+00  0.00000000000E+00  0.66032287600E+03  0.14530132318E+04  0.12943033459E+04 0.  0.
        1    1    3    3  502    0  0.44481283802E+02  0.30846482916E+03 -0.30655040516E+03  0.43715247496E+03  0.50400001928E-02 0. -1.
       -1    1    3    3    0  502 -0.44481283802E+02 -0.30846482916E+03  0.96687328115E+03  0.10158607568E+04  0.50400001928E-02 0.  1.
</event>
<event>
 5   0  0.3403833E-04  0.1300868E+04  0.7818609E-02  0.9028877E-01
       -1   -1    0    0    0  501  0.00000000000E+00  0.00000000000E+00  0.10323846880E+04  0.10323846880E+04  0.50400001928E-02 0.  1.
        1   -1    0    0  501    0  0.00000000000E+00  0.00000000000E+00 -0.40979345510E+03  0.40979345513E+03  0.50400001928E-02 0. -1.
    10030    2    1    2    0    0  0.00000000000E+00  0.00000000000E+00  0.62259123294E+03  0.14421781432E+04  0.13008681537E+04 0.  0.
        1    1    3    3  502    0  0.90552884073E+01  0.79735574890E+02 -0.40428430979E+03  0.41217176434E+03  0.50400001928E-02 0. -1.
       -1    1    3    3    0  502 -0.90552884073E+01 -0.79735574890E+02  0.10268755427E+04  0.10300063788E+04  0.50400001928E-02 0.  1.
</event>
<event>
 5   0  0.5957913E-04  0.1301033E+04  0.7818609E-02  0.9028747E-01
       -2   -1    0    0    0  501  0.00000000000E+00  0.00000000000E+00  0.46867085224E+03  0.46867085225E+03  0.25500000920E-02 0. -1.
        2   -1    0    0  501    0  0.00000000000E+00  0.00000000000E+00 -0.90291842272E+03  0.90291842273E+03  0.25500000920E-02 0.  1.
    10030    2    1    2    0    0  0.00000000000E+00  0.00000000000E+00 -0.43424757048E+03  0.13715892750E+04  0.13010327385E+04 0.  0.
        1    1    3    3  502    0 -0.96563660342E+02 -0.61351990025E+03 -0.42111230983E+03  0.75037776221E+03  0.50400001928E-02 0.  1.
       -1    1    3    3    0  502  0.96563660342E+02  0.61351990025E+03 -0.13135260654E+02  0.62121151277E+03  0.50400001928E-02 0. -1.
</event>
<event>
 5   0  0.3274879E-04  0.1301578E+04  0.7818609E-02  0.9028315E-01
       -1   -1    0    0    0  501  0.00000000000E+00  0.00000000000E+00  0.83290245414E+03  0.83290245415E+03  0.50400001928E-02 0. -1.
        1   -1    0    0  501    0  0.00000000000E+00  0.00000000000E+00 -0.50849420561E+03  0.50849420564E+03  0.50400001928E-02 0.  1.
    10030    2    1    2    0    0  0.00000000000E+00  0.00000000000E+00  0.32440824853E+03  0.13413966598E+04  0.13015776147E+04 0.  0.
        4    1    3    3  502    0  0.98496601047E+02 -0.36218374415E+03  0.71011311731E+03  0.80320663420E+03  0.12699999809E+01 0. -1.
       -4    1    3    3    0  502 -0.98496601047E+02  0.36218374415E+03 -0.38570486878E+03  0.53819002559E+03  0.12699999809E+01 0.  1.
</event>
<event>
 5   0  0.6052864E-04  0.1299832E+04  0.7818609E-02  0.9029699E-01
        2   -1    0    0  501    0  0.00000000000E+00  0.00000000000E+00  0.80356818941E+03  0.80356818942E+03  0.25500000920E-02 0.  1.
       -2   -1    0    0    0  501  0.00000000000E+00  0.00000000000E+00 -0.52564380585E+03  0.52564380585E+03  0.25500000920E-02 0. -1.
    10030    2    1    2    0    0  0.00000000000E+00  0.00000000000E+00  0.27792438356E+03  0.13292119953E+04  0.12998317450E+04 0.  0.
        2    1    3    3  502    0 -0.90784623817E+02 -0.61414176717E+03 -0.57682774493E+02  0.62348958338E+03  0.25500000920E-02 0.  1.
       -2    1    3    3    0  502  0.90784623817E+02  0.61414176717E+03  0.33560715806E+03  0.70572241189E+03  0.25500000920E-02 0. -1.
</event>
<event>
 5   0  0.6052864E-04  0.1304842E+04  0.7818609E-02  0.9025734E-01
       -2   -1    0    0    0  501  0.00000000000E+00  0.00000000000E+00  0.67476259089E+03  0.67476259090E+03  0.25500000920E-02 0. -1.
        2   -1    0    0  501    0  0.00000000000E+00  0.00000000000E+00 -0.63081914184E+03  0.63081914185E+03  0.25500000920E-02 0.  1.
    10030    2    1    2    0    0  0.00000000000E+00  0.00000000000E+00  0.43943449050E+02  0.13055817327E+04  0.13048419959E+04 0.  0.
        2    1    3    3  502    0 -0.88037897253E+02 -0.64572206499E+03  0.52738172311E+02  0.65382640769E+03  0.25500000920E-02 0.  1.
       -2    1    3    3    0  502  0.88037897253E+02  0.64572206499E+03 -0.87947232607E+01  0.65175532505E+03  0.25500000920E-02 0. -1.
</event>
<event>
 5   0  0.3274879E-04  0.1304146E+04  0.7818609E-02  0.9026284E-01
       -1   -1    0    0    0  501  0.00000000000E+00  0.00000000000E+00  0.50392040033E+03  0.50392040036E+03  0.50400001928E-02 0.  1.
        1   -1    0    0  501    0  0.00000000000E+00  0.00000000000E+00 -0.84378290826E+03  0.84378290828E+03  0.50400001928E-02 0. -1.
    10030    2    1    2    0    0  0.00000000000E+00  0.00000000000E+00 -0.33986250793E+03  0.13477033086E+04  0.13041463429E+04 0.  0.
        4    1    3    3  502    0 -0.47560240002E+03  0.26530200777E+03  0.20067589651E+03  0.58039230402E+03  0.12699999809E+01 0.  1.
       -4    1    3    3    0  502  0.47560240002E+03 -0.26530200777E+03 -0.54053840444E+03  0.76731100461E+03  0.12699999809E+01 0. -1.
</event>
<event>
 5   0  0.3337520E-04  0.1300830E+04  0.7818609E-02  0.9028907E-01
       -1   -1    0    0    0  501  0.00000000000E+00  0.00000000000E+00  0.55290947246E+03  0.55290947249E+03  0.50400001928E-02 0.  1.
        1   -1    0    0  501    0  0.00000000000E+00  0.00000000000E+00 -0.76511615253E+03  0.76511615255E+03  0.50400001928E-02 0. -1.
    10030    2    1    2    0    0  0.00000000000E+00  0.00000000000E+00 -0.21220668007E+03  0.13180256250E+04  0.13008304552E+04 0.  0.
        5    1    3    3  502    0 -0.16810565454E+03 -0.51110817249E+03 -0.47634678956E+03  0.71862328726E+03  0.46999998093E+01 0. -1.
       -5    1    3    3    0  502  0.16810565454E+03  0.51110817249E+03  0.26414010949E+03  0.59940233777E+03  0.46999998093E+01 0.  1.
</event>
<event>
 5   0  0.2255875E-04  0.1298603E+04  0.7818609E-02  0.9030674E-01
       -4   -1    0    0    0  501  0.00000000000E+00  0.00000000000E+00  0.94611022992E+03  0.94611108230E+03  0.12699999809E+01 0.  1.
        4   -1    0    0  501    0  0.00000000000E+00  0.00000000000E+00 -0.44560427022E+03  0.44560608000E+03  0.12699999809E+01 0. -1.
    10030    2    1    2    0    0  0.00000000000E+00  0.00000000000E+00  0.50050595970E+03  0.13917171623E+04  0.12986032667E+04 0.  0.
        3    1    3    3  502    0 -0.19436281713E+03  0.54249362409E+03 -0.70392933070E+02  0.58054406559E+03  0.10100000352E+00 0. -1.
       -3    1    3    3    0  502  0.19436281713E+03 -0.54249362409E+03  0.57089889277E+03  0.81117309671E+03  0.10100000352E+00 0.  1.
</event>
<event>
 5   0  0.5384960E-04  0.1300448E+04  0.7818609E-02  0.9029210E-01
       -2   -1    0    0    0  501  0.00000000000E+00  0.00000000000E+00  0.36161599547E+03  0.36161599548E+03  0.25500000920E-02 0.  1.
        2   -1    0    0  501    0  0.00000000000E+00  0.00000000000E+00 -0.11691711124E+04  0.11691711124E+04  0.25500000920E-02 0. -1.
    10030    2    1    2    0    0  0.00000000000E+00  0.00000000000E+00 -0.80755511696E+03  0.15307871079E+04  0.13004475779E+04 0.  0.
        3    1    3    3  502    0  0.78902736470E+02 -0.41256664937E+03  0.18047662205E+03  0.45717469670E+03  0.10100000352E+00 0.  1.
       -3    1    3    3    0  502 -0.78902736470E+02  0.41256664937E+03 -0.98803173901E+03  0.10736124112E+04  0.10100000352E+00 0. -1.
</event>
<event>
 5   0  0.3263679E-04  0.1297693E+04  0.7818609E-02  0.9031397E-01
        1   -1    0    0  501    0  0.00000000000E+00  0.00000000000E+00  0.86104781789E+03  0.86104781790E+03  0.50400001928E-02 0.  1.
       -1   -1    0    0    0  501  0.00000000000E+00  0.00000000000E+00 -0.48894111742E+03  0.48894111744E+03  0.50400001928E-02 0. -1.
    10030    2    1    2    0    0  0.00000000000E+00  0.00000000000E+00  0.37210670047E+03  0.13499889353E+04  0.12976928485E+04 0.  0.
        2    1    3    3  502    0  0.51682995585E+03  0.21478632742E+03  0.52754307707E+03  0.76912162099E+03  0.25500000920E-02 0.  1.
       -2    1    3    3    0  502 -0.51682995585E+03 -0.21478632742E+03 -0.15543637661E+03  0.58086731435E+03  0.25500000920E-02 0. -1.
</event>
<event>
 5   0  0.3403833E-04  0.1300812E+04  0.7818609E-02  0.9028922E-01
       -1   -1    0    0    0  501  0.00000000000E+00  0.00000000000E+00  0.17233346934E+04  0.17233346934E+04  0.50400001928E-02 0. -1.
        1   -1    0    0  501    0  0.00000000000E+00  0.00000000000E+00 -0.24547053181E+03  0.24547053186E+03  0.50400001928E-02 0.  1.
    10030    2    1    2    0    0  0.00000000000E+00  0.00000000000E+00  0.14778641616E+04  0.19688052253E+04  0.13008118753E+04 0.  0.
        1    1    3    3  502    0 -0.49070977381E+03  0.42505419953E+03  0.79872531151E+03  0.10292858096E+04  0.50400001928E-02 0.  1.
       -1    1    3    3    0  502  0.49070977381E+03 -0.42505419953E+03  0.67913885012E+03  0.93951941566E+03  0.50400001928E-02 0. -1.
</event>
<event>
 5   0  0.5957913E-04  0.1299376E+04  0.7818609E-02  0.9030060E-01
        2   -1    0    0  501    0  0.00000000000E+00  0.00000000000E+00  0.42326148437E+03  0.42326148438E+03  0.25500000920E-02 0. -1.
       -2   -1    0    0    0  501  0.00000000000E+00  0.00000000000E+00 -0.99724339695E+03  0.99724339695E+03  0.25500000920E-02 0.  1.
    10030    2    1    2    0    0  0.00000000000E+00  0.00000000000E+00 -0.57398191258E+03  0.14205048813E+04  0.12993763434E+04 0.  0.
        1    1    3    3  502    0  0.57607580293E+03 -0.26038670651E+03 -0.12326260417E+03  0.64409489772E+03  0.50400001928E-02 0. -1.
       -1    1    3    3    0  502 -0.57607580293E+03  0.26038670651E+03 -0.45071930841E+03  0.77640998361E+03  0.50400001928E-02 0.  1.
</event>
<event>
 5   0  0.3337520E-04  0.1305007E+04  0.7818609E-02  0.9025604E-01
        1   -1    0    0  501    0  0.00000000000E+00  0.00000000000E+00  0.60532536093E+03  0.60532536095E+03  0.50400001928E-02 0.  1.
       -1   -1    0    0    0  501  0.00000000000E+00  0.00000000000E+00 -0.70335882918E+03  0.70335882920E+03  0.50400001928E-02 0. -1.
    10030    2    1    2    0    0  0.00000000000E+00  0.00000000000E+00 -0.98033468251E+02  0.13086841901E+04  0.13050071834E+04 0.  0.
        5    1    3    3  502    0  0.50243255705E+03  0.41055299645E+03 -0.11810650037E+03  0.65951760606E+03  0.46999998093E+01 0.  1.
       -5    1    3    3    0  502 -0.50243255705E+03 -0.41055299645E+03  0.20073032118E+02  0.64916658408E+03  0.46999998093E+01 0. -1.
</event>
<event>
 5   0  0.3337520E-04  0.1291845E+04  0.7818609E-02  0.9036057E-01
        1   -1    0    0  501    0  0.00000000000E+00  0.00000000000E+00  0.67515796091E+03  0.67515796092E+03  0.50400001928E-02 0.  1.
       -1   -1    0    0    0  501  0.00000000000E+00  0.00000000000E+00 -0.61795283666E+03  0.61795283668E+03  0.50400001928E-02 0. -1.
    10030    2    1    2    0    0  0.00000000000E+00  0.00000000000E+00  0.57205124250E+02  0.12931107976E+04  0.12918448470E+04 0.  0.
        5    1    3    3  502    0  0.45185074776E+03  0.27056184669E+03  0.40289529088E+03  0.66311350202E+03  0.46999998093E+01 0.  1.
       -5    1    3    3    0  502 -0.45185074776E+03 -0.27056184669E+03 -0.34569016663E+03  0.62999729559E+03  0.46999998093E+01 0. -1.
</event>
<event>
 5   0  0.6052864E-04  0.1301713E+04  0.7818609E-02  0.9028208E-01
        2   -1    0    0  501    0  0.00000000000E+00  0.00000000000E+00  0.35844449081E+03  0.35844449081E+03  0.25500000920E-02 0. -1.
       -2   -1    0    0    0  501  0.00000000000E+00  0.00000000000E+00 -0.11818128155E+04  0.11818128155E+04  0.25500000920E-02 0.  1.
    10030    2    1    2    0    0  0.00000000000E+00  0.00000000000E+00 -0.82336832472E+03  0.15402573063E+04  0.13017131679E+04 0.  0.
        2    1    3    3  502    0  0.30798923027E+03 -0.27886964291E+03  0.18111150400E+03  0.45324057694E+03  0.25500000920E-02 0. -1.
       -2    1    3    3    0  502 -0.30798923027E+03  0.27886964291E+03 -0.10044798287E+04  0.10870167294E+04  0.25500000920E-02 0.  1.
</event>
<event>
 5   0  0.6052864E-04  0.1340698E+04  0.7818609E-02  0.8997899E-01
       -2   -1    0    0    0  501  0.00000000000E+00  0.00000000000E+00  0.28432580484E+03  0.28432580485E+03  0.25500000920E-02 0. -1.
        2   -1    0    0  501    0  0.00000000000E+00  0.00000000000E+00 -0.15804682693E+04  0.15804682693E+04  0.25500000920E-02 0.  1.
    10030    2    1    2    0    0  0.00000000000E+00  0.00000000000E+00 -0.12961424645E+04  0.18647940741E+04  0.13406981953E+04 0.  0.
        2    1    3    3  502    0  0.26569327832E+02  0.12257338278E+03 -0.15640035786E+04  0.15690243329E+04  0.25500000920E-02 0.  1.
       -2    1    3    3    0  502 -0.26569327832E+02 -0.12257338278E+03  0.26786111416E+03  0.29576974124E+03  0.25500000920E-02 0. -1.
</event>
<event>
 5   0  0.3403833E-04  0.1301523E+04  0.7818609E-02  0.9028358E-01
        1   -1    0    0  501    0  0.00000000000E+00  0.00000000000E+00  0.27610368085E+03  0.27610368089E+03  0.50400001928E-02 0.  1.
       -1   -1    0    0    0  501  0.00000000000E+00  0.00000000000E+00 -0.15338107176E+04  0.15338107176E+04  0.50400001928E-02 0. -1.
    10030    2    1    2    0    0  0.00000000000E+00  0.00000000000E+00 -0.12577070367E+04  0.18099143985E+04  0.13015233919E+04 0.  0.
        1    1    3    3  502    0  0.17856071598E+03  0.62479119317E+03 -0.67787768997E+03  0.93902402895E+03  0.50400001928E-02 0. -1.
       -1    1    3    3    0  502 -0.17856071598E+03 -0.62479119317E+03 -0.57982934677E+03  0.87089036954E+03  0.50400001928E-02 0.  1.
</event>
<event>
 5   0  0.6007125E-04  0.1298548E+04  0.7818609E-02  0.9030717E-01
       -2   -1    0    0    0  501  0.00000000000E+00  0.00000000000E+00  0.29777251764E+03  0.29777251765E+03  0.25500000920E-02 0.  1.
        2   -1    0    0  501    0  0.00000000000E+00  0.00000000000E+00 -0.14157005140E+04  0.14157005140E+04  0.25500000920E-02 0. -1.
    10030    2    1    2    0    0  0.00000000000E+00  0.00000000000E+00 -0.11179279964E+04  0.17134730317E+04  0.12985479680E+04 0.  0.
        5    1    3    3  502    0  0.42445951056E+03  0.27584290161E+03 -0.10954133004E+04  0.12067342587E+04  0.46999998093E+01 0. -1.
       -5    1    3    3    0  502 -0.42445951056E+03 -0.27584290161E+03 -0.22514695969E+02  0.50673877295E+03  0.46999998093E+01 0.  1.
</event>
<event>
 5   0  0.3274879E-04  0.1300035E+04  0.7818609E-02  0.9029537E-01
        1   -1    0    0  501    0  0.00000000000E+00  0.00000000000E+00  0.12694605972E+04  0.12694605972E+04  0.50400001928E-02 0.  1.
       -1   -1    0    0    0  501  0.00000000000E+00  0.00000000000E+00 -0.33283664615E+03  0.33283664619E+03  0.50400001928E-02 0. -1.
    10030    2    1    2    0    0  0.00000000000E+00  0.00000000000E+00  0.93662395107E+03  0.16022972434E+04  0.13000353959E+04 0.  0.
        4    1    3    3  502    0  0.59955059559E+02 -0.34060108801E+02 -0.32831464612E+03  0.33547998440E+03  0.12699999809E+01 0. -1.
       -4    1    3    3    0  502 -0.59955059559E+02  0.34060108801E+02  0.12649385972E+04  0.12668172590E+04  0.12699999809E+01 0.  1.
</event>
<event>
 5   0  0.6052864E-04  0.1296862E+04  0.7818609E-02  0.9032057E-01
        2   -1    0    0  501    0  0.00000000000E+00  0.00000000000E+00  0.10783417903E+04  0.10783417903E+04  0.25500000920E-02 0. -1.
       -2   -1    0    0    0  501  0.00000000000E+00  0.00000000000E+00 -0.38991595076E+03  0.38991595077E+03  0.25500000920E-02 0.  1.
    10030    2    1    2    0    0  0.00000000000E+00  0.00000000000E+00  0.68842583950E+03  0.14682577410E+04  0.12968618499E+04 0.  0.
        2    1    3    3  502    0  0.38159752769E+03  0.52326128663E+03  0.30763835273E+03  0.71698005782E+03  0.25500000920E-02 0. -1.
       -2    1    3    3    0  502 -0.38159752769E+03 -0.52326128663E+03  0.38078748677E+03  0.75127768323E+03  0.25500000920E-02 0.  1.
</event>
<event>
 5   0  0.3335747E-04  0.1313484E+04  0.7818609E-02  0.9018940E-01
       -1   -1    0    0    0  501  0.00000000000E+00  0.00000000000E+00  0.51319123928E+03  0.51319123931E+03  0.50400001928E-02 0.  1.
        1   -1    0    0  501    0  0.00000000000E+00  0.00000000000E+00 -0.84044693738E+03  0.84044693740E+03  0.50400001928E-02 0. -1.
    10030    2    1    2    0    0  0.00000000000E+00  0.00000000000E+00 -0.32725569810E+03  0.13536381767E+04  0.13134839251E+04 0.  0.
        3    1    3    3  502    0  0.55585220349E+03 -0.33682617642E+03 -0.66478033345E+02  0.65333213940E+03  0.10100000352E+00 0. -1.
       -3    1    3    3    0  502 -0.55585220349E+03  0.33682617642E+03 -0.26077766475E+03  0.70030603731E+03  0.10100000352E+00 0.  1.
</event>
<event>
 5   0  0.3337520E-04  0.1301795E+04  0.7818609E-02  0.9028143E-01
        1   -1    0    0  501    0  0.00000000000E+00  0.00000000000E+00  0.94506055094E+03  0.94506055095E+03  0.50400001928E-02 0.  1.
       -1   -1    0    0    0  501  0.00000000000E+00  0.00000000000E+00 -0.44829680567E+03  0.44829680570E+03  0.50400001928E-02 0. -1.
    10030    2    1    2    0    0  0.00000000000E+00  0.00000000000E+00  0.49676374526E+03  0.13933573567E+04  0.13017951086E+04 0.  0.
        5    1    3    3  502    0 -0.73665694288E+02  0.13312868434E+03  0.92574068293E+03  0.93817257642E+03  0.46999998093E+01 0.  1.
       -5    1    3    3    0  502  0.73665694288E+02 -0.13312868434E+03 -0.42897693767E+03  0.45518478023E+03  0.46999998093E+01 0. -1.
</event>
<event>
 5   0  0.3263679E-04  0.1303203E+04  0.7818609E-02  0.9027029E-01
       -1   -1    0    0    0  501  0.00000000000E+00  0.00000000000E+00  0.37805563261E+03  0.37805563264E+03  0.50400001928E-02 0. -1.
        1   -1    0    0  501    0  0.00000000000E+00  0.00000000000E+00 -0.11230741313E+04  0.11230741313E+04  0.50400001928E-02 0.  1.
    10030    2    1    2    0    0  0.00000000000E+00  0.00000000000E+00 -0.74501849872E+03  0.15011297640E+04  0.13032029792E+04 0.  0.
        2    1    3    3  502    0  0.41846893540E+03  0.91592004673E+01  0.20271975898E+03  0.46507573742E+03  0.25500000920E-02 0. -1.
       -2    1    3    3    0  502 -0.41846893540E+03 -0.91592004673E+01 -0.94773825770E+03  0.10360540266E+04  0.25500000920E-02 0.  1.
</event>
<event>
 5   0  0.3337520E-04  0.1325024E+04  0.7818609E-02  0.9009953E-01
        1   -1    0    0  501    0  0.00000000000E+00  0.00000000000E+00  0.15374185065E+04  0.15374185065E+04  0.50400001928E-02 0. -1.
       -1   -1    0    0    0  501  0.00000000000E+00  0.00000000000E+00 -0.28549282623E+03  0.28549282628E+03  0.50400001928E-02 0.  1.
    10030    2    1    2    0    0  0.00000000000E+00  0.00000000000E+00  0.12519256803E+04  0.18229113328E+04  0.13250237048E+04 0.  0.
        5    1    3    3  502    0  0.30021238771E+03  0.12012148785E+03  0.14214591220E+04  0.14577807706E+04  0.46999998093E+01 0. -1.
       -5    1    3    3    0  502 -0.30021238771E+03 -0.12012148785E+03 -0.16953344174E+03  0.36513056219E+03  0.46999998093E+01 0.  1.
</event>
<event>
 5   0  0.6052864E-04  0.1302417E+04  0.7818609E-02  0.9027651E-01
        2   -1    0    0  501    0  0.00000000000E+00  0.00000000000E+00  0.16367871542E+04  0.16367871542E+04  0.25500000920E-02 0. -1.
       -2   -1    0    0    0  501  0.00000000000E+00  0.00000000000E+00 -0.25908836602E+03  0.25908836603E+03  0.25500000920E-02 0.  1.
    10030    2    1    2    0    0  0.00000000000E+00  0.00000000000E+00  0.13776987882E+04  0.18958755202E+04  0.13024169982E+04 0.  0.
        2    1    3    3  502    0 -0.50428545645E+03  0.15198154218E+02  0.89482278345E+02  0.51238841090E+03  0.25500000920E-02 0.  1.
       -2    1    3    3    0  502  0.50428545645E+03 -0.15198154218E+02  0.12882165098E+04  0.13834871093E+04  0.25500000920E-02 0. -1.
</event>
<event>
 5   0  0.6052864E-04  0.1282836E+04  0.7818609E-02  0.9043288E-01
       -2   -1    0    0    0  501  0.00000000000E+00  0.00000000000E+00  0.56786233199E+03  0.56786233200E+03  0.25500000920E-02 0. -1.
        2   -1    0    0  501    0  0.00000000000E+00  0.00000000000E+00 -0.72450165306E+03  0.72450165306E+03  0.25500000920E-02 0.  1.
    10030    2    1    2    0    0  0.00000000000E+00  0.00000000000E+00 -0.15663932107E+03  0.12923639851E+04  0.12828362300E+04 0.  0.
        2    1    3    3  502    0 -0.12176197661E+02 -0.14463089997E+03  0.55110128322E+03  0.56989383344E+03  0.25500000920E-02 0. -1.
       -2    1    3    3    0  502  0.12176197661E+02  0.14463089997E+03 -0.70774060429E+03  0.72247015162E+03  0.25500000920E-02 0.  1.
</event>
<event>
 5   0  0.3263679E-04  0.1297877E+04  0.7818609E-02  0.9031250E-01
        1   -1    0    0  501    0  0.00000000000E+00  0.00000000000E+00  0.18253764013E+04  0.18253764013E+04  0.50400001928E-02 0. -1.
       -1   -1    0    0    0  501  0.00000000000E+00  0.00000000000E+00 -0.23070384449E+03  0.23070384455E+03  0.50400001928E-02 0.  1.
    10030    2    1    2    0    0  0.00000000000E+00  0.00000000000E+00  0.15946725568E+04  0.20560802459E+04  0.12978772723E+04 0.  0.
        2    1    3    3  502    0  0.43119969901E+03 -0.44171923036E+03  0.48021269601E+03  0.78208266335E+03  0.25500000920E-02 0.  1.
       -2    1    3    3    0  502 -0.43119969901E+03  0.44171923036E+03  0.11144598608E+04  0.12739975825E+04  0.25500000920E-02 0. -1.
</event>
<event>
 5   0  0.5787604E-04  0.1294602E+04  0.7818609E-02  0.9033857E-01
       -2   -1    0    0    0  501  0.00000000000E+00  0.00000000000E+00  0.34052827722E+03  0.34052827723E+03  0.25500000920E-02 0. -1.
        2   -1    0    0  501    0  0.00000000000E+00  0.00000000000E+00 -0.12304371438E+04  0.12304371438E+04  0.25500000920E-02 0.  1.
    10030    2    1    2    0    0  0.00000000000E+00  0.00000000000E+00 -0.88990886659E+03  0.15709654210E+04  0.12946020868E+04 0.  0.
        4    1    3    3  502    0 -0.93112117910E+02 -0.37368352858E+03 -0.10762963867E+04  0.11431206284E+04  0.12699999809E+01 0.  1.
       -4    1    3    3    0  502  0.93112117910E+02  0.37368352858E+03  0.18638752015E+03  0.42784479265E+03  0.12699999809E+01 0. -1.
</event>
<event>
 5   0  0.3337520E-04  0.1296161E+04  0.7818609E-02  0.9032615E-01
       -1   -1    0    0    0  501  0.00000000000E+00  0.00000000000E+00  0.10153151118E+04  0.10153151118E+04  0.50400001928E-02 0.  1.
        1   -1    0    0  501    0  0.00000000000E+00  0.00000000000E+00 -0.41367283729E+03  0.41367283732E+03  0.50400001928E-02 0. -1.
    10030    2    1    2    0    0  0.00000000000E+00  0.00000000000E+00  0.60164227454E+03  0.14289879492E+04  0.12961609207E+04 0.  0.
        5    1    3    3  502    0 -0.48968769275E+02  0.13448795334E+03 -0.39601186455E+03  0.42110858079E+03  0.46999998093E+01 0. -1.
       -5    1    3    3    0  502  0.48968769275E+02 -0.13448795334E+03  0.99765413909E+03  0.10078793684E+04  0.46999998093E+01 0.  1.
</event>
<event>
 5   0  0.3337520E-04  0.1301108E+04  0.7818609E-02  0.9028687E-01
        1   -1    0    0  501    0  0.00000000000E+00  0.00000000000E+00  0.16961554450E+04  0.16961554450E+04  0.50400001928E-02 0. -1.
       -1   -1    0    0    0  501  0.00000000000E+00  0.00000000000E+00 -0.24951754064E+03  0.24951754069E+03  0.50400001928E-02 0.  1.
    10030    2    1    2    0    0  0.00000000000E+00  0.00000000000E+00  0.14466379044E+04  0.19456729857E+04  0.13011080435E+04 0.  0.
        5    1    3    3  502    0 -0.54585465999E+03  0.35077815003E+03  0.79339269858E+03  0.10249374052E+04  0.46999998093E+01 0. -1.
       -5    1    3    3    0  502  0.54585465999E+03 -0.35077815003E+03  0.65324520582E+03  0.92073558055E+03  0.46999998093E+01 0.  1.
</event>
<event>
 5   0  0.3335747E-04  0.1301822E+04  0.7818609E-02  0.9028121E-01
       -1   -1    0    0    0  501  0.00000000000E+00  0.00000000000E+00  0.40108654322E+03  0.40108654326E+03  0.50400001928E-02 0.  1.
        1   -1    0    0  501    0  0.00000000000E+00  0.00000000000E+00 -0.10563441269E+04  0.10563441269E+04  0.50400001928E-02 0. -1.
    10030    2    1    2    0    0  0.00000000000E+00  0.00000000000E+00 -0.65525758365E+03  0.14574306701E+04  0.13018224369E+04 0.  0.
        3    1    3    3  502    0 -0.39293750223E+03  0.51323352646E+03 -0.24180469862E+03  0.69012901389E+03  0.10100000352E+00 0.  1.
       -3    1    3    3    0  502  0.39293750223E+03 -0.51323352646E+03 -0.41345288503E+03  0.76730165625E+03  0.10100000352E+00 0. -1.
</event>
<event>
 5   0  0.6052864E-04  0.1309597E+04  0.7818609E-02  0.9021989E-01
       -2   -1    0    0    0  501  0.00000000000E+00  0.00000000000E+00  0.68819358100E+03  0.68819358100E+03  0.25500000920E-02 0.  1.
        2   -1    0    0  501    0  0.00000000000E+00  0.00000000000E+00 -0.62302385838E+03  0.62302385839E+03  0.25500000920E-02 0. -1.
    10030    2    1    2    0    0  0.00000000000E+00  0.00000000000E+00  0.65169722619E+02  0.13112174394E+04  0.13095969153E+04 0.  0.
        2    1    3    3  502    0  0.31551226915E+03  0.24904474704E+03 -0.48495876410E+03  0.62988592689E+03  0.25500000920E-02 0. -1.
       -2    1    3    3    0  502 -0.31551226915E+03 -0.24904474704E+03  0.55012848672E+03  0.68133151250E+03  0.25500000920E-02 0.  1.
</event>
<event>
 5   0  0.3403833E-04  0.1300847E+04  0.7818609E-02  0.9028893E-01
       -1   -1    0    0    0  501  0.00000000000E+00  0.00000000000E+00  0.20536412830E+03  0.20536412836E+03  0.50400001928E-02 0. -1.
        1   -1    0    0  501    0  0.00000000000E+00  0.00000000000E+00 -0.20600042851E+04  0.20600042851E+04  0.50400001928E-02 0.  1.
    10030    2    1    2    0    0  0.00000000000E+00  0.00000000000E+00 -0.18546401568E+04  0.22653684134E+04  0.13008473921E+04 0.  0.
        1    1    3    3  502    0  0.43549431420E+03 -0.30120854319E+03 -0.15850952115E+04  0.16711997827E+04  0.50400001928E-02 0.  1.
       -1    1    3    3    0  502 -0.43549431420E+03  0.30120854319E+03 -0.26954494529E+03  0.59416863073E+03  0.50400001928E-02 0. -1.
</event>
<event>
 5   0  0.6052864E-04  0.1256126E+04  0.7818609E-02  0.9065100E-01
       -2   -1    0    0    0  501  0.00000000000E+00  0.00000000000E+00  0.10455169197E+04  0.10455169197E+04  0.25500000920E-02 0.  1.
        2   -1    0    0  501    0  0.00000000000E+00  0.00000000000E+00 -0.37728981561E+03  0.37728981562E+03  0.25500000920E-02 0. -1.
    10030    2    1    2    0    0  0.00000000000E+00  0.00000000000E+00  0.66822710412E+03  0.14228067353E+04  0.12561256082E+04 0.  0.
        2    1    3    3  502    0  0.30541670094E+03 -0.48899721728E+03  0.61630060499E+03  0.84393369137E+03  0.25500000920E-02 0.  1.
       -2    1    3    3    0  502 -0.30541670094E+03  0.48899721728E+03  0.51926499128E+02  0.57887304397E+03  0.25500000920E-02 0. -1.
</event>
<event>
 5   0  0.6052864E-04  0.1297190E+04  0.7818609E-02  0.9031796E-01
        2   -1    0    0  501    0  0.00000000000E+00  0.00000000000E+00  0.32544832686E+03  0.32544832687E+03  0.25500000920E-02 0. -1.
       -2   -1    0    0    0  501  0.00000000000E+00  0.00000000000E+00 -0.12926035679E+04  0.12926035679E+04  0.25500000920E-02 0.  1.
    10030    2    1    2    0    0  0.00000000000E+00  0.00000000000E+00 -0.96715524107E+03  0.16180518948E+04  0.12971902998E+04 0.  0.
        2    1    3    3  502    0  0.22190520719E+03  0.20992279864E+03  0.23010586938E+03  0.38243720203E+03  0.25500000920E-02 0. -1.
       -2    1    3    3    0  502 -0.22190520719E+03 -0.20992279864E+03 -0.11972611105E+04  0.12356146928E+04  0.25500000920E-02 0.  1.
</event>
<event>
 5   0  0.3335747E-04  0.1289750E+04  0.7818609E-02  0.9037733E-01
        1   -1    0    0  501    0  0.00000000000E+00  0.00000000000E+00  0.49438327046E+03  0.49438327048E+03  0.50400001928E-02 0. -1.
       -1   -1    0    0    0  501  0.00000000000E+00  0.00000000000E+00 -0.84117748352E+03  0.84117748354E+03  0.50400001928E-02 0.  1.
    10030    2    1    2    0    0  0.00000000000E+00  0.00000000000E+00 -0.34679421307E+03  0.13355607540E+04  0.12897504803E+04 0.  0.
        3    1    3    3  502    0  0.14620513687E+02 -0.28134380090E+03 -0.77408362502E+03  0.82375576626E+03  0.10100000352E+00 0.  1.
       -3    1    3    3    0  502 -0.14620513687E+02  0.28134380090E+03  0.42728941195E+03  0.51180498776E+03  0.10100000352E+00 0. -1.
</event>
<event>
 5   0  0.3403833E-04  0.1299357E+04  0.7818609E-02  0.9030075E-01
       -1   -1    0    0    0  501  0.00000000000E+00  0.00000000000E+00  0.30055987948E+03  0.30055987952E+03  0.50400001928E-02 0. -1.
        1   -1    0    0  501    0  0.00000000000E+00  0.00000000000E+00 -0.14043192604E+04  0.14043192604E+04  0.50400001928E-02 0.  1.
    10030    2    1    2    0    0  0.00000000000E+00  0.00000000000E+00 -0.11037593809E+04  0.17048791399E+04  0.12993568066E+04 0.  0.
        1    1    3    3  502    0 -0.19186872103E+03  0.61910101008E+03 -0.49346036595E+03  0.81461819251E+03  0.50400001928E-02 0. -1.
       -1    1    3    3    0  502  0.19186872103E+03 -0.61910101008E+03 -0.61029901495E+03  0.89026094739E+03  0.50400001928E-02 0.  1.
</event>
<event>
 5   0  0.3335747E-04  0.1298235E+04  0.7818609E-02  0.9030966E-01
       -1   -1    0    0    0  501  0.00000000000E+00  0.00000000000E+00  0.10086531832E+04  0.10086531833E+04  0.50400001928E-02 0.  1.
        1   -1    0    0  501    0  0.00000000000E+00  0.00000000000E+00 -0.41773871581E+03  0.41773871585E+03  0.50400001928E-02 0. -1.
    10030    2    1    2    0    0  0.00000000000E+00  0.00000000000E+00  0.59091446743E+03  0.14263918991E+04  0.12982349333E+04 0.  0.
        3    1    3    3  502    0 -0.67538589586E+02 -0.60874827120E+03  0.53166222100E+03  0.81104910222E+03  0.10100000352E+00 0.  1.
       -3    1    3    3    0  502  0.67538589586E+02  0.60874827120E+03  0.59252246438E+02  0.61534279689E+03  0.10100000352E+00 0. -1.
</event>
<event>
 5   0  0.3337520E-04  0.1298578E+04  0.7818609E-02  0.9030694E-01
       -1   -1    0    0    0  501  0.00000000000E+00  0.00000000000E+00  0.44259910672E+03  0.44259910675E+03  0.50400001928E-02 0. -1.
        1   -1    0    0  501    0  0.00000000000E+00  0.00000000000E+00 -0.95250122880E+03  0.95250122881E+03  0.50400001928E-02 0.  1.
    10030    2    1    2    0    0  0.00000000000E+00  0.00000000000E+00 -0.50990212208E+03  0.13951003356E+04  0.12985779808E+04 0.  0.
        5    1    3    3  502    0  0.26727616817E+03  0.23798544545E+02 -0.89012518360E+03  0.92970309953E+03  0.46999998093E+01 0.  1.
       -5    1    3    3    0  502 -0.26727616817E+03 -0.23798544545E+02  0.38022306152E+03  0.46539723603E+03  0.46999998093E+01 0. -1.
</event>
<event>
 5   0  0.3274879E-04  0.1303277E+04  0.7818609E-02  0.9026971E-01
        1   -1    0    0  501    0  0.00000000000E+00  0.00000000000E+00  0.66786735871E+03  0.66786735873E+03  0.50400001928E-02 0.  1.
       -1   -1    0    0    0  501  0.00000000000E+00  0.00000000000E+00 -0.63580366636E+03  0.63580366638E+03  0.50400001928E-02 0. -1.
    10030    2    1    2    0    0  0.00000000000E+00  0.00000000000E+00  0.32063692356E+02  0.13036710251E+04  0.13032766634E+04 0.  0.
        4    1    3    3  502    0 -0.60953189993E+03  0.66173403310E+02 -0.20476746743E+03  0.64640496978E+03  0.12699999809E+01 0.  1.
       -4    1    3    3    0  502  0.60953189993E+03 -0.66173403310E+02  0.23683115978E+03  0.65726605533E+03  0.12699999809E+01 0. -1.
</event>
<event>
 5   0  0.3274879E-04  0.1293319E+04  0.7818609E-02  0.9034880E-01
       -1   -1    0    0    0  501  0.00000000000E+00  0.00000000000E+00  0.13964545421E+04  0.13964545421E+04  0.50400001928E-02 0. -1.
        1   -1    0    0  501    0  0.00000000000E+00  0.00000000000E+00 -0.29945033836E+03  0.29945033841E+03  0.50400001928E-02 0.  1.
    10030    2    1    2    0    0  0.00000000000E+00  0.00000000000E+00  0.10970042037E+04  0.16959048805E+04  0.12933194272E+04 0.  0.
        4    1    3    3  502    0  0.32974898640E+02  0.30649587815E+03  0.12939050733E+04  0.13301199265E+04  0.12699999809E+01 0. -1.
       -4    1    3    3    0  502 -0.32974898640E+02 -0.30649587815E+03 -0.19690086955E+03  0.36578495403E+03  0.12699999809E+01 0.  1.
</event>
<event>
 5   0  0.5957913E-04  0.1299249E+04  0.7818609E-02  0.9030161E-01
       -2   -1    0    0    0  501  0.00000000000E+00  0.00000000000E+00  0.86657778835E+03  0.86657778836E+03  0.25500000920E-02 0. -1.
        2   -1    0    0  501    0  0.00000000000E+00  0.00000000000E+00 -0.48698718422E+03  0.48698718423E+03  0.25500000920E-02 0.  1.
    10030    2    1    2    0    0  0.00000000000E+00  0.00000000000E+00  0.37959060413E+03  0.13535649726E+04  0.12992494404E+04 0.  0.
        1    1    3    3  502    0  0.49093711954E+03 -0.17488417019E+03  0.59383387562E+03  0.79009012156E+03  0.50400001928E-02 0. -1.
       -1    1    3    3    0  502 -0.49093711954E+03  0.17488417019E+03 -0.21424327149E+03  0.56347485102E+03  0.50400001928E-02 0.  1.
</event>
<event>
 5   0  0.5384960E-04  0.1283352E+04  0.7818609E-02  0.9042873E-01
        2   -1    0    0  501    0  0.00000000000E+00  0.00000000000E+00  0.20141209769E+04  0.20141209769E+04  0.25500000920E-02 0.  1.
       -2   -1    0    0    0  501  0.00000000000E+00  0.00000000000E+00 -0.20443054181E+03  0.20443054183E+03  0.25500000920E-02 0. -1.
    10030    2    1    2    0    0  0.00000000000E+00  0.00000000000E+00  0.18096904351E+04  0.22185515188E+04  0.12833516160E+04 0.  0.
        3    1    3    3  502    0  0.22003908142E+03  0.38167491485E+03  0.17113520952E+04  0.17671499489E+04  0.10100000352E+00 0.  1.
       -3    1    3    3    0  502 -0.22003908142E+03 -0.38167491485E+03  0.98338339942E+02  0.45140156987E+03  0.10100000352E+00 0. -1.
</event>
<event>
 5   0  0.3337520E-04  0.1297703E+04  0.7818609E-02  0.9031388E-01
        1   -1    0    0  501    0  0.00000000000E+00  0.00000000000E+00  0.10441665601E+04  0.10441665601E+04  0.50400001928E-02 0. -1.
       -1   -1    0    0    0  501  0.00000000000E+00  0.00000000000E+00 -0.40320046952E+03  0.40320046955E+03  0.50400001928E-02 0.  1.
    10030    2    1    2    0    0  0.00000000000E+00  0.00000000000E+00  0.64096609058E+03  0.14473670297E+04  0.12977032747E+04 0.  0.
        5    1    3    3  502    0 -0.19138531705E+03  0.15824377390E+03 -0.34807960758E+03  0.42761072808E+03  0.46999998093E+01 0.  1.
       -5    1    3    3    0  502  0.19138531705E+03 -0.15824377390E+03  0.98904569816E+03  0.10197563016E+04  0.46999998093E+01 0. -1.
</event>
<event>
 5   0  0.6052864E-04  0.1307721E+04  0.7818609E-02  0.9023465E-01
        2   -1    0    0  501    0  0.00000000000E+00  0.00000000000E+00  0.39114106843E+03  0.39114106844E+03  0.25500000920E-02 0.  1.
       -2   -1    0    0    0  501  0.00000000000E+00  0.00000000000E+00 -0.10930420041E+04  0.10930420041E+04  0.25500000920E-02 0. -1.
    10030    2    1    2    0    0  0.00000000000E+00  0.00000000000E+00 -0.70190093568E+03  0.14841830726E+04  0.13077210977E+04 0.  0.
        2    1    3    3  502    0 -0.29516086278E+02 -0.62605891741E+02 -0.10888725646E+04  0.10910701898E+04  0.25500000920E-02 0. -1.
       -2    1    3    3    0  502  0.29516086278E+02  0.62605891741E+02  0.38697162892E+03  0.39311288280E+03  0.25500000920E-02 0.  1.
</event>
<event>
 5   0  0.5787604E-04  0.1300698E+04  0.7818609E-02  0.9029012E-01
       -2   -1    0    0    0  501  0.00000000000E+00  0.00000000000E+00  0.89150622437E+03  0.89150622438E+03  0.25500000920E-02 0. -1.
        2   -1    0    0  501    0  0.00000000000E+00  0.00000000000E+00 -0.47442575979E+03  0.47442575980E+03  0.25500000920E-02 0.  1.
    10030    2    1    2    0    0  0.00000000000E+00  0.00000000000E+00  0.41708046458E+03  0.13659319842E+04  0.13006975327E+04 0.  0.
        4    1    3    3  502    0  0.16560598564E+03 -0.32418878194E+03  0.77448252094E+03  0.85577362483E+03  0.12699999809E+01 0. -1.
       -4    1    3    3    0  502 -0.16560598564E+03  0.32418878194E+03 -0.35740205636E+03  0.51015835934E+03  0.12699999809E+01 0.  1.
</event>
<event>
 5   0  0.3274879E-04  0.1295622E+04  0.7818609E-02  0.9033044E-01
       -1   -1    0    0    0  501  0.00000000000E+00  0.00000000000E+00  0.10864280269E+04  0.10864280269E+04  0.50400001928E-02 0. -1.
        1   -1    0    0  501    0  0.00000000000E+00  0.00000000000E+00 -0.38627438975E+03  0.38627438978E+03  0.50400001928E-02 0.  1.
    10030    2    1    2    0    0  0.00000000000E+00  0.00000000000E+00  0.70015363718E+03  0.14727024167E+04  0.12956223572E+04 0.  0.
        4    1    3    3  502    0  0.31823903367E+03  0.56114284218E+03  0.28282692833E+03  0.70437919913E+03  0.12699999809E+01 0.  1.
       -4    1    3    3    0  502 -0.31823903367E+03 -0.56114284218E+03  0.41732670885E+03  0.76832321760E+03  0.12699999809E+01 0. -1.
</event>
<event>
 5   0  0.6007125E-04  0.1247669E+04  0.7818609E-02  0.9072126E-01
        2   -1    0    0  501    0  0.00000000000E+00  0.00000000000E+00  0.14154779357E+04  0.14154779357E+04  0.25500000920E-02 0.  1.
       -2   -1    0    0    0  501  0.00000000000E+00  0.00000000000E+00 -0.27493850479E+03  0.27493850481E+03  0.25500000920E-02 0. -1.
    10030    2    1    2    0    0  0.00000000000E+00  0.00000000000E+00  0.11405394309E+04  0.16904164405E+04  0.12476688458E+04 0.  0.
        5    1    3    3  502    0  0.12065201845E+02  0.53196010444E+03  0.10114221052E+04  0.11428577718E+04  0.46999998093E+01 0.  1.
       -5    1    3    3    0  502 -0.12065201845E+02 -0.53196010444E+03  0.12911732570E+03  0.54755866864E+03  0.46999998093E+01 0. -1.
</event>
<event>
 5   0  0.5957913E-04  0.1299042E+04  0.7818609E-02  0.9030325E-01
       -2   -1    0    0    0  501  0.00000000000E+00  0.00000000000E+00  0.26658357124E+03  0.26658357125E+03  0.25500000920E-02 0. -1.
        2   -1    0    0  501    0  0.00000000000E+00  0.00000000000E+00 -0.15825337980E+04  0.15825337980E+04  0.25500000920E-02 0.  1.
    10030    2    1    2    0    0  0.00000000000E+00  0.00000000000E+00 -0.13159502268E+04  0.18491173693E+04  0.12990419724E+04 0.  0.
        1    1    3    3  502    0 -0.52622704981E+03 -0.31315049732E+03 -0.96624052412E+03  0.11439400738E+04  0.50400001928E-02 0.  1.
       -1    1    3    3    0  502  0.52622704981E+03  0.31315049732E+03 -0.34970970265E+03  0.70517729549E+03  0.50400001928E-02 0. -1.
</event>
<event>
 5   0  0.3274879E-04  0.1300321E+04  0.7818609E-02  0.9029311E-01
       -1   -1    0    0    0  501  0.00000000000E+00  0.00000000000E+00  0.10630657301E+04  0.10630657301E+04  0.50400001928E-02 0. -1.
        1   -1    0    0  501    0  0.00000000000E+00  0.00000000000E+00 -0.39763157220E+03  0.39763157223E+03  0.50400001928E-02 0.  1.
    10030    2    1    2    0    0  0.00000000000E+00  0.00000000000E+00  0.66543415786E+03  0.14606973023E+04  0.13003207260E+04 0.  0.
        4    1    3    3  502    0  0.37180357190E+03 -0.74340241340E+02 -0.26057301919E+03  0.46006986294E+03  0.12699999809E+01 0.  1.
       -4    1    3    3    0  502 -0.37180357190E+03  0.74340241340E+02  0.92600717705E+03  0.10006274394E+04  0.12699999809E+01 0. -1.
</event>
<event>
 5   0  0.2255875E-04  0.1306183E+04  0.7818609E-02  0.9024676E-01
       -3   -1    0    0    0  501  0.00000000000E+00  0.00000000000E+00  0.14001787376E+04  0.14001787412E+04  0.10100000352E+00 0.  1.
        3   -1    0    0  501    0  0.00000000000E+00  0.00000000000E+00 -0.30462435311E+03  0.30462436986E+03  0.10100000352E+00 0. -1.
    10030    2    1    2    0    0  0.00000000000E+00  0.00000000000E+00  0.10955543845E+04  0.17048031111E+04  0.13061830799E+04 0.  0.
        3    1    3    3  502    0 -0.23820622011E+01 -0.23305333849E+03  0.13440531815E+04  0.13641108818E+04  0.10100000352E+00 0.  1.
       -3    1    3    3    0  502  0.23820622011E+01  0.23305333849E+03 -0.24849879703E+03  0.34069222933E+03  0.10100000352E+00 0. -1.
</event>
<event>
 5   0  0.3403833E-04  0.1301683E+04  0.7818609E-02  0.9028231E-01
        1   -1    0    0  501    0  0.00000000000E+00  0.00000000000E+00  0.85384340416E+03  0.85384340418E+03  0.50400001928E-02 0.  1.
       -1   -1    0    0    0  501  0.00000000000E+00  0.00000000000E+00 -0.49610365907E+03  0.49610365909E+03  0.50400001928E-02 0. -1.
    10030    2    1    2    0    0  0.00000000000E+00  0.00000000000E+00  0.35773974509E+03  0.13499470633E+04  0.13016832750E+04 0.  0.
        1    1    3    3  502    0  0.56537005021E+03 -0.29748557530E+03  0.49946955386E+02  0.64080859823E+03  0.50400001928E-02 0. -1.
       -1    1    3    3    0  502 -0.56537005021E+03  0.29748557530E+03  0.30779278971E+03  0.70913846504E+03  0.50400001928E-02 0.  1.
</event>
<event>
 5   0  0.5787604E-04  0.1300917E+04  0.7818609E-02  0.9028838E-01
       -2   -1    0    0    0  501  0.00000000000E+00  0.00000000000E+00  0.11697891875E+04  0.11697891875E+04  0.25500000920E-02 0. -1.
        2   -1    0    0  501    0  0.00000000000E+00  0.00000000000E+00 -0.36168577536E+03  0.36168577537E+03  0.25500000920E-02 0.  1.
    10030    2    1    2    0    0  0.00000000000E+00  0.00000000000E+00  0.80810341217E+03  0.15314749629E+04  0.13009167680E+04 0.  0.
        4    1    3    3  502    0 -0.52655082647E+03 -0.25271207048E+03  0.66995766677E+02  0.58788537069E+03  0.12699999809E+01 0.  1.
       -4    1    3    3    0  502  0.52655082647E+03  0.25271207048E+03  0.74110764549E+03  0.94358959221E+03  0.12699999809E+01 0. -1.
</event>
<event>
 5   0  0.5384960E-04  0.1307801E+04  0.7818609E-02  0.9023402E-01
        2   -1    0    0  501    0  0.00000000000E+00  0.00000000000E+00  0.26116222579E+04  0.26116222579E+04  0.25500000920E-02 0.  1.
       -2   -1    0    0    0  501  0.00000000000E+00  0.00000000000E+00 -0.16372417990E+03  0.16372417992E+03  0.25500000920E-02 0. -1.
    10030    2    1    2    0    0  0.00000000000E+00  0.00000000000E+00  0.24478980780E+04  0.27753464378E+04  0.13078007683E+04 0.  0.
        3    1    3    3  502    0 -0.49944837059E+02  0.19754115591E+03  0.25425333830E+04  0.25506848118E+04  0.10100000352E+00 0.  1.
       -3    1    3    3    0  502  0.49944837059E+02 -0.19754115591E+03 -0.94635305079E+02  0.22466162600E+03  0.10100000352E+00 0. -1.
</event>
<event>
 5   0  0.6052864E-04  0.1299465E+04  0.7818609E-02  0.9029990E-01
       -2   -1    0    0    0  501  0.00000000000E+00  0.00000000000E+00  0.47806165471E+03  0.47806165472E+03  0.25500000920E-02 0. -1.
        2   -1    0    0  501    0  0.00000000000E+00  0.00000000000E+00 -0.88304932285E+03  0.88304932285E+03  0.25500000920E-02 0.  1.
    10030    2    1    2    0    0  0.00000000000E+00  0.00000000000E+00 -0.40498766814E+03  0.13611109776E+04  0.12994645366E+04 0.  0.
        2    1    3    3  502    0  0.44778237489E+03  0.41472524243E+03 -0.43587777408E+03  0.74999701060E+03  0.25500000920E-02 0.  1.
       -2    1    3    3    0  502 -0.44778237489E+03 -0.41472524243E+03  0.30890105936E+02  0.61111396697E+03  0.25500000920E-02 0. -1.
</event>
<event>
 5   0  0.6052864E-04  0.1303976E+04  0.7818609E-02  0.9026418E-01
        2   -1    0    0  501    0  0.00000000000E+00  0.00000000000E+00  0.11083365214E+04  0.11083365214E+04  0.25500000920E-02 0.  1.
       -2   -1    0    0    0  501  0.00000000000E+00  0.00000000000E+00 -0.38353719112E+03  0.38353719113E+03  0.25500000920E-02 0. -1.
    10030    2    1    2    0    0  0.00000000000E+00  0.00000000000E+00  0.72479933029E+03  0.14918737125E+04  0.13039758836E+04 0.  0.
        2    1    3    3  502    0  0.41941622019E+03  0.35248709320E+03  0.76678731882E+03  0.94240114014E+03  0.25500000920E-02 0. -1.
       -2    1    3    3    0  502 -0.41941622019E+03 -0.35248709320E+03 -0.41987988522E+02  0.54947257240E+03  0.25500000920E-02 0.  1.
</event>
<event>
 5   0  0.5787604E-04  0.1304273E+04  0.7818609E-02  0.9026183E-01
        2   -1    0    0  501    0  0.00000000000E+00  0.00000000000E+00  0.23404006539E+04  0.23404006539E+04  0.25500000920E-02 0. -1.
       -2   -1    0    0    0  501  0.00000000000E+00  0.00000000000E+00 -0.18171339171E+03  0.18171339172E+03  0.25500000920E-02 0.  1.
    10030    2    1    2    0    0  0.00000000000E+00  0.00000000000E+00  0.21586872622E+04  0.25221140456E+04  0.13042731935E+04 0.  0.
        4    1    3    3  502    0  0.42427167489E+03 -0.48459805987E+03  0.12769137764E+04  0.14301580818E+04  0.12699999809E+01 0.  1.
       -4    1    3    3    0  502 -0.42427167489E+03  0.48459805987E+03  0.88177348579E+03  0.10919559638E+04  0.12699999809E+01 0. -1.
</event>
<event>
 5   0  0.6007125E-04  0.1295690E+04  0.7818609E-02  0.9032990E-01
        2   -1    0    0  501    0  0.00000000000E+00  0.00000000000E+00  0.84784929232E+03  0.84784929232E+03  0.25500000920E-02 0. -1.
       -2   -1    0    0    0  501  0.00000000000E+00  0.00000000000E+00 -0.49502111451E+03  0.49502111452E+03  0.25500000920E-02 0.  1.
    10030    2    1    2    0    0  0.00000000000E+00  0.00000000000E+00  0.35282817780E+03  0.13428704068E+04  0.12956902433E+04 0.  0.
        5    1    3    3  502    0 -0.43948587976E+03  0.41316351437E+03  0.42130008016E+03  0.73577698772E+03  0.46999998093E+01 0. -1.
       -5    1    3    3    0  502  0.43948587976E+03 -0.41316351437E+03 -0.68471902361E+02  0.60709341911E+03  0.46999998093E+01 0.  1.
</event>
<event>
 5   0  0.6007125E-04  0.1302068E+04  0.7818609E-02  0.9027927E-01
       -2   -1    0    0    0  501  0.00000000000E+00  0.00000000000E+00  0.61578020464E+03  0.61578020465E+03  0.25500000920E-02 0.  1.
        2   -1    0    0  501    0  0.00000000000E+00  0.00000000000E+00 -0.68830573999E+03  0.68830574000E+03  0.25500000920E-02 0. -1.
    10030    2    1    2    0    0  0.00000000000E+00  0.00000000000E+00 -0.72525535351E+02  0.13040859446E+04  0.13020676625E+04 0.  0.
        5    1    3    3  502    0  0.29215845580E+03 -0.23013432901E+03 -0.57141729754E+03  0.68180509723E+03  0.46999998093E+01 0. -1.
       -5    1    3    3    0  502 -0.29215845580E+03  0.23013432901E+03  0.49889176219E+03  0.62228084741E+03  0.46999998093E+01 0.  1.
</event>
<event>
 5   0  0.5384960E-04  0.1302006E+04  0.7818609E-02  0.9027976E-01
       -2   -1    0    0    0  501  0.00000000000E+00  0.00000000000E+00  0.25978027612E+03  0.25978027613E+03  0.25500000920E-02 0.  1.
        2   -1    0    0  501    0  0.00000000000E+00  0.00000000000E+00 -0.16313982646E+04  0.16313982646E+04  0.25500000920E-02 0. -1.
    10030    2    1    2    0    0  0.00000000000E+00  0.00000000000E+00 -0.13716179885E+04  0.18911785407E+04  0.13020062851E+04 0.  0.
        3    1    3    3  502    0  0.15247038754E+03  0.63281200208E+03 -0.70082211322E+03  0.95647785841E+03  0.10100000352E+00 0. -1.
       -3    1    3    3    0  502 -0.15247038754E+03 -0.63281200208E+03 -0.67079587525E+03  0.93470068231E+03  0.10100000352E+00 0.  1.
</event>
<event>
 5   0  0.3274879E-04  0.1300648E+04  0.7818609E-02  0.9029052E-01
        1   -1    0    0  501    0  0.00000000000E+00  0.00000000000E+00  0.91296538541E+03  0.91296538542E+03  0.50400001928E-02 0.  1.
       -1   -1    0    0    0  501  0.00000000000E+00  0.00000000000E+00 -0.46323899926E+03  0.46323899929E+03  0.50400001928E-02 0. -1.
    10030    2    1    2    0    0  0.00000000000E+00  0.00000000000E+00  0.44972638615E+03  0.13762043847E+04  0.13006477948E+04 0.  0.
        4    1    3    3  502    0 -0.59345300535E+03 -0.24784703658E+03  0.32692891513E+03  0.72145599419E+03  0.12699999809E+01 0. -1.
       -4    1    3    3    0  502  0.59345300535E+03  0.24784703658E+03  0.12279747102E+03  0.65474839052E+03  0.12699999809E+01 0.  1.
</event>
<event>
 5   0  0.3403833E-04  0.1300301E+04  0.7818609E-02  0.9029326E-01
       -1   -1    0    0    0  501  0.00000000000E+00  0.00000000000E+00  0.39401031602E+03  0.39401031605E+03  0.50400001928E-02 0.  1.
        1   -1    0    0  501    0  0.00000000000E+00  0.00000000000E+00 -0.10728037212E+04  0.10728037212E+04  0.50400001928E-02 0. -1.
    10030    2    1    2    0    0  0.00000000000E+00  0.00000000000E+00 -0.67879340516E+03  0.14668140372E+04  0.13003010932E+04 0.  0.
        1    1    3    3  502    0  0.15571181187E+03  0.50424848614E+03  0.88942873369E+02  0.53518551819E+03  0.50400001928E-02 0.  1.
       -1    1    3    3    0  502 -0.15571181187E+03 -0.50424848614E+03 -0.76773627853E+03  0.93162851906E+03  0.50400001928E-02 0. -1.
</event>
<event>
 5   0  0.6052864E-04  0.1340009E+04  0.7818609E-02  0.8998426E-01
       -2   -1    0    0    0  501  0.00000000000E+00  0.00000000000E+00  0.44084438500E+03  0.44084438501E+03  0.25500000920E-02 0.  1.
        2   -1    0    0  501    0  0.00000000000E+00  0.00000000000E+00 -0.10182871995E+04  0.10182871995E+04  0.25500000920E-02 0. -1.
    10030    2    1    2    0    0  0.00000000000E+00  0.00000000000E+00 -0.57744281445E+03  0.14591315845E+04  0.13400092451E+04 0.  0.
        2    1    3    3  502    0 -0.21817688955E+03 -0.93315212699E+02  0.39355495234E+03  0.45955890218E+03  0.25500000920E-02 0.  1.
       -2    1    3    3    0  502  0.21817688955E+03  0.93315212699E+02 -0.97099776679E+03  0.99957268228E+03  0.25500000920E-02 0. -1.
</event>
<event>
 5   0  0.5787604E-04  0.1291238E+04  0.7818609E-02  0.9036543E-01
        2   -1    0    0  501    0  0.00000000000E+00  0.00000000000E+00  0.93310183680E+03  0.93310183681E+03  0.25500000920E-02 0. -1.
       -2   -1    0    0    0  501  0.00000000000E+00  0.00000000000E+00 -0.44670773150E+03  0.44670773151E+03  0.25500000920E-02 0.  1.
    10030    2    1    2    0    0  0.00000000000E+00  0.00000000000E+00  0.48639410530E+03  0.13798095683E+04  0.12912378631E+04 0.  0.
        4    1    3    3  502    0 -0.21688601371E+03  0.19250709795E+03  0.85958586308E+03  0.90718685760E+03  0.12699999809E+01 0. -1.
       -4    1    3    3    0  502  0.21688601371E+03 -0.19250709795E+03 -0.37319175778E+03  0.47262271071E+03  0.12699999809E+01 0.  1.
</event>
<event>
 5   0  0.3337520E-04  0.1296617E+04  0.7818609E-02  0.9032252E-01
       -1   -1    0    0    0  501  0.00000000000E+00  0.00000000000E+00  0.33329972862E+03  0.33329972865E+03  0.50400001928E-02 0. -1.
        1   -1    0    0  501    0  0.00000000000E+00  0.00000000000E+00 -0.12610384369E+04  0.12610384369E+04  0.50400001928E-02 0.  1.
    10030    2    1    2    0    0  0.00000000000E+00  0.00000000000E+00 -0.92773870828E+03  0.15943381656E+04  0.12966167804E+04 0.  0.
        5    1    3    3  502    0 -0.64129316227E+03 -0.72385837951E+02 -0.53951859534E+03  0.84118905974E+03  0.46999998093E+01 0. -1.
       -5    1    3    3    0  502  0.64129316227E+03  0.72385837951E+02 -0.38822011294E+03  0.75314910582E+03  0.46999998093E+01 0.  1.
</event>
<event>
 5   0  0.2255875E-04  0.1302203E+04  0.7818609E-02  0.9027820E-01
       -3   -1    0    0    0  501  0.00000000000E+00  0.00000000000E+00  0.91248952395E+03  0.91248952954E+03  0.10100000352E+00 0. -1.
        3   -1    0    0  501    0  0.00000000000E+00  0.00000000000E+00 -0.46458936030E+03  0.46458937128E+03  0.10100000352E+00 0.  1.
    10030    2    1    2    0    0  0.00000000000E+00  0.00000000000E+00  0.44790016365E+03  0.13770789008E+04  0.13022026503E+04 0.  0.
        4    1    3    3  502    0 -0.33617842214E+03  0.64877323639E+02  0.80960475733E+03  0.87902586687E+03  0.12699999809E+01 0. -1.
       -4    1    3    3    0  502  0.33617842214E+03 -0.64877323639E+02 -0.36170459368E+03  0.49805303395E+03  0.12699999809E+01 0.  1.
</event>
<event>
 5   0  0.5957913E-04  0.1304178E+04  0.7818609E-02  0.9026259E-01
        2   -1    0    0  501    0  0.00000000000E+00  0.00000000000E+00  0.10924287444E+04  0.10924287444E+04  0.25500000920E-02 0. -1.
       -2   -1    0    0    0  501  0.00000000000E+00  0.00000000000E+00 -0.38924260119E+03  0.38924260120E+03  0.25500000920E-02 0.  1.
    10030    2    1    2    0    0  0.00000000000E+00  0.00000000000E+00  0.70318614319E+03  0.14816713456E+04  0.13041776046E+04 0.  0.
        1    1    3    3  502    0 -0.12151432589E+03  0.62548503296E+03  0.19407854106E+03  0.66608087946E+03  0.50400001928E-02 0.  1.
       -1    1    3    3    0  502  0.12151432589E+03 -0.62548503296E+03  0.50910760213E+03  0.81559046612E+03  0.50400001928E-02 0. -1.
</event>
<event>
 5   0  0.3337520E-04  0.1301898E+04  0.7818609E-02  0.9028061E-01
        1   -1    0    0  501    0  0.00000000000E+00  0.00000000000E+00  0.88320194642E+03  0.88320194643E+03  0.50400001928E-02 0.  1.
       -1   -1    0    0    0  501  0.00000000000E+00  0.00000000000E+00 -0.47977115285E+03  0.47977115288E+03  0.50400001928E-02 0. -1.
    10030    2    1    2    0    0  0.00000000000E+00  0.00000000000E+00  0.40343079357E+03  0.13629730993E+04  0.13018983310E+04 0.  0.
        5    1    3    3  502    0 -0.49511905047E+03  0.39196475335E+03  0.36702637597E+03  0.73041747834E+03  0.46999998093E+01 0.  1.
       -5    1    3    3    0  502  0.49511905047E+03 -0.39196475335E+03  0.36404417591E+02  0.63255562097E+03  0.46999998093E+01 0. -1.
</event>
<event>
 5   0  0.3274879E-04  0.1298310E+04  0.7818609E-02  0.9030907E-01
       -1   -1    0    0    0  501  0.00000000000E+00  0.00000000000E+00  0.58482342285E+03  0.58482342287E+03  0.50400001928E-02 0. -1.
        1   -1    0    0  501    0  0.00000000000E+00  0.00000000000E+00 -0.72056263344E+03  0.72056263346E+03  0.50400001928E-02 0.  1.
    10030    2    1    2    0    0  0.00000000000E+00  0.00000000000E+00 -0.13573921060E+03  0.13053860563E+04  0.12983095250E+04 0.  0.
        4    1    3    3  502    0  0.24410172206E+03  0.36449711822E+03 -0.54897165603E+03  0.70271992424E+03  0.12699999809E+01 0.  1.
       -4    1    3    3    0  502 -0.24410172206E+03 -0.36449711822E+03  0.41323244544E+03  0.60266613209E+03  0.12699999809E+01 0. -1.
</event>
<event>
 5   0  0.3274879E-04  0.1297449E+04  0.7818609E-02  0.9031591E-01
        1   -1    0    0  501    0  0.00000000000E+00  0.00000000000E+00  0.78510269964E+03  0.78510269965E+03  0.50400001928E-02 0.  1.
       -1   -1    0    0    0  501  0.00000000000E+00  0.00000000000E+00 -0.53603610517E+03  0.53603610519E+03  0.50400001928E-02 0. -1.
    10030    2    1    2    0    0  0.00000000000E+00  0.00000000000E+00  0.24906659447E+03  0.13211388048E+04  0.12974488711E+04 0.  0.
        4    1    3    3  502    0 -0.62958483454E+03 -0.16030738457E+02  0.28296250381E+03  0.69043713684E+03  0.12699999809E+01 0.  1.
       -4    1    3    3    0  502  0.62958483454E+03  0.16030738457E+02 -0.33895909336E+02  0.63070166801E+03  0.12699999809E+01 0. -1.
</event>
<event>
 5   0  0.3403833E-04  0.1296760E+04  0.7818609E-02  0.9032138E-01
        1   -1    0    0  501    0  0.00000000000E+00  0.00000000000E+00  0.14466446443E+04  0.14466446444E+04  0.50400001928E-02 0.  1.
       -1   -1    0    0    0  501  0.00000000000E+00  0.00000000000E+00 -0.29060115211E+03  0.29060115216E+03  0.50400001928E-02 0. -1.
    10030    2    1    2    0    0  0.00000000000E+00  0.00000000000E+00  0.11560434922E+04  0.17372457965E+04  0.12967599630E+04 0.  0.
        1    1    3    3  502    0  0.43433126074E+03  0.21409870722E+03  0.11556634510E+04  0.12530123353E+04  0.50400001928E-02 0.  1.
       -1    1    3    3    0  502 -0.43433126074E+03 -0.21409870722E+03  0.38004125585E+00  0.48423346120E+03  0.50400001928E-02 0. -1.
</event>
<event>
 5   0  0.3403833E-04  0.1297226E+04  0.7818609E-02  0.9031768E-01
       -1   -1    0    0    0  501  0.00000000000E+00  0.00000000000E+00  0.48104552847E+03  0.48104552849E+03  0.50400001928E-02 0.  1.
        1   -1    0    0  501    0  0.00000000000E+00  0.00000000000E+00 -0.87455078422E+03  0.87455078424E+03  0.50400001928E-02 0. -1.
    10030    2    1    2    0    0  0.00000000000E+00  0.00000000000E+00 -0.39350525576E+03  0.13555963127E+04  0.12972258773E+04 0.  0.
        1    1    3    3  502    0  0.26477456975E+02 -0.36113021095E+03 -0.75909531435E+03  0.84103613554E+03  0.50400001928E-02 0. -1.
       -1    1    3    3    0  502 -0.26477456975E+02  0.36113021095E+03  0.36559005859E+03  0.51456017719E+03  0.50400001928E-02 0.  1.
</event>
<event>
 5   0  0.2255875E-04  0.1317148E+04  0.7818609E-02  0.9016076E-01
        4   -1    0    0  501    0  0.00000000000E+00  0.00000000000E+00  0.39924292533E+03  0.39924494527E+03  0.12699999809E+01 0.  1.
       -4   -1    0    0    0  501  0.00000000000E+00  0.00000000000E+00 -0.10863507885E+04  0.10863515309E+04  0.12699999809E+01 0. -1.
    10030    2    1    2    0    0  0.00000000000E+00  0.00000000000E+00 -0.68710786321E+03  0.14855964762E+04  0.13171483114E+04 0.  0.
        4    1    3    3  502    0 -0.37980256287E+03  0.39918168018E+03 -0.75041117780E+03  0.93097505295E+03  0.12699999809E+01 0. -1.
       -4    1    3    3    0  502  0.37980256287E+03 -0.39918168018E+03  0.63303314590E+02  0.55462142321E+03  0.12699999809E+01 0.  1.
</event>
<event>
 5   0  0.3337520E-04  0.1337999E+04  0.7818609E-02  0.8999963E-01
        1   -1    0    0  501    0  0.00000000000E+00  0.00000000000E+00  0.17774427993E+04  0.17774427993E+04  0.50400001928E-02 0. -1.
       -1   -1    0    0    0  501  0.00000000000E+00  0.00000000000E+00 -0.25180004433E+03  0.25180004438E+03  0.50400001928E-02 0.  1.
    10030    2    1    2    0    0  0.00000000000E+00  0.00000000000E+00  0.15256427550E+04  0.20292428437E+04  0.13379987679E+04 0.  0.
        5    1    3    3  502    0  0.55440778361E+03 -0.11390263331E+03  0.13037195619E+04  0.14212841329E+04  0.46999998093E+01 0. -1.
       -5    1    3    3    0  502 -0.55440778361E+03  0.11390263331E+03  0.22192319310E+03  0.60795871080E+03  0.46999998093E+01 0.  1.
</event>
<event>
 5   0  0.5384960E-04  0.1307413E+04  0.7818609E-02  0.9023707E-01
       -2   -1    0    0    0  501  0.00000000000E+00  0.00000000000E+00  0.19459844652E+03  0.19459844654E+03  0.25500000920E-02 0. -1.
        2   -1    0    0  501    0  0.00000000000E+00  0.00000000000E+00 -0.21959703316E+04  0.21959703316E+04  0.25500000920E-02 0.  1.
    10030    2    1    2    0    0  0.00000000000E+00  0.00000000000E+00 -0.20013718851E+04  0.23905687781E+04  0.13074133473E+04 0.  0.
        3    1    3    3  502    0 -0.12469532454E+02 -0.94476949335E+02  0.18182953587E+03  0.20528851286E+03  0.10100000352E+00 0. -1.
       -3    1    3    3    0  502  0.12469532454E+02  0.94476949335E+02 -0.21832014209E+04  0.21852802653E+04  0.10100000352E+00 0.  1.
</event>
<event>
 5   0  0.3335747E-04  0.1300021E+04  0.7818609E-02  0.9029549E-01
        1   -1    0    0  501    0  0.00000000000E+00  0.00000000000E+00  0.65069981935E+03  0.65069981937E+03  0.50400001928E-02 0.  1.
       -1   -1    0    0    0  501  0.00000000000E+00  0.00000000000E+00 -0.64932162837E+03  0.64932162839E+03  0.50400001928E-02 0. -1.
    10030    2    1    2    0    0  0.00000000000E+00  0.00000000000E+00  0.13781909763E+01  0.13000214478E+04  0.13000207172E+04 0.  0.
        3    1    3    3  502    0 -0.43683973807E+03 -0.43448427333E+03  0.20783147114E+03  0.65023032160E+03  0.10100000352E+00 0.  1.
       -3    1    3    3    0  502  0.43683973807E+03  0.43448427333E+03 -0.20645328017E+03  0.64979112615E+03  0.10100000352E+00 0. -1.
</event>
<event>
 5   0  0.3263679E-04  0.1304143E+04  0.7818609E-02  0.9026286E-01
       -1   -1    0    0    0  501  0.00000000000E+00  0.00000000000E+00  0.38714080613E+03  0.38714080616E+03  0.50400001928E-02 0. -1.
        1   -1    0    0  501    0  0.00000000000E+00  0.00000000000E+00 -0.10983012871E+04  0.10983012871E+04  0.50400001928E-02 0.  1.
    10030    2    1    2    0    0  0.00000000000E+00  0.00000000000E+00 -0.71116048097E+03  0.14854420933E+04  0.13041430070E+04 0.  0.
        2    1    3    3  502    0 -0.23339819805E+03  0.18473940014E+03  0.30524042759E+03  0.42635089241E+03  0.25500000920E-02 0. -1.
       -2    1    3    3    0  502  0.23339819805E+03 -0.18473940014E+03 -0.10164009086E+04  0.10590912009E+04  0.25500000920E-02 0.  1.
</event>
<event>
 5   0  0.6007125E-04  0.1294747E+04  0.7818609E-02  0.9033741E-01
        2   -1    0    0  501    0  0.00000000000E+00  0.00000000000E+00  0.50238123636E+03  0.50238123636E+03  0.25500000920E-02 0.  1.
       -2   -1    0    0    0  501  0.00000000000E+00  0.00000000000E+00 -0.83421165672E+03  0.83421165672E+03  0.25500000920E-02 0. -1.
    10030    2    1    2    0    0  0.00000000000E+00  0.00000000000E+00 -0.33183042036E+03  0.13365928931E+04  0.12947467451E+04 0.  0.
        5    1    3    3  502    0 -0.35331913034E+02  0.52891351411E+03  0.21767513583E+03  0.57306404899E+03  0.46999998093E+01 0.  1.
       -5    1    3    3    0  502  0.35331913034E+02 -0.52891351411E+03 -0.54950555619E+03  0.76352884409E+03  0.46999998093E+01 0. -1.
</event>
<event>
 5   0  0.5384960E-04  0.1300524E+04  0.7818609E-02  0.9029149E-01
       -2   -1    0    0    0  501  0.00000000000E+00  0.00000000000E+00  0.96606656158E+03  0.96606656158E+03  0.25500000920E-02 0.  1.
        2   -1    0    0  501    0  0.00000000000E+00  0.00000000000E+00 -0.43769342978E+03  0.43769342979E+03  0.25500000920E-02 0. -1.
    10030    2    1    2    0    0  0.00000000000E+00  0.00000000000E+00  0.52837313180E+03  0.14037599914E+04  0.13005244892E+04 0.  0.
        3    1    3    3  502    0 -0.21663387822E+03  0.29422108707E+02  0.92520879076E+03  0.95068775861E+03  0.10100000352E+00 0.  1.
       -3    1    3    3    0  502  0.21663387822E+03 -0.29422108707E+02 -0.39683565896E+03  0.45307223276E+03  0.10100000352E+00 0. -1.
</event>
<event>
 5   0  0.3403833E-04  0.1297645E+04  0.7818609E-02  0.9031435E-01
       -1   -1    0    0    0  501  0.00000000000E+00  0.00000000000E+00  0.29508727270E+03  0.29508727275E+03  0.50400001928E-02 0. -1.
        1   -1    0    0  501    0  0.00000000000E+00  0.00000000000E+00 -0.14265972599E+04  0.14265972599E+04  0.50400001928E-02 0.  1.
    10030    2    1    2    0    0  0.00000000000E+00  0.00000000000E+00 -0.11315099872E+04  0.17216845326E+04  0.12976450897E+04 0.  0.
        1    1    3    3  502    0 -0.54395045281E+03 -0.24707625606E+03 -0.22999431567E+03  0.64017666053E+03  0.50400001928E-02 0. -1.
       -1    1    3    3    0  502  0.54395045281E+03  0.24707625606E+03 -0.90151567148E+03  0.10815078721E+04  0.50400001928E-02 0.  1.
</event>
<event>
 5   0  0.5787604E-04  0.1296509E+04  0.7818609E-02  0.9032338E-01
       -2   -1    0    0    0  501  0.00000000000E+00  0.00000000000E+00  0.78258218863E+03  0.78258218864E+03  0.25500000920E-02 0.  1.
        2   -1    0    0  501    0  0.00000000000E+00  0.00000000000E+00 -0.53698388942E+03  0.53698388942E+03  0.25500000920E-02 0. -1.
    10030    2    1    2    0    0  0.00000000000E+00  0.00000000000E+00  0.24559829921E+03  0.13195660781E+04  0.12965092016E+04 0.  0.
        4    1    3    3  502    0 -0.58809387672E+03  0.55095822074E+02  0.39464929566E+03  0.71037992434E+03  0.12699999809E+01 0. -1.
       -4    1    3    3    0  502  0.58809387672E+03 -0.55095822074E+02 -0.14905099645E+03  0.60918615372E+03  0.12699999809E+01 0.  1.
</event>
<event>
 5   0  0.5957913E-04  0.1302148E+04  0.7818609E-02  0.9027864E-01
       -2   -1    0    0    0  501  0.00000000000E+00  0.00000000000E+00  0.16070299006E+03  0.16070299008E+03  0.25500000920E-02 0.  1.
        2   -1    0    0  501    0  0.00000000000E+00  0.00000000000E+00 -0.26377681087E+04  0.26377681087E+04  0.25500000920E-02 0. -1.
    10030    2    1    2    0    0  0.00000000000E+00  0.00000000000E+00 -0.24770651186E+04  0.27984710987E+04  0.13021477983E+04 0.  0.
        1    1    3    3  502    0 -0.17223698940E+03  0.77671443615E+02  0.10048919547E+03  0.21400119649E+03  0.50400001928E-02 0.  1.
       -1    1    3    3    0  502  0.17223698940E+03 -0.77671443615E+02 -0.25775543141E+04  0.25844699022E+04  0.50400001928E-02 0. -1.
</event>
<event>
 5   0  0.5384960E-04  0.1297959E+04  0.7818609E-02  0.9031186E-01
       -2   -1    0    0    0  501  0.00000000000E+00  0.00000000000E+00  0.36635559683E+03  0.36635559684E+03  0.25500000920E-02 0. -1.
        2   -1    0    0  501    0  0.00000000000E+00  0.00000000000E+00 -0.11496321512E+04  0.11496321512E+04  0.25500000920E-02 0.  1.
    10030    2    1    2    0    0  0.00000000000E+00  0.00000000000E+00 -0.78327655433E+03  0.15159877480E+04  0.12979586633E+04 0.  0.
        3    1    3    3  502    0  0.17641129664E+03 -0.11281848596E+03  0.32581353851E+03  0.38730276069E+03  0.10100000352E+00 0. -1.
       -3    1    3    3    0  502 -0.17641129664E+03  0.11281848596E+03 -0.11090900928E+04  0.11286849873E+04  0.10100000352E+00 0.  1.
</event>
<event>
 5   0  0.3337520E-04  0.1293175E+04  0.7818609E-02  0.9034995E-01
        1   -1    0    0  501    0  0.00000000000E+00  0.00000000000E+00  0.13679098921E+04  0.13679098921E+04  0.50400001928E-02 0.  1.
       -1   -1    0    0    0  501  0.00000000000E+00  0.00000000000E+00 -0.30563065320E+03  0.30563065324E+03  0.50400001928E-02 0. -1.
    10030    2    1    2    0    0  0.00000000000E+00  0.00000000000E+00  0.10622792389E+04  0.16735405454E+04  0.12931746887E+04 0.  0.
        5    1    3    3  502    0 -0.23344934991E+03  0.54717595221E+03  0.85892340609E+03  0.10448309094E+04  0.46999998093E+01 0.  1.
       -5    1    3    3    0  502  0.23344934991E+03 -0.54717595221E+03  0.20335583283E+03  0.62870963599E+03  0.46999998093E+01 0. -1.
</event>
<event>
 5   0  0.3263679E-04  0.1293714E+04  0.7818609E-02  0.9034565E-01
       -1   -1    0    0    0  501  0.00000000000E+00  0.00000000000E+00  0.63678815934E+03  0.63678815936E+03  0.50400001928E-02 0.  1.
        1   -1    0    0  501    0  0.00000000000E+00  0.00000000000E+00 -0.65708466731E+03  0.65708466733E+03  0.50400001928E-02 0. -1.
    10030    2    1    2    0    0  0.00000000000E+00  0.00000000000E+00 -0.20296507979E+02  0.12938728267E+04  0.12937136250E+04 0.  0.
        2    1    3    3  502    0  0.38280268944E+03 -0.11326970628E+03 -0.51918614267E+03  0.65492150381E+03  0.25500000920E-02 0.  1.
       -2    1    3    3    0  502 -0.38280268944E+03  0.11326970628E+03  0.49888963469E+03  0.63895132288E+03  0.25500000920E-02 0. -1.
</event>
<event>
 5   0  0.3403833E-04  0.1290586E+04  0.7818609E-02  0.9037064E-01
       -1   -1    0    0    0  501  0.00000000000E+00  0.00000000000E+00  0.25113983600E+03  0.25113983605E+03  0.50400001928E-02 0.  1.
        1   -1    0    0  501    0  0.00000000000E+00  0.00000000000E+00 -0.16580522148E+04  0.16580522148E+04  0.50400001928E-02 0. -1.
    10030    2    1    2    0    0  0.00000000000E+00  0.00000000000E+00 -0.14069123788E+04  0.19091920508E+04  0.12905858535E+04 0.  0.
        1    1    3    3  502    0  0.41129825022E+03  0.48495209656E+03 -0.54101225360E+03  0.83488864238E+03  0.50400001928E-02 0.  1.
       -1    1    3    3    0  502 -0.41129825022E+03 -0.48495209656E+03 -0.86590012516E+03  0.10743034084E+04  0.50400001928E-02 0. -1.
</event>
<event>
 5   0  0.6052864E-04  0.1290260E+04  0.7818609E-02  0.9037325E-01
       -2   -1    0    0    0  501  0.00000000000E+00  0.00000000000E+00  0.26414778878E+03  0.26414778879E+03  0.25500000920E-02 0.  1.
        2   -1    0    0  501    0  0.00000000000E+00  0.00000000000E+00 -0.15756044608E+04  0.15756044608E+04  0.25500000920E-02 0. -1.
    10030    2    1    2    0    0  0.00000000000E+00  0.00000000000E+00 -0.13114566720E+04  0.18397522496E+04  0.12902595620E+04 0.  0.
        2    1    3    3  502    0 -0.46040296271E+03 -0.44275216762E+03 -0.78478455358E+03  0.10118730976E+04  0.25500000920E-02 0. -1.
       -2    1    3    3    0  502  0.46040296271E+03  0.44275216762E+03 -0.52667211840E+03  0.82787915200E+03  0.25500000920E-02 0.  1.
</event>
<event>
 5   0  0.5787604E-04  0.1300374E+04  0.7818609E-02  0.9029269E-01
        2   -1    0    0  501    0  0.00000000000E+00  0.00000000000E+00  0.15727020469E+04  0.15727020469E+04  0.25500000920E-02 0. -1.
       -2   -1    0    0    0  501  0.00000000000E+00  0.00000000000E+00 -0.26880032211E+03  0.26880032213E+03  0.25500000920E-02 0.  1.
    10030    2    1    2    0    0  0.00000000000E+00  0.00000000000E+00  0.13039017248E+04  0.18415023690E+04  0.13003735107E+04 0.  0.
        4    1    3    3  502    0  0.59891822886E+03 -0.21856275112E+03  0.47132593108E+03  0.79285715438E+03  0.12699999809E+01 0.  1.
       -4    1    3    3    0  502 -0.59891822886E+03  0.21856275112E+03  0.83257579370E+03  0.10486452146E+04  0.12699999809E+01 0. -1.
</event>
<event>
 5   0  0.3263679E-04  0.1299110E+04  0.7818609E-02  0.9030271E-01
       -1   -1    0    0    0  501  0.00000000000E+00  0.00000000000E+00  0.92188835055E+03  0.92188835056E+03  0.50400001928E-02 0.  1.
        1   -1    0    0  501    0  0.00000000000E+00  0.00000000000E+00 -0.45767126925E+03  0.45767126928E+03  0.50400001928E-02 0. -1.
    10030    2    1    2    0    0  0.00000000000E+00  0.00000000000E+00  0.46421708130E+03  0.13795596198E+04  0.12991101747E+04 0.  0.
        2    1    3    3  502    0 -0.34886029734E+03  0.27211814795E+03  0.73713252748E+03  0.85971864966E+03  0.25500000920E-02 0.  1.
       -2    1    3    3    0  502  0.34886029734E+03 -0.27211814795E+03 -0.27291544619E+03  0.51984097018E+03  0.25500000920E-02 0. -1.
</event>
<event>
 5   0  0.3337520E-04  0.1308202E+04  0.7818609E-02  0.9023086E-01
       -1   -1    0    0    0  501  0.00000000000E+00  0.00000000000E+00  0.10675536058E+04  0.10675536058E+04  0.50400001928E-02 0. -1.
        1   -1    0    0  501    0  0.00000000000E+00  0.00000000000E+00 -0.40077423118E+03  0.40077423121E+03  0.50400001928E-02 0.  1.
    10030    2    1    2    0    0  0.00000000000E+00  0.00000000000E+00  0.66677937462E+03  0.14683278370E+04  0.13082017820E+04 0.  0.
        5    1    3    3  502    0  0.56055451497E+03 -0.33674393481E+03  0.34957889652E+03  0.74151556746E+03  0.46999998093E+01 0. -1.
       -5    1    3    3    0  502 -0.56055451497E+03  0.33674393481E+03  0.31720047809E+03  0.72681226956E+03  0.46999998093E+01 0.  1.
</event>
<event>
 5   0  0.3263679E-04  0.1299208E+04  0.7818609E-02  0.9030193E-01
        1   -1    0    0  501    0  0.00000000000E+00  0.00000000000E+00  0.10867523884E+04  0.10867523884E+04  0.50400001928E-02 0.  1.
       -1   -1    0    0    0  501  0.00000000000E+00  0.00000000000E+00 -0.38829952045E+03  0.38829952049E+03  0.50400001928E-02 0. -1.
    10030    2    1    2    0    0  0.00000000000E+00  0.00000000000E+00  0.69845286793E+03  0.14750519089E+04  0.12992081146E+04 0.  0.
        2    1    3    3  502    0 -0.22828083860E+03 -0.53274417798E+03  0.16167179088E+02  0.57981883216E+03  0.25500000920E-02 0. -1.
       -2    1    3    3    0  502  0.22828083860E+03  0.53274417798E+03  0.68228568884E+03  0.89523307672E+03  0.25500000920E-02 0.  1.
</event>
<event>
 5   0  0.2255875E-04  0.1301183E+04  0.7818609E-02  0.9028627E-01
       -3   -1    0    0    0  501  0.00000000000E+00  0.00000000000E+00  0.52754990338E+03  0.52754991305E+03  0.10100000352E+00 0. -1.
        3   -1    0    0  501    0  0.00000000000E+00  0.00000000000E+00 -0.80233057785E+03  0.80233058421E+03  0.10100000352E+00 0.  1.
    10030    2    1    2    0    0  0.00000000000E+00  0.00000000000E+00 -0.27478067447E+03  0.13298804973E+04  0.13011831992E+04 0.  0.
        4    1    3    3  502    0  0.33128333255E+03 -0.11431287160E+03  0.42283343051E+03  0.54918649100E+03  0.12699999809E+01 0. -1.
       -4    1    3    3    0  502 -0.33128333255E+03  0.11431287160E+03 -0.69761410498E+03  0.78069400626E+03  0.12699999809E+01 0.  1.
</event>
<event>
 5   0  0.6052864E-04  0.1296144E+04  0.7818609E-02  0.9032628E-01
        2   -1    0    0  501    0  0.00000000000E+00  0.00000000000E+00  0.41968970243E+03  0.41968970244E+03  0.25500000920E-02 0. -1.
       -2   -1    0    0    0  501  0.00000000000E+00  0.00000000000E+00 -0.10007331754E+04  0.10007331754E+04  0.25500000920E-02 0.  1.
    10030    2    1    2    0    0  0.00000000000E+00  0.00000000000E+00 -0.58104347292E+03  0.14204228778E+04  0.12961441410E+04 0.  0.
        2    1    3    3  502    0 -0.54768166300E+03  0.80816459650E+02 -0.65973997801E+03  0.86124522798E+03  0.25500000920E-02 0.  1.
       -2    1    3    3    0  502  0.54768166300E+03 -0.80816459650E+02  0.78696505088E+02  0.55917764982E+03  0.25500000920E-02 0. -1.
</event>
<event>
 5   0  0.5384960E-04  0.1299363E+04  0.7818609E-02  0.9030070E-01
        2   -1    0    0  501    0  0.00000000000E+00  0.00000000000E+00  0.73810492308E+03  0.73810492309E+03  0.25500000920E-02 0.  1.
       -2   -1    0    0    0  501  0.00000000000E+00  0.00000000000E+00 -0.57185139851E+03  0.57185139852E+03  0.25500000920E-02 0. -1.
    10030    2    1    2    0    0  0.00000000000E+00  0.00000000000E+00  0.16625352457E+03  0.13099563216E+04  0.12993634326E+04 0.  0.
        3    1    3    3  502    0 -0.56230618669E+03  0.17420565413E+03  0.36023200648E+03  0.69014706129E+03  0.10100000352E+00 0. -1.
       -3    1    3    3    0  502  0.56230618669E+03 -0.17420565413E+03 -0.19397848191E+03  0.61980926031E+03  0.10100000352E+00 0.  1.
</event>
<event>
 5   0  0.6052864E-04  0.1299216E+04  0.7818609E-02  0.9030187E-01
       -2   -1    0    0    0  501  0.00000000000E+00  0.00000000000E+00  0.27801872145E+03  0.27801872146E+03  0.25500000920E-02 0. -1.
        2   -1    0    0  501    0  0.00000000000E+00  0.00000000000E+00 -0.15178502641E+04  0.15178502641E+04  0.25500000920E-02 0.  1.
    10030    2    1    2    0    0  0.00000000000E+00  0.00000000000E+00 -0.12398315426E+04  0.17958689855E+04  0.12992163635E+04 0.  0.
        2    1    3    3  502    0 -0.14678543176E+03  0.52603126272E+03 -0.11061450368E+04  0.12336173211E+04  0.25500000920E-02 0.  1.
       -2    1    3    3    0  502  0.14678543176E+03 -0.52603126272E+03 -0.13368650577E+03  0.56225166444E+03  0.25500000920E-02 0. -1.
</event>
<event>
 5   0  0.3335747E-04  0.1307497E+04  0.7818609E-02  0.9023641E-01
       -1   -1    0    0    0  501  0.00000000000E+00  0.00000000000E+00  0.38687644467E+03  0.38687644470E+03  0.50400001928E-02 0.  1.
        1   -1    0    0  501    0  0.00000000000E+00  0.00000000000E+00 -0.11047124012E+04  0.11047124012E+04  0.50400001928E-02 0. -1.
    10030    2    1    2    0    0  0.00000000000E+00  0.00000000000E+00 -0.71783595651E+03  0.14915888459E+04  0.13074971605E+04 0.  0.
        3    1    3    3  502    0 -0.35469340706E+03 -0.51981056362E+03 -0.56099290356E+03  0.84304417625E+03  0.10100000352E+00 0. -1.
       -3    1    3    3    0  502  0.35469340706E+03  0.51981056362E+03 -0.15684305296E+03  0.64854466964E+03  0.10100000352E+00 0.  1.
</event>
<event>
 5   0  0.3337520E-04  0.1300416E+04  0.7818609E-02  0.9029235E-01
       -1   -1    0    0    0  501  0.00000000000E+00  0.00000000000E+00  0.38814347513E+03  0.38814347517E+03  0.50400001928E-02 0.  1.
        1   -1    0    0  501    0  0.00000000000E+00  0.00000000000E+00 -0.10892124611E+04  0.10892124611E+04  0.50400001928E-02 0. -1.
    10030    2    1    2    0    0  0.00000000000E+00  0.00000000000E+00 -0.70106898596E+03  0.14773559363E+04  0.13004164100E+04 0.  0.
        5    1    3    3  502    0  0.12918990057E+03  0.52578726262E+03 -0.75952745074E+03  0.93276273209E+03  0.46999998093E+01 0.  1.
       -5    1    3    3    0  502 -0.12918990057E+03 -0.52578726262E+03  0.58458464781E+02  0.54459320419E+03  0.46999998093E+01 0. -1.
</event>
<event>
 5   0  0.5384960E-04  0.1301533E+04  0.7818609E-02  0.9028351E-01
        2   -1    0    0  501    0  0.00000000000E+00  0.00000000000E+00  0.14360586787E+04  0.14360586787E+04  0.25500000920E-02 0.  1.
       -2   -1    0    0    0  501  0.00000000000E+00  0.00000000000E+00 -0.29490219175E+03  0.29490219176E+03  0.25500000920E-02 0. -1.
    10030    2    1    2    0    0  0.00000000000E+00  0.00000000000E+00  0.11411564870E+04  0.17309608705E+04  0.13015327147E+04 0.  0.
        3    1    3    3  502    0 -0.26039434408E+02  0.29558442795E+03  0.13408521329E+04  0.13732926340E+04  0.10100000352E+00 0.  1.
       -3    1    3    3    0  502  0.26039434408E+02 -0.29558442795E+03 -0.19969564590E+03  0.35766823648E+03  0.10100000352E+00 0. -1.
</event>
<event>
 5   0  0.3337520E-04  0.1300875E+04  0.7818609E-02  0.9028872E-01
        1   -1    0    0  501    0  0.00000000000E+00  0.00000000000E+00  0.10332067576E+04  0.10332067576E+04  0.50400001928E-02 0.  1.
       -1   -1    0    0    0  501  0.00000000000E+00  0.00000000000E+00 -0.40947173563E+03  0.40947173566E+03  0.50400001928E-02 0. -1.
    10030    2    1    2    0    0  0.00000000000E+00  0.00000000000E+00  0.62373502198E+03  0.14426784933E+04  0.13008750352E+04 0.  0.
        5    1    3    3  502    0 -0.35896592317E+03 -0.46804280394E+03  0.61583693689E+03  0.85275894786E+03  0.46999998093E+01 0.  1.
       -5    1    3    3    0  502  0.35896592317E+03  0.46804280394E+03  0.78980850822E+01  0.58991954542E+03  0.46999998093E+01 0. -1.
</event>
<event>
 5   0  0.3263679E-04  0.1301156E+04  0.7818609E-02  0.9028649E-01
       -1   -1    0    0    0  501  0.00000000000E+00  0.00000000000E+00  0.16018737159E+03  0.16018737167E+03  0.50400001928E-02 0.  1.
        1   -1    0    0  501    0  0.00000000000E+00  0.00000000000E+00 -0.26422299815E+04  0.26422299815E+04  0.50400001928E-02 0. -1.
    10030    2    1    2    0    0  0.00000000000E+00  0.00000000000E+00 -0.24820426099E+04  0.28024173532E+04  0.13011562181E+04 0.  0.
        2    1    3    3  502    0  0.30540847090E+03 -0.23294842805E+03 -0.23719407116E+04  0.24028404116E+04  0.25500000920E-02 0. -1.
       -2    1    3    3    0  502 -0.30540847090E+03  0.23294842805E+03 -0.11010189830E+03  0.39957694158E+03  0.25500000920E-02 0.  1.
</event>
<event>
 5   0  0.6007125E-04  0.1300595E+04  0.7818609E-02  0.9029094E-01
       -2   -1    0    0    0  501  0.00000000000E+00  0.00000000000E+00  0.19194867260E+03  0.19194867262E+03  0.25500000920E-02 0.  1.
        2   -1    0    0  501    0  0.00000000000E+00  0.00000000000E+00 -0.22031231997E+04  0.22031231997E+04  0.25500000920E-02 0. -1.
    10030    2    1    2    0    0  0.00000000000E+00  0.00000000000E+00 -0.20111745271E+04  0.23950718723E+04  0.13005945929E+04 0.  0.
        5    1    3    3  502    0 -0.11666668143E+03  0.13184921110E+03  0.14719462964E+03  0.22952925307E+03  0.46999998093E+01 0.  1.
       -5    1    3    3    0  502  0.11666668143E+03 -0.13184921110E+03 -0.21583691567E+04  0.21655426192E+04  0.46999998093E+01 0. -1.
</event>
<event>
 5   0  0.3403833E-04  0.1296988E+04  0.7818609E-02  0.9031957E-01
        1   -1    0    0  501    0  0.00000000000E+00  0.00000000000E+00  0.76495341647E+03  0.76495341648E+03  0.50400001928E-02 0. -1.
       -1   -1    0    0    0  501  0.00000000000E+00  0.00000000000E+00 -0.54976483729E+03  0.54976483731E+03  0.50400001928E-02 0.  1.
    10030    2    1    2    0    0  0.00000000000E+00  0.00000000000E+00  0.21518857917E+03  0.13147182538E+04  0.12969880347E+04 0.  0.
        1    1    3    3  502    0 -0.28039051917E+03 -0.27738177947E+03 -0.41420966361E+03  0.57195204369E+03  0.50400001928E-02 0.  1.
       -1    1    3    3    0  502  0.28039051917E+03  0.27738177947E+03  0.62939824279E+03  0.74276621011E+03  0.50400001928E-02 0. -1.
</event>
<event>
 5   0  0.5384960E-04  0.1301992E+04  0.7818609E-02  0.9027987E-01
        2   -1    0    0  501    0  0.00000000000E+00  0.00000000000E+00  0.61968056594E+03  0.61968056594E+03  0.25500000920E-02 0.  1.
       -2   -1    0    0    0  501  0.00000000000E+00  0.00000000000E+00 -0.68389440977E+03  0.68389440977E+03  0.25500000920E-02 0. -1.
    10030    2    1    2    0    0  0.00000000000E+00  0.00000000000E+00 -0.64213843829E+02  0.13035749757E+04  0.13019924345E+04 0.  0.
        3    1    3    3  502    0  0.79740725238E+02  0.39541192386E+02 -0.67777367808E+03  0.68359290375E+03  0.10100000352E+00 0. -1.
       -3    1    3    3    0  502 -0.79740725238E+02 -0.39541192386E+02  0.61355983425E+03  0.61998207197E+03  0.10100000352E+00 0.  1.
</event>
<event>
 5   0  0.5957913E-04  0.1303628E+04  0.7818609E-02  0.9026693E-01
       -2   -1    0    0    0  501  0.00000000000E+00  0.00000000000E+00  0.21997231389E+03  0.21997231390E+03  0.25500000920E-02 0. -1.
        2   -1    0    0  501    0  0.00000000000E+00  0.00000000000E+00 -0.19314327717E+04  0.19314327717E+04  0.25500000920E-02 0.  1.
    10030    2    1    2    0    0  0.00000000000E+00  0.00000000000E+00 -0.17114604578E+04  0.21514050856E+04  0.13036283764E+04 0.  0.
        1    1    3    3  502    0  0.44439242574E+02 -0.24513834881E+03  0.13829745830E+03  0.28494533394E+03  0.50400001928E-02 0. -1.
       -1    1    3    3    0  502 -0.44439242574E+02  0.24513834881E+03 -0.18497579161E+04  0.18664597517E+04  0.50400001928E-02 0.  1.
</event>
<event>
 5   0  0.5384960E-04  0.1303703E+04  0.7818609E-02  0.9026634E-01
        2   -1    0    0  501    0  0.00000000000E+00  0.00000000000E+00  0.16142596901E+04  0.16142596901E+04  0.25500000920E-02 0. -1.
       -2   -1    0    0    0  501  0.00000000000E+00  0.00000000000E+00 -0.26322298097E+03  0.26322298098E+03  0.25500000920E-02 0.  1.
    10030    2    1    2    0    0  0.00000000000E+00  0.00000000000E+00  0.13510367091E+04  0.18774826711E+04  0.13037028000E+04 0.  0.
        3    1    3    3  502    0  0.19771237524E+03 -0.23245852454E+02 -0.21837435188E+03  0.29549605875E+03  0.10100000352E+00 0.  1.
       -3    1    3    3    0  502 -0.19771237524E+03  0.23245852454E+02  0.15694110610E+04  0.15819866123E+04  0.10100000352E+00 0. -1.
</event>
<event>
 5   0  0.2255875E-04  0.1299984E+04  0.7818609E-02  0.9029578E-01
        4   -1    0    0  501    0  0.00000000000E+00  0.00000000000E+00  0.63994853015E+03  0.63994979033E+03  0.12699999809E+01 0. -1.
       -4   -1    0    0    0  501  0.00000000000E+00  0.00000000000E+00 -0.66019079141E+03  0.66019201295E+03  0.12699999809E+01 0.  1.
    10030    2    1    2    0    0  0.00000000000E+00  0.00000000000E+00 -0.20242261261E+02  0.13001418033E+04  0.12999842151E+04 0.  0.
        1    1    3    3  502    0 -0.11448810178E+03 -0.30982479918E+03 -0.57000218341E+03  0.65878784199E+03  0.50400001928E-02 0.  1.
       -1    1    3    3    0  502  0.11448810178E+03  0.30982479918E+03  0.54975992215E+03  0.64135396129E+03  0.50400001928E-02 0. -1.
</event>
<event>
 5   0  0.5787604E-04  0.1300232E+04  0.7818609E-02  0.9029381E-01
        2   -1    0    0  501    0  0.00000000000E+00  0.00000000000E+00  0.88102974314E+03  0.88102974315E+03  0.25500000920E-02 0. -1.
       -2   -1    0    0    0  501  0.00000000000E+00  0.00000000000E+00 -0.47972345123E+03  0.47972345124E+03  0.25500000920E-02 0.  1.
    10030    2    1    2    0    0  0.00000000000E+00  0.00000000000E+00  0.40130629192E+03  0.13607531944E+04  0.13002317163E+04 0.  0.
        4    1    3    3  502    0  0.56534861794E+03 -0.42953329800E+02 -0.13224900855E+03  0.58219881613E+03  0.12699999809E+01 0. -1.
       -4    1    3    3    0  502 -0.56534861794E+03  0.42953329800E+02  0.53355530046E+03  0.77855437825E+03  0.12699999809E+01 0.  1.
</event>
<event>
 5   0  0.3337520E-04  0.1305020E+04  0.7818609E-02  0.9025594E-01
       -1   -1    0    0    0  501  0.00000000000E+00  0.00000000000E+00  0.94498595616E+03  0.94498595618E+03  0.50400001928E-02 0. -1.
        1   -1    0    0  501    0  0.00000000000E+00  0.00000000000E+00 -0.45055622593E+03  0.45055622596E+03  0.50400001928E-02 0.  1.
    10030    2    1    2    0    0  0.00000000000E+00  0.00000000000E+00  0.49442973023E+03  0.13955421821E+04  0.13050200090E+04 0.  0.
        5    1    3    3  502    0 -0.23007110445E+03  0.58605340471E+03  0.63994573769E+02  0.63285756829E+03  0.46999998093E+01 0.  1.
       -5    1    3    3    0  502  0.23007110445E+03 -0.58605340471E+03  0.43043515646E+03  0.76268461384E+03  0.46999998093E+01 0. -1.
</event>
<event>
 5   0  0.2255875E-04  0.1294142E+04  0.7818609E-02  0.9034223E-01
       -4   -1    0    0    0  501  0.00000000000E+00  0.00000000000E+00  0.31685935124E+03  0.31686189636E+03  0.12699999809E+01 0.  1.
        4   -1    0    0  501    0  0.00000000000E+00  0.00000000000E+00 -0.13214019696E+04  0.13214025799E+04  0.12699999809E+01 0. -1.
    10030    2    1    2    0    0  0.00000000000E+00  0.00000000000E+00 -0.10045426183E+04  0.16382644762E+04  0.12941424273E+04 0.  0.
        2    1    3    3  502    0 -0.59744459019E+03  0.92825181777E+02 -0.21044024318E+03  0.64018876019E+03  0.25500000920E-02 0.  1.
       -2    1    3    3    0  502  0.59744459019E+03 -0.92825181777E+02 -0.79410237514E+03  0.99807571603E+03  0.25500000920E-02 0. -1.
</event>
<event>
 5   0  0.2255875E-04  0.1306780E+04  0.7818609E-02  0.9024205E-01
        3   -1    0    0  501    0  0.00000000000E+00  0.00000000000E+00  0.47581300529E+03  0.47581301601E+03  0.10100000352E+00 0. -1.
       -3   -1    0    0    0  501  0.00000000000E+00  0.00000000000E+00 -0.89724071708E+03  0.89724072276E+03  0.10100000352E+00 0.  1.
    10030    2    1    2    0    0  0.00000000000E+00  0.00000000000E+00 -0.42142771179E+03  0.13730537388E+04  0.13067804916E+04 0.  0.
        3    1    3    3  502    0  0.16707311056E+03 -0.62806503967E+03 -0.13991964549E+03  0.66479819172E+03  0.10100000352E+00 0.  1.
       -3    1    3    3    0  502 -0.16707311056E+03  0.62806503967E+03 -0.28150806630E+03  0.70825554704E+03  0.10100000352E+00 0. -1.
</event>
<event>
 5   0  0.2255875E-04  0.1304002E+04  0.7818609E-02  0.9026397E-01
       -3   -1    0    0    0  501  0.00000000000E+00  0.00000000000E+00  0.12689053099E+04  0.12689053139E+04  0.10100000352E+00 0. -1.
        3   -1    0    0  501    0  0.00000000000E+00  0.00000000000E+00 -0.33501738871E+03  0.33501740393E+03  0.10100000352E+00 0.  1.
    10030    2    1    2    0    0  0.00000000000E+00  0.00000000000E+00  0.93388792116E+03  0.16039227178E+04  0.13040020841E+04 0.  0.
        5    1    3    3  502    0  0.28820355341E+03 -0.52604020965E+03  0.78126537922E+03  0.98497577286E+03  0.46999998093E+01 0. -1.
       -5    1    3    3    0  502 -0.28820355341E+03  0.52604020965E+03  0.15262254194E+03  0.61894694496E+03  0.46999998093E+01 0.  1.
</event>
<event>
 5   0  0.2255875E-04  0.1273847E+04  0.7818609E-02  0.9050566E-01
       -3   -1    0    0    0  501  0.00000000000E+00  0.00000000000E+00  0.77428855896E+03  0.77428856555E+03  0.10100000352E+00 0.  1.
        3   -1    0    0  501    0  0.00000000000E+00  0.00000000000E+00 -0.52392792962E+03  0.52392793935E+03  0.10100000352E+00 0. -1.
    10030    2    1    2    0    0  0.00000000000E+00  0.00000000000E+00  0.25036062935E+03  0.12982165049E+04  0.12738467918E+04 0.  0.
        2    1    3    3  502    0 -0.12968879535E+03  0.37322766115E+03  0.63429030970E+03  0.74728994886E+03  0.25500000920E-02 0.  1.
       -2    1    3    3    0  502  0.12968879535E+03 -0.37322766115E+03 -0.38392968035E+03  0.55092655604E+03  0.25500000920E-02 0. -1.
</event>
<event>
 5   0  0.3263679E-04  0.1305042E+04  0.7818609E-02  0.9025576E-01
        1   -1    0    0  501    0  0.00000000000E+00  0.00000000000E+00  0.16464277977E+04  0.16464277977E+04  0.50400001928E-02 0. -1.
       -1   -1    0    0    0  501  0.00000000000E+00  0.00000000000E+00 -0.25861068007E+03  0.25861068012E+03  0.50400001928E-02 0.  1.
    10030    2    1    2    0    0  0.00000000000E+00  0.00000000000E+00  0.13878171176E+04  0.19050384778E+04  0.13050422407E+04 0.  0.
        2    1    3    3  502    0  0.34092754607E+03 -0.23867909916E+03  0.14275477755E+04  0.14869740937E+04  0.25500000920E-02 0. -1.
       -2    1    3    3    0  502 -0.34092754607E+03  0.23867909916E+03 -0.39730657911E+02  0.41806438407E+03  0.25500000920E-02 0.  1.
</event>
<event>
 5   0  0.3335747E-04  0.1301648E+04  0.7818609E-02  0.9028259E-01
        1   -1    0    0  501    0  0.00000000000E+00  0.00000000000E+00  0.50258475094E+03  0.50258475097E+03  0.50400001928E-02 0.  1.
       -1   -1    0    0    0  501  0.00000000000E+00  0.00000000000E+00 -0.84278736893E+03  0.84278736895E+03  0.50400001928E-02 0. -1.
    10030    2    1    2    0    0  0.00000000000E+00  0.00000000000E+00 -0.34020261799E+03  0.13453721199E+04  0.13016483088E+04 0.  0.
        3    1    3    3  502    0 -0.53041733831E+03 -0.32415730710E+03  0.29120682046E+02  0.62230903645E+03  0.10100000352E+00 0. -1.
       -3    1    3    3    0  502  0.53041733831E+03  0.32415730710E+03 -0.36932330003E+03  0.72306308347E+03  0.10100000352E+00 0.  1.
</event>
<event>
 5   0  0.3337520E-04  0.1293915E+04  0.7818609E-02  0.9034405E-01
        1   -1    0    0  501    0  0.00000000000E+00  0.00000000000E+00  0.37308493943E+03  0.37308493946E+03  0.50400001928E-02 0. -1.
       -1   -1    0    0    0  501  0.00000000000E+00  0.00000000000E+00 -0.11218725073E+04  0.11218725073E+04  0.50400001928E-02 0.  1.
    10030    2    1    2    0    0  0.00000000000E+00  0.00000000000E+00 -0.74878756786E+03  0.14949574468E+04  0.12939145821E+04 0.  0.
        5    1    3    3  502    0 -0.59906113361E+03  0.26870927740E+02 -0.65487978209E+03  0.88796728968E+03  0.46999998093E+01 0.  1.
       -5    1    3    3    0  502  0.59906113361E+03 -0.26870927740E+02 -0.93907785767E+02  0.60699015707E+03  0.46999998093E+01 0. -1.
</event>
<event>
 5   0  0.6007125E-04  0.1298063E+04  0.7818609E-02  0.9031103E-01
        2   -1    0    0  501    0  0.00000000000E+00  0.00000000000E+00  0.66523161951E+03  0.66523161952E+03  0.25500000920E-02 0. -1.
       -2   -1    0    0    0  501  0.00000000000E+00  0.00000000000E+00 -0.63322586577E+03  0.63322586577E+03  0.25500000920E-02 0.  1.
    10030    2    1    2    0    0  0.00000000000E+00  0.00000000000E+00  0.32005753745E+02  0.12984574853E+04  0.12980629695E+04 0.  0.
        5    1    3    3  502    0  0.26905254588E+03  0.30989859149E+03 -0.48693554215E+03  0.63683178443E+03  0.46999998093E+01 0.  1.
       -5    1    3    3    0  502 -0.26905254588E+03 -0.30989859149E+03  0.51894129589E+03  0.66162570086E+03  0.46999998093E+01 0. -1.
</event>
<event>
 5   0  0.3403833E-04  0.1288677E+04  0.7818609E-02  0.9038593E-01
       -1   -1    0    0    0  501  0.00000000000E+00  0.00000000000E+00  0.34780294908E+03  0.34780294912E+03  0.50400001928E-02 0. -1.
        1   -1    0    0  501    0  0.00000000000E+00  0.00000000000E+00 -0.11937000438E+04  0.11937000438E+04  0.50400001928E-02 0.  1.
    10030    2    1    2    0    0  0.00000000000E+00  0.00000000000E+00 -0.84589709467E+03  0.15415029929E+04  0.12886774547E+04 0.  0.
        1    1    3    3  502    0  0.34148731386E+03 -0.52047947843E+03 -0.22400694045E+03  0.66158263459E+03  0.50400001928E-02 0. -1.
       -1    1    3    3    0  502 -0.34148731386E+03  0.52047947843E+03 -0.62189015421E+03  0.87992035829E+03  0.50400001928E-02 0.  1.
</event>
<event>
 5   0  0.3337520E-04  0.1300929E+04  0.7818609E-02  0.9028829E-01
        1   -1    0    0  501    0  0.00000000000E+00  0.00000000000E+00  0.10213432394E+04  0.10213432394E+04  0.50400001928E-02 0.  1.
       -1   -1    0    0    0  501  0.00000000000E+00  0.00000000000E+00 -0.41426232532E+03  0.41426232535E+03  0.50400001928E-02 0. -1.
    10030    2    1    2    0    0  0.00000000000E+00  0.00000000000E+00  0.60708091410E+03  0.14356055648E+04  0.13009289379E+04 0.  0.
        5    1    3    3  502    0  0.49710015492E+02  0.57122109968E+03  0.64244489054E+03  0.86111680842E+03  0.46999998093E+01 0.  1.
       -5    1    3    3    0  502 -0.49710015492E+02 -0.57122109968E+03 -0.35363976443E+02  0.57448875636E+03  0.46999998093E+01 0. -1.
</event>
<event>
 5   0  0.3274879E-04  0.1313364E+04  0.7818609E-02  0.9019034E-01
       -1   -1    0    0    0  501  0.00000000000E+00  0.00000000000E+00  0.25612445529E+03  0.25612445534E+03  0.50400001928E-02 0.  1.
        1   -1    0    0  501    0  0.00000000000E+00  0.00000000000E+00 -0.16836784210E+04  0.16836784210E+04  0.50400001928E-02 0. -1.
    10030    2    1    2    0    0  0.00000000000E+00  0.00000000000E+00 -0.14275539657E+04  0.19398028763E+04  0.13133639534E+04 0.  0.
        4    1    3    3  502    0  0.33692774272E+03  0.55053159701E+03 -0.89238851390E+03  0.11013465466E+04  0.12699999809E+01 0. -1.
       -4    1    3    3    0  502 -0.33692774272E+03 -0.55053159701E+03 -0.53516545176E+03  0.83845632968E+03  0.12699999809E+01 0.  1.
</event>
<event>
 5   0  0.3263679E-04  0.1304804E+04  0.7818609E-02  0.9025764E-01
        1   -1    0    0  501    0  0.00000000000E+00  0.00000000000E+00  0.57726927631E+03  0.57726927633E+03  0.50400001928E-02 0.  1.
       -1   -1    0    0    0  501  0.00000000000E+00  0.00000000000E+00 -0.73731346922E+03  0.73731346924E+03  0.50400001928E-02 0. -1.
    10030    2    1    2    0    0  0.00000000000E+00  0.00000000000E+00 -0.16004419292E+03  0.13145827456E+04  0.13048040662E+04 0.  0.
        2    1    3    3  502    0 -0.20980530048E+03 -0.51180695928E+03 -0.42853911833E+03  0.69972166154E+03  0.25500000920E-02 0. -1.
       -2    1    3    3    0  502  0.20980530048E+03  0.51180695928E+03  0.26849492542E+03  0.61486108403E+03  0.25500000920E-02 0.  1.
</event>
<event>
 5   0  0.6052864E-04  0.1302647E+04  0.7818609E-02  0.9027469E-01
        2   -1    0    0  501    0  0.00000000000E+00  0.00000000000E+00  0.71857195556E+03  0.71857195557E+03  0.25500000920E-02 0.  1.
       -2   -1    0    0    0  501  0.00000000000E+00  0.00000000000E+00 -0.59036869497E+03  0.59036869498E+03  0.25500000920E-02 0. -1.
    10030    2    1    2    0    0  0.00000000000E+00  0.00000000000E+00  0.12820326059E+03  0.13089406505E+04  0.13026471320E+04 0.  0.
        2    1    3    3  502    0 -0.53066992371E+03  0.23224114175E+03 -0.23512200931E+03  0.62516307882E+03  0.25500000920E-02 0. -1.
       -2    1    3    3    0  502  0.53066992371E+03 -0.23224114175E+03  0.36332526990E+03  0.68377757173E+03  0.25500000920E-02 0.  1.
</event>
<event>
 5   0  0.5384960E-04  0.1300372E+04  0.7818609E-02  0.9029270E-01
        2   -1    0    0  501    0  0.00000000000E+00  0.00000000000E+00  0.65079947992E+03  0.65079947993E+03  0.25500000920E-02 0. -1.
       -2   -1    0    0    0  501  0.00000000000E+00  0.00000000000E+00 -0.64957357594E+03  0.64957357595E+03  0.25500000920E-02 0.  1.
    10030    2    1    2    0    0  0.00000000000E+00  0.00000000000E+00  0.12259039849E+01  0.13003730559E+04  0.13003724780E+04 0.  0.
        3    1    3    3  502    0  0.31215165019E+03  0.12715590301E+03 -0.55538626883E+03  0.64966236938E+03  0.10100000352E+00 0.  1.
       -3    1    3    3    0  502 -0.31215165019E+03 -0.12715590301E+03  0.55661217281E+03  0.65071068649E+03  0.10100000352E+00 0. -1.
</event>
<event>
 5   0  0.5787604E-04  0.1291420E+04  0.7818609E-02  0.9036397E-01
        2   -1    0    0  501    0  0.00000000000E+00  0.00000000000E+00  0.65759366168E+03  0.65759366169E+03  0.25500000920E-02 0.  1.
       -2   -1    0    0    0  501  0.00000000000E+00  0.00000000000E+00 -0.63404068206E+03  0.63404068206E+03  0.25500000920E-02 0. -1.
    10030    2    1    2    0    0  0.00000000000E+00  0.00000000000E+00  0.23552979624E+02  0.12916343438E+04  0.12914195814E+04 0.  0.
        4    1    3    3  502    0  0.19269937327E+03 -0.14122532325E+03  0.61176113972E+03  0.65675790468E+03  0.12699999809E+01 0.  1.
       -4    1    3    3    0  502 -0.19269937327E+03  0.14122532325E+03 -0.58820816010E+03  0.63487643907E+03  0.12699999809E+01 0. -1.
</event>
<event>
 5   0  0.3335747E-04  0.1298694E+04  0.7818609E-02  0.9030602E-01
       -1   -1    0    0    0  501  0.00000000000E+00  0.00000000000E+00  0.35780544159E+03  0.35780544163E+03  0.50400001928E-02 0.  1.
        1   -1    0    0  501    0  0.00000000000E+00  0.00000000000E+00 -0.11784378651E+04  0.11784378651E+04  0.50400001928E-02 0. -1.
    10030    2    1    2    0    0  0.00000000000E+00  0.00000000000E+00 -0.82063242347E+03  0.15362433067E+04  0.12986939297E+04 0.  0.
        3    1    3    3  502    0  0.45625282882E+03  0.45529637075E+03 -0.31724829901E+03  0.71840651615E+03  0.10100000352E+00 0.  1.
       -3    1    3    3    0  502 -0.45625282882E+03 -0.45529637075E+03 -0.50338412446E+03  0.81783679055E+03  0.10100000352E+00 0. -1.
</event>
<event>
 5   0  0.5957913E-04  0.1283549E+04  0.7818609E-02  0.9042713E-01
       -2   -1    0    0    0  501  0.00000000000E+00  0.00000000000E+00  0.52957114779E+03  0.52957114779E+03  0.25500000920E-02 0. -1.
        2   -1    0    0  501    0  0.00000000000E+00  0.00000000000E+00 -0.77775132780E+03  0.77775132781E+03  0.25500000920E-02 0.  1.
    10030    2    1    2    0    0  0.00000000000E+00  0.00000000000E+00 -0.24818018002E+03  0.13073224756E+04  0.12835492408E+04 0.  0.
        1    1    3    3  502    0  0.55313339004E+03  0.17667666829E+03  0.15429154692E+03  0.60081367642E+03  0.50400001928E-02 0.  1.
       -1    1    3    3    0  502 -0.55313339004E+03 -0.17667666829E+03 -0.40247172694E+03  0.70650879917E+03  0.50400001928E-02 0. -1.
</event>
<event>
 5   0  0.6007125E-04  0.1295967E+04  0.7818609E-02  0.9032770E-01
       -2   -1    0    0    0  501  0.00000000000E+00  0.00000000000E+00  0.35702535794E+03  0.35702535795E+03  0.25500000920E-02 0. -1.
        2   -1    0    0  501    0  0.00000000000E+00  0.00000000000E+00 -0.11760577593E+04  0.11760577593E+04  0.25500000920E-02 0.  1.
    10030    2    1    2    0    0  0.00000000000E+00  0.00000000000E+00 -0.81903240136E+03  0.15330831173E+04  0.12959667318E+04 0.  0.
        5    1    3    3  502    0  0.57270106930E+03  0.17696082016E+03 -0.11840417868E+03  0.61101823719E+03  0.46999998093E+01 0.  1.
       -5    1    3    3    0  502 -0.57270106930E+03 -0.17696082016E+03 -0.70062822268E+03  0.92206488007E+03  0.46999998093E+01 0. -1.
</event>
<event>
 5   0  0.3274879E-04  0.1299373E+04  0.7818609E-02  0.9030062E-01
       -1   -1    0    0    0  501  0.00000000000E+00  0.00000000000E+00  0.11270154018E+04  0.11270154019E+04  0.50400001928E-02 0.  1.
        1   -1    0    0  501    0  0.00000000000E+00  0.00000000000E+00 -0.37452249356E+03  0.37452249359E+03  0.50400001928E-02 0. -1.
    10030    2    1    2    0    0  0.00000000000E+00  0.00000000000E+00  0.75249290828E+03  0.15015378955E+04  0.12993731083E+04 0.  0.
        4    1    3    3  502    0 -0.97934843837E+02 -0.46181840584E+03  0.89203624370E+03  0.10092560362E+04  0.12699999809E+01 0.  1.
       -4    1    3    3    0  502  0.97934843837E+02  0.46181840584E+03 -0.13954333541E+03  0.49228185927E+03  0.12699999809E+01 0. -1.
</event>
<event>
 5   0  0.3263679E-04  0.1295524E+04  0.7818609E-02  0.9033122E-01
        1   -1    0    0  501    0  0.00000000000E+00  0.00000000000E+00  0.81542571868E+03  0.81542571870E+03  0.50400001928E-02 0. -1.
       -1   -1    0    0    0  501  0.00000000000E+00  0.00000000000E+00 -0.51457238066E+03  0.51457238069E+03  0.50400001928E-02 0.  1.
    10030    2    1    2    0    0  0.00000000000E+00  0.00000000000E+00  0.30085333802E+03  0.13299980994E+04  0.12955239146E+04 0.  0.
        2    1    3    3  502    0 -0.46013157001E+03 -0.33999460129E+03 -0.16143001422E+03  0.59445524653E+03  0.25500000920E-02 0.  1.
       -2    1    3    3    0  502  0.46013157001E+03  0.33999460129E+03  0.46228335224E+03  0.73554285286E+03  0.25500000920E-02 0. -1.
</event>
<event>
 5   0  0.3263679E-04  0.1304624E+04  0.7818609E-02  0.9025907E-01
       -1   -1    0    0    0  501  0.00000000000E+00  0.00000000000E+00  0.80758637553E+03  0.80758637555E+03  0.50400001928E-02 0. -1.
        1   -1    0    0  501    0  0.00000000000E+00  0.00000000000E+00 -0.52689198106E+03  0.52689198109E+03  0.50400001928E-02 0.  1.
    10030    2    1    2    0    0  0.00000000000E+00  0.00000000000E+00  0.28069439447E+03  0.13344783566E+04  0.13046237547E+04 0.  0.
        2    1    3    3  502    0  0.35422600372E+02 -0.25068644761E+03  0.75528010530E+03  0.79658426616E+03  0.25500000920E-02 0. -1.
       -2    1    3    3    0  502 -0.35422600372E+02  0.25068644761E+03 -0.47458571083E+03  0.53789409047E+03  0.25500000920E-02 0.  1.
</event>
<event>
 5   0  0.3335747E-04  0.1302007E+04  0.7818609E-02  0.9027975E-01
       -1   -1    0    0    0  501  0.00000000000E+00  0.00000000000E+00  0.27907831459E+03  0.27907831463E+03  0.50400001928E-02 0. -1.
        1   -1    0    0  501    0  0.00000000000E+00  0.00000000000E+00 -0.15185908940E+04  0.15185908941E+04  0.50400001928E-02 0.  1.
    10030    2    1    2    0    0  0.00000000000E+00  0.00000000000E+00 -0.12395125795E+04  0.17976692087E+04  0.13020073537E+04 0.  0.
        3    1    3    3  502    0 -0.63839569360E+03 -0.18816568701E+02 -0.79386925962E+03  0.10188874013E+04  0.10100000352E+00 0. -1.
       -3    1    3    3    0  502  0.63839569360E+03  0.18816568701E+02 -0.44564331984E+03  0.77878180743E+03  0.10100000352E+00 0.  1.
</event>
<event>
 5   0  0.3263679E-04  0.1291163E+04  0.7818609E-02  0.9036602E-01
       -1   -1    0    0    0  501  0.00000000000E+00  0.00000000000E+00  0.22771135324E+03  0.22771135330E+03  0.50400001928E-02 0. -1.
        1   -1    0    0  501    0  0.00000000000E+00  0.00000000000E+00 -0.18302802705E+04  0.18302802705E+04  0.50400001928E-02 0.  1.
    10030    2    1    2    0    0  0.00000000000E+00  0.00000000000E+00 -0.16025689173E+04  0.20579916238E+04  0.12911631923E+04 0.  0.
        2    1    3    3  502    0  0.13969313171E+01 -0.40829023910E+03 -0.42159875631E+01  0.40831439518E+03  0.25500000920E-02 0. -1.
       -2    1    3    3    0  502 -0.13969313171E+01  0.40829023910E+03 -0.15983529297E+04  0.16496772286E+04  0.25500000920E-02 0.  1.
</event>
<event>
 5   0  0.6052864E-04  0.1300139E+04  0.7818609E-02  0.9029455E-01
        2   -1    0    0  501    0  0.00000000000E+00  0.00000000000E+00  0.60409591945E+03  0.60409591945E+03  0.25500000920E-02 0. -1.
       -2   -1    0    0    0  501  0.00000000000E+00  0.00000000000E+00 -0.69954130120E+03  0.69954130121E+03  0.25500000920E-02 0.  1.
    10030    2    1    2    0    0  0.00000000000E+00  0.00000000000E+00 -0.95445381758E+02  0.13036372207E+04  0.13001385242E+04 0.  0.
        2    1    3    3  502    0 -0.47071996044E+01 -0.64507425544E+03  0.32787171571E+02  0.64592410652E+03  0.25500000920E-02 0. -1.
       -2    1    3    3    0  502  0.47071996044E+01  0.64507425544E+03 -0.12823255333E+03  0.65771311413E+03  0.25500000920E-02 0.  1.
</event>
<event>
 5   0  0.6052864E-04  0.1302659E+04  0.7818609E-02  0.9027459E-01
       -2   -1    0    0    0  501  0.00000000000E+00  0.00000000000E+00  0.93552863762E+03  0.93552863762E+03  0.25500000920E-02 0.  1.
        2   -1    0    0  501    0  0.00000000000E+00  0.00000000000E+00 -0.45346570124E+03  0.45346570125E+03  0.25500000920E-02 0. -1.
    10030    2    1    2    0    0  0.00000000000E+00  0.00000000000E+00  0.48206293638E+03  0.13889943389E+04  0.13026590493E+04 0.  0.
        2    1    3    3  502    0  0.20316077631E+03  0.31241859669E+03  0.81061708024E+03  0.89217696192E+03  0.25500000920E-02 0.  1.
       -2    1    3    3    0  502 -0.20316077631E+03 -0.31241859669E+03 -0.32855414386E+03  0.49681737696E+03  0.25500000920E-02 0. -1.
</event>
<event>
 5   0  0.5384960E-04  0.1297444E+04  0.7818609E-02  0.9031595E-01
       -2   -1    0    0    0  501  0.00000000000E+00  0.00000000000E+00  0.65137047886E+03  0.65137047887E+03  0.25500000920E-02 0.  1.
        2   -1    0    0  501    0  0.00000000000E+00  0.00000000000E+00 -0.64608402216E+03  0.64608402216E+03  0.25500000920E-02 0. -1.
    10030    2    1    2    0    0  0.00000000000E+00  0.00000000000E+00  0.52864567047E+01  0.12974545010E+04  0.12974437312E+04 0.  0.
        3    1    3    3  502    0  0.62942165330E+03  0.15043252819E+03 -0.42506736918E+02  0.64854328773E+03  0.10100000352E+00 0. -1.
       -3    1    3    3    0  502 -0.62942165330E+03 -0.15043252819E+03  0.47793193622E+02  0.64891121329E+03  0.10100000352E+00 0.  1.
</event>
<event>
 5   0  0.2255875E-04  0.1304936E+04  0.7818609E-02  0.9025660E-01
       -3   -1    0    0    0  501  0.00000000000E+00  0.00000000000E+00  0.13679355568E+04  0.13679355605E+04  0.10100000352E+00 0.  1.
        3   -1    0    0  501    0  0.00000000000E+00  0.00000000000E+00 -0.31120940296E+03  0.31120941935E+03  0.10100000352E+00 0. -1.
    10030    2    1    2    0    0  0.00000000000E+00  0.00000000000E+00  0.10567261538E+04  0.16791449798E+04  0.13049358985E+04 0.  0.
        5    1    3    3  502    0 -0.43997136388E+03  0.12467221430E+03 -0.70465544238E+02  0.46271529581E+03  0.46999998093E+01 0. -1.
       -5    1    3    3    0  502  0.43997136388E+03 -0.12467221430E+03  0.11271916980E+04  0.12164296840E+04  0.46999998093E+01 0.  1.
</event>
<event>
 5   0  0.3274879E-04  0.1299109E+04  0.7818609E-02  0.9030272E-01
       -1   -1    0    0    0  501  0.00000000000E+00  0.00000000000E+00  0.33765416170E+03  0.33765416174E+03  0.50400001928E-02 0.  1.
        1   -1    0    0  501    0  0.00000000000E+00  0.00000000000E+00 -0.12495665125E+04  0.12495665125E+04  0.50400001928E-02 0. -1.
    10030    2    1    2    0    0  0.00000000000E+00  0.00000000000E+00 -0.91191235075E+03  0.15872206742E+04  0.12991094385E+04 0.  0.
        4    1    3    3  502    0 -0.58436005400E+03  0.28036187269E+03 -0.50836834198E+03  0.82372291239E+03  0.12699999809E+01 0. -1.
       -4    1    3    3    0  502  0.58436005400E+03 -0.28036187269E+03 -0.40354400877E+03  0.76349776181E+03  0.12699999809E+01 0.  1.
</event>
<event>
 5   0  0.3263679E-04  0.1301224E+04  0.7818609E-02  0.9028595E-01
       -1   -1    0    0    0  501  0.00000000000E+00  0.00000000000E+00  0.93052891822E+03  0.93052891823E+03  0.50400001928E-02 0.  1.
        1   -1    0    0  501    0  0.00000000000E+00  0.00000000000E+00 -0.45489831113E+03  0.45489831116E+03  0.50400001928E-02 0. -1.
    10030    2    1    2    0    0  0.00000000000E+00  0.00000000000E+00  0.47563060709E+03  0.13854272294E+04  0.13012240904E+04 0.  0.
        2    1    3    3  502    0 -0.41427695076E+03  0.48058610484E+02  0.76948988687E+03  0.87524265662E+03  0.25500000920E-02 0.  1.
       -2    1    3    3    0  502  0.41427695076E+03 -0.48058610484E+02 -0.29385927978E+03  0.51018457277E+03  0.25500000920E-02 0. -1.
</event>
<event>
 5   0  0.3263679E-04  0.1300328E+04  0.7818609E-02  0.9029305E-01
       -1   -1    0    0    0  501  0.00000000000E+00  0.00000000000E+00  0.27886993180E+03  0.27886993185E+03  0.50400001928E-02 0. -1.
        1   -1    0    0  501    0  0.00000000000E+00  0.00000000000E+00 -0.15158068444E+04  0.15158068444E+04  0.50400001928E-02 0.  1.
    10030    2    1    2    0    0  0.00000000000E+00  0.00000000000E+00 -0.12369369126E+04  0.17946767763E+04  0.13003275762E+04 0.  0.
        2    1    3    3  502    0  0.99258288828E+02  0.57785079963E+03 -0.10062680308E+04  0.11646197252E+04  0.25500000920E-02 0.  1.
       -2    1    3    3    0  502 -0.99258288828E+02 -0.57785079963E+03 -0.23066888180E+03  0.63005705105E+03  0.25500000920E-02 0. -1.
</event>
<event>
 5   0  0.5384960E-04  0.1300776E+04  0.7818609E-02  0.9028950E-01
       -2   -1    0    0    0  501  0.00000000000E+00  0.00000000000E+00  0.12989557250E+04  0.12989557250E+04  0.25500000920E-02 0. -1.
        2   -1    0    0  501    0  0.00000000000E+00  0.00000000000E+00 -0.32564983321E+03  0.32564983322E+03  0.25500000920E-02 0.  1.
    10030    2    1    2    0    0  0.00000000000E+00  0.00000000000E+00  0.97330589178E+03  0.16246055582E+04  0.13007762532E+04 0.  0.
        3    1    3    3  502    0  0.64853373364E+03 -0.11224705318E+02  0.42698096549E+03  0.77655312295E+03  0.10100000352E+00 0.  1.
       -3    1    3    3    0  502 -0.64853373364E+03  0.11224705318E+02  0.54632492629E+03  0.84805243527E+03  0.10100000352E+00 0. -1.
</event>
<event>
 5   0  0.6052864E-04  0.1300750E+04  0.7818609E-02  0.9028971E-01
        2   -1    0    0  501    0  0.00000000000E+00  0.00000000000E+00  0.52829295699E+03  0.52829295700E+03  0.25500000920E-02 0.  1.
       -2   -1    0    0    0  501  0.00000000000E+00  0.00000000000E+00 -0.80066868311E+03  0.80066868312E+03  0.25500000920E-02 0. -1.
    10030    2    1    2    0    0  0.00000000000E+00  0.00000000000E+00 -0.27237572612E+03  0.13289616401E+04  0.13007499778E+04 0.  0.
        2    1    3    3  502    0  0.36888616559E-01  0.22242850926E+03  0.48822463277E+03  0.53650511194E+03  0.25500000920E-02 0.  1.
       -2    1    3    3    0  502 -0.36888616559E-01 -0.22242850926E+03 -0.76060035889E+03  0.79245652817E+03  0.25500000920E-02 0. -1.
</event>
<event>
 5   0  0.6052864E-04  0.1300030E+04  0.7818609E-02  0.9029542E-01
       -2   -1    0    0    0  501  0.00000000000E+00  0.00000000000E+00  0.16597112672E+04  0.16597112672E+04  0.25500000920E-02 0. -1.
        2   -1    0    0  501    0  0.00000000000E+00  0.00000000000E+00 -0.25457396540E+03  0.25457396541E+03  0.25500000920E-02 0.  1.
    10030    2    1    2    0    0  0.00000000000E+00  0.00000000000E+00  0.14051373018E+04  0.19142852326E+04  0.13000296592E+04 0.  0.
        2    1    3    3  502    0 -0.42934315474E+02 -0.53380556015E+03  0.16008408214E+03  0.55894422338E+03  0.25500000920E-02 0.  1.
       -2    1    3    3    0  502  0.42934315474E+02  0.53380556015E+03  0.12450532196E+04  0.13553410092E+04  0.25500000920E-02 0. -1.
</event>
<event>
 5   0  0.3263679E-04  0.1292671E+04  0.7818609E-02  0.9035397E-01
       -1   -1    0    0    0  501  0.00000000000E+00  0.00000000000E+00  0.44705757125E+03  0.44705757128E+03  0.50400001928E-02 0. -1.
        1   -1    0    0  501    0  0.00000000000E+00  0.00000000000E+00 -0.93444277260E+03  0.93444277262E+03  0.50400001928E-02 0.  1.
    10030    2    1    2    0    0  0.00000000000E+00  0.00000000000E+00 -0.48738520135E+03  0.13815003439E+04  0.12926712133E+04 0.  0.
        2    1    3    3  502    0 -0.17700180552E+03  0.48327244255E+03  0.17415793280E+03  0.54333495972E+03  0.25500000920E-02 0. -1.
       -2    1    3    3    0  502  0.17700180552E+03 -0.48327244255E+03 -0.66154313415E+03  0.83816538418E+03  0.25500000920E-02 0.  1.
</event>
<event>
 5   0  0.3337520E-04  0.1301638E+04  0.7818609E-02  0.9028267E-01
       -1   -1    0    0    0  501  0.00000000000E+00  0.00000000000E+00  0.10470081804E+04  0.10470081804E+04  0.50400001928E-02 0.  1.
        1   -1    0    0  501    0  0.00000000000E+00  0.00000000000E+00 -0.40454814752E+03  0.40454814755E+03  0.50400001928E-02 0. -1.
    10030    2    1    2    0    0  0.00000000000E+00  0.00000000000E+00  0.64246003284E+03  0.14515563279E+04  0.13016377681E+04 0.  0.
        5    1    3    3  502    0 -0.60607576257E+03 -0.19919618178E+03  0.17782598492E+03  0.66230742086E+03  0.46999998093E+01 0. -1.
       -5    1    3    3    0  502  0.60607576257E+03  0.19919618178E+03  0.46463404792E+03  0.78924890706E+03  0.46999998093E+01 0.  1.
</event>
<event>
 5   0  0.5957913E-04  0.1298923E+04  0.7818609E-02  0.9030420E-01
        2   -1    0    0  501    0  0.00000000000E+00  0.00000000000E+00  0.10540970036E+04  0.10540970036E+04  0.25500000920E-02 0.  1.
       -2   -1    0    0    0  501  0.00000000000E+00  0.00000000000E+00 -0.40015285207E+03  0.40015285208E+03  0.25500000920E-02 0. -1.
    10030    2    1    2    0    0  0.00000000000E+00  0.00000000000E+00  0.65394415156E+03  0.14542498557E+04  0.12989225110E+04 0.  0.
        1    1    3    3  502    0 -0.10280966633E+03 -0.32601967087E+03 -0.29127758629E+03  0.44911166271E+03  0.50400001928E-02 0. -1.
       -1    1    3    3    0  502  0.10280966633E+03  0.32601967087E+03  0.94522173785E+03  0.10051381930E+04  0.50400001928E-02 0.  1.
</event>
<event>
 5   0  0.5384960E-04  0.1299669E+04  0.7818609E-02  0.9029828E-01
        2   -1    0    0  501    0  0.00000000000E+00  0.00000000000E+00  0.10618688860E+04  0.10618688860E+04  0.25500000920E-02 0. -1.
       -2   -1    0    0    0  501  0.00000000000E+00  0.00000000000E+00 -0.39768079984E+03  0.39768079985E+03  0.25500000920E-02 0.  1.
    10030    2    1    2    0    0  0.00000000000E+00  0.00000000000E+00  0.66418808616E+03  0.14595496858E+04  0.12996689854E+04 0.  0.
        3    1    3    3  502    0 -0.62999383438E+03 -0.15239948300E+03  0.27981616120E+03  0.70598507636E+03  0.10100000352E+00 0.  1.
       -3    1    3    3    0  502  0.62999383438E+03  0.15239948300E+03  0.38437192496E+03  0.75356460949E+03  0.10100000352E+00 0. -1.
</event>
<event>
 5   0  0.2255875E-04  0.1336116E+04  0.7818609E-02  0.9001405E-01
       -4   -1    0    0    0  501  0.00000000000E+00  0.00000000000E+00  0.68511120064E+03  0.68511237774E+03  0.12699999809E+01 0.  1.
        4   -1    0    0  501    0  0.00000000000E+00  0.00000000000E+00 -0.65142722140E+03  0.65142845937E+03  0.12699999809E+01 0. -1.
    10030    2    1    2    0    0  0.00000000000E+00  0.00000000000E+00  0.33683979241E+02  0.13365408371E+04  0.13361163119E+04 0.  0.
        4    1    3    3  502    0 -0.53396625206E+03  0.37127581176E+03  0.16964653972E+03  0.67212145337E+03  0.12699999809E+01 0. -1.
       -4    1    3    3    0  502  0.53396625206E+03 -0.37127581176E+03 -0.13596256048E+03  0.66441938374E+03  0.12699999809E+01 0.  1.
</event>
<event>
 5   0  0.5384960E-04  0.1297557E+04  0.7818609E-02  0.9031505E-01
        2   -1    0    0  501    0  0.00000000000E+00  0.00000000000E+00  0.22739252790E+04  0.22739252790E+04  0.25500000920E-02 0.  1.
       -2   -1    0    0    0  501  0.00000000000E+00  0.00000000000E+00 -0.18510427923E+03  0.18510427925E+03  0.25500000920E-02 0. -1.
    10030    2    1    2    0    0  0.00000000000E+00  0.00000000000E+00  0.20888209998E+04  0.24590295583E+04  0.12975566266E+04 0.  0.
        3    1    3    3  502    0 -0.45236624323E+03 -0.43244862254E+03  0.13686164983E+04  0.15049113458E+04  0.10100000352E+00 0.  1.
       -3    1    3    3    0  502  0.45236624323E+03  0.43244862254E+03  0.72020450145E+03  0.95411821242E+03  0.10100000352E+00 0. -1.
</event>
<event>
 5   0  0.6052864E-04  0.1299844E+04  0.7818609E-02  0.9029689E-01
        2   -1    0    0  501    0  0.00000000000E+00  0.00000000000E+00  0.45790679163E+03  0.45790679163E+03  0.25500000920E-02 0.  1.
       -2   -1    0    0    0  501  0.00000000000E+00  0.00000000000E+00 -0.92245608608E+03  0.92245608608E+03  0.25500000920E-02 0. -1.
    10030    2    1    2    0    0  0.00000000000E+00  0.00000000000E+00 -0.46454929445E+03  0.13803628777E+04  0.12998444627E+04 0.  0.
        2    1    3    3  502    0  0.14930490985E+03 -0.25650720089E+03 -0.84628715831E+03  0.89682208634E+03  0.25500000920E-02 0. -1.
       -2    1    3    3    0  502 -0.14930490985E+03  0.25650720089E+03  0.38173786386E+03  0.48354079138E+03  0.25500000920E-02 0.  1.
</event>
<event>
 5   0  0.5384960E-04  0.1301681E+04  0.7818609E-02  0.9028233E-01
        2   -1    0    0  501    0  0.00000000000E+00  0.00000000000E+00  0.16363398285E+04  0.16363398285E+04  0.25500000920E-02 0.  1.
       -2   -1    0    0    0  501  0.00000000000E+00  0.00000000000E+00 -0.25886655217E+03  0.25886655218E+03  0.25500000920E-02 0. -1.
    10030    2    1    2    0    0  0.00000000000E+00  0.00000000000E+00  0.13774732763E+04  0.18952063807E+04  0.13016814504E+04 0.  0.
        3    1    3    3  502    0  0.25879366425E+03 -0.18099923059E+03 -0.13983414719E+03  0.34538164550E+03  0.10100000352E+00 0. -1.
       -3    1    3    3    0  502 -0.25879366425E+03  0.18099923059E+03  0.15173074235E+04  0.15498247352E+04  0.10100000352E+00 0.  1.
</event>
<event>
 5   0  0.3335747E-04  0.1301240E+04  0.7818609E-02  0.9028583E-01
        1   -1    0    0  501    0  0.00000000000E+00  0.00000000000E+00  0.69713462388E+03  0.69713462390E+03  0.50400001928E-02 0. -1.
       -1   -1    0    0    0  501  0.00000000000E+00  0.00000000000E+00 -0.60720874976E+03  0.60720874978E+03  0.50400001928E-02 0.  1.
    10030    2    1    2    0    0  0.00000000000E+00  0.00000000000E+00  0.89925874115E+02  0.13043433737E+04  0.13012397833E+04 0.  0.
        3    1    3    3  502    0  0.55107983151E+03  0.18201830220E+03  0.33975038753E+03  0.67249533757E+03  0.10100000352E+00 0. -1.
       -3    1    3    3    0  502 -0.55107983151E+03 -0.18201830220E+03 -0.24982451342E+03  0.63184803611E+03  0.10100000352E+00 0.  1.
</event>
<event>
 5   0  0.3337520E-04  0.1300915E+04  0.7818609E-02  0.9028840E-01
       -1   -1    0    0    0  501  0.00000000000E+00  0.00000000000E+00  0.26560256444E+03  0.26560256448E+03  0.50400001928E-02 0. -1.
        1   -1    0    0  501    0  0.00000000000E+00  0.00000000000E+00 -0.15929614358E+04  0.15929614358E+04  0.50400001928E-02 0.  1.
    10030    2    1    2    0    0  0.00000000000E+00  0.00000000000E+00 -0.13273588714E+04  0.18585640003E+04  0.13009145129E+04 0.  0.
        5    1    3    3  502    0  0.27874874005E+03 -0.10882753071E+03 -0.14887575771E+04  0.15185405839E+04  0.46999998093E+01 0.  1.
       -5    1    3    3    0  502 -0.27874874005E+03  0.10882753071E+03  0.16139870572E+03  0.34002341643E+03  0.46999998093E+01 0. -1.
</event>
<event>
 5   0  0.5957913E-04  0.1305374E+04  0.7818609E-02  0.9025315E-01
        2   -1    0    0  501    0  0.00000000000E+00  0.00000000000E+00  0.25138476645E+04  0.25138476645E+04  0.25500000920E-02 0. -1.
       -2   -1    0    0    0  501  0.00000000000E+00  0.00000000000E+00 -0.16946137691E+03  0.16946137693E+03  0.25500000920E-02 0.  1.
    10030    2    1    2    0    0  0.00000000000E+00  0.00000000000E+00  0.23443862876E+04  0.26833090414E+04  0.13053736424E+04 0.  0.
        1    1    3    3  502    0 -0.53356478334E+03 -0.46493906674E+02  0.40540954014E+03  0.67172163627E+03  0.50400001928E-02 0.  1.
       -1    1    3    3    0  502  0.53356478334E+03  0.46493906674E+02  0.19389767474E+04  0.20115874051E+04  0.50400001928E-02 0. -1.
</event>
<event>
 5   0  0.3263679E-04  0.1299969E+04  0.7818609E-02  0.9029590E-01
       -1   -1    0    0    0  501  0.00000000000E+00  0.00000000000E+00  0.40868378958E+03  0.40868378962E+03  0.50400001928E-02 0.  1.
        1   -1    0    0  501    0  0.00000000000E+00  0.00000000000E+00 -0.10337577015E+04  0.10337577015E+04  0.50400001928E-02 0. -1.
    10030    2    1    2    0    0  0.00000000000E+00  0.00000000000E+00 -0.62507391188E+03  0.14424414911E+04  0.12999692534E+04 0.  0.
        2    1    3    3  502    0  0.31254933418E+03 -0.49148314443E+03  0.75912793533E+01  0.58249497429E+03  0.25500000920E-02 0.  1.
       -2    1    3    3    0  502 -0.31254933418E+03  0.49148314443E+03 -0.63266519123E+03  0.85994651680E+03  0.25500000920E-02 0. -1.
</event>
<event>
 5   0  0.6052864E-04  0.1300821E+04  0.7818609E-02  0.9028914E-01
        2   -1    0    0  501    0  0.00000000000E+00  0.00000000000E+00  0.61947596582E+03  0.61947596583E+03  0.25500000920E-02 0.  1.
       -2   -1    0    0    0  501  0.00000000000E+00  0.00000000000E+00 -0.68289007548E+03  0.68289007549E+03  0.25500000920E-02 0. -1.
    10030    2    1    2    0    0  0.00000000000E+00  0.00000000000E+00 -0.63414109658E+02  0.13023660413E+04  0.13008212622E+04 0.  0.
        2    1    3    3  502    0 -0.53576084547E+03  0.35412645347E+03  0.71316848163E+02  0.64616663596E+03  0.25500000920E-02 0.  1.
       -2    1    3    3    0  502  0.53576084547E+03 -0.35412645347E+03 -0.13473095782E+03  0.65619940536E+03  0.25500000920E-02 0. -1.
</event>
<event>
 5   0  0.3403833E-04  0.1300103E+04  0.7818609E-02  0.9029483E-01
        1   -1    0    0  501    0  0.00000000000E+00  0.00000000000E+00  0.20086407439E+04  0.20086407439E+04  0.50400001928E-02 0. -1.
       -1   -1    0    0    0  501  0.00000000000E+00  0.00000000000E+00 -0.21037471734E+03  0.21037471740E+03  0.50400001928E-02 0.  1.
    10030    2    1    2    0    0  0.00000000000E+00  0.00000000000E+00  0.17982660265E+04  0.22190154613E+04  0.13001034248E+04 0.  0.
        1    1    3    3  502    0  0.97627358159E+02 -0.58944257721E+02 -0.19316739397E+03  0.22431934535E+03  0.50400001928E-02 0.  1.
       -1    1    3    3    0  502 -0.97627358159E+02  0.58944257721E+02  0.19914334205E+04  0.19946961159E+04  0.50400001928E-02 0. -1.
</event>
<event>
 5   0  0.5787604E-04  0.1298338E+04  0.7818609E-02  0.9030884E-01
       -2   -1    0    0    0  501  0.00000000000E+00  0.00000000000E+00  0.18384934907E+03  0.18384934908E+03  0.25500000920E-02 0. -1.
        2   -1    0    0  501    0  0.00000000000E+00  0.00000000000E+00 -0.22922061585E+04  0.22922061585E+04  0.25500000920E-02 0.  1.
    10030    2    1    2    0    0  0.00000000000E+00  0.00000000000E+00 -0.21083568094E+04  0.24760555075E+04  0.12983383383E+04 0.  0.
        4    1    3    3  502    0 -0.18558232568E+03  0.60968661110E+03 -0.12897679078E+04  0.14386317918E+04  0.12699999809E+01 0. -1.
       -4    1    3    3    0  502  0.18558232568E+03 -0.60968661110E+03 -0.81858890159E+03  0.10374237158E+04  0.12699999809E+01 0.  1.
</event>
<event>
 5   0  0.3274879E-04  0.1300180E+04  0.7818609E-02  0.9029422E-01
       -1   -1    0    0    0  501  0.00000000000E+00  0.00000000000E+00  0.37777167221E+03  0.37777167224E+03  0.50400001928E-02 0.  1.
        1   -1    0    0  501    0  0.00000000000E+00  0.00000000000E+00 -0.11187108366E+04  0.11187108366E+04  0.50400001928E-02 0. -1.
    10030    2    1    2    0    0  0.00000000000E+00  0.00000000000E+00 -0.74093916438E+03  0.14964825088E+04  0.13001803929E+04 0.  0.
        4    1    3    3  502    0 -0.38512430720E+03 -0.40902619374E+02  0.23049433662E+03  0.45069169992E+03  0.12699999809E+01 0.  1.
       -4    1    3    3    0  502  0.38512430720E+03  0.40902619374E+02 -0.97143350099E+03  0.10457908089E+04  0.12699999809E+01 0. -1.
</event>
<event>
 5   0  0.6007125E-04  0.1302838E+04  0.7818609E-02  0.9027318E-01
        2   -1    0    0  501    0  0.00000000000E+00  0.00000000000E+00  0.15785133772E+04  0.15785133772E+04  0.25500000920E-02 0. -1.
       -2   -1    0    0    0  501  0.00000000000E+00  0.00000000000E+00 -0.26882680925E+03  0.26882680927E+03  0.25500000920E-02 0.  1.
    10030    2    1    2    0    0  0.00000000000E+00  0.00000000000E+00  0.13096865679E+04  0.18473401864E+04  0.13028380015E+04 0.  0.
        5    1    3    3  502    0  0.95295674163E+02  0.63298839500E+03  0.82599138690E+03  0.10450069066E+04  0.46999998093E+01 0. -1.
       -5    1    3    3    0  502 -0.95295674163E+02 -0.63298839500E+03  0.48369518100E+03  0.80233327978E+03  0.46999998093E+01 0.  1.
</event>
<event>
 5   0  0.3263679E-04  0.1299787E+04  0.7818609E-02  0.9029734E-01
        1   -1    0    0  501    0  0.00000000000E+00  0.00000000000E+00  0.52908945616E+03  0.52908945618E+03  0.50400001928E-02 0. -1.
       -1   -1    0    0    0  501  0.00000000000E+00  0.00000000000E+00 -0.79827958067E+03  0.79827958069E+03  0.50400001928E-02 0.  1.
    10030    2    1    2    0    0  0.00000000000E+00  0.00000000000E+00 -0.26919012452E+03  0.13273690369E+04  0.12997866121E+04 0.  0.
        2    1    3    3  502    0 -0.20701746277E+03 -0.35318274294E+03  0.38086050543E+03  0.55915025208E+03  0.25500000920E-02 0. -1.
       -2    1    3    3    0  502  0.20701746277E+03  0.35318274294E+03 -0.65005062994E+03  0.76821878479E+03  0.25500000920E-02 0.  1.
</event>
<event>
 5   0  0.3335747E-04  0.1305797E+04  0.7818609E-02  0.9024981E-01
       -1   -1    0    0    0  501  0.00000000000E+00  0.00000000000E+00  0.29456022629E+03  0.29456022633E+03  0.50400001928E-02 0. -1.
        1   -1    0    0  501    0  0.00000000000E+00  0.00000000000E+00 -0.14471624150E+04  0.14471624150E+04  0.50400001928E-02 0.  1.
    10030    2    1    2    0    0  0.00000000000E+00  0.00000000000E+00 -0.11526021887E+04  0.17417226413E+04  0.13057970569E+04 0.  0.
        3    1    3    3  502    0 -0.31989328083E+03 -0.39977437750E+03 -0.11166707645E+04  0.12284562958E+04  0.10100000352E+00 0.  1.
       -3    1    3    3    0  502  0.31989328083E+03  0.39977437750E+03 -0.35931424135E+02  0.51326634554E+03  0.10100000352E+00 0. -1.
</event>
<event>
 5   0  0.5957913E-04  0.1293768E+04  0.7818609E-02  0.9034521E-01
        2   -1    0    0  501    0  0.00000000000E+00  0.00000000000E+00  0.18729848156E+04  0.18729848156E+04  0.25500000920E-02 0.  1.
       -2   -1    0    0    0  501  0.00000000000E+00  0.00000000000E+00 -0.22341837734E+03  0.22341837735E+03  0.25500000920E-02 0. -1.
    10030    2    1    2    0    0  0.00000000000E+00  0.00000000000E+00  0.16495664383E+04  0.20964031930E+04  0.12937684929E+04 0.  0.
        1    1    3    3  502    0  0.43722148674E+02 -0.35423494911E+03 -0.49421981922E+02  0.36032840268E+03  0.50400001928E-02 0. -1.
       -1    1    3    3    0  502 -0.43722148674E+02  0.35423494911E+03  0.16989884202E+04  0.17360747903E+04  0.50400001928E-02 0.  1.
</event>
<event>
 5   0  0.3335747E-04  0.1300660E+04  0.7818609E-02  0.9029042E-01
       -1   -1    0    0    0  501  0.00000000000E+00  0.00000000000E+00  0.63424705622E+03  0.63424705624E+03  0.50400001928E-02 0. -1.
        1   -1    0    0  501    0  0.00000000000E+00  0.00000000000E+00 -0.66682108066E+03  0.66682108068E+03  0.50400001928E-02 0.  1.
    10030    2    1    2    0    0  0.00000000000E+00  0.00000000000E+00 -0.32574024445E+02  0.13010681369E+04  0.13006603053E+04 0.  0.
        3    1    3    3  502    0  0.17932782151E+03 -0.62007289831E+03  0.62987003931E+02  0.64854933479E+03  0.10100000352E+00 0. -1.
       -3    1    3    3    0  502 -0.17932782151E+03  0.62007289831E+03 -0.95561028376E+02  0.65251880213E+03  0.10100000352E+00 0.  1.
</event>
<event>
 5   0  0.5957913E-04  0.1293535E+04  0.7818609E-02  0.9034708E-01
        2   -1    0    0  501    0  0.00000000000E+00  0.00000000000E+00  0.11482172714E+04  0.11482172714E+04  0.25500000920E-02 0.  1.
       -2   -1    0    0    0  501  0.00000000000E+00  0.00000000000E+00 -0.36431076261E+03  0.36431076262E+03  0.25500000920E-02 0. -1.
    10030    2    1    2    0    0  0.00000000000E+00  0.00000000000E+00  0.78390650882E+03  0.15125280340E+04  0.12935345528E+04 0.  0.
        1    1    3    3  502    0  0.22825721959E+03 -0.47416684270E+03 -0.47697322958E+02  0.52840381116E+03  0.50400001928E-02 0. -1.
       -1    1    3    3    0  502 -0.22825721959E+03  0.47416684270E+03  0.83160383178E+03  0.98412422288E+03  0.50400001928E-02 0.  1.
</event>
<event>
 5   0  0.3335747E-04  0.1301209E+04  0.7818609E-02  0.9028607E-01
       -1   -1    0    0    0  501  0.00000000000E+00  0.00000000000E+00  0.42741522675E+03  0.42741522678E+03  0.50400001928E-02 0.  1.
        1   -1    0    0  501    0  0.00000000000E+00  0.00000000000E+00 -0.99033976898E+03  0.99033976899E+03  0.50400001928E-02 0. -1.
    10030    2    1    2    0    0  0.00000000000E+00  0.00000000000E+00 -0.56292454223E+03  0.14177549958E+04  0.13012091253E+04 0.  0.
        3    1    3    3  502    0  0.14674070050E+03  0.62865649684E+03 -0.19331861124E+03  0.67387975178E+03  0.10100000352E+00 0. -1.
       -3    1    3    3    0  502 -0.14674070050E+03 -0.62865649684E+03 -0.36960593099E+03  0.74387524400E+03  0.10100000352E+00 0.  1.
</event>
<event>
 5   0  0.3337520E-04  0.1240162E+04  0.7818609E-02  0.9078411E-01
       -1   -1    0    0    0  501  0.00000000000E+00  0.00000000000E+00  0.26967318367E+03  0.26967318372E+03  0.50400001928E-02 0. -1.
        1   -1    0    0  501    0  0.00000000000E+00  0.00000000000E+00 -0.14258023039E+04  0.14258023039E+04  0.50400001928E-02 0.  1.
    10030    2    1    2    0    0  0.00000000000E+00  0.00000000000E+00 -0.11561291202E+04  0.16954754876E+04  0.12401623226E+04 0.  0.
        5    1    3    3  502    0 -0.18719106950E+03 -0.55615512780E+03 -0.30419419523E+03  0.66098806426E+03  0.46999998093E+01 0.  1.
       -5    1    3    3    0  502  0.18719106950E+03  0.55615512780E+03 -0.85193492495E+03  0.10344874233E+04  0.46999998093E+01 0. -1.
</event>
<event>
 5   0  0.5787604E-04  0.1297204E+04  0.7818609E-02  0.9031786E-01
        2   -1    0    0  501    0  0.00000000000E+00  0.00000000000E+00  0.66851059675E+03  0.66851059675E+03  0.25500000920E-02 0.  1.
       -2   -1    0    0    0  501  0.00000000000E+00  0.00000000000E+00 -0.62928599867E+03  0.62928599867E+03  0.25500000920E-02 0. -1.
    10030    2    1    2    0    0  0.00000000000E+00  0.00000000000E+00  0.39224598079E+02  0.12977965954E+04  0.12972036980E+04 0.  0.
        4    1    3    3  502    0 -0.10250683306E+03 -0.20949964180E+03 -0.58587915295E+03  0.63059792697E+03  0.12699999809E+01 0. -1.
       -4    1    3    3    0  502  0.10250683306E+03  0.20949964180E+03  0.62510375103E+03  0.66719866846E+03  0.12699999809E+01 0.  1.
</event>
<event>
 5   0  0.6052864E-04  0.1300023E+04  0.7818609E-02  0.9029547E-01
        2   -1    0    0  501    0  0.00000000000E+00  0.00000000000E+00  0.10541996560E+04  0.10541996560E+04  0.25500000920E-02 0. -1.
       -2   -1    0    0    0  501  0.00000000000E+00  0.00000000000E+00 -0.40079218030E+03  0.40079218030E+03  0.25500000920E-02 0.  1.
    10030    2    1    2    0    0  0.00000000000E+00  0.00000000000E+00  0.65340747571E+03  0.14549918363E+04  0.13000230438E+04 0.  0.
        2    1    3    3  502    0  0.21224271272E+03  0.60715067973E+03  0.22149813399E+03  0.68025020424E+03  0.25500000920E-02 0.  1.
       -2    1    3    3    0  502 -0.21224271272E+03 -0.60715067973E+03  0.43190934171E+03  0.77474163207E+03  0.25500000920E-02 0. -1.
</event>
<event>
 5   0  0.3274879E-04  0.1307377E+04  0.7818609E-02  0.9023736E-01
       -1   -1    0    0    0  501  0.00000000000E+00  0.00000000000E+00  0.32260277557E+03  0.32260277561E+03  0.50400001928E-02 0.  1.
        1   -1    0    0  501    0  0.00000000000E+00  0.00000000000E+00 -0.13245659094E+04  0.13245659094E+04  0.50400001928E-02 0. -1.
    10030    2    1    2    0    0  0.00000000000E+00  0.00000000000E+00 -0.10019631338E+04  0.16471686850E+04  0.13073769752E+04 0.  0.
        4    1    3    3  502    0  0.12932980353E+03 -0.20321129974E+03  0.26464794268E+03  0.35785636349E+03  0.12699999809E+01 0.  1.
       -4    1    3    3    0  502 -0.12932980353E+03  0.20321129974E+03 -0.12666110765E+04  0.12893123215E+04  0.12699999809E+01 0. -1.
</event>
<event>
 5   0  0.2255875E-04  0.1304123E+04  0.7818609E-02  0.9026302E-01
       -3   -1    0    0    0  501  0.00000000000E+00  0.00000000000E+00  0.81563858071E+03  0.81563858696E+03  0.10100000352E+00 0. -1.
        3   -1    0    0  501    0  0.00000000000E+00  0.00000000000E+00 -0.52129022238E+03  0.52129023217E+03  0.10100000352E+00 0.  1.
    10030    2    1    2    0    0  0.00000000000E+00  0.00000000000E+00  0.29434835832E+03  0.13369288191E+04  0.13041233498E+04 0.  0.
        3    1    3    3  502    0  0.13887760645E+03 -0.22367707480E+03 -0.46437707227E+03  0.53382066166E+03  0.10100000352E+00 0.  1.
       -3    1    3    3    0  502 -0.13887760645E+03  0.22367707480E+03  0.75872543059E+03  0.80310815747E+03  0.10100000352E+00 0. -1.
</event>
<event>
 5   0  0.6007125E-04  0.1297542E+04  0.7818609E-02  0.9031516E-01
        2   -1    0    0  501    0  0.00000000000E+00  0.00000000000E+00  0.12311220204E+04  0.12311220204E+04  0.25500000920E-02 0.  1.
       -2   -1    0    0    0  501  0.00000000000E+00  0.00000000000E+00 -0.34188659794E+03  0.34188659795E+03  0.25500000920E-02 0. -1.
    10030    2    1    2    0    0  0.00000000000E+00  0.00000000000E+00  0.88923542247E+03  0.15730086184E+04  0.12975424759E+04 0.  0.
        5    1    3    3  502    0  0.43294426129E+03  0.43744118839E+03  0.19591476122E+03  0.64591037331E+03  0.46999998093E+01 0. -1.
       -5    1    3    3    0  502 -0.43294426129E+03 -0.43744118839E+03  0.69332066125E+03  0.92709824506E+03  0.46999998093E+01 0.  1.
</event>
<event>
 5   0  0.3274879E-04  0.1301427E+04  0.7818609E-02  0.9028435E-01
        1   -1    0    0  501    0  0.00000000000E+00  0.00000000000E+00  0.11205354085E+04  0.11205354085E+04  0.50400001928E-02 0. -1.
       -1   -1    0    0    0  501  0.00000000000E+00  0.00000000000E+00 -0.37787994328E+03  0.37787994331E+03  0.50400001928E-02 0.  1.
    10030    2    1    2    0    0  0.00000000000E+00  0.00000000000E+00  0.74265546520E+03  0.14984153518E+04  0.13014266889E+04 0.  0.
        4    1    3    3  502    0 -0.40735575228E+03 -0.50712028583E+03  0.35084282444E+03  0.73905479741E+03  0.12699999809E+01 0.  1.
       -4    1    3    3    0  502  0.40735575228E+03  0.50712028583E+03  0.39181264076E+03  0.75936055439E+03  0.12699999809E+01 0. -1.
</event>
<event>
 5   0  0.5787604E-04  0.1303947E+04  0.7818609E-02  0.9026441E-01
       -2   -1    0    0    0  501  0.00000000000E+00  0.00000000000E+00  0.64663129503E+03  0.64663129504E+03  0.25500000920E-02 0.  1.
        2   -1    0    0  501    0  0.00000000000E+00  0.00000000000E+00 -0.65735961343E+03  0.65735961343E+03  0.25500000920E-02 0. -1.
    10030    2    1    2    0    0  0.00000000000E+00  0.00000000000E+00 -0.10728318391E+02  0.13039909085E+04  0.13039467752E+04 0.  0.
        4    1    3    3  502    0  0.20548866609E+02  0.51849525947E+03 -0.40010286054E+03  0.65524308613E+03  0.12699999809E+01 0. -1.
       -4    1    3    3    0  502 -0.20548866609E+02 -0.51849525947E+03  0.38937454215E+03  0.64874782234E+03  0.12699999809E+01 0.  1.
</event>
<event>
 5   0  0.3263679E-04  0.1296912E+04  0.7818609E-02  0.9032017E-01
        1   -1    0    0  501    0  0.00000000000E+00  0.00000000000E+00  0.60341684122E+03  0.60341684124E+03  0.50400001928E-02 0.  1.
       -1   -1    0    0    0  501  0.00000000000E+00  0.00000000000E+00 -0.69685722030E+03  0.69685722032E+03  0.50400001928E-02 0. -1.
    10030    2    1    2    0    0  0.00000000000E+00  0.00000000000E+00 -0.93440379076E+02  0.13002740616E+04  0.12969123065E+04 0.  0.
        2    1    3    3  502    0  0.54959781123E+03 -0.33273741721E+03  0.41390716967E+02  0.64380519909E+03  0.25500000920E-02 0.  1.
       -2    1    3    3    0  502 -0.54959781123E+03  0.33273741721E+03 -0.13483109604E+03  0.65646886247E+03  0.25500000920E-02 0. -1.
</event>
<event>
 5   0  0.3263679E-04  0.1297560E+04  0.7818609E-02  0.9031502E-01
        1   -1    0    0  501    0  0.00000000000E+00  0.00000000000E+00  0.57568386464E+03  0.57568386466E+03  0.50400001928E-02 0. -1.
       -1   -1    0    0    0  501  0.00000000000E+00  0.00000000000E+00 -0.73115757344E+03  0.73115757346E+03  0.50400001928E-02 0.  1.
    10030    2    1    2    0    0  0.00000000000E+00  0.00000000000E+00 -0.15547370880E+03  0.13068414381E+04  0.12975601991E+04 0.  0.
        2    1    3    3  502    0  0.72784321822E+02 -0.44097631891E+03 -0.55137498173E+03  0.70976900596E+03  0.25500000920E-02 0.  1.
       -2    1    3    3    0  502 -0.72784321822E+02  0.44097631891E+03  0.39590127292E+03  0.59707243216E+03  0.25500000920E-02 0. -1.
</event>
<event>
 5   0  0.6052864E-04  0.1301610E+04  0.7818609E-02  0.9028289E-01
       -2   -1    0    0    0  501  0.00000000000E+00  0.00000000000E+00  0.28222842399E+03  0.28222842400E+03  0.25500000920E-02 0.  1.
        2   -1    0    0  501    0  0.00000000000E+00  0.00000000000E+00 -0.15007243456E+04  0.15007243456E+04  0.25500000920E-02 0. -1.
    10030    2    1    2    0    0  0.00000000000E+00  0.00000000000E+00 -0.12184959216E+04  0.17829527696E+04  0.13016098754E+04 0.  0.
        2    1    3    3  502    0 -0.56600602116E+03  0.30246868688E+03 -0.75739576400E+03  0.99272275378E+03  0.25500000920E-02 0. -1.
       -2    1    3    3    0  502  0.56600602116E+03 -0.30246868688E+03 -0.46110015758E+03  0.79023001580E+03  0.25500000920E-02 0.  1.
</event>
<event>
 5   0  0.3337520E-04  0.1298522E+04  0.7818609E-02  0.9030738E-01
       -1   -1    0    0    0  501  0.00000000000E+00  0.00000000000E+00  0.17060698746E+03  0.17060698754E+03  0.50400001928E-02 0.  1.
        1   -1    0    0  501    0  0.00000000000E+00  0.00000000000E+00 -0.24708227632E+04  0.24708227632E+04  0.50400001928E-02 0. -1.
    10030    2    1    2    0    0  0.00000000000E+00  0.00000000000E+00 -0.23002157757E+04  0.26414297507E+04  0.12985216645E+04 0.  0.
        5    1    3    3  502    0 -0.20293221748E+03  0.29981947373E+02 -0.24031330211E+04  0.24118770303E+04  0.46999998093E+01 0. -1.
       -5    1    3    3    0  502  0.20293221748E+03 -0.29981947373E+02  0.10291724540E+03  0.22955272044E+03  0.46999998093E+01 0.  1.
</event>
<event>
 5   0  0.3274879E-04  0.1291008E+04  0.7818609E-02  0.9036727E-01
       -1   -1    0    0    0  501  0.00000000000E+00  0.00000000000E+00  0.31223476707E+03  0.31223476711E+03  0.50400001928E-02 0. -1.
        1   -1    0    0  501    0  0.00000000000E+00  0.00000000000E+00 -0.13344936314E+04  0.13344936314E+04  0.50400001928E-02 0.  1.
    10030    2    1    2    0    0  0.00000000000E+00  0.00000000000E+00 -0.10222588644E+04  0.16467283985E+04  0.12910078361E+04 0.  0.
        4    1    3    3  502    0 -0.24117728213E+03  0.52078820758E+03 -0.88797856833E+03  0.10573052489E+04  0.12699999809E+01 0.  1.
       -4    1    3    3    0  502  0.24117728213E+03 -0.52078820758E+03 -0.13428029604E+03  0.58942314968E+03  0.12699999809E+01 0. -1.
</event>
<event>
 5   0  0.3337520E-04  0.1307394E+04  0.7818609E-02  0.9023722E-01
        1   -1    0    0  501    0  0.00000000000E+00  0.00000000000E+00  0.12109442644E+04  0.12109442644E+04  0.50400001928E-02 0.  1.
       -1   -1    0    0    0  501  0.00000000000E+00  0.00000000000E+00 -0.35288157159E+03  0.35288157162E+03  0.50400001928E-02 0. -1.
    10030    2    1    2    0    0  0.00000000000E+00  0.00000000000E+00  0.85806269282E+03  0.15638258360E+04  0.13073942254E+04 0.  0.
        5    1    3    3  502    0 -0.18479393503E+02 -0.66290332804E+02  0.12065789812E+04  0.12085490574E+04  0.46999998093E+01 0.  1.
       -5    1    3    3    0  502  0.18479393503E+02  0.66290332804E+02 -0.34851628837E+03  0.35527677868E+03  0.46999998093E+01 0. -1.
</event>
<event>
 5   0  0.6052864E-04  0.1300263E+04  0.7818609E-02  0.9029357E-01
        2   -1    0    0  501    0  0.00000000000E+00  0.00000000000E+00  0.41833369332E+03  0.41833369333E+03  0.25500000920E-02 0. -1.
       -2   -1    0    0    0  501  0.00000000000E+00  0.00000000000E+00 -0.10103672716E+04  0.10103672716E+04  0.25500000920E-02 0.  1.
    10030    2    1    2    0    0  0.00000000000E+00  0.00000000000E+00 -0.59203357827E+03  0.14287009649E+04  0.13002625463E+04 0.  0.
        2    1    3    3  502    0  0.71761701079E+02  0.53744527559E+02  0.41150844267E+03  0.42116198117E+03  0.25500000920E-02 0. -1.
       -2    1    3    3    0  502 -0.71761701079E+02 -0.53744527559E+02 -0.10035420209E+04  0.10075389838E+04  0.25500000920E-02 0.  1.
</event>
<event>
 5   0  0.6052864E-04  0.1296826E+04  0.7818609E-02  0.9032086E-01
        2   -1    0    0  501    0  0.00000000000E+00  0.00000000000E+00  0.31033096778E+03  0.31033096779E+03  0.25500000920E-02 0.  1.
       -2   -1    0    0    0  501  0.00000000000E+00  0.00000000000E+00 -0.13548099125E+04  0.13548099125E+04  0.25500000920E-02 0. -1.
    10030    2    1    2    0    0  0.00000000000E+00  0.00000000000E+00 -0.10444789448E+04  0.16651408803E+04  0.12968260814E+04 0.  0.
        2    1    3    3  502    0 -0.48810228797E+03 -0.12707776248E+03 -0.10454597823E+04  0.11607664527E+04  0.25500000920E-02 0. -1.
       -2    1    3    3    0  502  0.48810228797E+03  0.12707776248E+03  0.98083752101E+00  0.50437442767E+03  0.25500000920E-02 0.  1.
</event>
<event>
 5   0  0.3274879E-04  0.1295107E+04  0.7818609E-02  0.9033454E-01
        1   -1    0    0  501    0  0.00000000000E+00  0.00000000000E+00  0.12093285195E+04  0.12093285195E+04  0.50400001928E-02 0. -1.
       -1   -1    0    0    0  501  0.00000000000E+00  0.00000000000E+00 -0.34674253879E+03  0.34674253883E+03  0.50400001928E-02 0.  1.
    10030    2    1    2    0    0  0.00000000000E+00  0.00000000000E+00  0.86258598072E+03  0.15560710584E+04  0.12951071633E+04 0.  0.
        4    1    3    3  502    0  0.24461211783E+03  0.38038265856E+03 -0.12555776002E+03  0.46935319230E+03  0.12699999809E+01 0.  1.
       -4    1    3    3    0  502 -0.24461211783E+03 -0.38038265856E+03  0.98814374074E+03  0.10867178660E+04  0.12699999809E+01 0. -1.
</event>
<event>
 5   0  0.5384960E-04  0.1304533E+04  0.7818609E-02  0.9025978E-01
        2   -1    0    0  501    0  0.00000000000E+00  0.00000000000E+00  0.21631167546E+04  0.21631167546E+04  0.25500000920E-02 0.  1.
       -2   -1    0    0    0  501  0.00000000000E+00  0.00000000000E+00 -0.19668460789E+03  0.19668460791E+03  0.25500000920E-02 0. -1.
    10030    2    1    2    0    0  0.00000000000E+00  0.00000000000E+00  0.19664321467E+04  0.23598013625E+04  0.13045332816E+04 0.  0.
        3    1    3    3  502    0  0.15697645989E+02 -0.62284503355E+03  0.63399814246E+03  0.88889594821E+03  0.10100000352E+00 0. -1.
       -3    1    3    3    0  502 -0.15697645989E+02  0.62284503355E+03  0.13324340042E+04  0.14709054143E+04  0.10100000352E+00 0.  1.
</event>
<event>
 5   0  0.5384960E-04  0.1300299E+04  0.7818609E-02  0.9029328E-01
        2   -1    0    0  501    0  0.00000000000E+00  0.00000000000E+00  0.15138798817E+04  0.15138798817E+04  0.25500000920E-02 0.  1.
       -2   -1    0    0    0  501  0.00000000000E+00  0.00000000000E+00 -0.27921269671E+03  0.27921269672E+03  0.25500000920E-02 0. -1.
    10030    2    1    2    0    0  0.00000000000E+00  0.00000000000E+00  0.12346671850E+04  0.17930925784E+04  0.13002991721E+04 0.  0.
        3    1    3    3  502    0 -0.55769005814E+03 -0.15132307932E+03  0.10282099236E+04  0.11794628152E+04  0.10100000352E+00 0. -1.
       -3    1    3    3    0  502  0.55769005814E+03  0.15132307932E+03  0.20645726135E+03  0.61362976317E+03  0.10100000352E+00 0.  1.
</event>
<event>
 5   0  0.5787604E-04  0.1313709E+04  0.7818609E-02  0.9018764E-01
       -2   -1    0    0    0  501  0.00000000000E+00  0.00000000000E+00  0.56958180903E+03  0.56958180904E+03  0.25500000920E-02 0. -1.
        2   -1    0    0  501    0  0.00000000000E+00  0.00000000000E+00 -0.75749983302E+03  0.75749983302E+03  0.25500000920E-02 0.  1.
    10030    2    1    2    0    0  0.00000000000E+00  0.00000000000E+00 -0.18791802398E+03  0.13270816421E+04  0.13137094431E+04 0.  0.
        4    1    3    3  502    0  0.57034894914E+03 -0.76262160719E+02  0.22603448259E+03  0.61822895529E+03  0.12699999809E+01 0. -1.
       -4    1    3    3    0  502 -0.57034894914E+03  0.76262160719E+02 -0.41395250657E+03  0.70885268677E+03  0.12699999809E+01 0.  1.
</event>
<event>
 5   0  0.3274879E-04  0.1295695E+04  0.7818609E-02  0.9032986E-01
       -1   -1    0    0    0  501  0.00000000000E+00  0.00000000000E+00  0.75425257879E+03  0.75425257881E+03  0.50400001928E-02 0.  1.
        1   -1    0    0  501    0  0.00000000000E+00  0.00000000000E+00 -0.55645321425E+03  0.55645321427E+03  0.50400001928E-02 0. -1.
    10030    2    1    2    0    0  0.00000000000E+00  0.00000000000E+00  0.19779936454E+03  0.13107057931E+04  0.12956948280E+04 0.  0.
        4    1    3    3  502    0 -0.39327602647E+02  0.63811298933E+03  0.20484995415E+03  0.67134191296E+03  0.12699999809E+01 0.  1.
       -4    1    3    3    0  502  0.39327602647E+02 -0.63811298933E+03 -0.70505896099E+01  0.63936388012E+03  0.12699999809E+01 0. -1.
</event>
<event>
 5   0  0.3274879E-04  0.1302984E+04  0.7818609E-02  0.9027202E-01
        1   -1    0    0  501    0  0.00000000000E+00  0.00000000000E+00  0.44328280423E+03  0.44328280426E+03  0.50400001928E-02 0. -1.
       -1   -1    0    0    0  501  0.00000000000E+00  0.00000000000E+00 -0.95749639907E+03  0.95749639908E+03  0.50400001928E-02 0.  1.
    10030    2    1    2    0    0  0.00000000000E+00  0.00000000000E+00 -0.51421359484E+03  0.14007792033E+04  0.13029837894E+04 0.  0.
        4    1    3    3  502    0 -0.56879368153E+03  0.31307417274E+03 -0.31498416854E+03  0.72163587017E+03  0.12699999809E+01 0. -1.
       -4    1    3    3    0  502  0.56879368153E+03 -0.31307417274E+03 -0.19922942629E+03  0.67914333317E+03  0.12699999809E+01 0.  1.
</event>
<event>
 5   0  0.5384960E-04  0.1297699E+04  0.7818609E-02  0.9031392E-01
        2   -1    0    0  501    0  0.00000000000E+00  0.00000000000E+00  0.90634169892E+03  0.90634169892E+03  0.25500000920E-02 0. -1.
       -2   -1    0    0    0  501  0.00000000000E+00  0.00000000000E+00 -0.46451087350E+03  0.46451087350E+03  0.25500000920E-02 0.  1.
    10030    2    1    2    0    0  0.00000000000E+00  0.00000000000E+00  0.44183082542E+03  0.13708525724E+04  0.12976988468E+04 0.  0.
        3    1    3    3  502    0 -0.17244671951E+03  0.17096164759E+03  0.85653166838E+03  0.89028774290E+03  0.10100000352E+00 0. -1.
       -3    1    3    3    0  502  0.17244671951E+03 -0.17096164759E+03 -0.41470084296E+03  0.48056482952E+03  0.10100000352E+00 0.  1.
</event>
<event>
 5   0  0.3274879E-04  0.1300192E+04  0.7818609E-02  0.9029413E-01
       -1   -1    0    0    0  501  0.00000000000E+00  0.00000000000E+00  0.51680772130E+03  0.51680772133E+03  0.50400001928E-02 0. -1.
        1   -1    0    0  501    0  0.00000000000E+00  0.00000000000E+00 -0.81776015611E+03  0.81776015613E+03  0.50400001928E-02 0.  1.
    10030    2    1    2    0    0  0.00000000000E+00  0.00000000000E+00 -0.30095243481E+03  0.13345678775E+04  0.13001919287E+04 0.  0.
        4    1    3    3  502    0  0.55191941589E+03  0.34274262714E+03 -0.12672130456E+03  0.66192707455E+03  0.12699999809E+01 0.  1.
       -4    1    3    3    0  502 -0.55191941589E+03 -0.34274262714E+03 -0.17423113025E+03  0.67264080291E+03  0.12699999809E+01 0. -1.
</event>
<event>
 5   0  0.5384960E-04  0.1297944E+04  0.7818609E-02  0.9031197E-01
       -2   -1    0    0    0  501  0.00000000000E+00  0.00000000000E+00  0.17547965983E+03  0.17547965985E+03  0.25500000920E-02 0. -1.
        2   -1    0    0  501    0  0.00000000000E+00  0.00000000000E+00 -0.24000772338E+04  0.24000772338E+04  0.25500000920E-02 0.  1.
    10030    2    1    2    0    0  0.00000000000E+00  0.00000000000E+00 -0.22245975740E+04  0.25755568936E+04  0.12979441230E+04 0.  0.
        3    1    3    3  502    0  0.44757081329E+03  0.25575578384E+02 -0.18115892977E+03  0.48352074532E+03  0.10100000352E+00 0. -1.
       -3    1    3    3    0  502 -0.44757081329E+03 -0.25575578384E+02 -0.20434386442E+04  0.20920361483E+04  0.10100000352E+00 0.  1.
</event>
<event>
 5   0  0.5384960E-04  0.1304286E+04  0.7818609E-02  0.9026174E-01
        2   -1    0    0  501    0  0.00000000000E+00  0.00000000000E+00  0.16431372875E+04  0.16431372875E+04  0.25500000920E-02 0.  1.
       -2   -1    0    0    0  501  0.00000000000E+00  0.00000000000E+00 -0.25882815333E+03  0.25882815335E+03  0.25500000920E-02 0. -1.
    10030    2    1    2    0    0  0.00000000000E+00  0.00000000000E+00  0.13843091342E+04  0.19019654409E+04  0.13042855359E+04 0.  0.
        3    1    3    3  502    0  0.12153296514E+03 -0.13294609829E+03  0.16061429971E+04  0.16162117015E+04  0.10100000352E+00 0.  1.
       -3    1    3    3    0  502 -0.12153296514E+03  0.13294609829E+03 -0.22183386288E+03  0.28575373941E+03  0.10100000352E+00 0. -1.
</event>
<event>
 5   0  0.3274879E-04  0.1300124E+04  0.7818609E-02  0.9029467E-01
        1   -1    0    0  501    0  0.00000000000E+00  0.00000000000E+00  0.18328760984E+04  0.18328760984E+04  0.50400001928E-02 0.  1.
       -1   -1    0    0    0  501  0.00000000000E+00  0.00000000000E+00 -0.23055606023E+03  0.23055606028E+03  0.50400001928E-02 0. -1.
    10030    2    1    2    0    0  0.00000000000E+00  0.00000000000E+00  0.16023200382E+04  0.20634321587E+04  0.13001241359E+04 0.  0.
        4    1    3    3  502    0 -0.13043989794E+03 -0.53351829335E+03  0.13530587165E+04  0.14602827943E+04  0.12699999809E+01 0.  1.
       -4    1    3    3    0  502  0.13043989794E+03  0.53351829335E+03  0.24926132169E+03  0.60314936434E+03  0.12699999809E+01 0. -1.
</event>
<event>
 5   0  0.3335747E-04  0.1294230E+04  0.7818609E-02  0.9034153E-01
       -1   -1    0    0    0  501  0.00000000000E+00  0.00000000000E+00  0.59071034960E+03  0.59071034962E+03  0.50400001928E-02 0.  1.
        1   -1    0    0  501    0  0.00000000000E+00  0.00000000000E+00 -0.70890555149E+03  0.70890555151E+03  0.50400001928E-02 0. -1.
    10030    2    1    2    0    0  0.00000000000E+00  0.00000000000E+00 -0.11819520189E+03  0.12996159011E+04  0.12942300355E+04 0.  0.
        3    1    3    3  502    0  0.31792352645E+03 -0.49143915347E+03  0.21804008938E+03  0.62460331493E+03  0.10100000352E+00 0.  1.
       -3    1    3    3    0  502 -0.31792352645E+03  0.49143915347E+03 -0.33623529126E+03  0.67501258620E+03  0.10100000352E+00 0. -1.
</event>
<event>
 5   0  0.3274879E-04  0.1271385E+04  0.7818609E-02  0.9052570E-01
       -1   -1    0    0    0  501  0.00000000000E+00  0.00000000000E+00  0.46962549494E+03  0.46962549496E+03  0.50400001928E-02 0.  1.
        1   -1    0    0  501    0  0.00000000000E+00  0.00000000000E+00 -0.86048310938E+03  0.86048310940E+03  0.50400001928E-02 0. -1.
    10030    2    1    2    0    0  0.00000000000E+00  0.00000000000E+00 -0.39085761445E+03  0.13301086044E+04  0.12713847666E+04 0.  0.
        4    1    3    3  502    0 -0.40074408321E+03  0.27476839905E+03  0.23339340943E+03  0.53904321702E+03  0.12699999809E+01 0.  1.
       -4    1    3    3    0  502  0.40074408321E+03 -0.27476839905E+03 -0.62425102387E+03  0.79106538734E+03  0.12699999809E+01 0. -1.
</event>
<event>
 5   0  0.6007125E-04  0.1296964E+04  0.7818609E-02  0.9031976E-01
        2   -1    0    0  501    0  0.00000000000E+00  0.00000000000E+00  0.17802843856E+04  0.17802843856E+04  0.25500000920E-02 0.  1.
       -2   -1    0    0    0  501  0.00000000000E+00  0.00000000000E+00 -0.23621432291E+03  0.23621432293E+03  0.25500000920E-02 0. -1.
    10030    2    1    2    0    0  0.00000000000E+00  0.00000000000E+00  0.15440700627E+04  0.20164987086E+04  0.12969636398E+04 0.  0.
        5    1    3    3  502    0  0.95235377782E+02  0.68143058757E+02  0.17636819289E+04  0.17675715799E+04  0.46999998093E+01 0.  1.
       -5    1    3    3    0  502 -0.95235377782E+02 -0.68143058757E+02 -0.21961186617E+03  0.24892712870E+03  0.46999998093E+01 0. -1.
</event>
<event>
 5   0  0.3274879E-04  0.1300632E+04  0.7818609E-02  0.9029064E-01
        1   -1    0    0  501    0  0.00000000000E+00  0.00000000000E+00  0.14355685410E+04  0.14355685410E+04  0.50400001928E-02 0. -1.
       -1   -1    0    0    0  501  0.00000000000E+00  0.00000000000E+00 -0.29459488087E+03  0.29459488091E+03  0.50400001928E-02 0.  1.
    10030    2    1    2    0    0  0.00000000000E+00  0.00000000000E+00  0.11409736601E+04  0.17301634219E+04  0.13006323744E+04 0.  0.
        4    1    3    3  502    0 -0.64840417808E+03 -0.49151193224E+02  0.58127025137E+03  0.87219294653E+03  0.12699999809E+01 0.  1.
       -4    1    3    3    0  502  0.64840417808E+03  0.49151193224E+02  0.55970340876E+03  0.85797047538E+03  0.12699999809E+01 0. -1.
</event>
<event>
 5   0  0.2255875E-04  0.1293351E+04  0.7818609E-02  0.9034855E-01
        3   -1    0    0  501    0  0.00000000000E+00  0.00000000000E+00  0.11394384097E+04  0.11394384141E+04  0.10100000352E+00 0.  1.
       -3   -1    0    0    0  501  0.00000000000E+00  0.00000000000E+00 -0.36701322205E+03  0.36701323595E+03  0.10100000352E+00 0. -1.
    10030    2    1    2    0    0  0.00000000000E+00  0.00000000000E+00  0.77242518761E+03  0.15064516501E+04  0.12933506499E+04 0.  0.
        4    1    3    3  502    0 -0.18500406580E+03  0.34338055543E+03  0.98700035400E+03  0.10612766001E+04  0.12699999809E+01 0.  1.
       -4    1    3    3    0  502  0.18500406580E+03 -0.34338055543E+03 -0.21457516639E+03  0.44517505000E+03  0.12699999809E+01 0. -1.
</event>
<event>
 5   0  0.3263679E-04  0.1298339E+04  0.7818609E-02  0.9030884E-01
       -1   -1    0    0    0  501  0.00000000000E+00  0.00000000000E+00  0.40379545025E+03  0.40379545029E+03  0.50400001928E-02 0.  1.
        1   -1    0    0  501    0  0.00000000000E+00  0.00000000000E+00 -0.10436490364E+04  0.10436490364E+04  0.50400001928E-02 0. -1.
    10030    2    1    2    0    0  0.00000000000E+00  0.00000000000E+00 -0.63985358617E+03  0.14474444867E+04  0.12983385269E+04 0.  0.
        2    1    3    3  502    0 -0.11258751323E+03 -0.36665167202E+03  0.26396967653E+03  0.46560647211E+03  0.25500000920E-02 0.  1.
       -2    1    3    3    0  502  0.11258751323E+03  0.36665167202E+03 -0.90382326270E+03  0.98183801461E+03  0.25500000920E-02 0. -1.
</event>
<event>
 5   0  0.3337520E-04  0.1306626E+04  0.7818609E-02  0.9024327E-01
       -1   -1    0    0    0  501  0.00000000000E+00  0.00000000000E+00  0.58119658408E+03  0.58119658411E+03  0.50400001928E-02 0. -1.
        1   -1    0    0  501    0  0.00000000000E+00  0.00000000000E+00 -0.73437741079E+03  0.73437741081E+03  0.50400001928E-02 0.  1.
    10030    2    1    2    0    0  0.00000000000E+00  0.00000000000E+00 -0.15318082670E+03  0.13155739949E+04  0.13066256428E+04 0.  0.
        5    1    3    3  502    0  0.84428757972E+02  0.46293022729E+03 -0.53286380392E+03  0.71091387245E+03  0.46999998093E+01 0.  1.
       -5    1    3    3    0  502 -0.84428757972E+02 -0.46293022729E+03  0.37968297722E+03  0.60466012246E+03  0.46999998093E+01 0. -1.
</event>
<event>
 5   0  0.6052864E-04  0.1297552E+04  0.7818609E-02  0.9031509E-01
       -2   -1    0    0    0  501  0.00000000000E+00  0.00000000000E+00  0.36051623615E+03  0.36051623615E+03  0.25500000920E-02 0.  1.
        2   -1    0    0  501    0  0.00000000000E+00  0.00000000000E+00 -0.11675204763E+04  0.11675204763E+04  0.25500000920E-02 0. -1.
    10030    2    1    2    0    0  0.00000000000E+00  0.00000000000E+00 -0.80700424014E+03  0.15280367124E+04  0.12975516756E+04 0.  0.
        2    1    3    3  502    0 -0.40268274925E+03  0.17722964308E+03 -0.96500645558E+03  0.10605664535E+04  0.25500000920E-02 0. -1.
       -2    1    3    3    0  502  0.40268274925E+03 -0.17722964308E+03  0.15800221544E+03  0.46747025896E+03  0.25500000920E-02 0.  1.
</event>
<event>
 5   0  0.5787604E-04  0.1284173E+04  0.7818609E-02  0.9042211E-01
        2   -1    0    0  501    0  0.00000000000E+00  0.00000000000E+00  0.61404079853E+03  0.61404079854E+03  0.25500000920E-02 0. -1.
       -2   -1    0    0    0  501  0.00000000000E+00  0.00000000000E+00 -0.67141334648E+03  0.67141334648E+03  0.25500000920E-02 0.  1.
    10030    2    1    2    0    0  0.00000000000E+00  0.00000000000E+00 -0.57372547948E+02  0.12854541450E+04  0.12841731775E+04 0.  0.
        4    1    3    3  502    0 -0.25486678752E+02  0.47789958603E+03  0.39980144919E+03  0.62360275560E+03  0.12699999809E+01 0. -1.
       -4    1    3    3    0  502  0.25486678752E+02 -0.47789958603E+03 -0.45717399713E+03  0.66185138942E+03  0.12699999809E+01 0.  1.
</event>
<event>
 5   0  0.5384960E-04  0.1301612E+04  0.7818609E-02  0.9028288E-01
        2   -1    0    0  501    0  0.00000000000E+00  0.00000000000E+00  0.65763133337E+03  0.65763133338E+03  0.25500000920E-02 0.  1.
       -2   -1    0    0    0  501  0.00000000000E+00  0.00000000000E+00 -0.64405110394E+03  0.64405110395E+03  0.25500000920E-02 0. -1.
    10030    2    1    2    0    0  0.00000000000E+00  0.00000000000E+00  0.13580229429E+02  0.13016824373E+04  0.13016115953E+04 0.  0.
        3    1    3    3  502    0  0.19776875928E+03  0.38800300418E+03 -0.47685730114E+03  0.64579540819E+03  0.10100000352E+00 0. -1.
       -3    1    3    3    0  502 -0.19776875928E+03 -0.38800300418E+03  0.49043753057E+03  0.65588702913E+03  0.10100000352E+00 0.  1.
</event>
<event>
 5   0  0.3274879E-04  0.1309208E+04  0.7818609E-02  0.9022295E-01
        1   -1    0    0  501    0  0.00000000000E+00  0.00000000000E+00  0.12160918043E+04  0.12160918043E+04  0.50400001928E-02 0.  1.
       -1   -1    0    0    0  501  0.00000000000E+00  0.00000000000E+00 -0.35236335551E+03  0.35236335555E+03  0.50400001928E-02 0. -1.
    10030    2    1    2    0    0  0.00000000000E+00  0.00000000000E+00  0.86372844880E+03  0.15684551599E+04  0.13092076822E+04 0.  0.
        4    1    3    3  502    0  0.14776232999E+03 -0.14004172087E+03 -0.31347203905E+03  0.37378031237E+03  0.12699999809E+01 0. -1.
       -4    1    3    3    0  502 -0.14776232999E+03  0.14004172087E+03  0.11772004878E+04  0.11946748475E+04  0.12699999809E+01 0.  1.
</event>
<event>
 5   0  0.3335747E-04  0.1302644E+04  0.7818609E-02  0.9027471E-01
       -1   -1    0    0    0  501  0.00000000000E+00  0.00000000000E+00  0.12602858657E+04  0.12602858657E+04  0.50400001928E-02 0. -1.
        1   -1    0    0  501    0  0.00000000000E+00  0.00000000000E+00 -0.33660645717E+03  0.33660645721E+03  0.50400001928E-02 0.  1.
    10030    2    1    2    0    0  0.00000000000E+00  0.00000000000E+00  0.92367940849E+03  0.15968923229E+04  0.13026440194E+04 0.  0.
        3    1    3    3  502    0 -0.56873612599E+03 -0.23463471490E+03  0.19975778574E+03  0.64685192557E+03  0.10100000352E+00 0. -1.
       -3    1    3    3    0  502  0.56873612599E+03  0.23463471490E+03  0.72392162275E+03  0.95004039732E+03  0.10100000352E+00 0.  1.
</event>
<event>
 5   0  0.3337520E-04  0.1296491E+04  0.7818609E-02  0.9032352E-01
        1   -1    0    0  501    0  0.00000000000E+00  0.00000000000E+00  0.54809056320E+03  0.54809056323E+03  0.50400001928E-02 0.  1.
       -1   -1    0    0    0  501  0.00000000000E+00  0.00000000000E+00 -0.76670275028E+03  0.76670275030E+03  0.50400001928E-02 0. -1.
    10030    2    1    2    0    0  0.00000000000E+00  0.00000000000E+00 -0.21861218708E+03  0.13147933135E+04  0.12964914843E+04 0.  0.
        5    1    3    3  502    0  0.46604510067E+03 -0.46399512523E+02 -0.56379490619E+03  0.73296503113E+03  0.46999998093E+01 0. -1.
       -5    1    3    3    0  502 -0.46604510067E+03  0.46399512523E+02  0.34518271911E+03  0.58182828239E+03  0.46999998093E+01 0.  1.
</event>
<event>
 5   0  0.3337520E-04  0.1314212E+04  0.7818609E-02  0.9018370E-01
       -1   -1    0    0    0  501  0.00000000000E+00  0.00000000000E+00  0.94047694255E+03  0.94047694256E+03  0.50400001928E-02 0.  1.
        1   -1    0    0  501    0  0.00000000000E+00  0.00000000000E+00 -0.45911657081E+03  0.45911657084E+03  0.50400001928E-02 0. -1.
    10030    2    1    2    0    0  0.00000000000E+00  0.00000000000E+00  0.48136037173E+03  0.13995935134E+04  0.13142123859E+04 0.  0.
        5    1    3    3  502    0 -0.50698472371E+03  0.21626038806E+03  0.62164155254E+03  0.83082030270E+03  0.46999998093E+01 0.  1.
       -5    1    3    3    0  502  0.50698472371E+03 -0.21626038806E+03 -0.14028118081E+03  0.56877321070E+03  0.46999998093E+01 0. -1.
</event>
<event>
 5   0  0.6052864E-04  0.1302506E+04  0.7818609E-02  0.9027580E-01
        2   -1    0    0  501    0  0.00000000000E+00  0.00000000000E+00  0.34177038923E+03  0.34177038924E+03  0.25500000920E-02 0. -1.
       -2   -1    0    0    0  501  0.00000000000E+00  0.00000000000E+00 -0.12409812545E+04  0.12409812545E+04  0.25500000920E-02 0.  1.
    10030    2    1    2    0    0  0.00000000000E+00  0.00000000000E+00 -0.89921086527E+03  0.15827516437E+04  0.13025062708E+04 0.  0.
        2    1    3    3  502    0 -0.52608024219E+02  0.22891832696E+03 -0.11877174303E+04  0.12107204049E+04  0.25500000920E-02 0.  1.
       -2    1    3    3    0  502  0.52608024219E+02 -0.22891832696E+03  0.28850656500E+03  0.37203123886E+03  0.25500000920E-02 0. -1.
</event>
<event>
 5   0  0.6052864E-04  0.1298001E+04  0.7818609E-02  0.9031152E-01
       -2   -1    0    0    0  501  0.00000000000E+00  0.00000000000E+00  0.33537430067E+03  0.33537430068E+03  0.25500000920E-02 0. -1.
        2   -1    0    0  501    0  0.00000000000E+00  0.00000000000E+00 -0.12559159623E+04  0.12559159623E+04  0.25500000920E-02 0.  1.
    10030    2    1    2    0    0  0.00000000000E+00  0.00000000000E+00 -0.92054166166E+03  0.15912902630E+04  0.12980014447E+04 0.  0.
        2    1    3    3  502    0 -0.47504863477E+03  0.24522679436E+03 -0.91137290453E+03  0.10566020808E+04  0.25500000920E-02 0.  1.
       -2    1    3    3    0  502  0.47504863477E+03 -0.24522679436E+03 -0.91687571245E+01  0.53468818220E+03  0.25500000920E-02 0. -1.
</event>
<event>
 5   0  0.3335747E-04  0.1307774E+04  0.7818609E-02  0.9023423E-01
       -1   -1    0    0    0  501  0.00000000000E+00  0.00000000000E+00  0.26848657999E+03  0.26848658004E+03  0.50400001928E-02 0. -1.
        1   -1    0    0  501    0  0.00000000000E+00  0.00000000000E+00 -0.15925126838E+04  0.15925126838E+04  0.50400001928E-02 0.  1.
    10030    2    1    2    0    0  0.00000000000E+00  0.00000000000E+00 -0.13240261038E+04  0.18609992638E+04  0.13077741152E+04 0.  0.
        3    1    3    3  502    0  0.33038365168E+03 -0.96753442968E+02 -0.14531113120E+04  0.14933342162E+04  0.10100000352E+00 0.  1.
       -3    1    3    3    0  502 -0.33038365168E+03  0.96753442968E+02  0.12908520826E+03  0.36766504758E+03  0.10100000352E+00 0. -1.
</event>
<event>
 5   0  0.3403833E-04  0.1287361E+04  0.7818609E-02  0.9039649E-01
       -1   -1    0    0    0  501  0.00000000000E+00  0.00000000000E+00  0.12270866054E+04  0.12270866054E+04  0.50400001928E-02 0. -1.
        1   -1    0    0  501    0  0.00000000000E+00  0.00000000000E+00 -0.33764886124E+03  0.33764886127E+03  0.50400001928E-02 0.  1.
    10030    2    1    2    0    0  0.00000000000E+00  0.00000000000E+00  0.88943774417E+03  0.15647354667E+04  0.12873607031E+04 0.  0.
        1    1    3    3  502    0 -0.57621522100E+03  0.26582558676E+03  0.57583749980E+03  0.85689908956E+03  0.50400001928E-02 0. -1.
       -1    1    3    3    0  502  0.57621522100E+03 -0.26582558676E+03  0.31360024437E+03  0.70783637713E+03  0.50400001928E-02 0.  1.
</event>
<event>
 5   0  0.5957913E-04  0.1300963E+04  0.7818609E-02  0.9028802E-01
       -2   -1    0    0    0  501  0.00000000000E+00  0.00000000000E+00  0.30676570991E+03  0.30676570992E+03  0.25500000920E-02 0.  1.
        2   -1    0    0  501    0  0.00000000000E+00  0.00000000000E+00 -0.13793135983E+04  0.13793135983E+04  0.25500000920E-02 0. -1.
    10030    2    1    2    0    0  0.00000000000E+00  0.00000000000E+00 -0.10725478884E+04  0.16860793083E+04  0.13009628975E+04 0.  0.
        1    1    3    3  502    0 -0.39749305936E+03  0.36765169545E+03 -0.10034859045E+04  0.11402422822E+04  0.50400001928E-02 0. -1.
       -1    1    3    3    0  502  0.39749305936E+03 -0.36765169545E+03 -0.69061983888E+02  0.54583702609E+03  0.50400001928E-02 0.  1.
</event>
<event>
 5   0  0.6007125E-04  0.1297529E+04  0.7818609E-02  0.9031527E-01
        2   -1    0    0  501    0  0.00000000000E+00  0.00000000000E+00  0.41065589228E+03  0.41065589229E+03  0.25500000920E-02 0.  1.
       -2   -1    0    0    0  501  0.00000000000E+00  0.00000000000E+00 -0.10249344892E+04  0.10249344892E+04  0.25500000920E-02 0. -1.
    10030    2    1    2    0    0  0.00000000000E+00  0.00000000000E+00 -0.61427859688E+03  0.14355903815E+04  0.12975290165E+04 0.  0.
        5    1    3    3  502    0 -0.36737352656E+03 -0.24133088947E+03  0.22077786765E+03  0.49190330663E+03  0.46999998093E+01 0.  1.
       -5    1    3    3    0  502  0.36737352656E+03  0.24133088947E+03 -0.83505646453E+03  0.94368707482E+03  0.46999998093E+01 0. -1.
</event>
<event>
 5   0  0.3263679E-04  0.1300074E+04  0.7818609E-02  0.9029507E-01
       -1   -1    0    0    0  501  0.00000000000E+00  0.00000000000E+00  0.32550636060E+03  0.32550636064E+03  0.50400001928E-02 0. -1.
        1   -1    0    0  501    0  0.00000000000E+00  0.00000000000E+00 -0.12981252542E+04  0.12981252542E+04  0.50400001928E-02 0.  1.
    10030    2    1    2    0    0  0.00000000000E+00  0.00000000000E+00 -0.97261889357E+03  0.16236316148E+04  0.13000738858E+04 0.  0.
        2    1    3    3  502    0  0.49754885638E+03 -0.34727175515E+03 -0.77758290617E+03  0.98630001134E+03  0.25500000920E-02 0.  1.
       -2    1    3    3    0  502 -0.49754885638E+03  0.34727175515E+03 -0.19503598741E+03  0.63733160348E+03  0.25500000920E-02 0. -1.
</event>
<event>
 5   0  0.3263679E-04  0.1312620E+04  0.7818609E-02  0.9019617E-01
        1   -1    0    0  501    0  0.00000000000E+00  0.00000000000E+00  0.42636843290E+03  0.42636843293E+03  0.50400001928E-02 0. -1.
       -1   -1    0    0    0  501  0.00000000000E+00  0.00000000000E+00 -0.10102588661E+04  0.10102588661E+04  0.50400001928E-02 0.  1.
    10030    2    1    2    0    0  0.00000000000E+00  0.00000000000E+00 -0.58389043320E+03  0.14366272990E+04  0.13126195025E+04 0.  0.
        2    1    3    3  502    0  0.54345331439E+01 -0.64200255808E+03 -0.44099334814E+03  0.77889148913E+03  0.25500000920E-02 0.  1.
       -2    1    3    3    0  502 -0.54345331439E+01  0.64200255808E+03 -0.14289708505E+03  0.65773580992E+03  0.25500000920E-02 0. -1.
</event>
<event>
 5   0  0.3335747E-04  0.1306530E+04  0.7818609E-02  0.9024403E-01
       -1   -1    0    0    0  501  0.00000000000E+00  0.00000000000E+00  0.12175098679E+04  0.12175098679E+04  0.50400001928E-02 0. -1.
        1   -1    0    0  501    0  0.00000000000E+00  0.00000000000E+00 -0.35051465899E+03  0.35051465902E+03  0.50400001928E-02 0.  1.
    10030    2    1    2    0    0  0.00000000000E+00  0.00000000000E+00  0.86699520889E+03  0.15680245269E+04  0.13065298407E+04 0.  0.
        3    1    3    3  502    0  0.17579680599E+03 -0.13498054855E+01 -0.32159137824E+03  0.36650697637E+03  0.10100000352E+00 0.  1.
       -3    1    3    3    0  502 -0.17579680599E+03  0.13498054855E+01  0.11885865871E+04  0.12015175505E+04  0.10100000352E+00 0. -1.
</event>
<event>
 5   0  0.5384960E-04  0.1291949E+04  0.7818609E-02  0.9035974E-01
       -2   -1    0    0    0  501  0.00000000000E+00  0.00000000000E+00  0.41015716833E+03  0.41015716833E+03  0.25500000920E-02 0.  1.
        2   -1    0    0  501    0  0.00000000000E+00  0.00000000000E+00 -0.10173735056E+04  0.10173735056E+04  0.25500000920E-02 0. -1.
    10030    2    1    2    0    0  0.00000000000E+00  0.00000000000E+00 -0.60721633730E+03  0.14275306740E+04  0.12919489714E+04 0.  0.
        3    1    3    3  502    0  0.11939309459E+03  0.12381788327E+03  0.38438885402E+03  0.42111801262E+03  0.10100000352E+00 0.  1.
       -3    1    3    3    0  502 -0.11939309459E+03 -0.12381788327E+03 -0.99160519132E+03  0.10064126613E+04  0.10100000352E+00 0. -1.
</event>
<event>
 5   0  0.3337520E-04  0.1302858E+04  0.7818609E-02  0.9027302E-01
       -1   -1    0    0    0  501  0.00000000000E+00  0.00000000000E+00  0.25367991203E+03  0.25367991208E+03  0.50400001928E-02 0.  1.
        1   -1    0    0  501    0  0.00000000000E+00  0.00000000000E+00 -0.16728162819E+04  0.16728162819E+04  0.50400001928E-02 0. -1.
    10030    2    1    2    0    0  0.00000000000E+00  0.00000000000E+00 -0.14191363698E+04  0.19264961940E+04  0.13028582230E+04 0.  0.
        5    1    3    3  502    0 -0.30680589721E+03 -0.28515677311E+03 -0.14472648516E+04  0.15066658171E+04  0.46999998093E+01 0. -1.
       -5    1    3    3    0  502  0.30680589721E+03  0.28515677311E+03  0.28128481779E+02  0.41983037682E+03  0.46999998093E+01 0.  1.
</event>
<event>
 5   0  0.3263679E-04  0.1293957E+04  0.7818609E-02  0.9034371E-01
        1   -1    0    0  501    0  0.00000000000E+00  0.00000000000E+00  0.10630292568E+04  0.10630292568E+04  0.50400001928E-02 0.  1.
       -1   -1    0    0    0  501  0.00000000000E+00  0.00000000000E+00 -0.39376251977E+03  0.39376251980E+03  0.50400001928E-02 0. -1.
    10030    2    1    2    0    0  0.00000000000E+00  0.00000000000E+00  0.66926673702E+03  0.14567917766E+04  0.12939568444E+04 0.  0.
        2    1    3    3  502    0  0.61712859318E+03 -0.19285979086E+03  0.36075872348E+03  0.74039817398E+03  0.25500000920E-02 0. -1.
       -2    1    3    3    0  502 -0.61712859318E+03  0.19285979086E+03  0.30850801354E+03  0.71639360262E+03  0.25500000920E-02 0.  1.
</event>
<event>
 5   0  0.5384960E-04  0.1300511E+04  0.7818609E-02  0.9029160E-01
        2   -1    0    0  501    0  0.00000000000E+00  0.00000000000E+00  0.15202766559E+04  0.15202766559E+04  0.25500000920E-02 0. -1.
       -2   -1    0    0    0  501  0.00000000000E+00  0.00000000000E+00 -0.27812826522E+03  0.27812826523E+03  0.25500000920E-02 0.  1.
    10030    2    1    2    0    0  0.00000000000E+00  0.00000000000E+00  0.12421483907E+04  0.17984049211E+04  0.13005105289E+04 0.  0.
        3    1    3    3  502    0 -0.14870382934E+03 -0.63842167343E+02  0.14919849275E+04  0.15007357146E+04  0.10100000352E+00 0. -1.
       -3    1    3    3    0  502  0.14870382934E+03  0.63842167343E+02 -0.24983653678E+03  0.29766920650E+03  0.10100000352E+00 0.  1.
</event>
<event>
 5   0  0.6007125E-04  0.1306780E+04  0.7818609E-02  0.9024205E-01
       -2   -1    0    0    0  501  0.00000000000E+00  0.00000000000E+00  0.22882636452E+03  0.22882636454E+03  0.25500000920E-02 0. -1.
        2   -1    0    0  501    0  0.00000000000E+00  0.00000000000E+00 -0.18656889209E+04  0.18656889209E+04  0.25500000920E-02 0.  1.
    10030    2    1    2    0    0  0.00000000000E+00  0.00000000000E+00 -0.16368625563E+04  0.20945152854E+04  0.13067804913E+04 0.  0.
        5    1    3    3  502    0  0.42023024753E+03  0.23178774600E+03 -0.15290686121E+04  0.16026203326E+04  0.46999998093E+01 0.  1.
       -5    1    3    3    0  502 -0.42023024753E+03 -0.23178774600E+03 -0.10779394426E+03  0.49189495276E+03  0.46999998093E+01 0. -1.
</event>
<event>
 5   0  0.6007125E-04  0.1298929E+04  0.7818609E-02  0.9030415E-01
       -2   -1    0    0    0  501  0.00000000000E+00  0.00000000000E+00  0.19149137963E+03  0.19149137965E+03  0.25500000920E-02 0.  1.
        2   -1    0    0  501    0  0.00000000000E+00  0.00000000000E+00 -0.22027319699E+04  0.22027319699E+04  0.25500000920E-02 0. -1.
    10030    2    1    2    0    0  0.00000000000E+00  0.00000000000E+00 -0.20112405902E+04  0.23942233495E+04  0.12989290726E+04 0.  0.
        5    1    3    3  502    0  0.52051575299E+03 -0.16764417807E+02 -0.29039910622E+03  0.59629810138E+03  0.46999998093E+01 0.  1.
       -5    1    3    3    0  502 -0.52051575299E+03  0.16764417807E+02 -0.17208414840E+04  0.17979252482E+04  0.46999998093E+01 0. -1.
</event>
<event>
 5   0  0.6007125E-04  0.1302717E+04  0.7818609E-02  0.9027414E-01
       -2   -1    0    0    0  501  0.00000000000E+00  0.00000000000E+00  0.85912259134E+03  0.85912259134E+03  0.25500000920E-02 0. -1.
        2   -1    0    0  501    0  0.00000000000E+00  0.00000000000E+00 -0.49383826561E+03  0.49383826562E+03  0.25500000920E-02 0.  1.
    10030    2    1    2    0    0  0.00000000000E+00  0.00000000000E+00  0.36528432573E+03  0.13529608570E+04  0.13027165624E+04 0.  0.
        5    1    3    3  502    0  0.51901553833E+03  0.16146315433E+02  0.59100935142E+03  0.78673501002E+03  0.46999998093E+01 0. -1.
       -5    1    3    3    0  502 -0.51901553833E+03 -0.16146315433E+02 -0.22572502569E+03  0.56622584695E+03  0.46999998093E+01 0.  1.
</event>
<event>
 5   0  0.6052864E-04  0.1307860E+04  0.7818609E-02  0.9023355E-01
        2   -1    0    0  501    0  0.00000000000E+00  0.00000000000E+00  0.49405164850E+03  0.49405164851E+03  0.25500000920E-02 0.  1.
       -2   -1    0    0    0  501  0.00000000000E+00  0.00000000000E+00 -0.86554657782E+03  0.86554657782E+03  0.25500000920E-02 0. -1.
    10030    2    1    2    0    0  0.00000000000E+00  0.00000000000E+00 -0.37149492932E+03  0.13595982263E+04  0.13078604110E+04 0.  0.
        2    1    3    3  502    0 -0.39366049301E+03 -0.12620908040E+03  0.34097920078E+03  0.53587697385E+03  0.25500000920E-02 0.  1.
       -2    1    3    3    0  502  0.39366049301E+03  0.12620908040E+03 -0.71247413010E+03  0.82372125248E+03  0.25500000920E-02 0. -1.
</event>
<event>
 5   0  0.5787604E-04  0.1300578E+04  0.7818609E-02  0.9029107E-01
        2   -1    0    0  501    0  0.00000000000E+00  0.00000000000E+00  0.52874841274E+03  0.52874841275E+03  0.25500000920E-02 0.  1.
       -2   -1    0    0    0  501  0.00000000000E+00  0.00000000000E+00 -0.79976745411E+03  0.79976745412E+03  0.25500000920E-02 0. -1.
    10030    2    1    2    0    0  0.00000000000E+00  0.00000000000E+00 -0.27101904137E+03  0.13285158669E+04  0.13005779822E+04 0.  0.
        4    1    3    3  502    0 -0.44632991004E+03  0.47004493792E+03 -0.82220633237E+02  0.65338692801E+03  0.12699999809E+01 0.  1.
       -4    1    3    3    0  502  0.44632991004E+03 -0.47004493792E+03 -0.18879840814E+03  0.67512893885E+03  0.12699999809E+01 0. -1.
</event>
<event>
 5   0  0.5384960E-04  0.1298664E+04  0.7818609E-02  0.9030625E-01
       -2   -1    0    0    0  501  0.00000000000E+00  0.00000000000E+00  0.86899633636E+03  0.86899633636E+03  0.25500000920E-02 0.  1.
        2   -1    0    0  501    0  0.00000000000E+00  0.00000000000E+00 -0.48519434457E+03  0.48519434458E+03  0.25500000920E-02 0. -1.
    10030    2    1    2    0    0  0.00000000000E+00  0.00000000000E+00  0.38380199179E+03  0.13541906809E+04  0.12986640949E+04 0.  0.
        3    1    3    3  502    0  0.21766068271E+03  0.23403078415E+02 -0.44555368290E+03  0.49642922097E+03  0.10100000352E+00 0. -1.
       -3    1    3    3    0  502 -0.21766068271E+03 -0.23403078415E+02  0.82935567469E+03  0.85776145998E+03  0.10100000352E+00 0.  1.
</event>
<event>
 5   0  0.6007125E-04  0.1284678E+04  0.7818609E-02  0.9041805E-01
        2   -1    0    0  501    0  0.00000000000E+00  0.00000000000E+00  0.35407188048E+03  0.35407188049E+03  0.25500000920E-02 0. -1.
       -2   -1    0    0    0  501  0.00000000000E+00  0.00000000000E+00 -0.11652981272E+04  0.11652981272E+04  0.25500000920E-02 0.  1.
    10030    2    1    2    0    0  0.00000000000E+00  0.00000000000E+00 -0.81122624669E+03  0.15193700077E+04  0.12846778572E+04 0.  0.
        5    1    3    3  502    0 -0.36414481136E+03 -0.16822418031E+03 -0.99893525600E+03  0.10764732018E+04  0.46999998093E+01 0.  1.
       -5    1    3    3    0  502  0.36414481136E+03  0.16822418031E+03  0.18770900931E+03  0.44289680588E+03  0.46999998093E+01 0. -1.
</event>
<event>
 5   0  0.5957913E-04  0.1298948E+04  0.7818609E-02  0.9030400E-01
       -2   -1    0    0    0  501  0.00000000000E+00  0.00000000000E+00  0.84987897136E+03  0.84987897137E+03  0.25500000920E-02 0. -1.
        2   -1    0    0  501    0  0.00000000000E+00  0.00000000000E+00 -0.49632544805E+03  0.49632544806E+03  0.25500000920E-02 0.  1.
    10030    2    1    2    0    0  0.00000000000E+00  0.00000000000E+00  0.35355352331E+03  0.13462044194E+04  0.12989481302E+04 0.  0.
        1    1    3    3  502    0  0.25309529570E+03 -0.45628014571E+03  0.57758643944E+03  0.77836681271E+03  0.50400001928E-02 0. -1.
       -1    1    3    3    0  502 -0.25309529570E+03  0.45628014571E+03 -0.22403291613E+03  0.56783760672E+03  0.50400001928E-02 0.  1.
</event>
<event>
 5   0  0.3337520E-04  0.1298780E+04  0.7818609E-02  0.9030533E-01
        1   -1    0    0  501    0  0.00000000000E+00  0.00000000000E+00  0.73359866093E+03  0.73359866094E+03  0.50400001928E-02 0.  1.
       -1   -1    0    0    0  501  0.00000000000E+00  0.00000000000E+00 -0.57484751908E+03  0.57484751910E+03  0.50400001928E-02 0. -1.
    10030    2    1    2    0    0  0.00000000000E+00  0.00000000000E+00  0.15875114185E+03  0.13084461800E+04  0.12987799972E+04 0.  0.
        5    1    3    3  502    0 -0.22389338843E+03 -0.32899577175E+03 -0.43758951903E+03  0.59150075602E+03  0.46999998093E+01 0. -1.
       -5    1    3    3    0  502  0.22389338843E+03  0.32899577175E+03  0.59634066088E+03  0.71694542402E+03  0.46999998093E+01 0.  1.
</event>
<event>
 5   0  0.5957913E-04  0.1294703E+04  0.7818609E-02  0.9033776E-01
       -2   -1    0    0    0  501  0.00000000000E+00  0.00000000000E+00  0.36278395563E+03  0.36278395564E+03  0.25500000920E-02 0. -1.
        2   -1    0    0  501    0  0.00000000000E+00  0.00000000000E+00 -0.11551339480E+04  0.11551339480E+04  0.25500000920E-02 0.  1.
    10030    2    1    2    0    0  0.00000000000E+00  0.00000000000E+00 -0.79234999241E+03  0.15179179037E+04  0.12947031520E+04 0.  0.
        1    1    3    3  502    0  0.47823416509E+03 -0.27516261116E+03  0.78738859630E+00  0.55174541162E+03  0.50400001928E-02 0. -1.
       -1    1    3    3    0  502 -0.47823416509E+03  0.27516261116E+03 -0.79313738101E+03  0.96617249206E+03  0.50400001928E-02 0.  1.
</event>
<event>
 5   0  0.3263679E-04  0.1289644E+04  0.7818609E-02  0.9037818E-01
        1   -1    0    0  501    0  0.00000000000E+00  0.00000000000E+00  0.40403894776E+03  0.40403894779E+03  0.50400001928E-02 0. -1.
       -1   -1    0    0    0  501  0.00000000000E+00  0.00000000000E+00 -0.10290980722E+04  0.10290980722E+04  0.50400001928E-02 0.  1.
    10030    2    1    2    0    0  0.00000000000E+00  0.00000000000E+00 -0.62505912443E+03  0.14331370200E+04  0.12896444506E+04 0.  0.
        2    1    3    3  502    0 -0.46122487953E+03  0.14566843261E+03 -0.78641352318E+03  0.92325181354E+03  0.25500000920E-02 0.  1.
       -2    1    3    3    0  502  0.46122487953E+03 -0.14566843261E+03  0.16135439875E+03  0.50988520646E+03  0.25500000920E-02 0. -1.
</event>
<event>
 5   0  0.5384960E-04  0.1307505E+04  0.7818609E-02  0.9023635E-01
       -2   -1    0    0    0  501  0.00000000000E+00  0.00000000000E+00  0.67413108305E+03  0.67413108306E+03  0.25500000920E-02 0.  1.
        2   -1    0    0  501    0  0.00000000000E+00  0.00000000000E+00 -0.63398952618E+03  0.63398952618E+03  0.25500000920E-02 0. -1.
    10030    2    1    2    0    0  0.00000000000E+00  0.00000000000E+00  0.40141556877E+02  0.13081206092E+04  0.13075045636E+04 0.  0.
        3    1    3    3  502    0  0.45335926551E+03 -0.14747673439E+02 -0.45093752699E+03  0.63960673929E+03  0.10100000352E+00 0. -1.
       -3    1    3    3    0  502 -0.45335926551E+03  0.14747673439E+02  0.49107908387E+03  0.66851386995E+03  0.10100000352E+00 0.  1.
</event>
<event>
 5   0  0.3274879E-04  0.1330486E+04  0.7818609E-02  0.9005733E-01
        1   -1    0    0  501    0  0.00000000000E+00  0.00000000000E+00  0.89110404380E+03  0.89110404381E+03  0.50400001928E-02 0. -1.
       -1   -1    0    0    0  501  0.00000000000E+00  0.00000000000E+00 -0.49662904627E+03  0.49662904629E+03  0.50400001928E-02 0.  1.
    10030    2    1    2    0    0  0.00000000000E+00  0.00000000000E+00  0.39447499753E+03  0.13877330901E+04  0.13304858533E+04 0.  0.
        4    1    3    3  502    0  0.64791221855E+03 -0.13832183108E+03  0.26002190950E+03  0.71171355068E+03  0.12699999809E+01 0. -1.
       -4    1    3    3    0  502 -0.64791221855E+03  0.13832183108E+03  0.13445308804E+03  0.67601953943E+03  0.12699999809E+01 0.  1.
</event>
<event>
 5   0  0.3403833E-04  0.1300193E+04  0.7818609E-02  0.9029412E-01
        1   -1    0    0  501    0  0.00000000000E+00  0.00000000000E+00  0.10998658273E+04  0.10998658273E+04  0.50400001928E-02 0. -1.
       -1   -1    0    0    0  501  0.00000000000E+00  0.00000000000E+00 -0.38425210629E+03  0.38425210632E+03  0.50400001928E-02 0.  1.
    10030    2    1    2    0    0  0.00000000000E+00  0.00000000000E+00  0.71561372099E+03  0.14841179336E+04  0.13001934638E+04 0.  0.
        1    1    3    3  502    0 -0.10453161162E+03 -0.40990383662E+03 -0.20565998926E+03  0.47036586218E+03  0.50400001928E-02 0.  1.
       -1    1    3    3    0  502  0.10453161162E+03  0.40990383662E+03  0.92127371025E+03  0.10137520714E+04  0.50400001928E-02 0. -1.
</event>
<event>
 5   0  0.3337520E-04  0.1276315E+04  0.7818609E-02  0.9048561E-01
        1   -1    0    0  501    0  0.00000000000E+00  0.00000000000E+00  0.54009769566E+03  0.54009769568E+03  0.50400001928E-02 0.  1.
       -1   -1    0    0    0  501  0.00000000000E+00  0.00000000000E+00 -0.75402153778E+03  0.75402153780E+03  0.50400001928E-02 0. -1.
    10030    2    1    2    0    0  0.00000000000E+00  0.00000000000E+00 -0.21392384212E+03  0.12941192335E+04  0.12763154705E+04 0.  0.
        5    1    3    3  502    0 -0.52135186732E+03 -0.27160337514E+03 -0.35871360268E+03  0.68867532385E+03  0.46999998093E+01 0.  1.
       -5    1    3    3    0  502  0.52135186732E+03  0.27160337514E+03  0.14478976056E+03  0.60544390962E+03  0.46999998093E+01 0. -1.
</event>
<event>
 5   0  0.5787604E-04  0.1315517E+04  0.7818609E-02  0.9017350E-01
       -2   -1    0    0    0  501  0.00000000000E+00  0.00000000000E+00  0.78848011451E+03  0.78848011451E+03  0.25500000920E-02 0.  1.
        2   -1    0    0  501    0  0.00000000000E+00  0.00000000000E+00 -0.54870912882E+03  0.54870912882E+03  0.25500000920E-02 0. -1.
    10030    2    1    2    0    0  0.00000000000E+00  0.00000000000E+00  0.23977098569E+03  0.13371892433E+04  0.13155169885E+04 0.  0.
        4    1    3    3  502    0 -0.52096781590E+02 -0.62785572915E+03 -0.72246258203E+02  0.63414353738E+03  0.12699999809E+01 0. -1.
       -4    1    3    3    0  502  0.52096781590E+02  0.62785572915E+03  0.31201724389E+03  0.70304570596E+03  0.12699999809E+01 0.  1.
</event>
<event>
 5   0  0.3263679E-04  0.1299984E+04  0.7818609E-02  0.9029578E-01
       -1   -1    0    0    0  501  0.00000000000E+00  0.00000000000E+00  0.70176350936E+03  0.70176350938E+03  0.50400001928E-02 0. -1.
        1   -1    0    0  501    0  0.00000000000E+00  0.00000000000E+00 -0.60203958904E+03  0.60203958906E+03  0.50400001928E-02 0.  1.
    10030    2    1    2    0    0  0.00000000000E+00  0.00000000000E+00  0.99723920317E+02  0.13038030984E+04  0.12999837150E+04 0.  0.
        2    1    3    3  502    0 -0.12583592923E+02 -0.63228351438E+03 -0.10074121669E+03  0.64038237180E+03  0.25500000920E-02 0.  1.
       -2    1    3    3    0  502  0.12583592923E+02  0.63228351438E+03  0.20046513701E+03  0.66342072664E+03  0.25500000920E-02 0. -1.
</event>
<event>
 5   0  0.6052864E-04  0.1301801E+04  0.7818609E-02  0.9028138E-01
       -2   -1    0    0    0  501  0.00000000000E+00  0.00000000000E+00  0.44857987828E+03  0.44857987829E+03  0.25500000920E-02 0.  1.
        2   -1    0    0  501    0  0.00000000000E+00  0.00000000000E+00 -0.94447279982E+03  0.94447279983E+03  0.25500000920E-02 0. -1.
    10030    2    1    2    0    0  0.00000000000E+00  0.00000000000E+00 -0.49589292154E+03  0.13930526781E+04  0.13018010502E+04 0.  0.
        2    1    3    3  502    0 -0.55599372692E+03  0.32703747756E+03 -0.34116750894E+03  0.72971076823E+03  0.25500000920E-02 0.  1.
       -2    1    3    3    0  502  0.55599372692E+03 -0.32703747756E+03 -0.15472541261E+03  0.66334190989E+03  0.25500000920E-02 0. -1.
</event>
<event>
 5   0  0.5957913E-04  0.1302944E+04  0.7818609E-02  0.9027234E-01
        2   -1    0    0  501    0  0.00000000000E+00  0.00000000000E+00  0.65875954140E+03  0.65875954140E+03  0.25500000920E-02 0.  1.
       -2   -1    0    0    0  501  0.00000000000E+00  0.00000000000E+00 -0.64426483240E+03  0.64426483240E+03  0.25500000920E-02 0. -1.
    10030    2    1    2    0    0  0.00000000000E+00  0.00000000000E+00  0.14494709001E+02  0.13030243738E+04  0.13029437525E+04 0.  0.
        1    1    3    3  502    0  0.32802928239E+03  0.56112592709E+03  0.51409902920E+02  0.65200344655E+03  0.50400001928E-02 0. -1.
       -1    1    3    3    0  502 -0.32802928239E+03 -0.56112592709E+03 -0.36915193919E+02  0.65102092726E+03  0.50400001928E-02 0.  1.
</event>
<event>
 5   0  0.6007125E-04  0.1305457E+04  0.7818609E-02  0.9025249E-01
        2   -1    0    0  501    0  0.00000000000E+00  0.00000000000E+00  0.59197387913E+03  0.59197387913E+03  0.25500000920E-02 0.  1.
       -2   -1    0    0    0  501  0.00000000000E+00  0.00000000000E+00 -0.71971842944E+03  0.71971842944E+03  0.25500000920E-02 0. -1.
    10030    2    1    2    0    0  0.00000000000E+00  0.00000000000E+00 -0.12774455031E+03  0.13116923086E+04  0.13054570243E+04 0.  0.
        5    1    3    3  502    0 -0.77652615389E+02  0.10474311346E+03 -0.70648260439E+03  0.71842940418E+03  0.46999998093E+01 0. -1.
       -5    1    3    3    0  502  0.77652615389E+02 -0.10474311346E+03  0.57873805408E+03  0.59326290439E+03  0.46999998093E+01 0.  1.
</event>
<event>
 5   0  0.3263679E-04  0.1287739E+04  0.7818609E-02  0.9039345E-01
        1   -1    0    0  501    0  0.00000000000E+00  0.00000000000E+00  0.11479202862E+04  0.11479202862E+04  0.50400001928E-02 0.  1.
       -1   -1    0    0    0  501  0.00000000000E+00  0.00000000000E+00 -0.36114716841E+03  0.36114716845E+03  0.50400001928E-02 0. -1.
    10030    2    1    2    0    0  0.00000000000E+00  0.00000000000E+00  0.78677311782E+03  0.15090674547E+04  0.12877393540E+04 0.  0.
        2    1    3    3  502    0  0.23104610073E+03 -0.49379606755E+03  0.79483025697E+03  0.96383193265E+03  0.25500000920E-02 0.  1.
       -2    1    3    3    0  502 -0.23104610073E+03  0.49379606755E+03 -0.80571391532E+01  0.54523552204E+03  0.25500000920E-02 0. -1.
</event>
<event>
 5   0  0.3274879E-04  0.1299454E+04  0.7818609E-02  0.9029999E-01
        1   -1    0    0  501    0  0.00000000000E+00  0.00000000000E+00  0.10245325539E+04  0.10245325539E+04  0.50400001928E-02 0. -1.
       -1   -1    0    0    0  501  0.00000000000E+00  0.00000000000E+00 -0.41203662082E+03  0.41203662085E+03  0.50400001928E-02 0.  1.
    10030    2    1    2    0    0  0.00000000000E+00  0.00000000000E+00  0.61249593312E+03  0.14365691748E+04  0.12994536259E+04 0.  0.
        4    1    3    3  502    0  0.76431620171E+02  0.32906249129E+03 -0.30730886394E+03  0.45668836912E+03  0.12699999809E+01 0.  1.
       -4    1    3    3    0  502 -0.76431620171E+02 -0.32906249129E+03  0.91980479705E+03  0.97988080567E+03  0.12699999809E+01 0. -1.
</event>
<event>
 5   0  0.5787604E-04  0.1300992E+04  0.7818609E-02  0.9028779E-01
        2   -1    0    0  501    0  0.00000000000E+00  0.00000000000E+00  0.21747526498E+04  0.21747526498E+04  0.25500000920E-02 0. -1.
       -2   -1    0    0    0  501  0.00000000000E+00  0.00000000000E+00 -0.19457147960E+03  0.19457147961E+03  0.25500000920E-02 0.  1.
    10030    2    1    2    0    0  0.00000000000E+00  0.00000000000E+00  0.19801811702E+04  0.23693241294E+04  0.13009916846E+04 0.  0.
        4    1    3    3  502    0  0.43679101436E+03 -0.18333230311E+03  0.17819670274E+03  0.50611540320E+03  0.12699999809E+01 0.  1.
       -4    1    3    3    0  502 -0.43679101436E+03  0.18333230311E+03  0.18019844675E+04  0.18632087262E+04  0.12699999809E+01 0. -1.
</event>
<event>
 5   0  0.5384960E-04  0.1298881E+04  0.7818609E-02  0.9030453E-01
        2   -1    0    0  501    0  0.00000000000E+00  0.00000000000E+00  0.11525879005E+04  0.11525879005E+04  0.25500000920E-02 0. -1.
       -2   -1    0    0    0  501  0.00000000000E+00  0.00000000000E+00 -0.36593548306E+03  0.36593548307E+03  0.25500000920E-02 0.  1.
    10030    2    1    2    0    0  0.00000000000E+00  0.00000000000E+00  0.78665241741E+03  0.15185233835E+04  0.12988807646E+04 0.  0.
        3    1    3    3  502    0 -0.48685919787E+02 -0.51940100736E+03 -0.58898605282E+02  0.52499217245E+03  0.10100000352E+00 0.  1.
       -3    1    3    3    0  502  0.48685919787E+02  0.51940100736E+03  0.84555102269E+03  0.99353121108E+03  0.10100000352E+00 0. -1.
</event>
<event>
 5   0  0.3403833E-04  0.1299946E+04  0.7818609E-02  0.9029608E-01
        1   -1    0    0  501    0  0.00000000000E+00  0.00000000000E+00  0.13891163454E+04  0.13891163454E+04  0.50400001928E-02 0. -1.
       -1   -1    0    0    0  501  0.00000000000E+00  0.00000000000E+00 -0.30412501335E+03  0.30412501339E+03  0.50400001928E-02 0.  1.
    10030    2    1    2    0    0  0.00000000000E+00  0.00000000000E+00  0.10849913320E+04  0.16932413588E+04  0.12999461945E+04 0.  0.
        1    1    3    3  502    0 -0.33506179591E+03 -0.25970377961E+03 -0.99268415045E+02  0.43539255675E+03  0.50400001928E-02 0.  1.
       -1    1    3    3    0  502  0.33506179591E+03  0.25970377961E+03  0.11842597471E+04  0.12578488020E+04  0.50400001928E-02 0. -1.
</event>
<event>
 5   0  0.3403833E-04  0.1290609E+04  0.7818609E-02  0.9037045E-01
       -1   -1    0    0    0  501  0.00000000000E+00  0.00000000000E+00  0.65672258559E+03  0.65672258561E+03  0.50400001928E-02 0.  1.
        1   -1    0    0  501    0  0.00000000000E+00  0.00000000000E+00 -0.63408526754E+03  0.63408526756E+03  0.50400001928E-02 0. -1.
    10030    2    1    2    0    0  0.00000000000E+00  0.00000000000E+00  0.22637318057E+02  0.12908078532E+04  0.12906093389E+04 0.  0.
        1    1    3    3  502    0 -0.24891907912E+03  0.19002675077E+03 -0.55299081522E+03  0.63550744740E+03  0.50400001928E-02 0. -1.
       -1    1    3    3    0  502  0.24891907912E+03 -0.19002675077E+03  0.57562813328E+03  0.65530040577E+03  0.50400001928E-02 0.  1.
</event>
<event>
 5   0  0.3263679E-04  0.1310365E+04  0.7818609E-02  0.9021386E-01
        1   -1    0    0  501    0  0.00000000000E+00  0.00000000000E+00  0.22675964807E+04  0.22675964807E+04  0.50400001928E-02 0.  1.
       -1   -1    0    0    0  501  0.00000000000E+00  0.00000000000E+00 -0.18930357639E+03  0.18930357646E+03  0.50400001928E-02 0. -1.
    10030    2    1    2    0    0  0.00000000000E+00  0.00000000000E+00  0.20782929043E+04  0.24569000572E+04  0.13103650235E+04 0.  0.
        2    1    3    3  502    0 -0.67670504652E+02 -0.20860313275E+03 -0.11844231329E+03  0.24924515196E+03  0.25500000920E-02 0. -1.
       -2    1    3    3    0  502  0.67670504652E+02  0.20860313275E+03  0.21967352176E+04  0.22076549052E+04  0.25500000920E-02 0.  1.
</event>
<event>
 5   0  0.3263679E-04  0.1300685E+04  0.7818609E-02  0.9029022E-01
        1   -1    0    0  501    0  0.00000000000E+00  0.00000000000E+00  0.84546914926E+03  0.84546914928E+03  0.50400001928E-02 0. -1.
       -1   -1    0    0    0  501  0.00000000000E+00  0.00000000000E+00 -0.50024967651E+03  0.50024967653E+03  0.50400001928E-02 0.  1.
    10030    2    1    2    0    0  0.00000000000E+00  0.00000000000E+00  0.34521947275E+03  0.13457188258E+04  0.13006854630E+04 0.  0.
        2    1    3    3  502    0 -0.33326526877E+03 -0.73928972996E+02 -0.40010275117E+03  0.52594053268E+03  0.25500000920E-02 0.  1.
       -2    1    3    3    0  502  0.33326526877E+03  0.73928972996E+02  0.74532222392E+03  0.81977829313E+03  0.25500000920E-02 0. -1.
</event>
<event>
 5   0  0.6007125E-04  0.1294165E+04  0.7818609E-02  0.9034205E-01
        2   -1    0    0  501    0  0.00000000000E+00  0.00000000000E+00  0.95859077934E+03  0.95859077935E+03  0.25500000920E-02 0. -1.
       -2   -1    0    0    0  501  0.00000000000E+00  0.00000000000E+00 -0.43680322494E+03  0.43680322494E+03  0.25500000920E-02 0.  1.
    10030    2    1    2    0    0  0.00000000000E+00  0.00000000000E+00  0.52178755441E+03  0.13953940043E+04  0.12941646631E+04 0.  0.
        5    1    3    3  502    0 -0.35680351114E+02 -0.84169343612E+02  0.95157407287E+03  0.95596698270E+03  0.46999998093E+01 0. -1.
       -5    1    3    3    0  502  0.35680351114E+02  0.84169343612E+02 -0.42978651846E+03  0.43942702159E+03  0.46999998093E+01 0.  1.
</event>
<event>
 5   0  0.3337520E-04  0.1319181E+04  0.7818609E-02  0.9014491E-01
       -1   -1    0    0    0  501  0.00000000000E+00  0.00000000000E+00  0.36485334231E+03  0.36485334235E+03  0.50400001928E-02 0.  1.
        1   -1    0    0  501    0  0.00000000000E+00  0.00000000000E+00 -0.11924232481E+04  0.11924232481E+04  0.50400001928E-02 0. -1.
    10030    2    1    2    0    0  0.00000000000E+00  0.00000000000E+00 -0.82756990576E+03  0.15572765904E+04  0.13191809695E+04 0.  0.
        5    1    3    3  502    0 -0.29798539334E+03 -0.51542298442E+03 -0.74888825013E+03  0.95671931552E+03  0.46999998093E+01 0. -1.
       -5    1    3    3    0  502  0.29798539334E+03  0.51542298442E+03 -0.78681655632E+02  0.60055727491E+03  0.46999998093E+01 0.  1.
</event>
<event>
 5   0  0.3335747E-04  0.1298482E+04  0.7818609E-02  0.9030769E-01
       -1   -1    0    0    0  501  0.00000000000E+00  0.00000000000E+00  0.76968895774E+03  0.76968895776E+03  0.50400001928E-02 0. -1.
        1   -1    0    0  501    0  0.00000000000E+00  0.00000000000E+00 -0.54764222084E+03  0.54764222087E+03  0.50400001928E-02 0.  1.
    10030    2    1    2    0    0  0.00000000000E+00  0.00000000000E+00  0.22204673690E+03  0.13173311786E+04  0.12984824530E+04 0.  0.
        3    1    3    3  502    0  0.48115279634E+03  0.39323929915E+03 -0.79773076029E+02  0.62650531816E+03  0.10100000352E+00 0. -1.
       -3    1    3    3    0  502 -0.48115279634E+03 -0.39323929915E+03  0.30181981293E+03  0.69082586047E+03  0.10100000352E+00 0.  1.
</event>
<event>
 5   0  0.3335747E-04  0.1308815E+04  0.7818609E-02  0.9022604E-01
        1   -1    0    0  501    0  0.00000000000E+00  0.00000000000E+00  0.87590250573E+03  0.87590250574E+03  0.50400001928E-02 0. -1.
       -1   -1    0    0    0  501  0.00000000000E+00  0.00000000000E+00 -0.48892334921E+03  0.48892334924E+03  0.50400001928E-02 0.  1.
    10030    2    1    2    0    0  0.00000000000E+00  0.00000000000E+00  0.38697915652E+03  0.13648258550E+04  0.13088150163E+04 0.  0.
        3    1    3    3  502    0 -0.17794524527E+03 -0.50135630448E+03  0.59088415918E+03  0.79508914854E+03  0.10100000352E+00 0. -1.
       -3    1    3    3    0  502  0.17794524527E+03  0.50135630448E+03 -0.20390500266E+03  0.56973670644E+03  0.10100000352E+00 0.  1.
</event>
<event>
 5   0  0.3274879E-04  0.1298864E+04  0.7818609E-02  0.9030467E-01
        1   -1    0    0  501    0  0.00000000000E+00  0.00000000000E+00  0.11051212765E+04  0.11051212765E+04  0.50400001928E-02 0.  1.
       -1   -1    0    0    0  501  0.00000000000E+00  0.00000000000E+00 -0.38164298268E+03  0.38164298271E+03  0.50400001928E-02 0. -1.
    10030    2    1    2    0    0  0.00000000000E+00  0.00000000000E+00  0.72347829379E+03  0.14867642592E+04  0.12988637807E+04 0.  0.
        4    1    3    3  502    0 -0.17825034242E+03  0.29752294308E+03  0.99022926544E+03  0.10492133707E+04  0.12699999809E+01 0.  1.
       -4    1    3    3    0  502  0.17825034242E+03 -0.29752294308E+03 -0.26675097165E+03  0.43755088848E+03  0.12699999809E+01 0. -1.
</event>
<event>
 5   0  0.6052864E-04  0.1299072E+04  0.7818609E-02  0.9030301E-01
        2   -1    0    0  501    0  0.00000000000E+00  0.00000000000E+00  0.16637154494E+04  0.16637154494E+04  0.25500000920E-02 0. -1.
       -2   -1    0    0    0  501  0.00000000000E+00  0.00000000000E+00 -0.25358725234E+03  0.25358725236E+03  0.25500000920E-02 0.  1.
    10030    2    1    2    0    0  0.00000000000E+00  0.00000000000E+00  0.14101281971E+04  0.19173027018E+04  0.12990720219E+04 0.  0.
        2    1    3    3  502    0 -0.22672417791E+03 -0.29317714673E+03  0.14923443831E+04  0.15376763151E+04  0.25500000920E-02 0. -1.
       -2    1    3    3    0  502  0.22672417791E+03  0.29317714673E+03 -0.82216186025E+02  0.37962638669E+03  0.25500000920E-02 0.  1.
</event>
<event>
 5   0  0.5957913E-04  0.1282165E+04  0.7818609E-02  0.9043829E-01
        2   -1    0    0  501    0  0.00000000000E+00  0.00000000000E+00  0.14604721719E+04  0.14604721719E+04  0.25500000920E-02 0. -1.
       -2   -1    0    0    0  501  0.00000000000E+00  0.00000000000E+00 -0.28140699124E+03  0.28140699125E+03  0.25500000920E-02 0.  1.
    10030    2    1    2    0    0  0.00000000000E+00  0.00000000000E+00  0.11790651807E+04  0.17418791632E+04  0.12821654803E+04 0.  0.
        1    1    3    3  502    0  0.22961292136E+03  0.20238542910E+03 -0.17573352967E+03  0.35293657935E+03  0.50400001928E-02 0.  1.
       -1    1    3    3    0  502 -0.22961292136E+03 -0.20238542910E+03  0.13547987104E+04  0.13889425838E+04  0.50400001928E-02 0. -1.
</event>
<event>
 5   0  0.3337520E-04  0.1299111E+04  0.7818609E-02  0.9030271E-01
       -1   -1    0    0    0  501  0.00000000000E+00  0.00000000000E+00  0.42907837622E+03  0.42907837625E+03  0.50400001928E-02 0.  1.
        1   -1    0    0  501    0  0.00000000000E+00  0.00000000000E+00 -0.98332184645E+03  0.98332184647E+03  0.50400001928E-02 0. -1.
    10030    2    1    2    0    0  0.00000000000E+00  0.00000000000E+00 -0.55424347023E+03  0.14124002227E+04  0.12991106823E+04 0.  0.
        5    1    3    3  502    0  0.63060295617E+02 -0.36956190693E+03  0.29955590560E+03  0.47990460981E+03  0.46999998093E+01 0.  1.
       -5    1    3    3    0  502 -0.63060295617E+02  0.36956190693E+03 -0.85379937582E+03  0.93249561291E+03  0.46999998093E+01 0. -1.
</event>
<event>
 5   0  0.3263679E-04  0.1298566E+04  0.7818609E-02  0.9030703E-01
        1   -1    0    0  501    0  0.00000000000E+00  0.00000000000E+00  0.26032864689E+04  0.26032864689E+04  0.50400001928E-02 0.  1.
       -1   -1    0    0    0  501  0.00000000000E+00  0.00000000000E+00 -0.16193695359E+03  0.16193695367E+03  0.50400001928E-02 0. -1.
    10030    2    1    2    0    0  0.00000000000E+00  0.00000000000E+00  0.24413495153E+04  0.27652234226E+04  0.12985657938E+04 0.  0.
        2    1    3    3  502    0  0.76151747288E+02  0.50977511217E+03  0.20614642461E+04  0.21249246085E+04  0.25500000920E-02 0.  1.
       -2    1    3    3    0  502 -0.76151747288E+02 -0.50977511217E+03  0.37988526919E+03  0.64029881411E+03  0.25500000920E-02 0. -1.
</event>
<event>
 5   0  0.3335747E-04  0.1299954E+04  0.7818609E-02  0.9029602E-01
        1   -1    0    0  501    0  0.00000000000E+00  0.00000000000E+00  0.41587931612E+03  0.41587931615E+03  0.50400001928E-02 0. -1.
       -1   -1    0    0    0  501  0.00000000000E+00  0.00000000000E+00 -0.10158480315E+04  0.10158480315E+04  0.50400001928E-02 0.  1.
    10030    2    1    2    0    0  0.00000000000E+00  0.00000000000E+00 -0.59996871540E+03  0.14317273477E+04  0.12999541294E+04 0.  0.
        3    1    3    3  502    0 -0.69508262957E+02 -0.46875826406E+03  0.18997503733E+03  0.51054503597E+03  0.10100000352E+00 0. -1.
       -3    1    3    3    0  502  0.69508262957E+02  0.46875826406E+03 -0.78994375273E+03  0.92118231172E+03  0.10100000352E+00 0.  1.
</event>
<event>
 5   0  0.6052864E-04  0.1293688E+04  0.7818609E-02  0.9034586E-01
       -2   -1    0    0    0  501  0.00000000000E+00  0.00000000000E+00  0.29632737923E+03  0.29632737924E+03  0.25500000920E-02 0.  1.
        2   -1    0    0  501    0  0.00000000000E+00  0.00000000000E+00 -0.14119750740E+04  0.14119750740E+04  0.25500000920E-02 0. -1.
    10030    2    1    2    0    0  0.00000000000E+00  0.00000000000E+00 -0.11156476948E+04  0.17083024532E+04  0.12936875561E+04 0.  0.
        2    1    3    3  502    0 -0.62561182568E+03  0.12659508965E+02 -0.34142263193E+03  0.71282524731E+03  0.25500000920E-02 0.  1.
       -2    1    3    3    0  502  0.62561182568E+03 -0.12659508965E+02 -0.77422506284E+03  0.99547720594E+03  0.25500000920E-02 0. -1.
</event>
<event>
 5   0  0.5957913E-04  0.1296546E+04  0.7818609E-02  0.9032309E-01
       -2   -1    0    0    0  501  0.00000000000E+00  0.00000000000E+00  0.48815441379E+03  0.48815441379E+03  0.25500000920E-02 0. -1.
        2   -1    0    0  501    0  0.00000000000E+00  0.00000000000E+00 -0.86091195669E+03  0.86091195669E+03  0.25500000920E-02 0.  1.
    10030    2    1    2    0    0  0.00000000000E+00  0.00000000000E+00 -0.37275754290E+03  0.13490663705E+04  0.12965461373E+04 0.  0.
        1    1    3    3  502    0 -0.30464759790E+03 -0.56745209666E+03 -0.26316465618E+03  0.69574972310E+03  0.50400001928E-02 0.  1.
       -1    1    3    3    0  502  0.30464759790E+03  0.56745209666E+03 -0.10959288672E+03  0.65331664739E+03  0.50400001928E-02 0. -1.
</event>
<event>
 5   0  0.3403833E-04  0.1300606E+04  0.7818609E-02  0.9029085E-01
        1   -1    0    0  501    0  0.00000000000E+00  0.00000000000E+00  0.90263212578E+03  0.90263212580E+03  0.50400001928E-02 0. -1.
       -1   -1    0    0    0  501  0.00000000000E+00  0.00000000000E+00 -0.46851213261E+03  0.46851213263E+03  0.50400001928E-02 0.  1.
    10030    2    1    2    0    0  0.00000000000E+00  0.00000000000E+00  0.43411999318E+03  0.13711442584E+04  0.13006061698E+04 0.  0.
        1    1    3    3  502    0 -0.31966598669E+03  0.49113646551E+03  0.51429575104E+03  0.77968037705E+03  0.50400001928E-02 0. -1.
       -1    1    3    3    0  502  0.31966598669E+03 -0.49113646551E+03 -0.80175757860E+02  0.59146388138E+03  0.50400001928E-02 0.  1.
</event>
<event>
 5   0  0.6052864E-04  0.1301327E+04  0.7818609E-02  0.9028514E-01
        2   -1    0    0  501    0  0.00000000000E+00  0.00000000000E+00  0.53370063554E+03  0.53370063555E+03  0.25500000920E-02 0.  1.
       -2   -1    0    0    0  501  0.00000000000E+00  0.00000000000E+00 -0.79325884570E+03  0.79325884571E+03  0.25500000920E-02 0. -1.
    10030    2    1    2    0    0  0.00000000000E+00  0.00000000000E+00 -0.25955821016E+03  0.13269594813E+04  0.13013266310E+04 0.  0.
        2    1    3    3  502    0 -0.10392481894E+03 -0.45880306522E+02 -0.78306815449E+03  0.79126550860E+03  0.25500000920E-02 0. -1.
       -2    1    3    3    0  502  0.10392481894E+03  0.45880306522E+02  0.52350994433E+03  0.53569397266E+03  0.25500000920E-02 0.  1.
</event>
<event>
 5   0  0.3263679E-04  0.1329141E+04  0.7818609E-02  0.9006770E-01
       -1   -1    0    0    0  501  0.00000000000E+00  0.00000000000E+00  0.25618380539E+03  0.25618380544E+03  0.50400001928E-02 0.  1.
        1   -1    0    0  501    0  0.00000000000E+00  0.00000000000E+00 -0.17239722180E+04  0.17239722180E+04  0.50400001928E-02 0. -1.
    10030    2    1    2    0    0  0.00000000000E+00  0.00000000000E+00 -0.14677884126E+04  0.19801560234E+04  0.13291407198E+04 0.  0.
        2    1    3    3  502    0  0.66235562645E+03  0.38949424855E+02 -0.67771999807E+03  0.94843894340E+03  0.25500000920E-02 0.  1.
       -2    1    3    3    0  502 -0.66235562645E+03 -0.38949424855E+02 -0.79006841452E+03  0.10317170800E+04  0.25500000920E-02 0. -1.
</event>
<event>
 5   0  0.2255875E-04  0.1294457E+04  0.7818609E-02  0.9033973E-01
        3   -1    0    0  501    0  0.00000000000E+00  0.00000000000E+00  0.87790648027E+03  0.87790648608E+03  0.10100000352E+00 0. -1.
       -3   -1    0    0    0  501  0.00000000000E+00  0.00000000000E+00 -0.47716307887E+03  0.47716308955E+03  0.10100000352E+00 0.  1.
    10030    2    1    2    0    0  0.00000000000E+00  0.00000000000E+00  0.40074340141E+03  0.13550695756E+04  0.12944567513E+04 0.  0.
        1    1    3    3  502    0  0.24979613063E+03  0.47992216030E+03 -0.17148134900E+03  0.56756430465E+03  0.50400001928E-02 0.  1.
       -1    1    3    3    0  502 -0.24979613063E+03 -0.47992216030E+03  0.57222475041E+03  0.78750527099E+03  0.50400001928E-02 0. -1.
</event>
<event>
 5   0  0.3335747E-04  0.1297865E+04  0.7818609E-02  0.9031260E-01
       -1   -1    0    0    0  501  0.00000000000E+00  0.00000000000E+00  0.36173847879E+03  0.36173847883E+03  0.50400001928E-02 0. -1.
        1   -1    0    0  501    0  0.00000000000E+00  0.00000000000E+00 -0.11641380863E+04  0.11641380863E+04  0.50400001928E-02 0.  1.
    10030    2    1    2    0    0  0.00000000000E+00  0.00000000000E+00 -0.80239960751E+03  0.15258765651E+04  0.12978652326E+04 0.  0.
        3    1    3    3  502    0  0.71157206929E+02 -0.41827992526E+02 -0.11579413642E+04  0.11608794693E+04  0.10100000352E+00 0.  1.
       -3    1    3    3    0  502 -0.71157206929E+02  0.41827992526E+02  0.35554175668E+03  0.36499709588E+03  0.10100000352E+00 0. -1.
</event>
<event>
 5   0  0.6007125E-04  0.1299462E+04  0.7818609E-02  0.9029992E-01
       -2   -1    0    0    0  501  0.00000000000E+00  0.00000000000E+00  0.27344430224E+03  0.27344430225E+03  0.25500000920E-02 0. -1.
        2   -1    0    0  501    0  0.00000000000E+00  0.00000000000E+00 -0.15438252475E+04  0.15438252475E+04  0.25500000920E-02 0.  1.
    10030    2    1    2    0    0  0.00000000000E+00  0.00000000000E+00 -0.12703809452E+04  0.18172695497E+04  0.12994617618E+04 0.  0.
        5    1    3    3  502    0 -0.58411971672E+03 -0.24131785160E+03 -0.84588314741E+03  0.10559216534E+04  0.46999998093E+01 0. -1.
       -5    1    3    3    0  502  0.58411971672E+03  0.24131785160E+03 -0.42449779783E+03  0.76134789638E+03  0.46999998093E+01 0.  1.
</event>
<event>
 5   0  0.6052864E-04  0.1234968E+04  0.7818609E-02  0.9082788E-01
       -2   -1    0    0    0  501  0.00000000000E+00  0.00000000000E+00  0.45614736701E+03  0.45614736702E+03  0.25500000920E-02 0. -1.
        2   -1    0    0  501    0  0.00000000000E+00  0.00000000000E+00 -0.83588436525E+03  0.83588436525E+03  0.25500000920E-02 0.  1.
    10030    2    1    2    0    0  0.00000000000E+00  0.00000000000E+00 -0.37973699823E+03  0.12920317323E+04  0.12349679386E+04 0.  0.
        2    1    3    3  502    0 -0.44791538535E+03  0.42215222667E+03 -0.24160823259E+03  0.66122252909E+03  0.25500000920E-02 0.  1.
       -2    1    3    3    0  502  0.44791538535E+03 -0.42215222667E+03 -0.13812876564E+03  0.63080920318E+03  0.25500000920E-02 0. -1.
</event>
<event>
 5   0  0.3337520E-04  0.1295937E+04  0.7818609E-02  0.9032793E-01
       -1   -1    0    0    0  501  0.00000000000E+00  0.00000000000E+00  0.66397611959E+03  0.66397611961E+03  0.50400001928E-02 0.  1.
        1   -1    0    0  501    0  0.00000000000E+00  0.00000000000E+00 -0.63234709966E+03  0.63234709968E+03  0.50400001928E-02 0. -1.
    10030    2    1    2    0    0  0.00000000000E+00  0.00000000000E+00  0.31629019931E+02  0.12963232193E+04  0.12959373033E+04 0.  0.
        5    1    3    3  502    0  0.49958844348E+03  0.31279019480E+03  0.28499493250E+03  0.65472934894E+03  0.46999998093E+01 0.  1.
       -5    1    3    3    0  502 -0.49958844348E+03 -0.31279019480E+03 -0.25336591257E+03  0.64159387035E+03  0.46999998093E+01 0. -1.
</event>
<event>
 5   0  0.3337520E-04  0.1301632E+04  0.7818609E-02  0.9028272E-01
        1   -1    0    0  501    0  0.00000000000E+00  0.00000000000E+00  0.81609872180E+03  0.81609872182E+03  0.50400001928E-02 0.  1.
       -1   -1    0    0    0  501  0.00000000000E+00  0.00000000000E+00 -0.51900796270E+03  0.51900796273E+03  0.50400001928E-02 0. -1.
    10030    2    1    2    0    0  0.00000000000E+00  0.00000000000E+00  0.29709075910E+03  0.13351066845E+04  0.13016324135E+04 0.  0.
        5    1    3    3  502    0  0.27502659389E+03 -0.58789136170E+03  0.99527640811E+02  0.65664581152E+03  0.46999998093E+01 0. -1.
       -5    1    3    3    0  502 -0.27502659389E+03  0.58789136170E+03  0.19756311829E+03  0.67846087302E+03  0.46999998093E+01 0.  1.
</event>
<event>
 5   0  0.3263679E-04  0.1302335E+04  0.7818609E-02  0.9027715E-01
        1   -1    0    0  501    0  0.00000000000E+00  0.00000000000E+00  0.17247233313E+04  0.17247233313E+04  0.50400001928E-02 0.  1.
       -1   -1    0    0    0  501  0.00000000000E+00  0.00000000000E+00 -0.24584777187E+03  0.24584777192E+03  0.50400001928E-02 0. -1.
    10030    2    1    2    0    0  0.00000000000E+00  0.00000000000E+00  0.14788755594E+04  0.19705711032E+04  0.13023354224E+04 0.  0.
        2    1    3    3  502    0 -0.60627314481E+03  0.14196861806E+03  0.45116365615E+03  0.76894138871E+03  0.25500000920E-02 0.  1.
       -2    1    3    3    0  502  0.60627314481E+03 -0.14196861806E+03  0.10277119033E+04  0.12016297145E+04  0.25500000920E-02 0. -1.
</event>
<event>
 5   0  0.3403833E-04  0.1299897E+04  0.7818609E-02  0.9029647E-01
       -1   -1    0    0    0  501  0.00000000000E+00  0.00000000000E+00  0.18129410180E+03  0.18129410187E+03  0.50400001928E-02 0. -1.
        1   -1    0    0  501    0  0.00000000000E+00  0.00000000000E+00 -0.23300994838E+04  0.23300994838E+04  0.50400001928E-02 0.  1.
    10030    2    1    2    0    0  0.00000000000E+00  0.00000000000E+00 -0.21488053820E+04  0.25113935856E+04  0.12998973700E+04 0.  0.
        1    1    3    3  502    0  0.16934985069E+03 -0.48479913804E+03 -0.30469357854E+03  0.59711619724E+03  0.50400001928E-02 0. -1.
       -1    1    3    3    0  502 -0.16934985069E+03  0.48479913804E+03 -0.18441118034E+04  0.19142773884E+04  0.50400001928E-02 0.  1.
</event>
<event>
 5   0  0.6052864E-04  0.1272092E+04  0.7818609E-02  0.9051994E-01
        2   -1    0    0  501    0  0.00000000000E+00  0.00000000000E+00  0.87684707429E+03  0.87684707429E+03  0.25500000920E-02 0. -1.
       -2   -1    0    0    0  501  0.00000000000E+00  0.00000000000E+00 -0.46137385990E+03  0.46137385991E+03  0.25500000920E-02 0.  1.
    10030    2    1    2    0    0  0.00000000000E+00  0.00000000000E+00  0.41547321438E+03  0.13382209342E+04  0.12720916936E+04 0.  0.
        2    1    3    3  502    0 -0.14278747597E+03 -0.56351400789E+03 -0.63785539795E+02  0.58481184622E+03  0.25500000920E-02 0. -1.
       -2    1    3    3    0  502  0.14278747597E+03  0.56351400789E+03  0.47925875418E+03  0.75340908798E+03  0.25500000920E-02 0.  1.
</event>
<event>
 5   0  0.3403833E-04  0.1303050E+04  0.7818609E-02  0.9027150E-01
        1   -1    0    0  501    0  0.00000000000E+00  0.00000000000E+00  0.11308657905E+04  0.11308657905E+04  0.50400001928E-02 0.  1.
       -1   -1    0    0    0  501  0.00000000000E+00  0.00000000000E+00 -0.37536283317E+03  0.37536283320E+03  0.50400001928E-02 0. -1.
    10030    2    1    2    0    0  0.00000000000E+00  0.00000000000E+00  0.75550295730E+03  0.15062286237E+04  0.13030502478E+04 0.  0.
        1    1    3    3  502    0  0.48839534135E+02  0.42391534537E+03 -0.19135296963E+03  0.46765957613E+03  0.50400001928E-02 0. -1.
       -1    1    3    3    0  502 -0.48839534135E+02 -0.42391534537E+03  0.94685592693E+03  0.10385690475E+04  0.50400001928E-02 0.  1.
</event>
<event>
 5   0  0.6007125E-04  0.1301251E+04  0.7818609E-02  0.9028574E-01
        2   -1    0    0  501    0  0.00000000000E+00  0.00000000000E+00  0.72749303642E+03  0.72749303643E+03  0.25500000920E-02 0.  1.
       -2   -1    0    0    0  501  0.00000000000E+00  0.00000000000E+00 -0.58187947620E+03  0.58187947621E+03  0.25500000920E-02 0. -1.
    10030    2    1    2    0    0  0.00000000000E+00  0.00000000000E+00  0.14561356022E+03  0.13093725126E+04  0.13012505785E+04 0.  0.
        5    1    3    3  502    0  0.16793283006E+03  0.24167422432E+03  0.65667263597E+03  0.71961719472E+03  0.46999998093E+01 0.  1.
       -5    1    3    3    0  502 -0.16793283006E+03 -0.24167422432E+03 -0.51105907575E+03  0.58975531792E+03  0.46999998093E+01 0. -1.
</event>
<event>
 5   0  0.3335747E-04  0.1290648E+04  0.7818609E-02  0.9037015E-01
        1   -1    0    0  501    0  0.00000000000E+00  0.00000000000E+00  0.41805413044E+03  0.41805413047E+03  0.50400001928E-02 0. -1.
       -1   -1    0    0    0  501  0.00000000000E+00  0.00000000000E+00 -0.99614557022E+03  0.99614557024E+03  0.50400001928E-02 0.  1.
    10030    2    1    2    0    0  0.00000000000E+00  0.00000000000E+00 -0.57809143978E+03  0.14141997007E+04  0.12906475432E+04 0.  0.
        3    1    3    3  502    0  0.41170496725E+03 -0.45264160963E+03 -0.51375657409E+03  0.79895634076E+03  0.10100000352E+00 0.  1.
       -3    1    3    3    0  502 -0.41170496725E+03  0.45264160963E+03 -0.64334865687E+02  0.61524335995E+03  0.10100000352E+00 0. -1.
</event>
<event>
 5   0  0.3337520E-04  0.1299467E+04  0.7818609E-02  0.9029988E-01
       -1   -1    0    0    0  501  0.00000000000E+00  0.00000000000E+00  0.49281336144E+03  0.49281336146E+03  0.50400001928E-02 0. -1.
        1   -1    0    0  501    0  0.00000000000E+00  0.00000000000E+00 -0.85662016217E+03  0.85662016218E+03  0.50400001928E-02 0.  1.
    10030    2    1    2    0    0  0.00000000000E+00  0.00000000000E+00 -0.36380680073E+03  0.13494335236E+04  0.12994673703E+04 0.  0.
        5    1    3    3  502    0  0.13124770957E+03  0.43581689822E+03  0.29957241839E+03  0.54491105137E+03  0.46999998093E+01 0. -1.
       -5    1    3    3    0  502 -0.13124770957E+03 -0.43581689822E+03 -0.66337921912E+03  0.80452247228E+03  0.46999998093E+01 0.  1.
</event>
<event>
 5   0  0.3337520E-04  0.1298838E+04  0.7818609E-02  0.9030487E-01
        1   -1    0    0  501    0  0.00000000000E+00  0.00000000000E+00  0.80207120175E+03  0.80207120176E+03  0.50400001928E-02 0. -1.
       -1   -1    0    0    0  501  0.00000000000E+00  0.00000000000E+00 -0.52582003701E+03  0.52582003704E+03  0.50400001928E-02 0.  1.
    10030    2    1    2    0    0  0.00000000000E+00  0.00000000000E+00  0.27625116474E+03  0.13278912388E+04  0.12988381100E+04 0.  0.
        5    1    3    3  502    0  0.36104489731E+03 -0.12109086566E+03  0.67592118169E+03  0.77582726781E+03  0.46999998093E+01 0. -1.
       -5    1    3    3    0  502 -0.36104489731E+03  0.12109086566E+03 -0.39967001695E+03  0.55206397099E+03  0.46999998093E+01 0.  1.
</event>
<event>
 5   0  0.6052864E-04  0.1301650E+04  0.7818609E-02  0.9028258E-01
       -2   -1    0    0    0  501  0.00000000000E+00  0.00000000000E+00  0.33884222596E+03  0.33884222597E+03  0.25500000920E-02 0.  1.
        2   -1    0    0  501    0  0.00000000000E+00  0.00000000000E+00 -0.12500594027E+04  0.12500594027E+04  0.25500000920E-02 0. -1.
    10030    2    1    2    0    0  0.00000000000E+00  0.00000000000E+00 -0.91121717671E+03  0.15889016286E+04  0.13016495851E+04 0.  0.
        2    1    3    3  502    0  0.18561553483E+03  0.47912304679E+03 -0.94321134333E+03  0.10740854989E+04  0.25500000920E-02 0. -1.
       -2    1    3    3    0  502 -0.18561553483E+03 -0.47912304679E+03  0.31994166626E+02  0.51481612974E+03  0.25500000920E-02 0.  1.
</event>
<event>
 5   0  0.3337520E-04  0.1304342E+04  0.7818609E-02  0.9026129E-01
       -1   -1    0    0    0  501  0.00000000000E+00  0.00000000000E+00  0.57263547596E+03  0.57263547598E+03  0.50400001928E-02 0. -1.
        1   -1    0    0  501    0  0.00000000000E+00  0.00000000000E+00 -0.74275320211E+03  0.74275320213E+03  0.50400001928E-02 0.  1.
    10030    2    1    2    0    0  0.00000000000E+00  0.00000000000E+00 -0.17011772615E+03  0.13153886781E+04  0.13043417243E+04 0.  0.
        5    1    3    3  502    0  0.24389762953E+03 -0.27858875753E+03 -0.62645477267E+03  0.72771245813E+03  0.46999998093E+01 0.  1.
       -5    1    3    3    0  502 -0.24389762953E+03  0.27858875753E+03  0.45633704652E+03  0.58767621998E+03  0.46999998093E+01 0. -1.
</event>
<event>
 5   0  0.3403833E-04  0.1307775E+04  0.7818609E-02  0.9023422E-01
       -1   -1    0    0    0  501  0.00000000000E+00  0.00000000000E+00  0.44863638958E+03  0.44863638960E+03  0.50400001928E-02 0. -1.
        1   -1    0    0  501    0  0.00000000000E+00  0.00000000000E+00 -0.95304144844E+03  0.95304144846E+03  0.50400001928E-02 0.  1.
    10030    2    1    2    0    0  0.00000000000E+00  0.00000000000E+00 -0.50440505887E+03  0.14016778381E+04  0.13077753241E+04 0.  0.
        1    1    3    3  502    0 -0.18600983172E+03 -0.24199302056E+03 -0.87200587151E+03  0.92388014345E+03  0.50400001928E-02 0.  1.
       -1    1    3    3    0  502  0.18600983172E+03  0.24199302056E+03  0.36760081264E+03  0.47779769461E+03  0.50400001928E-02 0. -1.
</event>
<event>
 5   0  0.6052864E-04  0.1300583E+04  0.7818609E-02  0.9029103E-01
        2   -1    0    0  501    0  0.00000000000E+00  0.00000000000E+00  0.20971298582E+04  0.20971298582E+04  0.25500000920E-02 0. -1.
       -2   -1    0    0    0  501  0.00000000000E+00  0.00000000000E+00 -0.20164669277E+03  0.20164669278E+03  0.25500000920E-02 0.  1.
    10030    2    1    2    0    0  0.00000000000E+00  0.00000000000E+00  0.18954831654E+04  0.22987765509E+04  0.13005834079E+04 0.  0.
        2    1    3    3  502    0  0.57193633336E+03 -0.80811265503E+01  0.40095112017E+03  0.69852578678E+03  0.25500000920E-02 0.  1.
       -2    1    3    3    0  502 -0.57193633336E+03  0.80811265503E+01  0.14945320452E+04  0.16002507642E+04  0.25500000920E-02 0. -1.
</event>
<event>
 5   0  0.2255875E-04  0.1294338E+04  0.7818609E-02  0.9034067E-01
       -4   -1    0    0    0  501  0.00000000000E+00  0.00000000000E+00  0.76157508871E+03  0.76157614763E+03  0.12699999809E+01 0.  1.
        4   -1    0    0  501    0  0.00000000000E+00  0.00000000000E+00 -0.54994716985E+03  0.54994863626E+03  0.12699999809E+01 0. -1.
    10030    2    1    2    0    0  0.00000000000E+00  0.00000000000E+00  0.21162791886E+03  0.13115247839E+04  0.12943380095E+04 0.  0.
        3    1    3    3  502    0  0.21935684990E+03 -0.55917948712E+03 -0.13827592620E+03  0.61637599594E+03  0.10100000352E+00 0.  1.
       -3    1    3    3    0  502 -0.21935684990E+03  0.55917948712E+03  0.34990384505E+03  0.69514878795E+03  0.10100000352E+00 0. -1.
</event>
<event>
 5   0  0.3263679E-04  0.1304369E+04  0.7818609E-02  0.9026108E-01
        1   -1    0    0  501    0  0.00000000000E+00  0.00000000000E+00  0.98911566393E+03  0.98911566394E+03  0.50400001928E-02 0. -1.
       -1   -1    0    0    0  501  0.00000000000E+00  0.00000000000E+00 -0.43002522230E+03  0.43002522233E+03  0.50400001928E-02 0.  1.
    10030    2    1    2    0    0  0.00000000000E+00  0.00000000000E+00  0.55909044163E+03  0.14191408863E+04  0.13043690939E+04 0.  0.
        2    1    3    3  502    0 -0.30796232873E+03 -0.55609367395E+03  0.43819686059E+03  0.77207348015E+03  0.25500000920E-02 0. -1.
       -2    1    3    3    0  502  0.30796232873E+03  0.55609367395E+03  0.12089358104E+03  0.64706740612E+03  0.25500000920E-02 0.  1.
</event>
<event>
 5   0  0.3274879E-04  0.1297277E+04  0.7818609E-02  0.9031727E-01
       -1   -1    0    0    0  501  0.00000000000E+00  0.00000000000E+00  0.24104283775E+03  0.24104283780E+03  0.50400001928E-02 0. -1.
        1   -1    0    0  501    0  0.00000000000E+00  0.00000000000E+00 -0.17454649013E+04  0.17454649013E+04  0.50400001928E-02 0.  1.
    10030    2    1    2    0    0  0.00000000000E+00  0.00000000000E+00 -0.15044220635E+04  0.19865077391E+04  0.12972768603E+04 0.  0.
        4    1    3    3  502    0 -0.41460175342E+03  0.19580833088E+03 -0.14547625161E+04  0.15253101676E+04  0.12699999809E+01 0.  1.
       -4    1    3    3    0  502  0.41460175342E+03 -0.19580833088E+03 -0.49659547468E+02  0.46119757148E+03  0.12699999809E+01 0. -1.
</event>
<event>
 5   0  0.3274879E-04  0.1296530E+04  0.7818609E-02  0.9032321E-01
        1   -1    0    0  501    0  0.00000000000E+00  0.00000000000E+00  0.69307942654E+03  0.69307942656E+03  0.50400001928E-02 0.  1.
       -1   -1    0    0    0  501  0.00000000000E+00  0.00000000000E+00 -0.60634847775E+03  0.60634847777E+03  0.50400001928E-02 0. -1.
    10030    2    1    2    0    0  0.00000000000E+00  0.00000000000E+00  0.86730948792E+02  0.12994279043E+04  0.12965302237E+04 0.  0.
        4    1    3    3  502    0 -0.24211390738E+03  0.30972175656E+03 -0.47324686430E+03  0.61523240983E+03  0.12699999809E+01 0. -1.
       -4    1    3    3    0  502  0.24211390738E+03 -0.30972175656E+03  0.55997781309E+03  0.68419549450E+03  0.12699999809E+01 0.  1.
</event>
<event>
 5   0  0.3337520E-04  0.1309735E+04  0.7818609E-02  0.9021881E-01
        1   -1    0    0  501    0  0.00000000000E+00  0.00000000000E+00  0.11627737955E+04  0.11627737955E+04  0.50400001928E-02 0.  1.
       -1   -1    0    0    0  501  0.00000000000E+00  0.00000000000E+00 -0.36881752584E+03  0.36881752588E+03  0.50400001928E-02 0. -1.
    10030    2    1    2    0    0  0.00000000000E+00  0.00000000000E+00  0.79395626963E+03  0.15315913214E+04  0.13097348654E+04 0.  0.
        5    1    3    3  502    0  0.20520689804E+03  0.10163524681E+02  0.11240870569E+04  0.11427191123E+04  0.46999998093E+01 0.  1.
       -5    1    3    3    0  502 -0.20520689804E+03 -0.10163524681E+02 -0.33013078727E+03  0.38887220901E+03  0.46999998093E+01 0. -1.
</event>
<event>
 5   0  0.3335747E-04  0.1298823E+04  0.7818609E-02  0.9030499E-01
        1   -1    0    0  501    0  0.00000000000E+00  0.00000000000E+00  0.14945806148E+04  0.14945806148E+04  0.50400001928E-02 0.  1.
       -1   -1    0    0    0  501  0.00000000000E+00  0.00000000000E+00 -0.28217650375E+03  0.28217650380E+03  0.50400001928E-02 0. -1.
    10030    2    1    2    0    0  0.00000000000E+00  0.00000000000E+00  0.12124041110E+04  0.17767571186E+04  0.12988233637E+04 0.  0.
        3    1    3    3  502    0 -0.92870380290E+02  0.48675457890E+03  0.32010226974E+02  0.49656781254E+03  0.10100000352E+00 0. -1.
       -3    1    3    3    0  502  0.92870380290E+02 -0.48675457890E+03  0.11803938840E+04  0.12801893060E+04  0.10100000352E+00 0.  1.
</event>
<event>
 5   0  0.6007125E-04  0.1303503E+04  0.7818609E-02  0.9026792E-01
       -2   -1    0    0    0  501  0.00000000000E+00  0.00000000000E+00  0.31845778530E+03  0.31845778531E+03  0.25500000920E-02 0. -1.
        2   -1    0    0  501    0  0.00000000000E+00  0.00000000000E+00 -0.13338660444E+04  0.13338660444E+04  0.25500000920E-02 0.  1.
    10030    2    1    2    0    0  0.00000000000E+00  0.00000000000E+00 -0.10154082591E+04  0.16523238297E+04  0.13035030133E+04 0.  0.
        5    1    3    3  502    0 -0.59442716628E+03  0.15107495450E+03 -0.78712537866E+03  0.99787561831E+03  0.46999998093E+01 0.  1.
       -5    1    3    3    0  502  0.59442716628E+03 -0.15107495450E+03 -0.22828288042E+03  0.65444821138E+03  0.46999998093E+01 0. -1.
</event>
<event>
 5   0  0.3337520E-04  0.1300031E+04  0.7818609E-02  0.9029540E-01
        1   -1    0    0  501    0  0.00000000000E+00  0.00000000000E+00  0.13045905806E+04  0.13045905807E+04  0.50400001928E-02 0.  1.
       -1   -1    0    0    0  501  0.00000000000E+00  0.00000000000E+00 -0.32387207600E+03  0.32387207604E+03  0.50400001928E-02 0. -1.
    10030    2    1    2    0    0  0.00000000000E+00  0.00000000000E+00  0.98071850464E+03  0.16284626567E+04  0.13000314761E+04 0.  0.
        5    1    3    3  502    0  0.40761168825E+02  0.32732651740E+03 -0.21122077025E+03  0.39171472485E+03  0.46999998093E+01 0. -1.
       -5    1    3    3    0  502 -0.40761168825E+02 -0.32732651740E+03  0.11919392749E+04  0.12367479318E+04  0.46999998093E+01 0.  1.
</event>
<event>
 5   0  0.5957913E-04  0.1281737E+04  0.7818609E-02  0.9044175E-01
       -2   -1    0    0    0  501  0.00000000000E+00  0.00000000000E+00  0.40941908067E+03  0.40941908067E+03  0.25500000920E-02 0.  1.
        2   -1    0    0  501    0  0.00000000000E+00  0.00000000000E+00 -0.10031588427E+04  0.10031588427E+04  0.25500000920E-02 0. -1.
    10030    2    1    2    0    0  0.00000000000E+00  0.00000000000E+00 -0.59373976203E+03  0.14125779234E+04  0.12817369015E+04 0.  0.
        1    1    3    3  502    0 -0.58279158452E+02  0.59029546485E+03 -0.29476825510E+02  0.59389736437E+03  0.50400001928E-02 0.  1.
       -1    1    3    3    0  502  0.58279158452E+02 -0.59029546485E+03 -0.56426293652E+03  0.81868055901E+03  0.50400001928E-02 0. -1.
</event>
<event>
 5   0  0.3335747E-04  0.1307289E+04  0.7818609E-02  0.9023805E-01
        1   -1    0    0  501    0  0.00000000000E+00  0.00000000000E+00  0.12455839163E+04  0.12455839163E+04  0.50400001928E-02 0.  1.
       -1   -1    0    0    0  501  0.00000000000E+00  0.00000000000E+00 -0.34301261212E+03  0.34301261216E+03  0.50400001928E-02 0. -1.
    10030    2    1    2    0    0  0.00000000000E+00  0.00000000000E+00  0.90257130416E+03  0.15885965284E+04  0.13072887864E+04 0.  0.
        3    1    3    3  502    0 -0.17913996417E+03 -0.57776910512E+03  0.75225590770E+03  0.96529644486E+03  0.10100000352E+00 0.  1.
       -3    1    3    3    0  502  0.17913996417E+03  0.57776910512E+03  0.15031539646E+03  0.62330008359E+03  0.10100000352E+00 0. -1.
</event>
<event>
 5   0  0.3263679E-04  0.1292833E+04  0.7818609E-02  0.9035268E-01
       -1   -1    0    0    0  501  0.00000000000E+00  0.00000000000E+00  0.10936939996E+04  0.10936939996E+04  0.50400001928E-02 0.  1.
        1   -1    0    0  501    0  0.00000000000E+00  0.00000000000E+00 -0.38205771951E+03  0.38205771955E+03  0.50400001928E-02 0. -1.
    10030    2    1    2    0    0  0.00000000000E+00  0.00000000000E+00  0.71163628010E+03  0.14757517192E+04  0.12928329132E+04 0.  0.
        2    1    3    3  502    0 -0.94911466003E+02 -0.80826664684E+02  0.10798421769E+04  0.10870143804E+04  0.25500000920E-02 0.  1.
       -2    1    3    3    0  502  0.94911466003E+02  0.80826664684E+02 -0.36820589682E+03  0.38873733878E+03  0.25500000920E-02 0. -1.
</event>
<event>
 5   0  0.2255875E-04  0.1300684E+04  0.7818609E-02  0.9029023E-01
        3   -1    0    0  501    0  0.00000000000E+00  0.00000000000E+00  0.10339708549E+04  0.10339708599E+04  0.10100000352E+00 0.  1.
       -3   -1    0    0    0  501  0.00000000000E+00  0.00000000000E+00 -0.40904867063E+03  0.40904868310E+03  0.10100000352E+00 0. -1.
    10030    2    1    2    0    0  0.00000000000E+00  0.00000000000E+00  0.62492218429E+03  0.14430195430E+04  0.13006835376E+04 0.  0.
        1    1    3    3  502    0  0.61662515141E+02  0.64583104974E+03  0.36262416157E+03  0.74323367332E+03  0.50400001928E-02 0.  1.
       -1    1    3    3    0  502 -0.61662515141E+02 -0.64583104974E+03  0.26229802272E+03  0.69978586963E+03  0.50400001928E-02 0. -1.
</event>
<event>
 5   0  0.5957913E-04  0.1307113E+04  0.7818609E-02  0.9023943E-01
        2   -1    0    0  501    0  0.00000000000E+00  0.00000000000E+00  0.60643510205E+03  0.60643510205E+03  0.25500000920E-02 0. -1.
       -2   -1    0    0    0  501  0.00000000000E+00  0.00000000000E+00 -0.70433985768E+03  0.70433985769E+03  0.25500000920E-02 0.  1.
    10030    2    1    2    0    0  0.00000000000E+00  0.00000000000E+00 -0.97904755639E+02  0.13107749597E+04  0.13071134816E+04 0.  0.
        1    1    3    3  502    0 -0.50584312210E+03 -0.35772519229E+03 -0.25760211641E+03  0.67097200223E+03  0.50400001928E-02 0.  1.
       -1    1    3    3    0  502  0.50584312210E+03  0.35772519229E+03  0.15969736077E+03  0.63980295751E+03  0.50400001928E-02 0. -1.
</event>
<event>
 5   0  0.5384960E-04  0.1266833E+04  0.7818609E-02  0.9056289E-01
        2   -1    0    0  501    0  0.00000000000E+00  0.00000000000E+00  0.20754637320E+04  0.20754637320E+04  0.25500000920E-02 0.  1.
       -2   -1    0    0    0  501  0.00000000000E+00  0.00000000000E+00 -0.19331402163E+03  0.19331402165E+03  0.25500000920E-02 0. -1.
    10030    2    1    2    0    0  0.00000000000E+00  0.00000000000E+00  0.18821497104E+04  0.22687777537E+04  0.12668326501E+04 0.  0.
        3    1    3    3  502    0  0.62769380907E+02  0.60939821232E+03  0.12293497806E+04  0.13735381573E+04  0.10100000352E+00 0. -1.
       -3    1    3    3    0  502 -0.62769380907E+02 -0.60939821232E+03  0.65279992981E+03  0.89523959638E+03  0.10100000352E+00 0.  1.
</event>
<event>
 5   0  0.5957913E-04  0.1301858E+04  0.7818609E-02  0.9028093E-01
        2   -1    0    0  501    0  0.00000000000E+00  0.00000000000E+00  0.18568759842E+04  0.18568759843E+04  0.25500000920E-02 0.  1.
       -2   -1    0    0    0  501  0.00000000000E+00  0.00000000000E+00 -0.22818353311E+03  0.22818353312E+03  0.25500000920E-02 0. -1.
    10030    2    1    2    0    0  0.00000000000E+00  0.00000000000E+00  0.16286924511E+04  0.20850595174E+04  0.13018579379E+04 0.  0.
        1    1    3    3  502    0  0.19551581650E+03 -0.16822657073E+03  0.17715393885E+04  0.17902174221E+04  0.50400001928E-02 0.  1.
       -1    1    3    3    0  502 -0.19551581650E+03  0.16822657073E+03 -0.14284693731E+03  0.29484209525E+03  0.50400001928E-02 0. -1.
</event>
<event>
 5   0  0.5384960E-04  0.1277025E+04  0.7818609E-02  0.9047986E-01
        2   -1    0    0  501    0  0.00000000000E+00  0.00000000000E+00  0.10767567337E+04  0.10767567337E+04  0.25500000920E-02 0. -1.
       -2   -1    0    0    0  501  0.00000000000E+00  0.00000000000E+00 -0.37863536057E+03  0.37863536058E+03  0.25500000920E-02 0.  1.
    10030    2    1    2    0    0  0.00000000000E+00  0.00000000000E+00  0.69812137313E+03  0.14553920943E+04  0.12770249397E+04 0.  0.
        3    1    3    3  502    0 -0.50616119517E+03  0.23870034865E+03  0.69944538794E+03  0.89576831427E+03  0.10100000352E+00 0. -1.
       -3    1    3    3    0  502  0.50616119517E+03 -0.23870034865E+03 -0.13240148138E+01  0.55962378001E+03  0.10100000352E+00 0.  1.
</event>
<event>
 5   0  0.6052864E-04  0.1288518E+04  0.7818609E-02  0.9038720E-01
        2   -1    0    0  501    0  0.00000000000E+00  0.00000000000E+00  0.33185682269E+03  0.33185682270E+03  0.25500000920E-02 0.  1.
       -2   -1    0    0    0  501  0.00000000000E+00  0.00000000000E+00 -0.12507500558E+04  0.12507500558E+04  0.25500000920E-02 0. -1.
    10030    2    1    2    0    0  0.00000000000E+00  0.00000000000E+00 -0.91889323314E+03  0.15826068785E+04  0.12885184353E+04 0.  0.
        2    1    3    3  502    0 -0.23212270509E+03  0.29622555491E+03 -0.11017097097E+04  0.11642142475E+04  0.25500000920E-02 0. -1.
       -2    1    3    3    0  502  0.23212270509E+03 -0.29622555491E+03  0.18281647657E+03  0.41839263104E+03  0.25500000920E-02 0.  1.
</event>
<event>
 5   0  0.5957913E-04  0.1274481E+04  0.7818609E-02  0.9050051E-01
        2   -1    0    0  501    0  0.00000000000E+00  0.00000000000E+00  0.20495555554E+04  0.20495555554E+04  0.25500000920E-02 0. -1.
       -2   -1    0    0    0  501  0.00000000000E+00  0.00000000000E+00 -0.19812843166E+03  0.19812843168E+03  0.25500000920E-02 0.  1.
    10030    2    1    2    0    0  0.00000000000E+00  0.00000000000E+00  0.18514271237E+04  0.22476839871E+04  0.12744806437E+04 0.  0.
        1    1    3    3  502    0 -0.48400712958E+03  0.28877849382E+03  0.14501291143E+04  0.15558053761E+04  0.50400001928E-02 0.  1.
       -1    1    3    3    0  502  0.48400712958E+03 -0.28877849382E+03  0.40129800941E+03  0.69187861100E+03  0.50400001928E-02 0. -1.
</event>
<event>
 5   0  0.3337520E-04  0.1295966E+04  0.7818609E-02  0.9032770E-01
       -1   -1    0    0    0  501  0.00000000000E+00  0.00000000000E+00  0.27637431700E+03  0.27637431705E+03  0.50400001928E-02 0. -1.
        1   -1    0    0  501    0  0.00000000000E+00  0.00000000000E+00 -0.15192513668E+04  0.15192513668E+04  0.50400001928E-02 0.  1.
    10030    2    1    2    0    0  0.00000000000E+00  0.00000000000E+00 -0.12428770498E+04  0.17956256838E+04  0.12959661398E+04 0.  0.
        5    1    3    3  502    0  0.54365528486E+02  0.62822950236E+02  0.26894046626E+03  0.28151980064E+03  0.46999998093E+01 0. -1.
       -5    1    3    3    0  502 -0.54365528486E+02 -0.62822950236E+02 -0.15118175160E+04  0.15141058832E+04  0.46999998093E+01 0.  1.
</event>
<event>
 5   0  0.3337520E-04  0.1289775E+04  0.7818609E-02  0.9037713E-01
       -1   -1    0    0    0  501  0.00000000000E+00  0.00000000000E+00  0.82475436556E+03  0.82475436557E+03  0.50400001928E-02 0.  1.
        1   -1    0    0  501    0  0.00000000000E+00  0.00000000000E+00 -0.50424688423E+03  0.50424688425E+03  0.50400001928E-02 0. -1.
    10030    2    1    2    0    0  0.00000000000E+00  0.00000000000E+00  0.32050748133E+03  0.13290012498E+04  0.12897748937E+04 0.  0.
        5    1    3    3  502    0 -0.54306185015E+03 -0.18848340839E+03  0.46140173062E+03  0.73712672950E+03  0.46999998093E+01 0.  1.
       -5    1    3    3    0  502  0.54306185015E+03  0.18848340839E+03 -0.14089424929E+03  0.59187452032E+03  0.46999998093E+01 0. -1.
</event>
<event>
 5   0  0.6052864E-04  0.1295314E+04  0.7818609E-02  0.9033289E-01
        2   -1    0    0  501    0  0.00000000000E+00  0.00000000000E+00  0.15002708430E+04  0.15002708430E+04  0.25500000920E-02 0.  1.
       -2   -1    0    0    0  501  0.00000000000E+00  0.00000000000E+00 -0.27958935586E+03  0.27958935588E+03  0.25500000920E-02 0. -1.
    10030    2    1    2    0    0  0.00000000000E+00  0.00000000000E+00  0.12206814872E+04  0.17798601989E+04  0.12953142609E+04 0.  0.
        2    1    3    3  502    0 -0.39962637158E+03 -0.32353735445E+03  0.11514582493E+04  0.12610447083E+04  0.25500000920E-02 0.  1.
       -2    1    3    3    0  502  0.39962637158E+03  0.32353735445E+03  0.69223237887E+02  0.51881549057E+03  0.25500000920E-02 0. -1.
</event>
<event>
 5   0  0.3335747E-04  0.1299908E+04  0.7818609E-02  0.9029638E-01
       -1   -1    0    0    0  501  0.00000000000E+00  0.00000000000E+00  0.45222376083E+03  0.45222376085E+03  0.50400001928E-02 0.  1.
        1   -1    0    0  501    0  0.00000000000E+00  0.00000000000E+00 -0.93414039886E+03  0.93414039888E+03  0.50400001928E-02 0. -1.
    10030    2    1    2    0    0  0.00000000000E+00  0.00000000000E+00 -0.48191663804E+03  0.13863641597E+04  0.12999084342E+04 0.  0.
        3    1    3    3  502    0  0.64289985322E+03  0.78713386457E+02 -0.18328338832E+03  0.67313358935E+03  0.10100000352E+00 0.  1.
       -3    1    3    3    0  502 -0.64289985322E+03 -0.78713386457E+02 -0.29863324972E+03  0.71323057038E+03  0.10100000352E+00 0. -1.
</event>
<event>
 5   0  0.3335747E-04  0.1299775E+04  0.7818609E-02  0.9029744E-01
        1   -1    0    0  501    0  0.00000000000E+00  0.00000000000E+00  0.30107210020E+03  0.30107210024E+03  0.50400001928E-02 0.  1.
       -1   -1    0    0    0  501  0.00000000000E+00  0.00000000000E+00 -0.14028327318E+04  0.14028327319E+04  0.50400001928E-02 0. -1.
    10030    2    1    2    0    0  0.00000000000E+00  0.00000000000E+00 -0.11017606317E+04  0.17039048321E+04  0.12997750526E+04 0.  0.
        3    1    3    3  502    0 -0.52272807370E+03 -0.38610753998E+03 -0.54368632367E+03  0.84730071415E+03  0.10100000352E+00 0. -1.
       -3    1    3    3    0  502  0.52272807370E+03  0.38610753998E+03 -0.55807430798E+03  0.85660411795E+03  0.10100000352E+00 0.  1.
</event>
<event>
 5   0  0.6007125E-04  0.1298203E+04  0.7818609E-02  0.9030991E-01
       -2   -1    0    0    0  501  0.00000000000E+00  0.00000000000E+00  0.71920665311E+03  0.71920665311E+03  0.25500000920E-02 0. -1.
        2   -1    0    0  501    0  0.00000000000E+00  0.00000000000E+00 -0.58583008574E+03  0.58583008575E+03  0.25500000920E-02 0.  1.
    10030    2    1    2    0    0  0.00000000000E+00  0.00000000000E+00  0.13337656737E+03  0.13050367389E+04  0.12982032125E+04 0.  0.
        5    1    3    3  502    0  0.48705534428E+03 -0.25719714117E+03 -0.27853976038E+03  0.61723558381E+03  0.46999998093E+01 0.  1.
       -5    1    3    3    0  502 -0.48705534428E+03  0.25719714117E+03  0.41191632775E+03  0.68780115504E+03  0.46999998093E+01 0. -1.
</event>
<event>
 5   0  0.5384960E-04  0.1299854E+04  0.7818609E-02  0.9029681E-01
       -2   -1    0    0    0  501  0.00000000000E+00  0.00000000000E+00  0.63610948082E+03  0.63610948083E+03  0.25500000920E-02 0.  1.
        2   -1    0    0  501    0  0.00000000000E+00  0.00000000000E+00 -0.66404451887E+03  0.66404451888E+03  0.25500000920E-02 0. -1.
    10030    2    1    2    0    0  0.00000000000E+00  0.00000000000E+00 -0.27935038048E+02  0.13001539997E+04  0.12998538597E+04 0.  0.
        3    1    3    3  502    0  0.12382708990E+03 -0.55917076348E+03 -0.32128415130E+03  0.65667998828E+03  0.10100000352E+00 0. -1.
       -3    1    3    3    0  502 -0.12382708990E+03  0.55917076348E+03  0.29334911325E+03  0.64347401142E+03  0.10100000352E+00 0.  1.
</event>
<event>
 5   0  0.3337520E-04  0.1295066E+04  0.7818609E-02  0.9033487E-01
        1   -1    0    0  501    0  0.00000000000E+00  0.00000000000E+00  0.70204118235E+03  0.70204118237E+03  0.50400001928E-02 0. -1.
       -1   -1    0    0    0  501  0.00000000000E+00  0.00000000000E+00 -0.59725708256E+03  0.59725708258E+03  0.50400001928E-02 0.  1.
    10030    2    1    2    0    0  0.00000000000E+00  0.00000000000E+00  0.10478409979E+03  0.12992982650E+04  0.12950661272E+04 0.  0.
        5    1    3    3  502    0 -0.50532591188E+03  0.26081434993E+03 -0.25829488708E+03  0.62459326048E+03  0.46999998093E+01 0.  1.
       -5    1    3    3    0  502  0.50532591188E+03 -0.26081434993E+03  0.36307898687E+03  0.67470500447E+03  0.46999998093E+01 0. -1.
</event>
<event>
 5   0  0.6052864E-04  0.1264312E+04  0.7818609E-02  0.9058355E-01
       -2   -1    0    0    0  501  0.00000000000E+00  0.00000000000E+00  0.47162660424E+03  0.47162660424E+03  0.25500000920E-02 0.  1.
        2   -1    0    0  501    0  0.00000000000E+00  0.00000000000E+00 -0.84732593638E+03  0.84732593639E+03  0.25500000920E-02 0. -1.
    10030    2    1    2    0    0  0.00000000000E+00  0.00000000000E+00 -0.37569933215E+03  0.13189525406E+04  0.12643123887E+04 0.  0.
        2    1    3    3  502    0 -0.16102407557E+03  0.19158213750E+02 -0.82525941032E+03  0.84104035836E+03  0.25500000920E-02 0. -1.
       -2    1    3    3    0  502  0.16102407557E+03 -0.19158213750E+02  0.44956007817E+03  0.47791218227E+03  0.25500000920E-02 0.  1.
</event>
<event>
 5   0  0.3403833E-04  0.1296030E+04  0.7818609E-02  0.9032720E-01
       -1   -1    0    0    0  501  0.00000000000E+00  0.00000000000E+00  0.63476873429E+03  0.63476873431E+03  0.50400001928E-02 0. -1.
        1   -1    0    0  501    0  0.00000000000E+00  0.00000000000E+00 -0.66153738963E+03  0.66153738965E+03  0.50400001928E-02 0.  1.
    10030    2    1    2    0    0  0.00000000000E+00  0.00000000000E+00 -0.26768655345E+02  0.12963061240E+04  0.12960297088E+04 0.  0.
        1    1    3    3  502    0  0.43377975072E+03 -0.92782555991E+02 -0.48587239406E+03  0.65790991645E+03  0.50400001928E-02 0.  1.
       -1    1    3    3    0  502 -0.43377975072E+03  0.92782555991E+02  0.45910373871E+03  0.63839620750E+03  0.50400001928E-02 0. -1.
</event>
<event>
 5   0  0.2255875E-04  0.1263948E+04  0.7818609E-02  0.9058654E-01
        3   -1    0    0  501    0  0.00000000000E+00  0.00000000000E+00  0.30983266197E+03  0.30983267843E+03  0.10100000352E+00 0.  1.
       -3   -1    0    0    0  501  0.00000000000E+00  0.00000000000E+00 -0.12890537924E+04  0.12890537964E+04  0.10100000352E+00 0. -1.
    10030    2    1    2    0    0  0.00000000000E+00  0.00000000000E+00 -0.97922113044E+03  0.15988864748E+04  0.12639477588E+04 0.  0.
        4    1    3    3  502    0 -0.56662476876E+03  0.16744680706E+03 -0.20593775886E+03  0.62571082394E+03  0.12699999809E+01 0.  1.
       -4    1    3    3    0  502  0.56662476876E+03 -0.16744680706E+03 -0.77328337158E+03  0.97317565086E+03  0.12699999809E+01 0. -1.
</event>
<event>
 5   0  0.5957913E-04  0.1299002E+04  0.7818609E-02  0.9030357E-01
       -2   -1    0    0    0  501  0.00000000000E+00  0.00000000000E+00  0.45276045078E+03  0.45276045079E+03  0.25500000920E-02 0. -1.
        2   -1    0    0  501    0  0.00000000000E+00  0.00000000000E+00 -0.93173200261E+03  0.93173200262E+03  0.25500000920E-02 0.  1.
    10030    2    1    2    0    0  0.00000000000E+00  0.00000000000E+00 -0.47897155183E+03  0.13844924534E+04  0.12990017729E+04 0.  0.
        1    1    3    3  502    0 -0.50158185091E+03  0.31971171444E+03  0.38549306180E+02  0.59605870729E+03  0.50400001928E-02 0. -1.
       -1    1    3    3    0  502  0.50158185091E+03 -0.31971171444E+03 -0.51752085801E+03  0.78843374611E+03  0.50400001928E-02 0.  1.
</event>
<event>
 5   0  0.3263679E-04  0.1295484E+04  0.7818609E-02  0.9033154E-01
       -1   -1    0    0    0  501  0.00000000000E+00  0.00000000000E+00  0.37391365900E+03  0.37391365904E+03  0.50400001928E-02 0. -1.
        1   -1    0    0  501    0  0.00000000000E+00  0.00000000000E+00 -0.11221026842E+04  0.11221026842E+04  0.50400001928E-02 0.  1.
    10030    2    1    2    0    0  0.00000000000E+00  0.00000000000E+00 -0.74818902517E+03  0.14960163432E+04  0.12954837250E+04 0.  0.
        2    1    3    3  502    0  0.40056368875E+03 -0.30558827481E+03 -0.84421617013E+03  0.98312583343E+03  0.25500000920E-02 0.  1.
       -2    1    3    3    0  502 -0.40056368875E+03  0.30558827481E+03  0.96027144960E+02  0.51289050978E+03  0.25500000920E-02 0. -1.
</event>
<event>
 5   0  0.3335747E-04  0.1299025E+04  0.7818609E-02  0.9030339E-01
       -1   -1    0    0    0  501  0.00000000000E+00  0.00000000000E+00  0.89964981914E+03  0.89964981915E+03  0.50400001928E-02 0. -1.
        1   -1    0    0  501    0  0.00000000000E+00  0.00000000000E+00 -0.46892296809E+03  0.46892296812E+03  0.50400001928E-02 0.  1.
    10030    2    1    2    0    0  0.00000000000E+00  0.00000000000E+00  0.43072685105E+03  0.13685727873E+04  0.12990249628E+04 0.  0.
        3    1    3    3  502    0 -0.41524765221E+03 -0.46029469088E+03  0.11170821177E+02  0.62002146137E+03  0.10100000352E+00 0. -1.
       -3    1    3    3    0  502  0.41524765221E+03  0.46029469088E+03  0.41955602987E+03  0.74855132591E+03  0.10100000352E+00 0.  1.
</event>
<event>
 5   0  0.3337520E-04  0.1303490E+04  0.7818609E-02  0.9026802E-01
       -1   -1    0    0    0  501  0.00000000000E+00  0.00000000000E+00  0.29960858762E+03  0.29960858766E+03  0.50400001928E-02 0. -1.
        1   -1    0    0  501    0  0.00000000000E+00  0.00000000000E+00 -0.14177544933E+04  0.14177544933E+04  0.50400001928E-02 0.  1.
    10030    2    1    2    0    0  0.00000000000E+00  0.00000000000E+00 -0.11181459057E+04  0.17173630810E+04  0.13034898103E+04 0.  0.
        5    1    3    3  502    0  0.17923882455E+03  0.54839585807E+03 -0.15970223418E+03  0.59865805513E+03  0.46999998093E+01 0. -1.
       -5    1    3    3    0  502 -0.17923882455E+03 -0.54839585807E+03 -0.95844367153E+03  0.11187050259E+04  0.46999998093E+01 0.  1.
</event>
<event>
 5   0  0.3263679E-04  0.1272927E+04  0.7818609E-02  0.9051314E-01
        1   -1    0    0  501    0  0.00000000000E+00  0.00000000000E+00  0.13532137324E+04  0.13532137324E+04  0.50400001928E-02 0.  1.
       -1   -1    0    0    0  501  0.00000000000E+00  0.00000000000E+00 -0.29935075214E+03  0.29935075218E+03  0.50400001928E-02 0. -1.
    10030    2    1    2    0    0  0.00000000000E+00  0.00000000000E+00  0.10538629803E+04  0.16525644846E+04  0.12729266258E+04 0.  0.
        2    1    3    3  502    0 -0.21827237130E+03  0.13957564951E+02 -0.24902950417E+03  0.33144130045E+03  0.25500000920E-02 0. -1.
       -2    1    3    3    0  502  0.21827237130E+03 -0.13957564951E+02  0.13028924844E+04  0.13211231842E+04  0.25500000920E-02 0.  1.
</event>
<event>
 5   0  0.5787604E-04  0.1300671E+04  0.7818609E-02  0.9029034E-01
       -2   -1    0    0    0  501  0.00000000000E+00  0.00000000000E+00  0.27084572982E+03  0.27084572983E+03  0.25500000920E-02 0. -1.
        2   -1    0    0  501    0  0.00000000000E+00  0.00000000000E+00 -0.15615384201E+04  0.15615384201E+04  0.25500000920E-02 0.  1.
    10030    2    1    2    0    0  0.00000000000E+00  0.00000000000E+00 -0.12906926903E+04  0.18323841499E+04  0.13006706163E+04 0.  0.
        4    1    3    3  502    0  0.36244233952E+02  0.61341536020E+03 -0.34536018633E+03  0.70488816122E+03  0.12699999809E+01 0. -1.
       -4    1    3    3    0  502 -0.36244233952E+02 -0.61341536020E+03 -0.94533250393E+03  0.11274959887E+04  0.12699999809E+01 0.  1.
</event>
<event>
 5   0  0.3274879E-04  0.1297126E+04  0.7818609E-02  0.9031848E-01
        1   -1    0    0  501    0  0.00000000000E+00  0.00000000000E+00  0.13513266571E+04  0.13513266571E+04  0.50400001928E-02 0.  1.
       -1   -1    0    0    0  501  0.00000000000E+00  0.00000000000E+00 -0.31127472098E+03  0.31127472103E+03  0.50400001928E-02 0. -1.
    10030    2    1    2    0    0  0.00000000000E+00  0.00000000000E+00  0.10400519361E+04  0.16626013781E+04  0.12971257891E+04 0.  0.
        4    1    3    3  502    0  0.19588851911E+02  0.41030130888E+03 -0.12328546647E+03  0.42887271577E+03  0.12699999809E+01 0. -1.
       -4    1    3    3    0  502 -0.19588851911E+02 -0.41030130888E+03  0.11633374026E+04  0.12337286624E+04  0.12699999809E+01 0.  1.
</event>
<event>
 5   0  0.3335747E-04  0.1300990E+04  0.7818609E-02  0.9028780E-01
       -1   -1    0    0    0  501  0.00000000000E+00  0.00000000000E+00  0.20435794764E+03  0.20435794770E+03  0.50400001928E-02 0.  1.
        1   -1    0    0  501    0  0.00000000000E+00  0.00000000000E+00 -0.20706017428E+04  0.20706017428E+04  0.50400001928E-02 0. -1.
    10030    2    1    2    0    0  0.00000000000E+00  0.00000000000E+00 -0.18662437952E+04  0.22749596905E+04  0.13009902730E+04 0.  0.
        3    1    3    3  502    0  0.51478060244E+03 -0.63578213653E+02 -0.16195652700E+04  0.17005978160E+04  0.10100000352E+00 0. -1.
       -3    1    3    3    0  502 -0.51478060244E+03  0.63578213653E+02 -0.24667852519E+03  0.57436187451E+03  0.10100000352E+00 0.  1.
</event>
<event>
 5   0  0.2255875E-04  0.1313858E+04  0.7818609E-02  0.9018648E-01
        4   -1    0    0  501    0  0.00000000000E+00  0.00000000000E+00  0.33122199160E+03  0.33122442637E+03  0.12699999809E+01 0. -1.
       -4   -1    0    0    0  501  0.00000000000E+00  0.00000000000E+00 -0.13029116576E+04  0.13029122765E+04  0.12699999809E+01 0.  1.
    10030    2    1    2    0    0  0.00000000000E+00  0.00000000000E+00 -0.97168966596E+03  0.16341367029E+04  0.13138576623E+04 0.  0.
        2    1    3    3  502    0 -0.61847300593E+03  0.19175268691E+03 -0.62365958104E+03  0.89901569788E+03  0.25500000920E-02 0. -1.
       -2    1    3    3    0  502  0.61847300593E+03 -0.19175268691E+03 -0.34803008492E+03  0.73512100502E+03  0.25500000920E-02 0.  1.
</event>
<event>
 5   0  0.5957913E-04  0.1298095E+04  0.7818609E-02  0.9031077E-01
        2   -1    0    0  501    0  0.00000000000E+00  0.00000000000E+00  0.14422259878E+04  0.14422259878E+04  0.25500000920E-02 0. -1.
       -2   -1    0    0    0  501  0.00000000000E+00  0.00000000000E+00 -0.29209190043E+03  0.29209190044E+03  0.25500000920E-02 0.  1.
    10030    2    1    2    0    0  0.00000000000E+00  0.00000000000E+00  0.11501340874E+04  0.17343178883E+04  0.12980948034E+04 0.  0.
        1    1    3    3  502    0  0.36979187340E+03 -0.19986329024E+03  0.12357984015E+04  0.13053310130E+04  0.50400001928E-02 0. -1.
       -1    1    3    3    0  502 -0.36979187340E+03  0.19986329024E+03 -0.85664314076E+02  0.42898687526E+03  0.50400001928E-02 0.  1.
</event>
<event>
 5   0  0.5384960E-04  0.1296986E+04  0.7818609E-02  0.9031959E-01
        2   -1    0    0  501    0  0.00000000000E+00  0.00000000000E+00  0.15699389465E+04  0.15699389465E+04  0.25500000920E-02 0.  1.
       -2   -1    0    0    0  501  0.00000000000E+00  0.00000000000E+00 -0.26787215642E+03  0.26787215643E+03  0.25500000920E-02 0. -1.
    10030    2    1    2    0    0  0.00000000000E+00  0.00000000000E+00  0.13020667901E+04  0.18378111029E+04  0.12969856299E+04 0.  0.
        3    1    3    3  502    0  0.36063537578E+03 -0.50168473322E+03  0.93013828006E+03  0.11166479642E+04  0.10100000352E+00 0.  1.
       -3    1    3    3    0  502 -0.36063537578E+03  0.50168473322E+03  0.37192851000E+03  0.72116313866E+03  0.10100000352E+00 0. -1.
</event>
<event>
 5   0  0.5384960E-04  0.1298119E+04  0.7818609E-02  0.9031058E-01
       -2   -1    0    0    0  501  0.00000000000E+00  0.00000000000E+00  0.17882099896E+03  0.17882099897E+03  0.25500000920E-02 0. -1.
        2   -1    0    0  501    0  0.00000000000E+00  0.00000000000E+00 -0.23558653449E+04  0.23558653449E+04  0.25500000920E-02 0.  1.
    10030    2    1    2    0    0  0.00000000000E+00  0.00000000000E+00 -0.21770443459E+04  0.25346863439E+04  0.12981189382E+04 0.  0.
        3    1    3    3  502    0  0.50830505645E+03 -0.32502329502E+03 -0.15557735858E+04  0.16686658243E+04  0.10100000352E+00 0.  1.
       -3    1    3    3    0  502 -0.50830505645E+03  0.32502329502E+03 -0.62127076016E+03  0.86602051959E+03  0.10100000352E+00 0. -1.
</event>
<event>
 5   0  0.3274879E-04  0.1300826E+04  0.7818609E-02  0.9028910E-01
        1   -1    0    0  501    0  0.00000000000E+00  0.00000000000E+00  0.12173979312E+04  0.12173979312E+04  0.50400001928E-02 0. -1.
       -1   -1    0    0    0  501  0.00000000000E+00  0.00000000000E+00 -0.34749287156E+03  0.34749287160E+03  0.50400001928E-02 0.  1.
    10030    2    1    2    0    0  0.00000000000E+00  0.00000000000E+00  0.86990505961E+03  0.15648908028E+04  0.13008260498E+04 0.  0.
        4    1    3    3  502    0  0.16670498409E+03  0.62491443591E+03  0.51766145624E+03  0.82842235611E+03  0.12699999809E+01 0. -1.
       -4    1    3    3    0  502 -0.16670498409E+03 -0.62491443591E+03  0.35224360338E+03  0.73646844667E+03  0.12699999809E+01 0.  1.
</event>
<event>
 5   0  0.5957913E-04  0.1304986E+04  0.7818609E-02  0.9025620E-01
        2   -1    0    0  501    0  0.00000000000E+00  0.00000000000E+00  0.68726586335E+03  0.68726586336E+03  0.25500000920E-02 0. -1.
       -2   -1    0    0    0  501  0.00000000000E+00  0.00000000000E+00 -0.61947988813E+03  0.61947988814E+03  0.25500000920E-02 0.  1.
    10030    2    1    2    0    0  0.00000000000E+00  0.00000000000E+00  0.67785975222E+02  0.13067457515E+04  0.13049864063E+04 0.  0.
        1    1    3    3  502    0 -0.32794732133E+03  0.74124702583E+02  0.59384583120E+03  0.68241980361E+03  0.50400001928E-02 0. -1.
       -1    1    3    3    0  502  0.32794732133E+03 -0.74124702583E+02 -0.52605985598E+03  0.62432594788E+03  0.50400001928E-02 0.  1.
</event>
<event>
 5   0  0.3263679E-04  0.1295237E+04  0.7818609E-02  0.9033351E-01
       -1   -1    0    0    0  501  0.00000000000E+00  0.00000000000E+00  0.38889341735E+03  0.38889341739E+03  0.50400001928E-02 0. -1.
        1   -1    0    0  501    0  0.00000000000E+00  0.00000000000E+00 -0.10784689276E+04  0.10784689276E+04  0.50400001928E-02 0.  1.
    10030    2    1    2    0    0  0.00000000000E+00  0.00000000000E+00 -0.68957551028E+03  0.14673623450E+04  0.12952366067E+04 0.  0.
        2    1    3    3  502    0 -0.12056122603E+03 -0.34538012508E+03  0.26063326777E+03  0.44916827615E+03  0.25500000920E-02 0. -1.
       -2    1    3    3    0  502  0.12056122603E+03  0.34538012508E+03 -0.95020877805E+03  0.10181940689E+04  0.25500000920E-02 0.  1.
</event>
<event>
 5   0  0.3403833E-04  0.1300308E+04  0.7818609E-02  0.9029321E-01
        1   -1    0    0  501    0  0.00000000000E+00  0.00000000000E+00  0.70699016991E+03  0.70699016993E+03  0.50400001928E-02 0.  1.
       -1   -1    0    0    0  501  0.00000000000E+00  0.00000000000E+00 -0.59788682420E+03  0.59788682422E+03  0.50400001928E-02 0. -1.
    10030    2    1    2    0    0  0.00000000000E+00  0.00000000000E+00  0.10910334571E+03  0.13048769942E+04  0.13003078212E+04 0.  0.
        1    1    3    3  502    0 -0.37654003788E+02 -0.58018879668E+03  0.34654360449E+03  0.67685251986E+03  0.50400001928E-02 0.  1.
       -1    1    3    3    0  502  0.37654003788E+02  0.58018879668E+03 -0.23744025878E+03  0.62802447429E+03  0.50400001928E-02 0. -1.
</event>
<event>
 5   0  0.3337520E-04  0.1305078E+04  0.7818609E-02  0.9025548E-01
        1   -1    0    0  501    0  0.00000000000E+00  0.00000000000E+00  0.18391156906E+04  0.18391156906E+04  0.50400001928E-02 0.  1.
       -1   -1    0    0    0  501  0.00000000000E+00  0.00000000000E+00 -0.23152820852E+03  0.23152820858E+03  0.50400001928E-02 0. -1.
    10030    2    1    2    0    0  0.00000000000E+00  0.00000000000E+00  0.16075874821E+04  0.20706438992E+04  0.13050780225E+04 0.  0.
        5    1    3    3  502    0 -0.51205468825E+03 -0.16496495807E+03  0.13897038036E+04  0.14902054197E+04  0.46999998093E+01 0.  1.
       -5    1    3    3    0  502  0.51205468825E+03  0.16496495807E+03  0.21788367850E+03  0.58043847951E+03  0.46999998093E+01 0. -1.
</event>
<event>
 5   0  0.6052864E-04  0.1302858E+04  0.7818609E-02  0.9027302E-01
       -2   -1    0    0    0  501  0.00000000000E+00  0.00000000000E+00  0.20721262868E+03  0.20721262870E+03  0.25500000920E-02 0.  1.
        2   -1    0    0  501    0  0.00000000000E+00  0.00000000000E+00 -0.20479443868E+04  0.20479443868E+04  0.25500000920E-02 0. -1.
    10030    2    1    2    0    0  0.00000000000E+00  0.00000000000E+00 -0.18407317581E+04  0.22551570155E+04  0.13028583036E+04 0.  0.
        2    1    3    3  502    0  0.63534884597E+03  0.12080941910E+03 -0.78521060572E+03  0.10172604225E+04  0.25500000920E-02 0. -1.
       -2    1    3    3    0  502 -0.63534884597E+03 -0.12080941910E+03 -0.10555211524E+04  0.12378965930E+04  0.25500000920E-02 0.  1.
</event>
<event>
 5   0  0.5957913E-04  0.1299984E+04  0.7818609E-02  0.9029578E-01
        2   -1    0    0  501    0  0.00000000000E+00  0.00000000000E+00  0.80787310396E+03  0.80787310397E+03  0.25500000920E-02 0. -1.
       -2   -1    0    0    0  501  0.00000000000E+00  0.00000000000E+00 -0.52296541747E+03  0.52296541747E+03  0.25500000920E-02 0.  1.
    10030    2    1    2    0    0  0.00000000000E+00  0.00000000000E+00  0.28490768650E+03  0.13308385214E+04  0.12999841462E+04 0.  0.
        1    1    3    3  502    0  0.30532308878E+03  0.56261791166E+03  0.26955038476E+02  0.64069312248E+03  0.50400001928E-02 0.  1.
       -1    1    3    3    0  502 -0.30532308878E+03 -0.56261791166E+03  0.25795264802E+03  0.69014539896E+03  0.50400001928E-02 0. -1.
</event>
<event>
 5   0  0.5384960E-04  0.1297977E+04  0.7818609E-02  0.9031171E-01
       -2   -1    0    0    0  501  0.00000000000E+00  0.00000000000E+00  0.78375897381E+03  0.78375897382E+03  0.25500000920E-02 0.  1.
        2   -1    0    0  501    0  0.00000000000E+00  0.00000000000E+00 -0.53739240021E+03  0.53739240022E+03  0.25500000920E-02 0. -1.
    10030    2    1    2    0    0  0.00000000000E+00  0.00000000000E+00  0.24636657360E+03  0.13211513740E+04  0.12979770663E+04 0.  0.
        3    1    3    3  502    0 -0.57684143551E+03 -0.29198776880E+02  0.42441910926E+03  0.71674974768E+03  0.10100000352E+00 0. -1.
       -3    1    3    3    0  502  0.57684143551E+03  0.29198776880E+02 -0.17805253566E+03  0.60440162636E+03  0.10100000352E+00 0.  1.
</event>
<event>
 5   0  0.3337520E-04  0.1298803E+04  0.7818609E-02  0.9030515E-01
        1   -1    0    0  501    0  0.00000000000E+00  0.00000000000E+00  0.96899119139E+03  0.96899119141E+03  0.50400001928E-02 0.  1.
       -1   -1    0    0    0  501  0.00000000000E+00  0.00000000000E+00 -0.43521775782E+03  0.43521775785E+03  0.50400001928E-02 0. -1.
    10030    2    1    2    0    0  0.00000000000E+00  0.00000000000E+00  0.53377343358E+03  0.14042089493E+04  0.12988027929E+04 0.  0.
        5    1    3    3  502    0  0.29258471850E+03 -0.56945333404E+03  0.38441576004E+03  0.74678007721E+03  0.46999998093E+01 0.  1.
       -5    1    3    3    0  502 -0.29258471850E+03  0.56945333404E+03  0.14935767353E+03  0.65742887204E+03  0.46999998093E+01 0. -1.
</event>
<event>
 5   0  0.6007125E-04  0.1298966E+04  0.7818609E-02  0.9030386E-01
       -2   -1    0    0    0  501  0.00000000000E+00  0.00000000000E+00  0.22478886970E+03  0.22478886972E+03  0.25500000920E-02 0.  1.
        2   -1    0    0  501    0  0.00000000000E+00  0.00000000000E+00 -0.18765516488E+04  0.18765516488E+04  0.25500000920E-02 0. -1.
    10030    2    1    2    0    0  0.00000000000E+00  0.00000000000E+00 -0.16517627791E+04  0.21013405185E+04  0.12989656255E+04 0.  0.
        5    1    3    3  502    0 -0.13417449430E+03 -0.18580473068E+03 -0.18089333165E+04  0.18234001279E+04  0.46999998093E+01 0. -1.
       -5    1    3    3    0  502  0.13417449430E+03  0.18580473068E+03  0.15717053746E+03  0.27794039056E+03  0.46999998093E+01 0.  1.
</event>
<event>
 5   0  0.5787604E-04  0.1301820E+04  0.7818609E-02  0.9028123E-01
       -2   -1    0    0    0  501  0.00000000000E+00  0.00000000000E+00  0.99160023751E+03  0.99160023752E+03  0.25500000920E-02 0.  1.
        2   -1    0    0  501    0  0.00000000000E+00  0.00000000000E+00 -0.42727278414E+03  0.42727278414E+03  0.25500000920E-02 0. -1.
    10030    2    1    2    0    0  0.00000000000E+00  0.00000000000E+00  0.56432745338E+03  0.14188730217E+04  0.13018199480E+04 0.  0.
        4    1    3    3  502    0  0.32603296081E+03 -0.80853904050E+02  0.88983147086E+03  0.95112381148E+03  0.12699999809E+01 0.  1.
       -4    1    3    3    0  502 -0.32603296081E+03  0.80853904050E+02 -0.32550401748E+03  0.46774921018E+03  0.12699999809E+01 0. -1.
</event>
<event>
 5   0  0.5957913E-04  0.1295409E+04  0.7818609E-02  0.9033214E-01
        2   -1    0    0  501    0  0.00000000000E+00  0.00000000000E+00  0.26924135138E+04  0.26924135138E+04  0.25500000920E-02 0. -1.
       -2   -1    0    0    0  501  0.00000000000E+00  0.00000000000E+00 -0.15581589761E+03  0.15581589763E+03  0.25500000920E-02 0.  1.
    10030    2    1    2    0    0  0.00000000000E+00  0.00000000000E+00  0.25365976162E+04  0.28482294115E+04  0.12954085509E+04 0.  0.
        1    1    3    3  502    0  0.57710548390E+03 -0.15617098486E+03  0.18161297439E+04  0.19120061095E+04  0.50400001928E-02 0.  1.
       -1    1    3    3    0  502 -0.57710548390E+03  0.15617098486E+03  0.72046787235E+03  0.93622330198E+03  0.50400001928E-02 0. -1.
</event>
<event>
 5   0  0.3274879E-04  0.1303017E+04  0.7818609E-02  0.9027176E-01
       -1   -1    0    0    0  501  0.00000000000E+00  0.00000000000E+00  0.57878181511E+03  0.57878181513E+03  0.50400001928E-02 0.  1.
        1   -1    0    0  501    0  0.00000000000E+00  0.00000000000E+00 -0.73337329992E+03  0.73337329994E+03  0.50400001928E-02 0. -1.
    10030    2    1    2    0    0  0.00000000000E+00  0.00000000000E+00 -0.15459148481E+03  0.13121551151E+04  0.13030166994E+04 0.  0.
        4    1    3    3  502    0 -0.34608406153E+03 -0.85851104530E+02  0.47179612803E+03  0.59138632815E+03  0.12699999809E+01 0.  1.
       -4    1    3    3    0  502  0.34608406153E+03  0.85851104530E+02 -0.62638761283E+03  0.72076878692E+03  0.12699999809E+01 0. -1.
</event>
<event>
 5   0  0.3337520E-04  0.1303909E+04  0.7818609E-02  0.9026471E-01
        1   -1    0    0  501    0  0.00000000000E+00  0.00000000000E+00  0.12581443877E+04  0.12581443877E+04  0.50400001928E-02 0. -1.
       -1   -1    0    0    0  501  0.00000000000E+00  0.00000000000E+00 -0.33783435004E+03  0.33783435007E+03  0.50400001928E-02 0.  1.
    10030    2    1    2    0    0  0.00000000000E+00  0.00000000000E+00  0.92031003768E+03  0.15959787378E+04  0.13039085727E+04 0.  0.
        5    1    3    3  502    0  0.64209522676E+02  0.46890359505E+03  0.10089487762E+04  0.11144474717E+04  0.46999998093E+01 0. -1.
       -5    1    3    3    0  502 -0.64209522676E+02 -0.46890359505E+03 -0.88638738498E+02  0.48153126609E+03  0.46999998093E+01 0.  1.
</event>
<event>
 5   0  0.6007125E-04  0.1303183E+04  0.7818609E-02  0.9027045E-01
       -2   -1    0    0    0  501  0.00000000000E+00  0.00000000000E+00  0.70402058003E+03  0.70402058004E+03  0.25500000920E-02 0. -1.
        2   -1    0    0  501    0  0.00000000000E+00  0.00000000000E+00 -0.60306702582E+03  0.60306702583E+03  0.25500000920E-02 0.  1.
    10030    2    1    2    0    0  0.00000000000E+00  0.00000000000E+00  0.10095355421E+03  0.13070876059E+04  0.13031831756E+04 0.  0.
        5    1    3    3  502    0  0.92550488886E+02  0.63908784597E+03  0.13763153459E+03  0.66027524350E+03  0.46999998093E+01 0.  1.
       -5    1    3    3    0  502 -0.92550488886E+02 -0.63908784597E+03 -0.36677980379E+02  0.64681236236E+03  0.46999998093E+01 0. -1.
</event>
<event>
 5   0  0.6007125E-04  0.1291543E+04  0.7818609E-02  0.9036299E-01
        2   -1    0    0  501    0  0.00000000000E+00  0.00000000000E+00  0.17655566726E+04  0.17655566726E+04  0.25500000920E-02 0. -1.
       -2   -1    0    0    0  501  0.00000000000E+00  0.00000000000E+00 -0.23619787099E+03  0.23619787100E+03  0.25500000920E-02 0.  1.
    10030    2    1    2    0    0  0.00000000000E+00  0.00000000000E+00  0.15293588016E+04  0.20017545436E+04  0.12915428405E+04 0.  0.
        5    1    3    3  502    0  0.29986057527E+03 -0.50465570079E+03  0.34763146645E+03  0.68224883100E+03  0.46999998093E+01 0.  1.
       -5    1    3    3    0  502 -0.29986057527E+03  0.50465570079E+03  0.11817273352E+04  0.13195057126E+04  0.46999998093E+01 0. -1.
</event>
<event>
 5   0  0.6007125E-04  0.1303656E+04  0.7818609E-02  0.9026671E-01
       -2   -1    0    0    0  501  0.00000000000E+00  0.00000000000E+00  0.33850543604E+03  0.33850543605E+03  0.25500000920E-02 0. -1.
        2   -1    0    0  501    0  0.00000000000E+00  0.00000000000E+00 -0.12551636884E+04  0.12551636884E+04  0.25500000920E-02 0.  1.
    10030    2    1    2    0    0  0.00000000000E+00  0.00000000000E+00 -0.91665825240E+03  0.15936691245E+04  0.13036559848E+04 0.  0.
        5    1    3    3  502    0 -0.50594160755E+03  0.31615141884E+03 -0.77927824093E+03  0.98144041932E+03  0.46999998093E+01 0.  1.
       -5    1    3    3    0  502  0.50594160755E+03 -0.31615141884E+03 -0.13738001146E+03  0.61222870517E+03  0.46999998093E+01 0. -1.
</event>
<event>
 5   0  0.5787604E-04  0.1294077E+04  0.7818609E-02  0.9034276E-01
       -2   -1    0    0    0  501  0.00000000000E+00  0.00000000000E+00  0.15390203073E+03  0.15390203075E+03  0.25500000920E-02 0.  1.
        2   -1    0    0  501    0  0.00000000000E+00  0.00000000000E+00 -0.27202933586E+04  0.27202933586E+04  0.25500000920E-02 0. -1.
    10030    2    1    2    0    0  0.00000000000E+00  0.00000000000E+00 -0.25663913279E+04  0.28741953894E+04  0.12940767707E+04 0.  0.
        4    1    3    3  502    0  0.54903179682E+03  0.28651289383E+03 -0.16994939630E+04  0.18088136708E+04  0.12699999809E+01 0. -1.
       -4    1    3    3    0  502 -0.54903179682E+03 -0.28651289383E+03 -0.86689736487E+03  0.10653817186E+04  0.12699999809E+01 0.  1.
</event>
<event>
 5   0  0.5787604E-04  0.1308632E+04  0.7818609E-02  0.9022748E-01
        2   -1    0    0  501    0  0.00000000000E+00  0.00000000000E+00  0.12598700534E+04  0.12598700534E+04  0.25500000920E-02 0.  1.
       -2   -1    0    0    0  501  0.00000000000E+00  0.00000000000E+00 -0.33982038775E+03  0.33982038776E+03  0.25500000920E-02 0. -1.
    10030    2    1    2    0    0  0.00000000000E+00  0.00000000000E+00  0.92004966561E+03  0.15996904411E+04  0.13086321562E+04 0.  0.
        4    1    3    3  502    0  0.13153695667E+03  0.37909436945E+03  0.10918053135E+04  0.11632089096E+04  0.12699999809E+01 0.  1.
       -4    1    3    3    0  502 -0.13153695667E+03 -0.37909436945E+03 -0.17175564785E+03  0.43648153155E+03  0.12699999809E+01 0. -1.
</event>
<event>
 5   0  0.3337520E-04  0.1299882E+04  0.7818609E-02  0.9029659E-01
        1   -1    0    0  501    0  0.00000000000E+00  0.00000000000E+00  0.13916538300E+04  0.13916538300E+04  0.50400001928E-02 0.  1.
       -1   -1    0    0    0  501  0.00000000000E+00  0.00000000000E+00 -0.30354044397E+03  0.30354044401E+03  0.50400001928E-02 0. -1.
    10030    2    1    2    0    0  0.00000000000E+00  0.00000000000E+00  0.10881133860E+04  0.16951942740E+04  0.12998818738E+04 0.  0.
        5    1    3    3  502    0  0.71020575129E+02 -0.35122774486E+03  0.12511659244E+04  0.13014772803E+04  0.46999998093E+01 0.  1.
       -5    1    3    3    0  502 -0.71020575129E+02  0.35122774486E+03 -0.16305253836E+03  0.39371699369E+03  0.46999998093E+01 0. -1.
</event>
<event>
 5   0  0.5384960E-04  0.1308204E+04  0.7818609E-02  0.9023085E-01
       -2   -1    0    0    0  501  0.00000000000E+00  0.00000000000E+00  0.63205256936E+03  0.63205256936E+03  0.25500000920E-02 0.  1.
        2   -1    0    0  501    0  0.00000000000E+00  0.00000000000E+00 -0.67692060338E+03  0.67692060338E+03  0.25500000920E-02 0. -1.
    10030    2    1    2    0    0  0.00000000000E+00  0.00000000000E+00 -0.44868034017E+02  0.13089731727E+04  0.13082039698E+04 0.  0.
        3    1    3    3  502    0 -0.21936844971E+02 -0.65370043878E+03 -0.15803840924E+02  0.65425932200E+03  0.10100000352E+00 0.  1.
       -3    1    3    3    0  502  0.21936844971E+02  0.65370043878E+03 -0.29064193093E+02  0.65471385074E+03  0.10100000352E+00 0. -1.
</event>
<event>
 5   0  0.6052864E-04  0.1300950E+04  0.7818609E-02  0.9028812E-01
       -2   -1    0    0    0  501  0.00000000000E+00  0.00000000000E+00  0.23098887198E+03  0.23098887199E+03  0.25500000920E-02 0.  1.
        2   -1    0    0  501    0  0.00000000000E+00  0.00000000000E+00 -0.18317658189E+04  0.18317658189E+04  0.25500000920E-02 0. -1.
    10030    2    1    2    0    0  0.00000000000E+00  0.00000000000E+00 -0.16007769470E+04  0.20627546909E+04  0.13009496843E+04 0.  0.
        2    1    3    3  502    0 -0.53180096340E+03 -0.34350606481E+03 -0.10372123950E+04  0.12151618137E+04  0.25500000920E-02 0. -1.
       -2    1    3    3    0  502  0.53180096340E+03  0.34350606481E+03 -0.56356455201E+03  0.84759287723E+03  0.25500000920E-02 0.  1.
</event>
<event>
 5   0  0.3403833E-04  0.1328869E+04  0.7818609E-02  0.9006980E-01
       -1   -1    0    0    0  501  0.00000000000E+00  0.00000000000E+00  0.66855401872E+03  0.66855401873E+03  0.50400001928E-02 0. -1.
        1   -1    0    0  501    0  0.00000000000E+00  0.00000000000E+00 -0.66034016720E+03  0.66034016722E+03  0.50400001928E-02 0.  1.
    10030    2    1    2    0    0  0.00000000000E+00  0.00000000000E+00  0.82138515123E+01  0.13288941860E+04  0.13288688009E+04 0.  0.
        1    1    3    3  502    0 -0.49866590417E+03  0.14606515612E+03 -0.40999077993E+03  0.66188756860E+03  0.50400001928E-02 0.  1.
       -1    1    3    3    0  502  0.49866590417E+03 -0.14606515612E+03  0.41820463145E+03  0.66700661736E+03  0.50400001928E-02 0. -1.
</event>
<event>
 5   0  0.6007125E-04  0.1306744E+04  0.7818609E-02  0.9024234E-01
       -2   -1    0    0    0  501  0.00000000000E+00  0.00000000000E+00  0.44193440513E+03  0.44193440513E+03  0.25500000920E-02 0. -1.
        2   -1    0    0  501    0  0.00000000000E+00  0.00000000000E+00 -0.96596972363E+03  0.96596972363E+03  0.25500000920E-02 0.  1.
    10030    2    1    2    0    0  0.00000000000E+00  0.00000000000E+00 -0.52403531850E+03  0.14079041288E+04  0.13067444359E+04 0.  0.
        5    1    3    3  502    0  0.13022234722E+03  0.92921356084E+02  0.42048866822E+03  0.44991671255E+03  0.46999998093E+01 0. -1.
       -5    1    3    3    0  502 -0.13022234722E+03 -0.92921356084E+02 -0.94452398672E+03  0.95798741621E+03  0.46999998093E+01 0.  1.
</event>
<event>
 5   0  0.6052864E-04  0.1304377E+04  0.7818609E-02  0.9026101E-01
       -2   -1    0    0    0  501  0.00000000000E+00  0.00000000000E+00  0.33394746838E+03  0.33394746839E+03  0.25500000920E-02 0. -1.
        2   -1    0    0  501    0  0.00000000000E+00  0.00000000000E+00 -0.12737029838E+04  0.12737029838E+04  0.25500000920E-02 0.  1.
    10030    2    1    2    0    0  0.00000000000E+00  0.00000000000E+00 -0.93975551538E+03  0.16076504522E+04  0.13043770726E+04 0.  0.
        2    1    3    3  502    0  0.10468905080E+03  0.59341333923E+02 -0.12599012344E+04  0.12656351416E+04  0.25500000920E-02 0.  1.
       -2    1    3    3    0  502 -0.10468905080E+03 -0.59341333923E+02  0.32014571898E+03  0.34201531056E+03  0.25500000920E-02 0. -1.
</event>
<event>
 5   0  0.3403833E-04  0.1317343E+04  0.7818609E-02  0.9015924E-01
       -1   -1    0    0    0  501  0.00000000000E+00  0.00000000000E+00  0.11531556153E+04  0.11531556153E+04  0.50400001928E-02 0. -1.
        1   -1    0    0  501    0  0.00000000000E+00  0.00000000000E+00 -0.37622669637E+03  0.37622669640E+03  0.50400001928E-02 0.  1.
    10030    2    1    2    0    0  0.00000000000E+00  0.00000000000E+00  0.77692891890E+03  0.15293823117E+04  0.13173426700E+04 0.  0.
        1    1    3    3  502    0 -0.52719676580E+03 -0.38580885922E+03  0.29089529693E+03  0.71512584873E+03  0.50400001928E-02 0.  1.
       -1    1    3    3    0  502  0.52719676580E+03  0.38580885922E+03  0.48603362197E+03  0.81425646294E+03  0.50400001928E-02 0. -1.
</event>
<event>
 5   0  0.6007125E-04  0.1289519E+04  0.7818609E-02  0.9037918E-01
       -2   -1    0    0    0  501  0.00000000000E+00  0.00000000000E+00  0.19197350407E+03  0.19197350409E+03  0.25500000920E-02 0. -1.
        2   -1    0    0  501    0  0.00000000000E+00  0.00000000000E+00 -0.21654789626E+04  0.21654789626E+04  0.25500000920E-02 0.  1.
    10030    2    1    2    0    0  0.00000000000E+00  0.00000000000E+00 -0.19735054585E+04  0.23574524666E+04  0.12895186458E+04 0.  0.
        5    1    3    3  502    0  0.85611660152E+02  0.39529065927E+03 -0.19046815481E+04  0.19471563756E+04  0.46999998093E+01 0.  1.
       -5    1    3    3    0  502 -0.85611660152E+02 -0.39529065927E+03 -0.68823910437E+02  0.41029609102E+03  0.46999998093E+01 0. -1.
</event>
<event>
 5   0  0.6007125E-04  0.1302657E+04  0.7818609E-02  0.9027461E-01
        2   -1    0    0  501    0  0.00000000000E+00  0.00000000000E+00  0.23017992259E+04  0.23017992259E+04  0.25500000920E-02 0.  1.
       -2   -1    0    0    0  501  0.00000000000E+00  0.00000000000E+00 -0.18430318897E+03  0.18430318899E+03  0.25500000920E-02 0. -1.
    10030    2    1    2    0    0  0.00000000000E+00  0.00000000000E+00  0.21174960369E+04  0.24861024149E+04  0.13026571886E+04 0.  0.
        5    1    3    3  502    0  0.99017740254E+01 -0.53482774985E+02  0.22974248221E+04  0.22980734009E+04  0.46999998093E+01 0.  1.
       -5    1    3    3    0  502 -0.99017740254E+01  0.53482774985E+02 -0.17992878524E+03  0.18802901400E+03  0.46999998093E+01 0. -1.
</event>
<event>
 5   0  0.5384960E-04  0.1276180E+04  0.7818609E-02  0.9048671E-01
       -2   -1    0    0    0  501  0.00000000000E+00  0.00000000000E+00  0.22843916928E+03  0.22843916930E+03  0.25500000920E-02 0. -1.
        2   -1    0    0  501    0  0.00000000000E+00  0.00000000000E+00 -0.17823512919E+04  0.17823512919E+04  0.25500000920E-02 0.  1.
    10030    2    1    2    0    0  0.00000000000E+00  0.00000000000E+00 -0.15539121226E+04  0.20107904612E+04  0.12761800006E+04 0.  0.
        3    1    3    3  502    0 -0.17469784439E+03 -0.17387333471E+03 -0.17043165019E+04  0.17220470442E+04  0.10100000352E+00 0.  1.
       -3    1    3    3    0  502  0.17469784439E+03  0.17387333471E+03  0.15040437932E+03  0.28874341703E+03  0.10100000352E+00 0. -1.
</event>
<event>
 5   0  0.2255875E-04  0.1278257E+04  0.7818609E-02  0.9046987E-01
       -4   -1    0    0    0  501  0.00000000000E+00  0.00000000000E+00  0.73781295015E+03  0.73781404318E+03  0.12699999809E+01 0.  1.
        4   -1    0    0  501    0  0.00000000000E+00  0.00000000000E+00 -0.55364121664E+03  0.55364267327E+03  0.12699999809E+01 0. -1.
    10030    2    1    2    0    0  0.00000000000E+00  0.00000000000E+00  0.18417173351E+03  0.12914567164E+04  0.12782571036E+04 0.  0.
        1    1    3    3  502    0 -0.49881222684E+02  0.59487415228E+03  0.32274561355E+03  0.67862222518E+03  0.50400001928E-02 0.  1.
       -1    1    3    3    0  502  0.49881222684E+02 -0.59487415228E+03 -0.13857388004E+03  0.61283449126E+03  0.50400001928E-02 0. -1.
</event>
<event>
 5   0  0.3337520E-04  0.1300283E+04  0.7818609E-02  0.9029341E-01
        1   -1    0    0  501    0  0.00000000000E+00  0.00000000000E+00  0.13222914182E+04  0.13222914182E+04  0.50400001928E-02 0.  1.
       -1   -1    0    0    0  501  0.00000000000E+00  0.00000000000E+00 -0.31966018122E+03  0.31966018126E+03  0.50400001928E-02 0. -1.
    10030    2    1    2    0    0  0.00000000000E+00  0.00000000000E+00  0.10026312370E+04  0.16419515995E+04  0.13002829145E+04 0.  0.
        5    1    3    3  502    0 -0.64197317574E+02  0.61329686887E+03  0.24127348214E+03  0.66218526722E+03  0.46999998093E+01 0. -1.
       -5    1    3    3    0  502  0.64197317574E+02 -0.61329686887E+03  0.76135775485E+03  0.97976633225E+03  0.46999998093E+01 0.  1.
</event>
<event>
 5   0  0.6052864E-04  0.1300120E+04  0.7818609E-02  0.9029470E-01
       -2   -1    0    0    0  501  0.00000000000E+00  0.00000000000E+00  0.50929605613E+03  0.50929605614E+03  0.25500000920E-02 0. -1.
        2   -1    0    0  501    0  0.00000000000E+00  0.00000000000E+00 -0.82972929591E+03  0.82972929591E+03  0.25500000920E-02 0.  1.
    10030    2    1    2    0    0  0.00000000000E+00  0.00000000000E+00 -0.32043323977E+03  0.13390253521E+04  0.13001197761E+04 0.  0.
        2    1    3    3  502    0 -0.30350407791E+03  0.54002792563E+03  0.42741182524E+02  0.62094419593E+03  0.25500000920E-02 0. -1.
       -2    1    3    3    0  502  0.30350407791E+03 -0.54002792563E+03 -0.36317442230E+03  0.71808115613E+03  0.25500000920E-02 0.  1.
</event>
<event>
 5   0  0.5957913E-04  0.1299169E+04  0.7818609E-02  0.9030225E-01
       -2   -1    0    0    0  501  0.00000000000E+00  0.00000000000E+00  0.11385582201E+04  0.11385582201E+04  0.25500000920E-02 0. -1.
        2   -1    0    0  501    0  0.00000000000E+00  0.00000000000E+00 -0.37060882968E+03  0.37060882969E+03  0.25500000920E-02 0.  1.
    10030    2    1    2    0    0  0.00000000000E+00  0.00000000000E+00  0.76794939040E+03  0.15091670498E+04  0.12991685487E+04 0.  0.
        1    1    3    3  502    0  0.42391291146E+03  0.51065653803E+02 -0.18469543454E+03  0.46521206032E+03  0.50400001928E-02 0.  1.
       -1    1    3    3    0  502 -0.42391291146E+03 -0.51065653803E+02  0.95264482494E+03  0.10439549895E+04  0.50400001928E-02 0. -1.
</event>
<event>
 5   0  0.3263679E-04  0.1347850E+04  0.7818609E-02  0.8992457E-01
        1   -1    0    0  501    0  0.00000000000E+00  0.00000000000E+00  0.58169752126E+03  0.58169752128E+03  0.50400001928E-02 0. -1.
       -1   -1    0    0    0  501  0.00000000000E+00  0.00000000000E+00 -0.78077541909E+03  0.78077541911E+03  0.50400001928E-02 0.  1.
    10030    2    1    2    0    0  0.00000000000E+00  0.00000000000E+00 -0.19907789783E+03  0.13624729404E+04  0.13478503270E+04 0.  0.
        2    1    3    3  502    0  0.74117386311E+01  0.65931648508E+03  0.41335683684E+02  0.66065255628E+03  0.25500000920E-02 0. -1.
       -2    1    3    3    0  502 -0.74117386311E+01 -0.65931648508E+03 -0.24041358152E+03  0.70182038411E+03  0.25500000920E-02 0.  1.
</event>
<event>
 5   0  0.3335747E-04  0.1304554E+04  0.7818609E-02  0.9025962E-01
       -1   -1    0    0    0  501  0.00000000000E+00  0.00000000000E+00  0.73871573836E+03  0.73871573838E+03  0.50400001928E-02 0.  1.
        1   -1    0    0  501    0  0.00000000000E+00  0.00000000000E+00 -0.57595241511E+03  0.57595241513E+03  0.50400001928E-02 0. -1.
    10030    2    1    2    0    0  0.00000000000E+00  0.00000000000E+00  0.16276332325E+03  0.13146681535E+04  0.13045537377E+04 0.  0.
        3    1    3    3  502    0  0.13092390993E+03 -0.55923651223E+03 -0.23017310717E+03  0.61876184132E+03  0.10100000352E+00 0. -1.
       -3    1    3    3    0  502 -0.13092390993E+03  0.55923651223E+03  0.39293643042E+03  0.69590631220E+03  0.10100000352E+00 0.  1.
</event>
<event>
 5   0  0.6052864E-04  0.1299581E+04  0.7818609E-02  0.9029897E-01
       -2   -1    0    0    0  501  0.00000000000E+00  0.00000000000E+00  0.72312920012E+03  0.72312920013E+03  0.25500000920E-02 0.  1.
        2   -1    0    0  501    0  0.00000000000E+00  0.00000000000E+00 -0.58388982588E+03  0.58388982588E+03  0.25500000920E-02 0. -1.
    10030    2    1    2    0    0  0.00000000000E+00  0.00000000000E+00  0.13923937425E+03  0.13070190260E+04  0.12995811368E+04 0.  0.
        2    1    3    3  502    0  0.11956167441E+03  0.61138517896E+03 -0.11621052481E+03  0.63371264555E+03  0.25500000920E-02 0.  1.
       -2    1    3    3    0  502 -0.11956167441E+03 -0.61138517896E+03  0.25544989905E+03  0.67330638047E+03  0.25500000920E-02 0. -1.
</event>
<event>
 5   0  0.3403833E-04  0.1294415E+04  0.7818609E-02  0.9034006E-01
        1   -1    0    0  501    0  0.00000000000E+00  0.00000000000E+00  0.13492174301E+04  0.13492174301E+04  0.50400001928E-02 0.  1.
       -1   -1    0    0    0  501  0.00000000000E+00  0.00000000000E+00 -0.31045979255E+03  0.31045979259E+03  0.50400001928E-02 0. -1.
    10030    2    1    2    0    0  0.00000000000E+00  0.00000000000E+00  0.10387576375E+04  0.16596772227E+04  0.12944153329E+04 0.  0.
        1    1    3    3  502    0 -0.24347373512E+02  0.63037462548E+03  0.70479860739E+03  0.94588902100E+03  0.50400001928E-02 0.  1.
       -1    1    3    3    0  502  0.24347373512E+02 -0.63037462548E+03  0.33395903016E+03  0.71378820170E+03  0.50400001928E-02 0. -1.
</event>
<event>
 5   0  0.3403833E-04  0.1301337E+04  0.7818609E-02  0.9028506E-01
        1   -1    0    0  501    0  0.00000000000E+00  0.00000000000E+00  0.74266109455E+03  0.74266109456E+03  0.50400001928E-02 0.  1.
       -1   -1    0    0    0  501  0.00000000000E+00  0.00000000000E+00 -0.57007062995E+03  0.57007062997E+03  0.50400001928E-02 0. -1.
    10030    2    1    2    0    0  0.00000000000E+00  0.00000000000E+00  0.17259046460E+03  0.13127317245E+04  0.13013366636E+04 0.  0.
        1    1    3    3  502    0  0.30837403912E+03 -0.44381923439E+03 -0.27923001836E+03  0.60830869137E+03  0.50400001928E-02 0. -1.
       -1    1    3    3    0  502 -0.30837403912E+03  0.44381923439E+03  0.45182048295E+03  0.70442303317E+03  0.50400001928E-02 0.  1.
</event>
<event>
 5   0  0.3263679E-04  0.1304431E+04  0.7818609E-02  0.9026059E-01
        1   -1    0    0  501    0  0.00000000000E+00  0.00000000000E+00  0.17761872992E+04  0.17761872992E+04  0.50400001928E-02 0. -1.
       -1   -1    0    0    0  501  0.00000000000E+00  0.00000000000E+00 -0.23949333935E+03  0.23949333940E+03  0.50400001928E-02 0.  1.
    10030    2    1    2    0    0  0.00000000000E+00  0.00000000000E+00  0.15366939598E+04  0.20156806386E+04  0.13044309528E+04 0.  0.
        2    1    3    3  502    0 -0.61751175541E+03  0.37995307080E+02  0.10873615296E+04  0.12510473642E+04  0.25500000920E-02 0. -1.
       -2    1    3    3    0  502  0.61751175541E+03 -0.37995307080E+02  0.44933243027E+03  0.76463327441E+03  0.25500000920E-02 0.  1.
</event>
<event>
 5   0  0.5787604E-04  0.1299750E+04  0.7818609E-02  0.9029763E-01
        2   -1    0    0  501    0  0.00000000000E+00  0.00000000000E+00  0.77324667527E+03  0.77324667527E+03  0.25500000920E-02 0.  1.
       -2   -1    0    0    0  501  0.00000000000E+00  0.00000000000E+00 -0.54618762989E+03  0.54618762990E+03  0.25500000920E-02 0. -1.
    10030    2    1    2    0    0  0.00000000000E+00  0.00000000000E+00  0.22705904538E+03  0.13194343052E+04  0.12997503897E+04 0.  0.
        4    1    3    3  502    0 -0.54838005458E+03 -0.26918500497E+03 -0.11153717821E+03  0.62098583413E+03  0.12699999809E+01 0. -1.
       -4    1    3    3    0  502  0.54838005458E+03  0.26918500497E+03  0.33859622359E+03  0.69844847104E+03  0.12699999809E+01 0.  1.
</event>
<event>
 5   0  0.6007125E-04  0.1285684E+04  0.7818609E-02  0.9040995E-01
        2   -1    0    0  501    0  0.00000000000E+00  0.00000000000E+00  0.11563978853E+04  0.11563978853E+04  0.25500000920E-02 0. -1.
       -2   -1    0    0    0  501  0.00000000000E+00  0.00000000000E+00 -0.35735630042E+03  0.35735630042E+03  0.25500000920E-02 0.  1.
    10030    2    1    2    0    0  0.00000000000E+00  0.00000000000E+00  0.79904158489E+03  0.15137541857E+04  0.12856843627E+04 0.  0.
        5    1    3    3  502    0  0.88441292205E+01 -0.50835621932E+03 -0.63599514843E+02  0.51241706903E+03  0.46999998093E+01 0.  1.
       -5    1    3    3    0  502 -0.88441292205E+01  0.50835621932E+03  0.86264109973E+03  0.10013371167E+04  0.46999998093E+01 0. -1.
</event>
<event>
 5   0  0.5787604E-04  0.1296146E+04  0.7818609E-02  0.9032627E-01
       -2   -1    0    0    0  501  0.00000000000E+00  0.00000000000E+00  0.64231498188E+03  0.64231498188E+03  0.25500000920E-02 0. -1.
        2   -1    0    0  501    0  0.00000000000E+00  0.00000000000E+00 -0.65388279011E+03  0.65388279011E+03  0.25500000920E-02 0.  1.
    10030    2    1    2    0    0  0.00000000000E+00  0.00000000000E+00 -0.11567808227E+02  0.12961977720E+04  0.12961461530E+04 0.  0.
        4    1    3    3  502    0  0.46092405098E+03 -0.21336898517E+03 -0.40831676004E+03  0.65169125669E+03  0.12699999809E+01 0.  1.
       -4    1    3    3    0  502 -0.46092405098E+03  0.21336898517E+03  0.39674895182E+03  0.64450651531E+03  0.12699999809E+01 0. -1.
</event>
<event>
 5   0  0.5957913E-04  0.1286509E+04  0.7818609E-02  0.9040332E-01
       -2   -1    0    0    0  501  0.00000000000E+00  0.00000000000E+00  0.28279808650E+03  0.28279808651E+03  0.25500000920E-02 0. -1.
        2   -1    0    0  501    0  0.00000000000E+00  0.00000000000E+00 -0.14631518593E+04  0.14631518593E+04  0.25500000920E-02 0.  1.
    10030    2    1    2    0    0  0.00000000000E+00  0.00000000000E+00 -0.11803537728E+04  0.17459499458E+04  0.12865093021E+04 0.  0.
        1    1    3    3  502    0 -0.53727627965E+03  0.32267937977E+03 -0.39356386254E+03  0.74005425256E+03  0.50400001928E-02 0. -1.
       -1    1    3    3    0  502  0.53727627965E+03 -0.32267937977E+03 -0.78678991027E+03  0.10058956933E+04  0.50400001928E-02 0.  1.
</event>
<event>
 5   0  0.6007125E-04  0.1303491E+04  0.7818609E-02  0.9026802E-01
        2   -1    0    0  501    0  0.00000000000E+00  0.00000000000E+00  0.10691198594E+04  0.10691198594E+04  0.25500000920E-02 0.  1.
       -2   -1    0    0    0  501  0.00000000000E+00  0.00000000000E+00 -0.39731000255E+03  0.39731000256E+03  0.25500000920E-02 0. -1.
    10030    2    1    2    0    0  0.00000000000E+00  0.00000000000E+00  0.67180985688E+03  0.14664298620E+04  0.13034907197E+04 0.  0.
        5    1    3    3  502    0 -0.64045488957E+03  0.11553154283E+03  0.37519829405E+03  0.75121624904E+03  0.46999998093E+01 0.  1.
       -5    1    3    3    0  502  0.64045488957E+03 -0.11553154283E+03  0.29661156283E+03  0.71521361296E+03  0.46999998093E+01 0. -1.
</event>
<event>
 5   0  0.5384960E-04  0.1299726E+04  0.7818609E-02  0.9029783E-01
        2   -1    0    0  501    0  0.00000000000E+00  0.00000000000E+00  0.65897854022E+03  0.65897854022E+03  0.25500000920E-02 0. -1.
       -2   -1    0    0    0  501  0.00000000000E+00  0.00000000000E+00 -0.64087347834E+03  0.64087347834E+03  0.25500000920E-02 0.  1.
    10030    2    1    2    0    0  0.00000000000E+00  0.00000000000E+00  0.18105061879E+02  0.12998520186E+04  0.12997259238E+04 0.  0.
        3    1    3    3  502    0  0.54532780043E+03 -0.32063574715E+03 -0.13973073871E+03  0.64785367315E+03  0.10100000352E+00 0.  1.
       -3    1    3    3    0  502 -0.54532780043E+03  0.32063574715E+03  0.15783580059E+03  0.65199834541E+03  0.10100000352E+00 0. -1.
</event>
<event>
 5   0  0.5787604E-04  0.1291547E+04  0.7818609E-02  0.9036295E-01
        2   -1    0    0  501    0  0.00000000000E+00  0.00000000000E+00  0.59588064868E+03  0.59588064868E+03  0.25500000920E-02 0.  1.
       -2   -1    0    0    0  501  0.00000000000E+00  0.00000000000E+00 -0.69984397273E+03  0.69984397274E+03  0.25500000920E-02 0. -1.
    10030    2    1    2    0    0  0.00000000000E+00  0.00000000000E+00 -0.10396332406E+03  0.12957246214E+04  0.12915471040E+04 0.  0.
        4    1    3    3  502    0 -0.88723236239E+02  0.63964829681E+03 -0.51646987410E+02  0.64783545787E+03  0.12699999809E+01 0. -1.
       -4    1    3    3    0  502  0.88723236239E+02 -0.63964829681E+03 -0.52316336646E+02  0.64788916355E+03  0.12699999809E+01 0.  1.
</event>
<event>
 5   0  0.3335747E-04  0.1300708E+04  0.7818609E-02  0.9029004E-01
        1   -1    0    0  501    0  0.00000000000E+00  0.00000000000E+00  0.23112575986E+04  0.23112575986E+04  0.50400001928E-02 0. -1.
       -1   -1    0    0    0  501  0.00000000000E+00  0.00000000000E+00 -0.18300002943E+03  0.18300002950E+03  0.50400001928E-02 0.  1.
    10030    2    1    2    0    0  0.00000000000E+00  0.00000000000E+00  0.21282575691E+04  0.24942576281E+04  0.13007078206E+04 0.  0.
        3    1    3    3  502    0  0.22577508281E+03  0.59916397643E+03  0.12826725282E+04  0.14336040888E+04  0.10100000352E+00 0. -1.
       -3    1    3    3    0  502 -0.22577508281E+03 -0.59916397643E+03  0.84558504091E+03  0.10606535392E+04  0.10100000352E+00 0.  1.
</event>
<event>
 5   0  0.3263679E-04  0.1331245E+04  0.7818609E-02  0.9005148E-01
       -1   -1    0    0    0  501  0.00000000000E+00  0.00000000000E+00  0.48906858062E+03  0.48906858064E+03  0.50400001928E-02 0.  1.
        1   -1    0    0  501    0  0.00000000000E+00  0.00000000000E+00 -0.90591267487E+03  0.90591267489E+03  0.50400001928E-02 0. -1.
    10030    2    1    2    0    0  0.00000000000E+00  0.00000000000E+00 -0.41684409426E+03  0.13949812555E+04  0.13312451706E+04 0.  0.
        2    1    3    3  502    0 -0.65780067907E+03 -0.60438370806E+02 -0.29418741320E+03  0.72311877595E+03  0.25500000920E-02 0.  1.
       -2    1    3    3    0  502  0.65780067907E+03  0.60438370806E+02 -0.12265668106E+03  0.67186247957E+03  0.25500000920E-02 0. -1.
</event>
<event>
 5   0  0.3335747E-04  0.1296396E+04  0.7818609E-02  0.9032428E-01
       -1   -1    0    0    0  501  0.00000000000E+00  0.00000000000E+00  0.32616594725E+03  0.32616594729E+03  0.50400001928E-02 0. -1.
        1   -1    0    0  501    0  0.00000000000E+00  0.00000000000E+00 -0.12881811979E+04  0.12881811979E+04  0.50400001928E-02 0.  1.
    10030    2    1    2    0    0  0.00000000000E+00  0.00000000000E+00 -0.96201525066E+03  0.16143471452E+04  0.12963962985E+04 0.  0.
        3    1    3    3  502    0  0.10389522263E+03 -0.16709006429E+03 -0.12500965328E+04  0.12654859376E+04  0.10100000352E+00 0.  1.
       -3    1    3    3    0  502 -0.10389522263E+03  0.16709006429E+03  0.28808128210E+03  0.34886120759E+03  0.10100000352E+00 0. -1.
</event>
<event>
 5   0  0.5787604E-04  0.1299494E+04  0.7818609E-02  0.9029967E-01
       -2   -1    0    0    0  501  0.00000000000E+00  0.00000000000E+00  0.25249391628E+03  0.25249391629E+03  0.25500000920E-02 0. -1.
        2   -1    0    0  501    0  0.00000000000E+00  0.00000000000E+00 -0.16720041167E+04  0.16720041168E+04  0.25500000920E-02 0.  1.
    10030    2    1    2    0    0  0.00000000000E+00  0.00000000000E+00 -0.14195102005E+04  0.19244980330E+04  0.12994935436E+04 0.  0.
        4    1    3    3  502    0 -0.64053451082E+03  0.78285818371E+01 -0.87078870938E+03  0.10810274444E+04  0.12699999809E+01 0.  1.
       -4    1    3    3    0  502  0.64053451082E+03 -0.78285818371E+01 -0.54872149109E+03  0.84347058865E+03  0.12699999809E+01 0. -1.
</event>
<event>
 5   0  0.3403833E-04  0.1303538E+04  0.7818609E-02  0.9026764E-01
        1   -1    0    0  501    0  0.00000000000E+00  0.00000000000E+00  0.10267305601E+04  0.10267305601E+04  0.50400001928E-02 0.  1.
       -1   -1    0    0    0  501  0.00000000000E+00  0.00000000000E+00 -0.41374326283E+03  0.41374326286E+03  0.50400001928E-02 0. -1.
    10030    2    1    2    0    0  0.00000000000E+00  0.00000000000E+00  0.61298729723E+03  0.14404738229E+04  0.13035380347E+04 0.  0.
        1    1    3    3  502    0 -0.44299958453E+02 -0.16409792152E+03 -0.38882059486E+03  0.42434899456E+03  0.50400001928E-02 0. -1.
       -1    1    3    3    0  502  0.44299958453E+02  0.16409792152E+03  0.10018078921E+04  0.10161248284E+04  0.50400001928E-02 0.  1.
</event>
<event>
 5   0  0.3337520E-04  0.1297887E+04  0.7818609E-02  0.9031243E-01
       -1   -1    0    0    0  501  0.00000000000E+00  0.00000000000E+00  0.40428725883E+03  0.40428725886E+03  0.50400001928E-02 0.  1.
        1   -1    0    0  501    0  0.00000000000E+00  0.00000000000E+00 -0.10416542401E+04  0.10416542402E+04  0.50400001928E-02 0. -1.
    10030    2    1    2    0    0  0.00000000000E+00  0.00000000000E+00 -0.63736698131E+03  0.14459414990E+04  0.12978868016E+04 0.  0.
        5    1    3    3  502    0  0.25669010663E+03  0.64165180754E+02  0.34144484095E+03  0.43198802145E+03  0.46999998093E+01 0.  1.
       -5    1    3    3    0  502 -0.25669010663E+03 -0.64165180754E+02 -0.97881182226E+03  0.10139534776E+04  0.46999998093E+01 0. -1.
</event>
<event>
 5   0  0.3403833E-04  0.1294423E+04  0.7818609E-02  0.9034000E-01
        1   -1    0    0  501    0  0.00000000000E+00  0.00000000000E+00  0.90394333931E+03  0.90394333933E+03  0.50400001928E-02 0.  1.
       -1   -1    0    0    0  501  0.00000000000E+00  0.00000000000E+00 -0.46339480229E+03  0.46339480232E+03  0.50400001928E-02 0. -1.
    10030    2    1    2    0    0  0.00000000000E+00  0.00000000000E+00  0.44054853702E+03  0.13673381416E+04  0.12944228753E+04 0.  0.
        1    1    3    3  502    0  0.35740649919E+03 -0.13020397371E+02 -0.34953121447E+03  0.50008099976E+03  0.50400001928E-02 0. -1.
       -1    1    3    3    0  502 -0.35740649919E+03  0.13020397371E+02  0.79007975149E+03  0.86725714188E+03  0.50400001928E-02 0.  1.
</event>
<event>
 5   0  0.3263679E-04  0.1296876E+04  0.7818609E-02  0.9032046E-01
       -1   -1    0    0    0  501  0.00000000000E+00  0.00000000000E+00  0.48126501549E+03  0.48126501551E+03  0.50400001928E-02 0. -1.
        1   -1    0    0  501    0  0.00000000000E+00  0.00000000000E+00 -0.87367999494E+03  0.87367999496E+03  0.50400001928E-02 0.  1.
    10030    2    1    2    0    0  0.00000000000E+00  0.00000000000E+00 -0.39241497946E+03  0.13549450105E+04  0.12968756553E+04 0.  0.
        2    1    3    3  502    0  0.33758462079E+03 -0.44094022991E+03 -0.54598131265E+03  0.77877291704E+03  0.25500000920E-02 0.  1.
       -2    1    3    3    0  502 -0.33758462079E+03  0.44094022991E+03  0.15356633319E+03  0.57617209343E+03  0.25500000920E-02 0. -1.
</event>
<event>
 5   0  0.6007125E-04  0.1305747E+04  0.7818609E-02  0.9025020E-01
        2   -1    0    0  501    0  0.00000000000E+00  0.00000000000E+00  0.57705187206E+03  0.57705187207E+03  0.25500000920E-02 0.  1.
       -2   -1    0    0    0  501  0.00000000000E+00  0.00000000000E+00 -0.73865757208E+03  0.73865757208E+03  0.25500000920E-02 0. -1.
    10030    2    1    2    0    0  0.00000000000E+00  0.00000000000E+00 -0.16160570001E+03  0.13157094442E+04  0.13057468894E+04 0.  0.
        5    1    3    3  502    0 -0.75813548222E+02 -0.63453095045E+03 -0.21540507983E+03  0.67438761820E+03  0.46999998093E+01 0.  1.
       -5    1    3    3    0  502  0.75813548222E+02  0.63453095045E+03  0.53799379814E+02  0.64132182595E+03  0.46999998093E+01 0. -1.
</event>
<event>
 5   0  0.5787604E-04  0.1301367E+04  0.7818609E-02  0.9028481E-01
        2   -1    0    0  501    0  0.00000000000E+00  0.00000000000E+00  0.58047689578E+03  0.58047689578E+03  0.25500000920E-02 0.  1.
       -2   -1    0    0    0  501  0.00000000000E+00  0.00000000000E+00 -0.72938184218E+03  0.72938184218E+03  0.25500000920E-02 0. -1.
    10030    2    1    2    0    0  0.00000000000E+00  0.00000000000E+00 -0.14890494640E+03  0.13098587380E+04  0.13013674463E+04 0.  0.
        4    1    3    3  502    0 -0.49780355880E+03 -0.12289709807E+03 -0.47766038661E+03  0.70076610770E+03  0.12699999809E+01 0. -1.
       -4    1    3    3    0  502  0.49780355880E+03  0.12289709807E+03  0.32875544021E+03  0.60909263026E+03  0.12699999809E+01 0.  1.
</event>
<event>
 5   0  0.3335747E-04  0.1318932E+04  0.7818609E-02  0.9014685E-01
       -1   -1    0    0    0  501  0.00000000000E+00  0.00000000000E+00  0.95476157523E+03  0.95476157525E+03  0.50400001928E-02 0.  1.
        1   -1    0    0  501    0  0.00000000000E+00  0.00000000000E+00 -0.45550148227E+03  0.45550148230E+03  0.50400001928E-02 0. -1.
    10030    2    1    2    0    0  0.00000000000E+00  0.00000000000E+00  0.49926009296E+03  0.14102630575E+04  0.13189318599E+04 0.  0.
        3    1    3    3  502    0 -0.29850799885E+03  0.22170198294E+01 -0.37912258643E+03  0.48254107214E+03  0.10100000352E+00 0. -1.
       -3    1    3    3    0  502  0.29850799885E+03 -0.22170198294E+01  0.87838267939E+03  0.92772198541E+03  0.10100000352E+00 0.  1.
</event>
<event>
 5   0  0.3263679E-04  0.1300706E+04  0.7818609E-02  0.9029006E-01
       -1   -1    0    0    0  501  0.00000000000E+00  0.00000000000E+00  0.43203604458E+03  0.43203604461E+03  0.50400001928E-02 0.  1.
        1   -1    0    0  501    0  0.00000000000E+00  0.00000000000E+00 -0.97898961598E+03  0.97898961599E+03  0.50400001928E-02 0. -1.
    10030    2    1    2    0    0  0.00000000000E+00  0.00000000000E+00 -0.54695357140E+03  0.14110256606E+04  0.13007056568E+04 0.  0.
        2    1    3    3  502    0 -0.32224549630E+03  0.12423035655E+03  0.32433772478E+03  0.47378296835E+03  0.25500000920E-02 0.  1.
       -2    1    3    3    0  502  0.32224549630E+03 -0.12423035655E+03 -0.87129129618E+03  0.93724269226E+03  0.25500000920E-02 0. -1.
</event>
<event>
 5   0  0.5787604E-04  0.1294500E+04  0.7818609E-02  0.9033938E-01
        2   -1    0    0  501    0  0.00000000000E+00  0.00000000000E+00  0.38435379729E+03  0.38435379729E+03  0.25500000920E-02 0. -1.
       -2   -1    0    0    0  501  0.00000000000E+00  0.00000000000E+00 -0.10899661676E+04  0.10899661676E+04  0.25500000920E-02 0.  1.
    10030    2    1    2    0    0  0.00000000000E+00  0.00000000000E+00 -0.70561237027E+03  0.14743199649E+04  0.12945001127E+04 0.  0.
        4    1    3    3  502    0  0.39290721858E+03 -0.51239578196E+03 -0.30180253192E+03  0.71274953592E+03  0.12699999809E+01 0.  1.
       -4    1    3    3    0  502 -0.39290721858E+03  0.51239578196E+03 -0.40380983835E+03  0.76157042894E+03  0.12699999809E+01 0. -1.
</event>
<event>
 5   0  0.3274879E-04  0.1290566E+04  0.7818609E-02  0.9037080E-01
       -1   -1    0    0    0  501  0.00000000000E+00  0.00000000000E+00  0.10328663114E+04  0.10328663114E+04  0.50400001928E-02 0.  1.
        1   -1    0    0  501    0  0.00000000000E+00  0.00000000000E+00 -0.40314058798E+03  0.40314058802E+03  0.50400001928E-02 0. -1.
    10030    2    1    2    0    0  0.00000000000E+00  0.00000000000E+00  0.62972572343E+03  0.14360068994E+04  0.12905662821E+04 0.  0.
        4    1    3    3  502    0  0.62255624628E+02 -0.60331729828E+03  0.55996209457E+03  0.82548572699E+03  0.12699999809E+01 0.  1.
       -4    1    3    3    0  502 -0.62255624628E+02  0.60331729828E+03  0.69763628857E+02  0.61052117245E+03  0.12699999809E+01 0. -1.
</event>
<event>
 5   0  0.5957913E-04  0.1325679E+04  0.7818609E-02  0.9009446E-01
       -2   -1    0    0    0  501  0.00000000000E+00  0.00000000000E+00  0.43526281383E+03  0.43526281384E+03  0.25500000920E-02 0. -1.
        2   -1    0    0  501    0  0.00000000000E+00  0.00000000000E+00 -0.10094043050E+04  0.10094043050E+04  0.25500000920E-02 0.  1.
    10030    2    1    2    0    0  0.00000000000E+00  0.00000000000E+00 -0.57414149117E+03  0.14446671188E+04  0.13256789326E+04 0.  0.
        1    1    3    3  502    0 -0.11907016376E+03 -0.22424694099E+03 -0.95431122096E+03  0.98750913967E+03  0.50400001928E-02 0.  1.
       -1    1    3    3    0  502  0.11907016376E+03  0.22424694099E+03  0.38016972980E+03  0.45715797917E+03  0.50400001928E-02 0. -1.
</event>
<event>
 5   0  0.3274879E-04  0.1300165E+04  0.7818609E-02  0.9029434E-01
       -1   -1    0    0    0  501  0.00000000000E+00  0.00000000000E+00  0.22077094500E+03  0.22077094506E+03  0.50400001928E-02 0.  1.
        1   -1    0    0  501    0  0.00000000000E+00  0.00000000000E+00 -0.19142338814E+04  0.19142338814E+04  0.50400001928E-02 0. -1.
    10030    2    1    2    0    0  0.00000000000E+00  0.00000000000E+00 -0.16934629364E+04  0.21350048264E+04  0.13001649480E+04 0.  0.
        4    1    3    3  502    0 -0.40034458701E+03  0.31430160168E+03 -0.15108080218E+04  0.15942408151E+04  0.12699999809E+01 0. -1.
       -4    1    3    3    0  502  0.40034458701E+03 -0.31430160168E+03 -0.18265491460E+03  0.54076401128E+03  0.12699999809E+01 0.  1.
</event>
<event>
 5   0  0.3403833E-04  0.1299731E+04  0.7818609E-02  0.9029779E-01
       -1   -1    0    0    0  501  0.00000000000E+00  0.00000000000E+00  0.10914820564E+04  0.10914820564E+04  0.50400001928E-02 0.  1.
        1   -1    0    0  501    0  0.00000000000E+00  0.00000000000E+00 -0.38692797464E+03  0.38692797467E+03  0.50400001928E-02 0. -1.
    10030    2    1    2    0    0  0.00000000000E+00  0.00000000000E+00  0.70455408176E+03  0.14784100311E+04  0.12997306513E+04 0.  0.
        1    1    3    3  502    0  0.10485590474E+03 -0.59988668945E+03  0.94227945876E+02  0.61622861565E+03  0.50400001928E-02 0. -1.
       -1    1    3    3    0  502 -0.10485590474E+03  0.59988668945E+03  0.61032613588E+03  0.86218141543E+03  0.50400001928E-02 0.  1.
</event>
<event>
 5   0  0.5384960E-04  0.1297702E+04  0.7818609E-02  0.9031390E-01
       -2   -1    0    0    0  501  0.00000000000E+00  0.00000000000E+00  0.49955974862E+03  0.49955974863E+03  0.25500000920E-02 0.  1.
        2   -1    0    0  501    0  0.00000000000E+00  0.00000000000E+00 -0.84275695362E+03  0.84275695362E+03  0.25500000920E-02 0. -1.
    10030    2    1    2    0    0  0.00000000000E+00  0.00000000000E+00 -0.34319720499E+03  0.13423167022E+04  0.12977017406E+04 0.  0.
        3    1    3    3  502    0 -0.17809067540E+03  0.59754245018E+01 -0.81695178544E+03  0.83615920990E+03  0.10100000352E+00 0. -1.
       -3    1    3    3    0  502  0.17809067540E+03 -0.59754245018E+01  0.47375458045E+03  0.50615749235E+03  0.10100000352E+00 0.  1.
</event>
<event>
 5   0  0.3337520E-04  0.1301141E+04  0.7818609E-02  0.9028661E-01
        1   -1    0    0  501    0  0.00000000000E+00  0.00000000000E+00  0.13164344746E+04  0.13164344746E+04  0.50400001928E-02 0.  1.
       -1   -1    0    0    0  501  0.00000000000E+00  0.00000000000E+00 -0.32150649076E+03  0.32150649080E+03  0.50400001928E-02 0. -1.
    10030    2    1    2    0    0  0.00000000000E+00  0.00000000000E+00  0.99492798382E+03  0.16379409654E+04  0.13011413886E+04 0.  0.
        5    1    3    3  502    0 -0.15121806897E+03  0.48114968948E+03  0.10147395809E+04  0.11331771420E+04  0.46999998093E+01 0.  1.
       -5    1    3    3    0  502  0.15121806897E+03 -0.48114968948E+03 -0.19811597066E+02  0.50476382343E+03  0.46999998093E+01 0. -1.
</event>
<event>
 5   0  0.5384960E-04  0.1227640E+04  0.7818609E-02  0.9089002E-01
        2   -1    0    0  501    0  0.00000000000E+00  0.00000000000E+00  0.58189520688E+03  0.58189520689E+03  0.25500000920E-02 0. -1.
       -2   -1    0    0    0  501  0.00000000000E+00  0.00000000000E+00 -0.64749601083E+03  0.64749601083E+03  0.25500000920E-02 0.  1.
    10030    2    1    2    0    0  0.00000000000E+00  0.00000000000E+00 -0.65600803946E+02  0.12293912177E+04  0.12276397276E+04 0.  0.
        3    1    3    3  502    0  0.32932457406E+02  0.57992966713E+03  0.16590610081E+03  0.60409255090E+03  0.10100000352E+00 0. -1.
       -3    1    3    3    0  502 -0.32932457406E+02 -0.57992966713E+03 -0.23150690476E+03  0.62529866682E+03  0.10100000352E+00 0.  1.
</event>
<event>
 5   0  0.5787604E-04  0.1301381E+04  0.7818609E-02  0.9028471E-01
       -2   -1    0    0    0  501  0.00000000000E+00  0.00000000000E+00  0.18734521078E+03  0.18734521079E+03  0.25500000920E-02 0.  1.
        2   -1    0    0  501    0  0.00000000000E+00  0.00000000000E+00 -0.22599887456E+04  0.22599887456E+04  0.25500000920E-02 0. -1.
    10030    2    1    2    0    0  0.00000000000E+00  0.00000000000E+00 -0.20726435348E+04  0.24473339564E+04  0.13013809095E+04 0.  0.
        4    1    3    3  502    0  0.45163781673E+03 -0.44009067561E+03 -0.73460980799E+03  0.96814756269E+03  0.12699999809E+01 0. -1.
       -4    1    3    3    0  502 -0.45163781673E+03  0.44009067561E+03 -0.13380337268E+04  0.14791863937E+04  0.12699999809E+01 0.  1.
</event>
<event>
 5   0  0.5384960E-04  0.1299376E+04  0.7818609E-02  0.9030060E-01
       -2   -1    0    0    0  501  0.00000000000E+00  0.00000000000E+00  0.19422981352E+03  0.19422981354E+03  0.25500000920E-02 0.  1.
        2   -1    0    0  501    0  0.00000000000E+00  0.00000000000E+00 -0.21731716124E+04  0.21731716124E+04  0.25500000920E-02 0. -1.
    10030    2    1    2    0    0  0.00000000000E+00  0.00000000000E+00 -0.19789417989E+04  0.23674014260E+04  0.12993763382E+04 0.  0.
        3    1    3    3  502    0  0.21320223977E+03 -0.11884417469E+03  0.10751308073E+03  0.26671746405E+03  0.10100000352E+00 0.  1.
       -3    1    3    3    0  502 -0.21320223977E+03  0.11884417469E+03 -0.20864548796E+04  0.21006839619E+04  0.10100000352E+00 0. -1.
</event>
<event>
 5   0  0.5957913E-04  0.1298106E+04  0.7818609E-02  0.9031068E-01
        2   -1    0    0  501    0  0.00000000000E+00  0.00000000000E+00  0.74602477415E+03  0.74602477416E+03  0.25500000920E-02 0. -1.
       -2   -1    0    0    0  501  0.00000000000E+00  0.00000000000E+00 -0.56468618025E+03  0.56468618026E+03  0.25500000920E-02 0.  1.
    10030    2    1    2    0    0  0.00000000000E+00  0.00000000000E+00  0.18133859390E+03  0.13107109544E+04  0.12981061283E+04 0.  0.
        1    1    3    3  502    0 -0.56002605700E+03 -0.26176671129E+03 -0.10903617257E+03  0.62772596140E+03  0.50400001928E-02 0.  1.
       -1    1    3    3    0  502  0.56002605700E+03  0.26176671129E+03  0.29037476647E+03  0.68298499302E+03  0.50400001928E-02 0. -1.
</event>
<event>
 5   0  0.3263679E-04  0.1301766E+04  0.7818609E-02  0.9028166E-01
        1   -1    0    0  501    0  0.00000000000E+00  0.00000000000E+00  0.19463025186E+04  0.19463025186E+04  0.50400001928E-02 0.  1.
       -1   -1    0    0    0  501  0.00000000000E+00  0.00000000000E+00 -0.21766849560E+03  0.21766849566E+03  0.50400001928E-02 0. -1.
    10030    2    1    2    0    0  0.00000000000E+00  0.00000000000E+00  0.17286340230E+04  0.21639710143E+04  0.13017660946E+04 0.  0.
        2    1    3    3  502    0 -0.43132914119E+03  0.30759161515E+03  0.14929154649E+04  0.15841256311E+04  0.25500000920E-02 0.  1.
       -2    1    3    3    0  502  0.43132914119E+03 -0.30759161515E+03  0.23571855812E+03  0.57984538318E+03  0.25500000920E-02 0. -1.
</event>
<event>
 5   0  0.3274879E-04  0.1300583E+04  0.7818609E-02  0.9029103E-01
       -1   -1    0    0    0  501  0.00000000000E+00  0.00000000000E+00  0.61921105615E+03  0.61921105617E+03  0.50400001928E-02 0. -1.
        1   -1    0    0  501    0  0.00000000000E+00  0.00000000000E+00 -0.68293202993E+03  0.68293202995E+03  0.50400001928E-02 0.  1.
    10030    2    1    2    0    0  0.00000000000E+00  0.00000000000E+00 -0.63720973786E+02  0.13021430861E+04  0.13005830440E+04 0.  0.
        4    1    3    3  502    0 -0.36988113222E+03 -0.21749128486E+03 -0.52108034838E+03  0.67501174310E+03  0.12699999809E+01 0.  1.
       -4    1    3    3    0  502  0.36988113222E+03  0.21749128486E+03  0.45735937459E+03  0.62713134301E+03  0.12699999809E+01 0. -1.
</event>
<event>
 5   0  0.6007125E-04  0.1295688E+04  0.7818609E-02  0.9032992E-01
        2   -1    0    0  501    0  0.00000000000E+00  0.00000000000E+00  0.38599514917E+03  0.38599514918E+03  0.25500000920E-02 0. -1.
       -2   -1    0    0    0  501  0.00000000000E+00  0.00000000000E+00 -0.10873234223E+04  0.10873234223E+04  0.25500000920E-02 0.  1.
    10030    2    1    2    0    0  0.00000000000E+00  0.00000000000E+00 -0.70132827312E+03  0.14733185715E+04  0.12956875651E+04 0.  0.
        5    1    3    3  502    0 -0.63263036502E+03  0.13475721105E+03 -0.39164358998E+03  0.75616630198E+03  0.46999998093E+01 0.  1.
       -5    1    3    3    0  502  0.63263036502E+03 -0.13475721105E+03 -0.30968468314E+03  0.71715226949E+03  0.46999998093E+01 0. -1.
</event>
<event>
 5   0  0.3403833E-04  0.1291931E+04  0.7818609E-02  0.9035989E-01
        1   -1    0    0  501    0  0.00000000000E+00  0.00000000000E+00  0.96274991255E+03  0.96274991257E+03  0.50400001928E-02 0.  1.
       -1   -1    0    0    0  501  0.00000000000E+00  0.00000000000E+00 -0.43341598980E+03  0.43341598983E+03  0.50400001928E-02 0. -1.
    10030    2    1    2    0    0  0.00000000000E+00  0.00000000000E+00  0.52933392276E+03  0.13961659024E+04  0.12919306581E+04 0.  0.
        1    1    3    3  502    0 -0.27004756321E+03 -0.58603445803E+03  0.29725151284E+03  0.71043686159E+03  0.50400001928E-02 0.  1.
       -1    1    3    3    0  502  0.27004756321E+03  0.58603445803E+03  0.23208240991E+03  0.68572904081E+03  0.50400001928E-02 0. -1.
</event>
<event>
 5   0  0.3274879E-04  0.1300355E+04  0.7818609E-02  0.9029284E-01
       -1   -1    0    0    0  501  0.00000000000E+00  0.00000000000E+00  0.20056480196E+03  0.20056480202E+03  0.50400001928E-02 0. -1.
        1   -1    0    0  501    0  0.00000000000E+00  0.00000000000E+00 -0.21077011002E+04  0.21077011002E+04  0.50400001928E-02 0.  1.
    10030    2    1    2    0    0  0.00000000000E+00  0.00000000000E+00 -0.19071362982E+04  0.23082659022E+04  0.13003548036E+04 0.  0.
        4    1    3    3  502    0  0.44944454643E+03  0.46950991757E+03 -0.92338730190E+03  0.11291969205E+04  0.12699999809E+01 0. -1.
       -4    1    3    3    0  502 -0.44944454643E+03 -0.46950991757E+03 -0.98374899633E+03  0.11790689817E+04  0.12699999809E+01 0.  1.
</event>
<event>
 5   0  0.3337520E-04  0.1301060E+04  0.7818609E-02  0.9028725E-01
       -1   -1    0    0    0  501  0.00000000000E+00  0.00000000000E+00  0.11742896484E+04  0.11742896484E+04  0.50400001928E-02 0.  1.
        1   -1    0    0  501    0  0.00000000000E+00  0.00000000000E+00 -0.36037873798E+03  0.36037873801E+03  0.50400001928E-02 0. -1.
    10030    2    1    2    0    0  0.00000000000E+00  0.00000000000E+00  0.81391091042E+03  0.15346683864E+04  0.13010596013E+04 0.  0.
        5    1    3    3  502    0  0.35804511052E+03 -0.23228637946E+03 -0.17212404562E+03  0.46021955666E+03  0.46999998093E+01 0. -1.
       -5    1    3    3    0  502 -0.35804511052E+03  0.23228637946E+03  0.98603495605E+03  0.10744488298E+04  0.46999998093E+01 0.  1.
</event>
<event>
 5   0  0.5787604E-04  0.1301780E+04  0.7818609E-02  0.9028155E-01
       -2   -1    0    0    0  501  0.00000000000E+00  0.00000000000E+00  0.61426362489E+03  0.61426362490E+03  0.25500000920E-02 0.  1.
        2   -1    0    0  501    0  0.00000000000E+00  0.00000000000E+00 -0.68970054734E+03  0.68970054735E+03  0.25500000920E-02 0. -1.
    10030    2    1    2    0    0  0.00000000000E+00  0.00000000000E+00 -0.75436922450E+02  0.13039641722E+04  0.13017802554E+04 0.  0.
        4    1    3    3  502    0  0.27966805679E+03 -0.33801171003E+03 -0.51934753556E+03  0.67984528659E+03  0.12699999809E+01 0. -1.
       -4    1    3    3    0  502 -0.27966805679E+03  0.33801171003E+03  0.44391061311E+03  0.62411888566E+03  0.12699999809E+01 0.  1.
</event>
<event>
 5   0  0.3403833E-04  0.1300004E+04  0.7818609E-02  0.9029562E-01
        1   -1    0    0  501    0  0.00000000000E+00  0.00000000000E+00  0.57907324616E+03  0.57907324618E+03  0.50400001928E-02 0. -1.
       -1   -1    0    0    0  501  0.00000000000E+00  0.00000000000E+00 -0.72961911046E+03  0.72961911048E+03  0.50400001928E-02 0.  1.
    10030    2    1    2    0    0  0.00000000000E+00  0.00000000000E+00 -0.15054586430E+03  0.13086923567E+04  0.13000044720E+04 0.  0.
        1    1    3    3  502    0 -0.16045207884E+03  0.21846748958E+03  0.51946288496E+03  0.58593054408E+03  0.50400001928E-02 0. -1.
       -1    1    3    3    0  502  0.16045207884E+03 -0.21846748958E+03 -0.67000874926E+03  0.72276181258E+03  0.50400001928E-02 0.  1.
</event>
<event>
 5   0  0.6052864E-04  0.1299378E+04  0.7818609E-02  0.9030059E-01
        2   -1    0    0  501    0  0.00000000000E+00  0.00000000000E+00  0.44679653059E+03  0.44679653060E+03  0.25500000920E-02 0.  1.
       -2   -1    0    0    0  501  0.00000000000E+00  0.00000000000E+00 -0.94471560653E+03  0.94471560654E+03  0.25500000920E-02 0. -1.
    10030    2    1    2    0    0  0.00000000000E+00  0.00000000000E+00 -0.49791907594E+03  0.13915121371E+04  0.12993777825E+04 0.  0.
        2    1    3    3  502    0 -0.36858835460E+03  0.35668548405E+03 -0.67599987186E+03  0.84856215826E+03  0.25500000920E-02 0. -1.
       -2    1    3    3    0  502  0.36858835460E+03 -0.35668548405E+03  0.17808079592E+03  0.54294997887E+03  0.25500000920E-02 0.  1.
</event>
<event>
 5   0  0.6007125E-04  0.1298708E+04  0.7818609E-02  0.9030591E-01
       -2   -1    0    0    0  501  0.00000000000E+00  0.00000000000E+00  0.31422346267E+03  0.31422346268E+03  0.25500000920E-02 0. -1.
        2   -1    0    0  501    0  0.00000000000E+00  0.00000000000E+00 -0.13419122052E+04  0.13419122052E+04  0.25500000920E-02 0.  1.
    10030    2    1    2    0    0  0.00000000000E+00  0.00000000000E+00 -0.10276887425E+04  0.16561356678E+04  0.12987075109E+04 0.  0.
        5    1    3    3  502    0  0.23647807194E+02  0.12903471132E+02  0.31348885376E+03  0.31467931260E+03  0.46999998093E+01 0. -1.
       -5    1    3    3    0  502 -0.23647807194E+02 -0.12903471132E+02 -0.13411775962E+04  0.13414563552E+04  0.46999998093E+01 0.  1.
</event>
<event>
 5   0  0.3335747E-04  0.1298373E+04  0.7818609E-02  0.9030857E-01
       -1   -1    0    0    0  501  0.00000000000E+00  0.00000000000E+00  0.34003279563E+03  0.34003279567E+03  0.50400001928E-02 0.  1.
        1   -1    0    0  501    0  0.00000000000E+00  0.00000000000E+00 -0.12394186440E+04  0.12394186440E+04  0.50400001928E-02 0. -1.
    10030    2    1    2    0    0  0.00000000000E+00  0.00000000000E+00 -0.89938584840E+03  0.15794514397E+04  0.12983728071E+04 0.  0.
        3    1    3    3  502    0 -0.46520572075E+03 -0.32148608813E+03 -0.61801350253E+02  0.56884891190E+03  0.10100000352E+00 0.  1.
       -3    1    3    3    0  502  0.46520572075E+03  0.32148608813E+03 -0.83758449815E+03  0.10106025278E+04  0.10100000352E+00 0. -1.
</event>
<event>
 5   0  0.2255875E-04  0.1304109E+04  0.7818609E-02  0.9026313E-01
       -3   -1    0    0    0  501  0.00000000000E+00  0.00000000000E+00  0.49882355213E+03  0.49882356235E+03  0.10100000352E+00 0. -1.
        3   -1    0    0  501    0  0.00000000000E+00  0.00000000000E+00 -0.85235551108E+03  0.85235551707E+03  0.10100000352E+00 0.  1.
    10030    2    1    2    0    0  0.00000000000E+00  0.00000000000E+00 -0.35353195896E+03  0.13511790794E+04  0.13041089136E+04 0.  0.
        1    1    3    3  502    0 -0.42096845899E+03  0.49709270637E+03 -0.20713983121E+03  0.68353676704E+03  0.50400001928E-02 0.  1.
       -1    1    3    3    0  502  0.42096845899E+03 -0.49709270637E+03 -0.14639212774E+03  0.66764231238E+03  0.50400001928E-02 0. -1.
</event>
<event>
 5   0  0.3337520E-04  0.1297297E+04  0.7818609E-02  0.9031711E-01
        1   -1    0    0  501    0  0.00000000000E+00  0.00000000000E+00  0.12180429385E+04  0.12180429385E+04  0.50400001928E-02 0. -1.
       -1   -1    0    0    0  501  0.00000000000E+00  0.00000000000E+00 -0.34542703873E+03  0.34542703876E+03  0.50400001928E-02 0.  1.
    10030    2    1    2    0    0  0.00000000000E+00  0.00000000000E+00  0.87261589973E+03  0.15634699772E+04  0.12972971368E+04 0.  0.
        5    1    3    3  502    0 -0.17551357367E+03 -0.28076508259E+03  0.11084983327E+04  0.11569030598E+04  0.46999998093E+01 0. -1.
       -5    1    3    3    0  502  0.17551357367E+03  0.28076508259E+03 -0.23588243299E+03  0.40656691742E+03  0.46999998093E+01 0.  1.
</event>
<event>
 5   0  0.6052864E-04  0.1300684E+04  0.7818609E-02  0.9029023E-01
       -2   -1    0    0    0  501  0.00000000000E+00  0.00000000000E+00  0.26935461783E+03  0.26935461784E+03  0.25500000920E-02 0.  1.
        2   -1    0    0  501    0  0.00000000000E+00  0.00000000000E+00 -0.15702146056E+04  0.15702146056E+04  0.25500000920E-02 0. -1.
    10030    2    1    2    0    0  0.00000000000E+00  0.00000000000E+00 -0.13008599878E+04  0.18395692235E+04  0.13006837510E+04 0.  0.
        2    1    3    3  502    0 -0.35684049194E+01 -0.54688670102E+03 -0.11481518833E+04  0.12717509758E+04  0.25500000920E-02 0. -1.
       -2    1    3    3    0  502  0.35684049194E+01  0.54688670102E+03 -0.15270810454E+03  0.56781824773E+03  0.25500000920E-02 0.  1.
</event>
<event>
 5   0  0.3274879E-04  0.1297255E+04  0.7818609E-02  0.9031745E-01
       -1   -1    0    0    0  501  0.00000000000E+00  0.00000000000E+00  0.36791696703E+03  0.36791696706E+03  0.50400001928E-02 0.  1.
        1   -1    0    0  501    0  0.00000000000E+00  0.00000000000E+00 -0.11435118522E+04  0.11435118523E+04  0.50400001928E-02 0. -1.
    10030    2    1    2    0    0  0.00000000000E+00  0.00000000000E+00 -0.77559488522E+03  0.15114288193E+04  0.12972546588E+04 0.  0.
        4    1    3    3  502    0 -0.31281899288E+03  0.48583804190E+03 -0.73109920900E+03  0.93188088915E+03  0.12699999809E+01 0. -1.
       -4    1    3    3    0  502  0.31281899288E+03 -0.48583804190E+03 -0.44495676222E+02  0.57954793017E+03  0.12699999809E+01 0.  1.
</event>
<event>
 5   0  0.5384960E-04  0.1301483E+04  0.7818609E-02  0.9028390E-01
       -2   -1    0    0    0  501  0.00000000000E+00  0.00000000000E+00  0.28711667414E+03  0.28711667415E+03  0.25500000920E-02 0.  1.
        2   -1    0    0  501    0  0.00000000000E+00  0.00000000000E+00 -0.14748854632E+04  0.14748854632E+04  0.25500000920E-02 0. -1.
    10030    2    1    2    0    0  0.00000000000E+00  0.00000000000E+00 -0.11877687891E+04  0.17620021374E+04  0.13014825530E+04 0.  0.
        3    1    3    3  502    0 -0.37277204472E+03 -0.38973273548E+03 -0.10086715387E+03  0.54865726584E+03  0.10100000352E+00 0.  1.
       -3    1    3    3    0  502  0.37277204472E+03  0.38973273548E+03 -0.10869016352E+04  0.12133448716E+04  0.10100000352E+00 0. -1.
</event>
<event>
 5   0  0.6007125E-04  0.1293085E+04  0.7818609E-02  0.9035067E-01
       -2   -1    0    0    0  501  0.00000000000E+00  0.00000000000E+00  0.22571562423E+03  0.22571562424E+03  0.25500000920E-02 0.  1.
        2   -1    0    0  501    0  0.00000000000E+00  0.00000000000E+00 -0.18519644800E+04  0.18519644800E+04  0.25500000920E-02 0. -1.
    10030    2    1    2    0    0  0.00000000000E+00  0.00000000000E+00 -0.16262488557E+04  0.20776801042E+04  0.12930851769E+04 0.  0.
        5    1    3    3  502    0  0.62592255653E+03  0.14009659417E+03 -0.68269804198E+03  0.93675226661E+03  0.46999998093E+01 0.  1.
       -5    1    3    3    0  502 -0.62592255653E+03 -0.14009659417E+03 -0.94355081377E+03  0.11409278376E+04  0.46999998093E+01 0. -1.
</event>
<event>
 5   0  0.5957913E-04  0.1306505E+04  0.7818609E-02  0.9024423E-01
        2   -1    0    0  501    0  0.00000000000E+00  0.00000000000E+00  0.50773224653E+03  0.50773224653E+03  0.25500000920E-02 0. -1.
       -2   -1    0    0    0  501  0.00000000000E+00  0.00000000000E+00 -0.84048003471E+03  0.84048003471E+03  0.25500000920E-02 0.  1.
    10030    2    1    2    0    0  0.00000000000E+00  0.00000000000E+00 -0.33274778818E+03  0.13482122812E+04  0.13065049808E+04 0.  0.
        1    1    3    3  502    0  0.54855495840E+03  0.35387951391E+03 -0.14119067655E+03  0.66789075448E+03  0.50400001928E-02 0. -1.
       -1    1    3    3    0  502 -0.54855495840E+03 -0.35387951391E+03 -0.19155711163E+03  0.68032152677E+03  0.50400001928E-02 0.  1.
</event>
<event>
 5   0  0.3274879E-04  0.1311409E+04  0.7818609E-02  0.9020566E-01
       -1   -1    0    0    0  501  0.00000000000E+00  0.00000000000E+00  0.32479138265E+03  0.32479138269E+03  0.50400001928E-02 0. -1.
        1   -1    0    0  501    0  0.00000000000E+00  0.00000000000E+00 -0.13237685881E+04  0.13237685881E+04  0.50400001928E-02 0.  1.
    10030    2    1    2    0    0  0.00000000000E+00  0.00000000000E+00 -0.99897720548E+03  0.16485599708E+04  0.13114093642E+04 0.  0.
        4    1    3    3  502    0  0.12649221412E+03 -0.31196688286E+03 -0.12068444937E+04  0.12529161429E+04  0.12699999809E+01 0.  1.
       -4    1    3    3    0  502 -0.12649221412E+03  0.31196688286E+03  0.20786728818E+03  0.39564382799E+03  0.12699999809E+01 0. -1.
</event>
<event>
 5   0  0.5957913E-04  0.1301595E+04  0.7818609E-02  0.9028301E-01
       -2   -1    0    0    0  501  0.00000000000E+00  0.00000000000E+00  0.27136564258E+03  0.27136564259E+03  0.25500000920E-02 0.  1.
        2   -1    0    0  501    0  0.00000000000E+00  0.00000000000E+00 -0.15607636465E+04  0.15607636466E+04  0.25500000920E-02 0. -1.
    10030    2    1    2    0    0  0.00000000000E+00  0.00000000000E+00 -0.12893980040E+04  0.18321292891E+04  0.13015953747E+04 0.  0.
        1    1    3    3  502    0  0.55113609462E+03 -0.17747354933E+03 -0.10629483998E+04  0.12104161087E+04  0.50400001928E-02 0. -1.
       -1    1    3    3    0  502 -0.55113609462E+03  0.17747354933E+03 -0.22644960419E+03  0.62171318047E+03  0.50400001928E-02 0.  1.
</event>
<event>
 5   0  0.3274879E-04  0.1308458E+04  0.7818609E-02  0.9022885E-01
       -1   -1    0    0    0  501  0.00000000000E+00  0.00000000000E+00  0.22618454408E+03  0.22618454413E+03  0.50400001928E-02 0.  1.
        1   -1    0    0  501    0  0.00000000000E+00  0.00000000000E+00 -0.18923295531E+04  0.18923295531E+04  0.50400001928E-02 0. -1.
    10030    2    1    2    0    0  0.00000000000E+00  0.00000000000E+00 -0.16661450090E+04  0.21185140973E+04  0.13084581725E+04 0.  0.
        4    1    3    3  502    0 -0.19587339278E+03  0.18947442974E+03 -0.17960540893E+04  0.18166119151E+04  0.12699999809E+01 0. -1.
       -4    1    3    3    0  502  0.19587339278E+03 -0.18947442974E+03  0.12990908029E+03  0.30190218211E+03  0.12699999809E+01 0.  1.
</event>
<event>
 5   0  0.5787604E-04  0.1300403E+04  0.7818609E-02  0.9029245E-01
        2   -1    0    0  501    0  0.00000000000E+00  0.00000000000E+00  0.11543653229E+04  0.11543653229E+04  0.25500000920E-02 0.  1.
       -2   -1    0    0    0  501  0.00000000000E+00  0.00000000000E+00 -0.36622904570E+03  0.36622904571E+03  0.25500000920E-02 0. -1.
    10030    2    1    2    0    0  0.00000000000E+00  0.00000000000E+00  0.78813627724E+03  0.15205943686E+04  0.13004031846E+04 0.  0.
        4    1    3    3  502    0  0.53324564519E+03 -0.32912801109E+03  0.59688569191E+03  0.86541915157E+03  0.12699999809E+01 0. -1.
       -4    1    3    3    0  502 -0.53324564519E+03  0.32912801109E+03  0.19125058533E+03  0.65517521708E+03  0.12699999809E+01 0.  1.
</event>
<event>
 5   0  0.3403833E-04  0.1297300E+04  0.7818609E-02  0.9031709E-01
       -1   -1    0    0    0  501  0.00000000000E+00  0.00000000000E+00  0.66210020864E+03  0.66210020866E+03  0.50400001928E-02 0. -1.
        1   -1    0    0  501    0  0.00000000000E+00  0.00000000000E+00 -0.63547332210E+03  0.63547332212E+03  0.50400001928E-02 0.  1.
    10030    2    1    2    0    0  0.00000000000E+00  0.00000000000E+00  0.26626886539E+02  0.12975735308E+04  0.12973003032E+04 0.  0.
        1    1    3    3  502    0 -0.54263757279E+03  0.62170531376E+02  0.36328184643E+03  0.65596829980E+03  0.50400001928E-02 0. -1.
       -1    1    3    3    0  502  0.54263757279E+03 -0.62170531376E+02 -0.33665495989E+03  0.64160523098E+03  0.50400001928E-02 0.  1.
</event>
<event>
 5   0  0.6007125E-04  0.1299577E+04  0.7818609E-02  0.9029901E-01
       -2   -1    0    0    0  501  0.00000000000E+00  0.00000000000E+00  0.60067338675E+03  0.60067338675E+03  0.25500000920E-02 0.  1.
        2   -1    0    0  501    0  0.00000000000E+00  0.00000000000E+00 -0.70291930247E+03  0.70291930247E+03  0.25500000920E-02 0. -1.
    10030    2    1    2    0    0  0.00000000000E+00  0.00000000000E+00 -0.10224591572E+03  0.13035926892E+04  0.12995767281E+04 0.  0.
        5    1    3    3  502    0 -0.99553125771E+02 -0.59692018427E+03 -0.28845142307E+03  0.67041095211E+03  0.46999998093E+01 0. -1.
       -5    1    3    3    0  502  0.99553125771E+02  0.59692018427E+03  0.18620550735E+03  0.63318173711E+03  0.46999998093E+01 0.  1.
</event>
<event>
 5   0  0.6007125E-04  0.1301980E+04  0.7818609E-02  0.9027996E-01
        2   -1    0    0  501    0  0.00000000000E+00  0.00000000000E+00  0.12832305133E+04  0.12832305133E+04  0.25500000920E-02 0.  1.
       -2   -1    0    0    0  501  0.00000000000E+00  0.00000000000E+00 -0.33025098346E+03  0.33025098347E+03  0.25500000920E-02 0. -1.
    10030    2    1    2    0    0  0.00000000000E+00  0.00000000000E+00  0.95297952981E+03  0.16134814967E+04  0.13019802441E+04 0.  0.
        5    1    3    3  502    0 -0.20275770674E+03  0.61737284276E+03  0.52458382700E+03  0.83514681115E+03  0.46999998093E+01 0.  1.
       -5    1    3    3    0  502  0.20275770674E+03 -0.61737284276E+03  0.42839570280E+03  0.77833468559E+03  0.46999998093E+01 0. -1.
</event>
<event>
 5   0  0.6052864E-04  0.1302906E+04  0.7818609E-02  0.9027263E-01
       -2   -1    0    0    0  501  0.00000000000E+00  0.00000000000E+00  0.57740824566E+03  0.57740824566E+03  0.25500000920E-02 0.  1.
        2   -1    0    0  501    0  0.00000000000E+00  0.00000000000E+00 -0.73499348772E+03  0.73499348773E+03  0.25500000920E-02 0. -1.
    10030    2    1    2    0    0  0.00000000000E+00  0.00000000000E+00 -0.15758524206E+03  0.13124017334E+04  0.13029064438E+04 0.  0.
        2    1    3    3  502    0  0.51826450287E+03 -0.28453472460E+03  0.19675756577E+03  0.62311447113E+03  0.25500000920E-02 0.  1.
       -2    1    3    3    0  502 -0.51826450287E+03  0.28453472460E+03 -0.35434280784E+03  0.68928726226E+03  0.25500000920E-02 0. -1.
</event>
<event>
 5   0  0.6052864E-04  0.1296960E+04  0.7818609E-02  0.9031980E-01
       -2   -1    0    0    0  501  0.00000000000E+00  0.00000000000E+00  0.11147074636E+04  0.11147074636E+04  0.25500000920E-02 0. -1.
        2   -1    0    0  501    0  0.00000000000E+00  0.00000000000E+00 -0.37725245814E+03  0.37725245815E+03  0.25500000920E-02 0.  1.
    10030    2    1    2    0    0  0.00000000000E+00  0.00000000000E+00  0.73745500547E+03  0.14919599218E+04  0.12969597230E+04 0.  0.
        2    1    3    3  502    0 -0.13520468604E+02 -0.12376058806E+03 -0.36337596615E+03  0.38411141484E+03  0.25500000920E-02 0.  1.
       -2    1    3    3    0  502  0.13520468604E+02  0.12376058806E+03  0.11008309716E+04  0.11078485069E+04  0.25500000920E-02 0. -1.
</event>
<event>
 5   0  0.5957913E-04  0.1286060E+04  0.7818609E-02  0.9040693E-01
       -2   -1    0    0    0  501  0.00000000000E+00  0.00000000000E+00  0.52887404929E+03  0.52887404930E+03  0.25500000920E-02 0. -1.
        2   -1    0    0  501    0  0.00000000000E+00  0.00000000000E+00 -0.78182646240E+03  0.78182646241E+03  0.25500000920E-02 0.  1.
    10030    2    1    2    0    0  0.00000000000E+00  0.00000000000E+00 -0.25295241311E+03  0.13107005117E+04  0.12860602272E+04 0.  0.
        1    1    3    3  502    0 -0.32954905979E+03  0.17291415672E+03 -0.66091420148E+03  0.75849157553E+03  0.50400001928E-02 0.  1.
       -1    1    3    3    0  502  0.32954905979E+03 -0.17291415672E+03  0.40796178837E+03  0.55220893618E+03  0.50400001928E-02 0. -1.
</event>
<event>
 5   0  0.3335747E-04  0.1302834E+04  0.7818609E-02  0.9027321E-01
        1   -1    0    0  501    0  0.00000000000E+00  0.00000000000E+00  0.14635874566E+04  0.14635874566E+04  0.50400001928E-02 0. -1.
       -1   -1    0    0    0  501  0.00000000000E+00  0.00000000000E+00 -0.28993416119E+03  0.28993416124E+03  0.50400001928E-02 0.  1.
    10030    2    1    2    0    0  0.00000000000E+00  0.00000000000E+00  0.11736532954E+04  0.17535216178E+04  0.13028338368E+04 0.  0.
        3    1    3    3  502    0 -0.16240288718E+03 -0.30791022895E+03 -0.15424203891E+03  0.38075454512E+03  0.10100000352E+00 0.  1.
       -3    1    3    3    0  502  0.16240288718E+03  0.30791022895E+03  0.13278953343E+04  0.13727670727E+04  0.10100000352E+00 0. -1.
</event>
<event>
 5   0  0.3335747E-04  0.1299543E+04  0.7818609E-02  0.9029928E-01
        1   -1    0    0  501    0  0.00000000000E+00  0.00000000000E+00  0.90561866400E+03  0.90561866401E+03  0.50400001928E-02 0.  1.
       -1   -1    0    0    0  501  0.00000000000E+00  0.00000000000E+00 -0.46620372342E+03  0.46620372345E+03  0.50400001928E-02 0. -1.
    10030    2    1    2    0    0  0.00000000000E+00  0.00000000000E+00  0.43941494058E+03  0.13718223875E+04  0.12995426783E+04 0.  0.
        3    1    3    3  502    0 -0.15325821310E+03 -0.28865508992E+03 -0.37312683189E+03  0.49601762438E+03  0.10100000352E+00 0. -1.
       -3    1    3    3    0  502  0.15325821310E+03  0.28865508992E+03  0.81254177247E+03  0.87580476308E+03  0.10100000352E+00 0.  1.
</event>
<event>
 5   0  0.2255875E-04  0.1298893E+04  0.7818609E-02  0.9030443E-01
       -3   -1    0    0    0  501  0.00000000000E+00  0.00000000000E+00  0.67657697596E+03  0.67657698350E+03  0.10100000352E+00 0. -1.
        3   -1    0    0  501    0  0.00000000000E+00  0.00000000000E+00 -0.62340426947E+03  0.62340427765E+03  0.10100000352E+00 0.  1.
    10030    2    1    2    0    0  0.00000000000E+00  0.00000000000E+00  0.53172706490E+02  0.12999812611E+04  0.12988933531E+04 0.  0.
        4    1    3    3  502    0 -0.21281294850E+03 -0.60268793440E+03 -0.88650326710E+02  0.64527714251E+03  0.12699999809E+01 0.  1.
       -4    1    3    3    0  502  0.21281294850E+03  0.60268793440E+03  0.14182303320E+03  0.65470411864E+03  0.12699999809E+01 0. -1.
</event>
<event>
 5   0  0.5384960E-04  0.1303093E+04  0.7818609E-02  0.9027116E-01
       -2   -1    0    0    0  501  0.00000000000E+00  0.00000000000E+00  0.44679150009E+03  0.44679150010E+03  0.25500000920E-02 0.  1.
        2   -1    0    0  501    0  0.00000000000E+00  0.00000000000E+00 -0.95013627822E+03  0.95013627823E+03  0.25500000920E-02 0. -1.
    10030    2    1    2    0    0  0.00000000000E+00  0.00000000000E+00 -0.50334477813E+03  0.13969277783E+04  0.13030929561E+04 0.  0.
        3    1    3    3  502    0  0.32267450699E+03 -0.48920101004E+03  0.53570542832E+02  0.58847793412E+03  0.10100000352E+00 0.  1.
       -3    1    3    3    0  502 -0.32267450699E+03  0.48920101004E+03 -0.55691532096E+03  0.80844984421E+03  0.10100000352E+00 0. -1.
</event>
<event>
 5   0  0.3274879E-04  0.1257213E+04  0.7818609E-02  0.9064201E-01
        1   -1    0    0  501    0  0.00000000000E+00  0.00000000000E+00  0.21963205206E+04  0.21963205207E+04  0.50400001928E-02 0. -1.
       -1   -1    0    0    0  501  0.00000000000E+00  0.00000000000E+00 -0.17991281939E+03  0.17991281946E+03  0.50400001928E-02 0.  1.
    10030    2    1    2    0    0  0.00000000000E+00  0.00000000000E+00  0.20164077013E+04  0.23762333401E+04  0.12572131358E+04 0.  0.
        4    1    3    3  502    0 -0.57412702245E+03 -0.25334158768E+03  0.93899474960E+03  0.11293876884E+04  0.12699999809E+01 0.  1.
       -4    1    3    3    0  502  0.57412702245E+03  0.25334158768E+03  0.10774129517E+04  0.12468456517E+04  0.12699999809E+01 0. -1.
</event>
<event>
 5   0  0.6052864E-04  0.1287957E+04  0.7818609E-02  0.9039171E-01
       -2   -1    0    0    0  501  0.00000000000E+00  0.00000000000E+00  0.36622893551E+03  0.36622893552E+03  0.25500000920E-02 0.  1.
        2   -1    0    0  501    0  0.00000000000E+00  0.00000000000E+00 -0.11323737369E+04  0.11323737369E+04  0.25500000920E-02 0. -1.
    10030    2    1    2    0    0  0.00000000000E+00  0.00000000000E+00 -0.76614480142E+03  0.14986026725E+04  0.12879565649E+04 0.  0.
        2    1    3    3  502    0  0.39642855061E+03 -0.11561362034E+03  0.19189814551E+03  0.45535371219E+03  0.25500000920E-02 0.  1.
       -2    1    3    3    0  502 -0.39642855061E+03  0.11561362034E+03 -0.95804294692E+03  0.10432489603E+04  0.25500000920E-02 0. -1.
</event>
<event>
 5   0  0.3274879E-04  0.1302182E+04  0.7818609E-02  0.9027837E-01
       -1   -1    0    0    0  501  0.00000000000E+00  0.00000000000E+00  0.57266345480E+03  0.57266345482E+03  0.50400001928E-02 0. -1.
        1   -1    0    0  501    0  0.00000000000E+00  0.00000000000E+00 -0.74025930866E+03  0.74025930868E+03  0.50400001928E-02 0.  1.
    10030    2    1    2    0    0  0.00000000000E+00  0.00000000000E+00 -0.16759585386E+03  0.13129227635E+04  0.13021819430E+04 0.  0.
        4    1    3    3  502    0  0.13584272376E+03  0.58036985969E+03 -0.34794247982E+03  0.69017968805E+03  0.12699999809E+01 0.  1.
       -4    1    3    3    0  502 -0.13584272376E+03 -0.58036985969E+03  0.18034662595E+03  0.62274307545E+03  0.12699999809E+01 0. -1.
</event>
<event>
 5   0  0.3403833E-04  0.1302647E+04  0.7818609E-02  0.9027469E-01
       -1   -1    0    0    0  501  0.00000000000E+00  0.00000000000E+00  0.74519246929E+03  0.74519246930E+03  0.50400001928E-02 0.  1.
        1   -1    0    0  501    0  0.00000000000E+00  0.00000000000E+00 -0.56927870297E+03  0.56927870299E+03  0.50400001928E-02 0. -1.
    10030    2    1    2    0    0  0.00000000000E+00  0.00000000000E+00  0.17591376631E+03  0.13144711723E+04  0.13026468476E+04 0.  0.
        1    1    3    3  502    0 -0.11414408775E+03  0.59128060789E+03  0.33836374969E+03  0.69074717311E+03  0.50400001928E-02 0.  1.
       -1    1    3    3    0  502  0.11414408775E+03 -0.59128060789E+03 -0.16244998338E+03  0.62372399918E+03  0.50400001928E-02 0. -1.
</event>
<event>
 5   0  0.3263679E-04  0.1293079E+04  0.7818609E-02  0.9035071E-01
        1   -1    0    0  501    0  0.00000000000E+00  0.00000000000E+00  0.39784928482E+03  0.39784928485E+03  0.50400001928E-02 0. -1.
       -1   -1    0    0    0  501  0.00000000000E+00  0.00000000000E+00 -0.10506830129E+04  0.10506830130E+04  0.50400001928E-02 0.  1.
    10030    2    1    2    0    0  0.00000000000E+00  0.00000000000E+00 -0.65283372813E+03  0.14485322978E+04  0.12930792478E+04 0.  0.
        2    1    3    3  502    0  0.25684118776E+03  0.49204926126E+03 -0.69783943683E+03  0.89166123099E+03  0.25500000920E-02 0.  1.
       -2    1    3    3    0  502 -0.25684118776E+03 -0.49204926126E+03  0.45005708707E+02  0.55687106682E+03  0.25500000920E-02 0. -1.
</event>
<event>
 5   0  0.3335747E-04  0.1299805E+04  0.7818609E-02  0.9029720E-01
       -1   -1    0    0    0  501  0.00000000000E+00  0.00000000000E+00  0.10675781176E+04  0.10675781176E+04  0.50400001928E-02 0.  1.
        1   -1    0    0  501    0  0.00000000000E+00  0.00000000000E+00 -0.39563685522E+03  0.39563685526E+03  0.50400001928E-02 0. -1.
    10030    2    1    2    0    0  0.00000000000E+00  0.00000000000E+00  0.67194126234E+03  0.14632149728E+04  0.12998049841E+04 0.  0.
        3    1    3    3  502    0 -0.37919985037E+03 -0.52249849493E+03  0.25190999086E+03  0.69300494761E+03  0.10100000352E+00 0. -1.
       -3    1    3    3    0  502  0.37919985037E+03  0.52249849493E+03  0.42003127148E+03  0.77021002522E+03  0.10100000352E+00 0.  1.
</event>
<event>
 5   0  0.5787604E-04  0.1298357E+04  0.7818609E-02  0.9030869E-01
       -2   -1    0    0    0  501  0.00000000000E+00  0.00000000000E+00  0.49967212414E+03  0.49967212415E+03  0.25500000920E-02 0. -1.
        2   -1    0    0  501    0  0.00000000000E+00  0.00000000000E+00 -0.84341823086E+03  0.84341823086E+03  0.25500000920E-02 0.  1.
    10030    2    1    2    0    0  0.00000000000E+00  0.00000000000E+00 -0.34374610671E+03  0.13430903550E+04  0.12983567753E+04 0.  0.
        4    1    3    3  502    0  0.22914976103E+03 -0.49468980020E+03 -0.53644046495E+03  0.76485135598E+03  0.12699999809E+01 0.  1.
       -4    1    3    3    0  502 -0.22914976103E+03  0.49468980020E+03  0.19269435823E+03  0.57823899903E+03  0.12699999809E+01 0. -1.
</event>
<event>
 5   0  0.5787604E-04  0.1305079E+04  0.7818609E-02  0.9025547E-01
       -2   -1    0    0    0  501  0.00000000000E+00  0.00000000000E+00  0.26652497005E+03  0.26652497006E+03  0.25500000920E-02 0. -1.
        2   -1    0    0  501    0  0.00000000000E+00  0.00000000000E+00 -0.15976291143E+04  0.15976291143E+04  0.25500000920E-02 0.  1.
    10030    2    1    2    0    0  0.00000000000E+00  0.00000000000E+00 -0.13311041442E+04  0.18641540843E+04  0.13050793874E+04 0.  0.
        4    1    3    3  502    0  0.88792356745E+02 -0.63611460062E+03 -0.50094319459E+03  0.81453763869E+03  0.12699999809E+01 0. -1.
       -4    1    3    3    0  502 -0.88792356745E+02  0.63611460062E+03 -0.83016094962E+03  0.10496164456E+04  0.12699999809E+01 0.  1.
</event>
<event>
 5   0  0.3263679E-04  0.1319652E+04  0.7818609E-02  0.9014125E-01
        1   -1    0    0  501    0  0.00000000000E+00  0.00000000000E+00  0.70281390050E+03  0.70281390052E+03  0.50400001928E-02 0.  1.
       -1   -1    0    0    0  501  0.00000000000E+00  0.00000000000E+00 -0.61946719462E+03  0.61946719464E+03  0.50400001928E-02 0. -1.
    10030    2    1    2    0    0  0.00000000000E+00  0.00000000000E+00  0.83346705884E+02  0.13222810952E+04  0.13196517045E+04 0.  0.
        2    1    3    3  502    0  0.47482539564E+03  0.19126146202E+03 -0.37548543751E+03  0.63484597894E+03  0.25500000920E-02 0. -1.
       -2    1    3    3    0  502 -0.47482539564E+03 -0.19126146202E+03  0.45883214339E+03  0.68743511622E+03  0.25500000920E-02 0.  1.
</event>
<event>
 5   0  0.5787604E-04  0.1316227E+04  0.7818609E-02  0.9016795E-01
        2   -1    0    0  501    0  0.00000000000E+00  0.00000000000E+00  0.93990357773E+03  0.93990357773E+03  0.25500000920E-02 0.  1.
       -2   -1    0    0    0  501  0.00000000000E+00  0.00000000000E+00 -0.46080644414E+03  0.46080644415E+03  0.25500000920E-02 0. -1.
    10030    2    1    2    0    0  0.00000000000E+00  0.00000000000E+00  0.47909713359E+03  0.14007100219E+04  0.13162273747E+04 0.  0.
        4    1    3    3  502    0  0.33447517909E+03  0.48417789545E+03 -0.73998344630E+02  0.59310981089E+03  0.12699999809E+01 0. -1.
       -4    1    3    3    0  502 -0.33447517909E+03 -0.48417789545E+03  0.55309547822E+03  0.80760021099E+03  0.12699999809E+01 0.  1.
</event>
<event>
 5   0  0.5957913E-04  0.1294352E+04  0.7818609E-02  0.9034056E-01
        2   -1    0    0  501    0  0.00000000000E+00  0.00000000000E+00  0.48766352457E+03  0.48766352458E+03  0.25500000920E-02 0.  1.
       -2   -1    0    0    0  501  0.00000000000E+00  0.00000000000E+00 -0.85886422255E+03  0.85886422255E+03  0.25500000920E-02 0. -1.
    10030    2    1    2    0    0  0.00000000000E+00  0.00000000000E+00 -0.37120069798E+03  0.13465277471E+04  0.12943519674E+04 0.  0.
        1    1    3    3  502    0 -0.39693345402E+03  0.47552097797E+03 -0.38067001434E+03  0.72703921989E+03  0.50400001928E-02 0. -1.
       -1    1    3    3    0  502  0.39693345402E+03 -0.47552097797E+03  0.94693163570E+01  0.61948852724E+03  0.50400001928E-02 0.  1.
</event>
<event>
 5   0  0.5787604E-04  0.1299191E+04  0.7818609E-02  0.9030207E-01
       -2   -1    0    0    0  501  0.00000000000E+00  0.00000000000E+00  0.38314682188E+03  0.38314682189E+03  0.25500000920E-02 0. -1.
        2   -1    0    0  501    0  0.00000000000E+00  0.00000000000E+00 -0.11013377583E+04  0.11013377583E+04  0.25500000920E-02 0.  1.
    10030    2    1    2    0    0  0.00000000000E+00  0.00000000000E+00 -0.71819093646E+03  0.14844845802E+04  0.12991906125E+04 0.  0.
        4    1    3    3  502    0 -0.35876617151E+03 -0.47064751950E+03 -0.53029979952E+02  0.59416836427E+03  0.12699999809E+01 0. -1.
       -4    1    3    3    0  502  0.35876617151E+03  0.47064751950E+03 -0.66516095651E+03  0.89031621596E+03  0.12699999809E+01 0.  1.
</event>
<event>
 5   0  0.3335747E-04  0.1295377E+04  0.7818609E-02  0.9033239E-01
        1   -1    0    0  501    0  0.00000000000E+00  0.00000000000E+00  0.52402599479E+03  0.52402599481E+03  0.50400001928E-02 0.  1.
       -1   -1    0    0    0  501  0.00000000000E+00  0.00000000000E+00 -0.80053392476E+03  0.80053392478E+03  0.50400001928E-02 0. -1.
    10030    2    1    2    0    0  0.00000000000E+00  0.00000000000E+00 -0.27650792997E+03  0.13245599196E+04  0.12953772984E+04 0.  0.
        3    1    3    3  502    0  0.56439352400E+03  0.62343354766E+02  0.18033183551E+03  0.59577371956E+03  0.10100000352E+00 0.  1.
       -3    1    3    3    0  502 -0.56439352400E+03 -0.62343354766E+02 -0.45683976549E+03  0.72878620003E+03  0.10100000352E+00 0. -1.
</event>
<event>
 5   0  0.6007125E-04  0.1305378E+04  0.7818609E-02  0.9025311E-01
        2   -1    0    0  501    0  0.00000000000E+00  0.00000000000E+00  0.16705061103E+04  0.16705061103E+04  0.25500000920E-02 0. -1.
       -2   -1    0    0    0  501  0.00000000000E+00  0.00000000000E+00 -0.25501438590E+03  0.25501438591E+03  0.25500000920E-02 0.  1.
    10030    2    1    2    0    0  0.00000000000E+00  0.00000000000E+00  0.14154917244E+04  0.19255204962E+04  0.13053782438E+04 0.  0.
        5    1    3    3  502    0 -0.60119724480E+03 -0.23208676157E+03  0.86017538637E+03  0.10748144851E+04  0.46999998093E+01 0. -1.
       -5    1    3    3    0  502  0.60119724480E+03  0.23208676157E+03  0.55531633801E+03  0.85070601109E+03  0.46999998093E+01 0.  1.
</event>
<event>
 5   0  0.3335747E-04  0.1293264E+04  0.7818609E-02  0.9034924E-01
        1   -1    0    0  501    0  0.00000000000E+00  0.00000000000E+00  0.14505495216E+04  0.14505495216E+04  0.50400001928E-02 0.  1.
       -1   -1    0    0    0  501  0.00000000000E+00  0.00000000000E+00 -0.28825840337E+03  0.28825840342E+03  0.50400001928E-02 0. -1.
    10030    2    1    2    0    0  0.00000000000E+00  0.00000000000E+00  0.11622911183E+04  0.17388079251E+04  0.12932642254E+04 0.  0.
        3    1    3    3  502    0  0.56106461136E+03 -0.80866807012E+02  0.99945950196E+03  0.11490222995E+04  0.10100000352E+00 0.  1.
       -3    1    3    3    0  502 -0.56106461136E+03  0.80866807012E+02  0.16283161629E+03  0.58978562551E+03  0.10100000352E+00 0. -1.
</event>
<event>
 5   0  0.3335747E-04  0.1268320E+04  0.7818609E-02  0.9055072E-01
       -1   -1    0    0    0  501  0.00000000000E+00  0.00000000000E+00  0.58801234968E+03  0.58801234971E+03  0.50400001928E-02 0. -1.
        1   -1    0    0  501    0  0.00000000000E+00  0.00000000000E+00 -0.68392883499E+03  0.68392883501E+03  0.50400001928E-02 0.  1.
    10030    2    1    2    0    0  0.00000000000E+00  0.00000000000E+00 -0.95916485306E+02  0.12719411847E+04  0.12683195202E+04 0.  0.
        3    1    3    3  502    0 -0.48470472952E+03 -0.40340925373E+03  0.19172354218E+02  0.63090830568E+03  0.10100000352E+00 0.  1.
       -3    1    3    3    0  502  0.48470472952E+03  0.40340925373E+03 -0.11508883952E+03  0.64103287903E+03  0.10100000352E+00 0. -1.
</event>
<event>
 5   0  0.5384960E-04  0.1299211E+04  0.7818609E-02  0.9030191E-01
        2   -1    0    0  501    0  0.00000000000E+00  0.00000000000E+00  0.13408785289E+04  0.13408785289E+04  0.25500000920E-02 0. -1.
       -2   -1    0    0    0  501  0.00000000000E+00  0.00000000000E+00 -0.31470952699E+03  0.31470952700E+03  0.25500000920E-02 0.  1.
    10030    2    1    2    0    0  0.00000000000E+00  0.00000000000E+00  0.10261690019E+04  0.16555880559E+04  0.12992109107E+04 0.  0.
        3    1    3    3  502    0 -0.68531684201E+02  0.49798694376E+03  0.10374096090E+04  0.11527819806E+04  0.10100000352E+00 0. -1.
       -3    1    3    3    0  502  0.68531684201E+02 -0.49798694376E+03 -0.11240607046E+02  0.50280607529E+03  0.10100000352E+00 0.  1.
</event>
<event>
 5   0  0.3403833E-04  0.1303003E+04  0.7818609E-02  0.9027187E-01
        1   -1    0    0  501    0  0.00000000000E+00  0.00000000000E+00  0.75177528774E+03  0.75177528776E+03  0.50400001928E-02 0. -1.
       -1   -1    0    0    0  501  0.00000000000E+00  0.00000000000E+00 -0.56460259271E+03  0.56460259273E+03  0.50400001928E-02 0.  1.
    10030    2    1    2    0    0  0.00000000000E+00  0.00000000000E+00  0.18717269504E+03  0.13163778805E+04  0.13030031107E+04 0.  0.
        1    1    3    3  502    0  0.18691075355E+03  0.14315706754E+03 -0.52012314673E+03  0.57092702123E+03  0.50400001928E-02 0.  1.
       -1    1    3    3    0  502 -0.18691075355E+03 -0.14315706754E+03  0.70729584176E+03  0.74545085927E+03  0.50400001928E-02 0. -1.
</event>
<event>
 5   0  0.3274879E-04  0.1297088E+04  0.7818609E-02  0.9031877E-01
       -1   -1    0    0    0  501  0.00000000000E+00  0.00000000000E+00  0.58293995919E+03  0.58293995921E+03  0.50400001928E-02 0.  1.
        1   -1    0    0  501    0  0.00000000000E+00  0.00000000000E+00 -0.72153151826E+03  0.72153151828E+03  0.50400001928E-02 0. -1.
    10030    2    1    2    0    0  0.00000000000E+00  0.00000000000E+00 -0.13859155907E+03  0.13044714775E+04  0.12970883607E+04 0.  0.
        4    1    3    3  502    0 -0.45264266892E+03  0.46372859436E+03 -0.95489106023E+02  0.65501860830E+03  0.12699999809E+01 0.  1.
       -4    1    3    3    0  502  0.45264266892E+03 -0.46372859436E+03 -0.43102453048E+02  0.64945286920E+03  0.12699999809E+01 0. -1.
</event>
<event>
 5   0  0.3337520E-04  0.1302265E+04  0.7818609E-02  0.9027771E-01
        1   -1    0    0  501    0  0.00000000000E+00  0.00000000000E+00  0.11216108586E+04  0.11216108586E+04  0.50400001928E-02 0. -1.
       -1   -1    0    0    0  501  0.00000000000E+00  0.00000000000E+00 -0.37800396419E+03  0.37800396422E+03  0.50400001928E-02 0.  1.
    10030    2    1    2    0    0  0.00000000000E+00  0.00000000000E+00  0.74360689441E+03  0.14996148228E+04  0.13022647209E+04 0.  0.
        5    1    3    3  502    0 -0.62261904285E+03 -0.80014803457E+02  0.57090539643E+03  0.84853515128E+03  0.46999998093E+01 0.  1.
       -5    1    3    3    0  502  0.62261904285E+03  0.80014803457E+02  0.17270149798E+03  0.65107967154E+03  0.46999998093E+01 0. -1.
</event>
<event>
 5   0  0.3274879E-04  0.1277130E+04  0.7818609E-02  0.9047901E-01
       -1   -1    0    0    0  501  0.00000000000E+00  0.00000000000E+00  0.30054593015E+03  0.30054593019E+03  0.50400001928E-02 0. -1.
        1   -1    0    0  501    0  0.00000000000E+00  0.00000000000E+00 -0.13567479464E+04  0.13567479464E+04  0.50400001928E-02 0.  1.
    10030    2    1    2    0    0  0.00000000000E+00  0.00000000000E+00 -0.10562020163E+04  0.16572938766E+04  0.12771297093E+04 0.  0.
        4    1    3    3  502    0 -0.37211158902E+02 -0.20316957680E+03  0.25599813209E+03  0.32893647383E+03  0.12699999809E+01 0. -1.
       -4    1    3    3    0  502  0.37211158902E+02  0.20316957680E+03 -0.13122001483E+04  0.13283574028E+04  0.12699999809E+01 0.  1.
</event>
<event>
 5   0  0.3403833E-04  0.1304464E+04  0.7818609E-02  0.9026033E-01
        1   -1    0    0  501    0  0.00000000000E+00  0.00000000000E+00  0.12301964910E+04  0.12301964911E+04  0.50400001928E-02 0.  1.
       -1   -1    0    0    0  501  0.00000000000E+00  0.00000000000E+00 -0.34580354987E+03  0.34580354991E+03  0.50400001928E-02 0. -1.
    10030    2    1    2    0    0  0.00000000000E+00  0.00000000000E+00  0.88439294117E+03  0.15760000410E+04  0.13044635889E+04 0.  0.
        1    1    3    3  502    0 -0.20597153726E+03  0.32266664509E+02  0.11888555453E+04  0.12069974811E+04  0.50400001928E-02 0.  1.
       -1    1    3    3    0  502  0.20597153726E+03 -0.32266664509E+02 -0.30446260416E+03  0.36900255982E+03  0.50400001928E-02 0. -1.
</event>
<event>
 5   0  0.5787604E-04  0.1302322E+04  0.7818609E-02  0.9027726E-01
        2   -1    0    0  501    0  0.00000000000E+00  0.00000000000E+00  0.10216465522E+04  0.10216465522E+04  0.25500000920E-02 0. -1.
       -2   -1    0    0    0  501  0.00000000000E+00  0.00000000000E+00 -0.41502673059E+03  0.41502673059E+03  0.25500000920E-02 0.  1.
    10030    2    1    2    0    0  0.00000000000E+00  0.00000000000E+00  0.60661982159E+03  0.14366732828E+04  0.13023219700E+04 0.  0.
        4    1    3    3  502    0 -0.50228880900E+03 -0.37933507408E+03  0.11931017824E+03  0.64064473588E+03  0.12699999809E+01 0.  1.
       -4    1    3    3    0  502  0.50228880900E+03  0.37933507408E+03  0.48730964335E+03  0.79602854690E+03  0.12699999809E+01 0. -1.
</event>
<event>
 5   0  0.3274879E-04  0.1297700E+04  0.7818609E-02  0.9031391E-01
        1   -1    0    0  501    0  0.00000000000E+00  0.00000000000E+00  0.13604226204E+04  0.13604226204E+04  0.50400001928E-02 0. -1.
       -1   -1    0    0    0  501  0.00000000000E+00  0.00000000000E+00 -0.30946735546E+03  0.30946735550E+03  0.50400001928E-02 0.  1.
    10030    2    1    2    0    0  0.00000000000E+00  0.00000000000E+00  0.10509552649E+04  0.16698899759E+04  0.12977001051E+04 0.  0.
        4    1    3    3  502    0 -0.10679109455E+03  0.78687067750E+02  0.13427864679E+04  0.13493232021E+04  0.12699999809E+01 0. -1.
       -4    1    3    3    0  502  0.10679109455E+03 -0.78687067750E+02 -0.29183120298E+03  0.32056677376E+03  0.12699999809E+01 0.  1.
</event>
<event>
 5   0  0.3274879E-04  0.1299177E+04  0.7818609E-02  0.9030218E-01
        1   -1    0    0  501    0  0.00000000000E+00  0.00000000000E+00  0.95813955038E+03  0.95813955039E+03  0.50400001928E-02 0. -1.
       -1   -1    0    0    0  501  0.00000000000E+00  0.00000000000E+00 -0.44040091758E+03  0.44040091761E+03  0.50400001928E-02 0.  1.
    10030    2    1    2    0    0  0.00000000000E+00  0.00000000000E+00  0.51773863279E+03  0.13985404680E+04  0.12991774893E+04 0.  0.
        4    1    3    3  502    0 -0.85335809877E+02  0.29435643266E+03  0.87541791350E+03  0.92751606243E+03  0.12699999809E+01 0. -1.
       -4    1    3    3    0  502  0.85335809877E+02 -0.29435643266E+03 -0.35767928070E+03  0.47102440557E+03  0.12699999809E+01 0.  1.
</event>
<event>
 5   0  0.3335747E-04  0.1302206E+04  0.7818609E-02  0.9027818E-01
       -1   -1    0    0    0  501  0.00000000000E+00  0.00000000000E+00  0.38250516634E+03  0.38250516637E+03  0.50400001928E-02 0.  1.
        1   -1    0    0  501    0  0.00000000000E+00  0.00000000000E+00 -0.11083115934E+04  0.11083115934E+04  0.50400001928E-02 0. -1.
    10030    2    1    2    0    0  0.00000000000E+00  0.00000000000E+00 -0.72580642705E+03  0.14908167598E+04  0.13022056833E+04 0.  0.
        3    1    3    3  502    0  0.16970895814E+03  0.30755513829E+03  0.26471917442E+03  0.43984945727E+03  0.10100000352E+00 0.  1.
       -3    1    3    3    0  502 -0.16970895814E+03 -0.30755513829E+03 -0.99052560146E+03  0.10509673025E+04  0.10100000352E+00 0. -1.
</event>
<event>
 5   0  0.3335747E-04  0.1299253E+04  0.7818609E-02  0.9030158E-01
        1   -1    0    0  501    0  0.00000000000E+00  0.00000000000E+00  0.50927294603E+03  0.50927294606E+03  0.50400001928E-02 0.  1.
       -1   -1    0    0    0  501  0.00000000000E+00  0.00000000000E+00 -0.82866082509E+03  0.82866082510E+03  0.50400001928E-02 0. -1.
    10030    2    1    2    0    0  0.00000000000E+00  0.00000000000E+00 -0.31938787906E+03  0.13379337712E+04  0.12992529233E+04 0.  0.
        3    1    3    3  502    0 -0.51982774867E+03  0.32653244247E+02  0.24010075553E+03  0.57352899286E+03  0.10100000352E+00 0.  1.
       -3    1    3    3    0  502  0.51982774867E+03 -0.32653244247E+02 -0.55948863459E+03  0.76440477829E+03  0.10100000352E+00 0. -1.
</event>
<event>
 5   0  0.5787604E-04  0.1310199E+04  0.7818609E-02  0.9021517E-01
       -2   -1    0    0    0  501  0.00000000000E+00  0.00000000000E+00  0.20895189196E+03  0.20895189198E+03  0.25500000920E-02 0.  1.
        2   -1    0    0  501    0  0.00000000000E+00  0.00000000000E+00 -0.20538462142E+04  0.20538462142E+04  0.25500000920E-02 0. -1.
    10030    2    1    2    0    0  0.00000000000E+00  0.00000000000E+00 -0.18448943222E+04  0.22627981061E+04  0.13101985380E+04 0.  0.
        4    1    3    3  502    0 -0.30998370255E+03  0.68017049652E+02  0.67324198584E+02  0.32442314267E+03  0.12699999809E+01 0.  1.
       -4    1    3    3    0  502  0.30998370255E+03 -0.68017049652E+02 -0.19122185208E+04  0.19383749635E+04  0.12699999809E+01 0. -1.
</event>
<event>
 5   0  0.3263679E-04  0.1300171E+04  0.7818609E-02  0.9029430E-01
        1   -1    0    0  501    0  0.00000000000E+00  0.00000000000E+00  0.53272684742E+03  0.53272684744E+03  0.50400001928E-02 0. -1.
       -1   -1    0    0    0  501  0.00000000000E+00  0.00000000000E+00 -0.79329783278E+03  0.79329783279E+03  0.50400001928E-02 0.  1.
    10030    2    1    2    0    0  0.00000000000E+00  0.00000000000E+00 -0.26057098536E+03  0.13260246802E+04  0.13001708404E+04 0.  0.
        2    1    3    3  502    0 -0.25790091395E+03 -0.37160981080E+03 -0.60647929217E+03  0.75658698424E+03  0.25500000920E-02 0. -1.
       -2    1    3    3    0  502  0.25790091395E+03  0.37160981080E+03  0.34590830680E+03  0.56943769599E+03  0.25500000920E-02 0.  1.
</event>
<event>
 5   0  0.3274879E-04  0.1299663E+04  0.7818609E-02  0.9029832E-01
        1   -1    0    0  501    0  0.00000000000E+00  0.00000000000E+00  0.38647418539E+03  0.38647418542E+03  0.50400001928E-02 0.  1.
       -1   -1    0    0    0  501  0.00000000000E+00  0.00000000000E+00 -0.10926503042E+04  0.10926503042E+04  0.50400001928E-02 0. -1.
    10030    2    1    2    0    0  0.00000000000E+00  0.00000000000E+00 -0.70617611878E+03  0.14791244896E+04  0.12996632429E+04 0.  0.
        4    1    3    3  502    0  0.30888501691E+03 -0.44609037232E+02 -0.10017749398E+04  0.10492638194E+04  0.12699999809E+01 0. -1.
       -4    1    3    3    0  502 -0.30888501691E+03  0.44609037232E+02  0.29559882101E+03  0.42986067017E+03  0.12699999809E+01 0.  1.
</event>
<event>
 5   0  0.5787604E-04  0.1292979E+04  0.7818609E-02  0.9035152E-01
       -2   -1    0    0    0  501  0.00000000000E+00  0.00000000000E+00  0.51872447362E+03  0.51872447363E+03  0.25500000920E-02 0.  1.
        2   -1    0    0  501    0  0.00000000000E+00  0.00000000000E+00 -0.80572344329E+03  0.80572344329E+03  0.25500000920E-02 0. -1.
    10030    2    1    2    0    0  0.00000000000E+00  0.00000000000E+00 -0.28699896967E+03  0.13244479169E+04  0.12929786835E+04 0.  0.
        4    1    3    3  502    0  0.62289636064E+03  0.16835742776E+03 -0.18450830715E+03  0.67111029487E+03  0.12699999809E+01 0.  1.
       -4    1    3    3    0  502 -0.62289636064E+03 -0.16835742776E+03 -0.10249066252E+03  0.65333762205E+03  0.12699999809E+01 0. -1.
</event>
<event>
 5   0  0.6007125E-04  0.1298712E+04  0.7818609E-02  0.9030587E-01
       -2   -1    0    0    0  501  0.00000000000E+00  0.00000000000E+00  0.40284418719E+03  0.40284418720E+03  0.25500000920E-02 0.  1.
        2   -1    0    0  501    0  0.00000000000E+00  0.00000000000E+00 -0.10467151981E+04  0.10467151981E+04  0.25500000920E-02 0. -1.
    10030    2    1    2    0    0  0.00000000000E+00  0.00000000000E+00 -0.64387101093E+03  0.14495593853E+04  0.12987118745E+04 0.  0.
        5    1    3    3  502    0  0.39038559430E+03  0.44217215040E+03 -0.62499466292E+03  0.85939370576E+03  0.46999998093E+01 0.  1.
       -5    1    3    3    0  502 -0.39038559430E+03 -0.44217215040E+03 -0.18876348003E+02  0.59016567956E+03  0.46999998093E+01 0. -1.
</event>
<event>
 5   0  0.3274879E-04  0.1280544E+04  0.7818609E-02  0.9045137E-01
       -1   -1    0    0    0  501  0.00000000000E+00  0.00000000000E+00  0.37784009113E+03  0.37784009116E+03  0.50400001928E-02 0. -1.
        1   -1    0    0  501    0  0.00000000000E+00  0.00000000000E+00 -0.10849788013E+04  0.10849788013E+04  0.50400001928E-02 0.  1.
    10030    2    1    2    0    0  0.00000000000E+00  0.00000000000E+00 -0.70713871017E+03  0.14628188925E+04  0.12805443986E+04 0.  0.
        4    1    3    3  502    0 -0.34380184456E+03  0.43142522018E+02  0.26147927979E+03  0.43408986649E+03  0.12699999809E+01 0. -1.
       -4    1    3    3    0  502  0.34380184456E+03 -0.43142522018E+02 -0.96861798996E+03  0.10287290260E+04  0.12699999809E+01 0.  1.
</event>
<event>
 5   0  0.5787604E-04  0.1294824E+04  0.7818609E-02  0.9033680E-01
       -2   -1    0    0    0  501  0.00000000000E+00  0.00000000000E+00  0.10788222429E+04  0.10788222429E+04  0.25500000920E-02 0. -1.
        2   -1    0    0  501    0  0.00000000000E+00  0.00000000000E+00 -0.38851857475E+03  0.38851857476E+03  0.25500000920E-02 0.  1.
    10030    2    1    2    0    0  0.00000000000E+00  0.00000000000E+00  0.69030366820E+03  0.14673408177E+04  0.12948242819E+04 0.  0.
        4    1    3    3  502    0 -0.46700829460E+01 -0.62918185519E+02 -0.38502508917E+03  0.39016206881E+03  0.12699999809E+01 0.  1.
       -4    1    3    3    0  502  0.46700829460E+01  0.62918185519E+02  0.10753287574E+04  0.10771787489E+04  0.12699999809E+01 0. -1.
</event>
<event>
 5   0  0.5384960E-04  0.1297196E+04  0.7818609E-02  0.9031791E-01
        2   -1    0    0  501    0  0.00000000000E+00  0.00000000000E+00  0.99472930238E+03  0.99472930238E+03  0.25500000920E-02 0. -1.
       -2   -1    0    0    0  501  0.00000000000E+00  0.00000000000E+00 -0.42290863999E+03  0.42290863999E+03  0.25500000920E-02 0.  1.
    10030    2    1    2    0    0  0.00000000000E+00  0.00000000000E+00  0.57182066239E+03  0.14176379424E+04  0.12971963867E+04 0.  0.
        3    1    3    3  502    0 -0.61427092688E+03  0.23219884207E+02  0.59789438792E+02  0.61761049361E+03  0.10100000352E+00 0.  1.
       -3    1    3    3    0  502  0.61427092688E+03 -0.23219884207E+02  0.51203122360E+03  0.80002744876E+03  0.10100000352E+00 0. -1.
</event>
<event>
 5   0  0.3337520E-04  0.1303129E+04  0.7818609E-02  0.9027087E-01
        1   -1    0    0  501    0  0.00000000000E+00  0.00000000000E+00  0.62486079755E+03  0.62486079757E+03  0.50400001928E-02 0.  1.
       -1   -1    0    0    0  501  0.00000000000E+00  0.00000000000E+00 -0.67940982031E+03  0.67940982033E+03  0.50400001928E-02 0. -1.
    10030    2    1    2    0    0  0.00000000000E+00  0.00000000000E+00 -0.54549022755E+02  0.13042706179E+04  0.13031294060E+04 0.  0.
        5    1    3    3  502    0  0.91173411314E+02 -0.58781106743E+03  0.23881547371E+03  0.64100652291E+03  0.46999998093E+01 0.  1.
       -5    1    3    3    0  502 -0.91173411314E+02  0.58781106743E+03 -0.29336449647E+03  0.66326409500E+03  0.46999998093E+01 0. -1.
</event>
<event>
 5   0  0.6052864E-04  0.1294648E+04  0.7818609E-02  0.9033820E-01
       -2   -1    0    0    0  501  0.00000000000E+00  0.00000000000E+00  0.28560627922E+03  0.28560627923E+03  0.25500000920E-02 0.  1.
        2   -1    0    0  501    0  0.00000000000E+00  0.00000000000E+00 -0.14671548913E+04  0.14671548913E+04  0.25500000920E-02 0. -1.
    10030    2    1    2    0    0  0.00000000000E+00  0.00000000000E+00 -0.11815486121E+04  0.17527611706E+04  0.12946484458E+04 0.  0.
        2    1    3    3  502    0 -0.48271546134E+03  0.36469774082E+03 -0.27906501052E+03  0.66625516049E+03  0.25500000920E-02 0. -1.
       -2    1    3    3    0  502  0.48271546134E+03 -0.36469774082E+03 -0.90248360160E+03  0.10865060101E+04  0.25500000920E-02 0.  1.
</event>
<event>
 5   0  0.3337520E-04  0.1307320E+04  0.7818609E-02  0.9023781E-01
        1   -1    0    0  501    0  0.00000000000E+00  0.00000000000E+00  0.68098878447E+03  0.68098878449E+03  0.50400001928E-02 0.  1.
       -1   -1    0    0    0  501  0.00000000000E+00  0.00000000000E+00 -0.62742769392E+03  0.62742769394E+03  0.50400001928E-02 0. -1.
    10030    2    1    2    0    0  0.00000000000E+00  0.00000000000E+00  0.53561090550E+02  0.13084164784E+04  0.13073197354E+04 0.  0.
        5    1    3    3  502    0  0.38132063178E+02 -0.17552124650E+03 -0.60222690926E+03  0.62845930851E+03  0.46999998093E+01 0. -1.
       -5    1    3    3    0  502 -0.38132063178E+02  0.17552124650E+03  0.65578799981E+03  0.67995716991E+03  0.46999998093E+01 0.  1.
</event>
<event>
 5   0  0.6052864E-04  0.1301237E+04  0.7818609E-02  0.9028585E-01
        2   -1    0    0  501    0  0.00000000000E+00  0.00000000000E+00  0.10464463877E+04  0.10464463877E+04  0.25500000920E-02 0. -1.
       -2   -1    0    0    0  501  0.00000000000E+00  0.00000000000E+00 -0.40451588327E+03  0.40451588328E+03  0.25500000920E-02 0.  1.
    10030    2    1    2    0    0  0.00000000000E+00  0.00000000000E+00  0.64193050441E+03  0.14509622710E+04  0.13012366192E+04 0.  0.
        2    1    3    3  502    0  0.16395312551E+02 -0.30551231720E+03 -0.31929676363E+03  0.44221827813E+03  0.25500000920E-02 0.  1.
       -2    1    3    3    0  502 -0.16395312551E+02  0.30551231720E+03  0.96122726804E+03  0.10087439928E+04  0.25500000920E-02 0. -1.
</event>
<event>
 5   0  0.3335747E-04  0.1298279E+04  0.7818609E-02  0.9030931E-01
       -1   -1    0    0    0  501  0.00000000000E+00  0.00000000000E+00  0.50152647812E+03  0.50152647814E+03  0.50400001928E-02 0. -1.
        1   -1    0    0  501    0  0.00000000000E+00  0.00000000000E+00 -0.84019947221E+03  0.84019947223E+03  0.50400001928E-02 0.  1.
    10030    2    1    2    0    0  0.00000000000E+00  0.00000000000E+00 -0.33867299410E+03  0.13417259504E+04  0.12982792954E+04 0.  0.
        3    1    3    3  502    0 -0.27523565334E+03  0.56871170179E+03 -0.15372413187E+02  0.63199998886E+03  0.10100000352E+00 0. -1.
       -3    1    3    3    0  502  0.27523565334E+03 -0.56871170179E+03 -0.32330058091E+03  0.70972596151E+03  0.10100000352E+00 0.  1.
</event>
<event>
 5   0  0.5384960E-04  0.1302969E+04  0.7818609E-02  0.9027214E-01
        2   -1    0    0  501    0  0.00000000000E+00  0.00000000000E+00  0.15224149907E+04  0.15224149907E+04  0.25500000920E-02 0.  1.
       -2   -1    0    0    0  501  0.00000000000E+00  0.00000000000E+00 -0.27878848779E+03  0.27878848780E+03  0.25500000920E-02 0. -1.
    10030    2    1    2    0    0  0.00000000000E+00  0.00000000000E+00  0.12436265029E+04  0.18012034785E+04  0.13029685692E+04 0.  0.
        3    1    3    3  502    0 -0.31438424126E+03  0.14794180294E+03  0.13836407078E+04  0.14265993996E+04  0.10100000352E+00 0.  1.
       -3    1    3    3    0  502  0.31438424126E+03 -0.14794180294E+03 -0.14001420491E+03  0.37460407898E+03  0.10100000352E+00 0. -1.
</event>
<event>
 5   0  0.3263679E-04  0.1300121E+04  0.7818609E-02  0.9029469E-01
       -1   -1    0    0    0  501  0.00000000000E+00  0.00000000000E+00  0.39424414465E+03  0.39424414468E+03  0.50400001928E-02 0. -1.
        1   -1    0    0  501    0  0.00000000000E+00  0.00000000000E+00 -0.10718702786E+04  0.10718702786E+04  0.50400001928E-02 0.  1.
    10030    2    1    2    0    0  0.00000000000E+00  0.00000000000E+00 -0.67762613393E+03  0.14661144233E+04  0.13001208885E+04 0.  0.
        2    1    3    3  502    0  0.25082786437E+02 -0.40364916402E+03 -0.91272874194E+03  0.99831635775E+03  0.25500000920E-02 0.  1.
       -2    1    3    3    0  502 -0.25082786437E+02  0.40364916402E+03  0.23510260801E+03  0.46779806551E+03  0.25500000920E-02 0. -1.
</event>
<event>
 5   0  0.3403833E-04  0.1301959E+04  0.7818609E-02  0.9028013E-01
        1   -1    0    0  501    0  0.00000000000E+00  0.00000000000E+00  0.13035401614E+04  0.13035401614E+04  0.50400001928E-02 0.  1.
       -1   -1    0    0    0  501  0.00000000000E+00  0.00000000000E+00 -0.32509479189E+03  0.32509479193E+03  0.50400001928E-02 0. -1.
    10030    2    1    2    0    0  0.00000000000E+00  0.00000000000E+00  0.97844536952E+03  0.16286349533E+04  0.13019587052E+04 0.  0.
        1    1    3    3  502    0  0.61649705463E+03 -0.48102433516E+01  0.22777813552E+03  0.65724777357E+03  0.50400001928E-02 0. -1.
       -1    1    3    3    0  502 -0.61649705463E+03  0.48102433516E+01  0.75066723400E+03  0.97138717978E+03  0.50400001928E-02 0.  1.
</event>
<event>
 5   0  0.6052864E-04  0.1297802E+04  0.7818609E-02  0.9031310E-01
        2   -1    0    0  501    0  0.00000000000E+00  0.00000000000E+00  0.14229127283E+04  0.14229127283E+04  0.25500000920E-02 0.  1.
       -2   -1    0    0    0  501  0.00000000000E+00  0.00000000000E+00 -0.29592298095E+03  0.29592298096E+03  0.25500000920E-02 0. -1.
    10030    2    1    2    0    0  0.00000000000E+00  0.00000000000E+00  0.11269897474E+04  0.17188357093E+04  0.12978021054E+04 0.  0.
        2    1    3    3  502    0 -0.38989643949E+03 -0.24554761185E+02  0.12497062697E+04  0.13093463753E+04  0.25500000920E-02 0.  1.
       -2    1    3    3    0  502  0.38989643949E+03  0.24554761185E+02 -0.12271652234E+03  0.40948933403E+03  0.25500000920E-02 0. -1.
</event>
<event>
 5   0  0.3335747E-04  0.1295111E+04  0.7818609E-02  0.9033451E-01
        1   -1    0    0  501    0  0.00000000000E+00  0.00000000000E+00  0.10044148684E+04  0.10044148684E+04  0.50400001928E-02 0. -1.
       -1   -1    0    0    0  501  0.00000000000E+00  0.00000000000E+00 -0.41748494176E+03  0.41748494179E+03  0.50400001928E-02 0.  1.
    10030    2    1    2    0    0  0.00000000000E+00  0.00000000000E+00  0.58692992660E+03  0.14218998102E+04  0.12951109340E+04 0.  0.
        3    1    3    3  502    0  0.63306057666E+03  0.11360693035E+03  0.21089715639E+03  0.67686767475E+03  0.10100000352E+00 0.  1.
       -3    1    3    3    0  502 -0.63306057666E+03 -0.11360693035E+03  0.37603277021E+03  0.74503213542E+03  0.10100000352E+00 0. -1.
</event>
<event>
 5   0  0.5787604E-04  0.1306200E+04  0.7818609E-02  0.9024663E-01
       -2   -1    0    0    0  501  0.00000000000E+00  0.00000000000E+00  0.37523864700E+03  0.37523864701E+03  0.25500000920E-02 0. -1.
        2   -1    0    0  501    0  0.00000000000E+00  0.00000000000E+00 -0.11367159932E+04  0.11367159932E+04  0.25500000920E-02 0.  1.
    10030    2    1    2    0    0  0.00000000000E+00  0.00000000000E+00 -0.76147734620E+03  0.15119546402E+04  0.13062002470E+04 0.  0.
        4    1    3    3  502    0 -0.39332032200E+03 -0.35682909057E+03  0.59287364994E+02  0.53436362163E+03  0.12699999809E+01 0.  1.
       -4    1    3    3    0  502  0.39332032200E+03  0.35682909057E+03 -0.82076471120E+03  0.97759101859E+03  0.12699999809E+01 0. -1.
</event>
<event>
 5   0  0.5384960E-04  0.1305175E+04  0.7818609E-02  0.9025471E-01
        2   -1    0    0  501    0  0.00000000000E+00  0.00000000000E+00  0.84181242885E+03  0.84181242885E+03  0.25500000920E-02 0. -1.
       -2   -1    0    0    0  501  0.00000000000E+00  0.00000000000E+00 -0.50589714777E+03  0.50589714777E+03  0.25500000920E-02 0.  1.
    10030    2    1    2    0    0  0.00000000000E+00  0.00000000000E+00  0.33591528108E+03  0.13477095766E+04  0.13051750943E+04 0.  0.
        3    1    3    3  502    0 -0.34092460675E+03  0.47542964133E+03  0.46653049802E+03  0.74827377819E+03  0.10100000352E+00 0. -1.
       -3    1    3    3    0  502  0.34092460675E+03 -0.47542964133E+03 -0.13061521693E+03  0.59943579843E+03  0.10100000352E+00 0.  1.
</event>
<event>
 5   0  0.6007125E-04  0.1300670E+04  0.7818609E-02  0.9029034E-01
        2   -1    0    0  501    0  0.00000000000E+00  0.00000000000E+00  0.15227226449E+04  0.15227226449E+04  0.25500000920E-02 0.  1.
       -2   -1    0    0    0  501  0.00000000000E+00  0.00000000000E+00 -0.27774961618E+03  0.27774961619E+03  0.25500000920E-02 0. -1.
    10030    2    1    2    0    0  0.00000000000E+00  0.00000000000E+00  0.12449730288E+04  0.18004722611E+04  0.13006700276E+04 0.  0.
        5    1    3    3  502    0 -0.42979986218E+03 -0.30292249831E+03  0.11521802183E+04  0.12665035756E+04  0.46999998093E+01 0.  1.
       -5    1    3    3    0  502  0.42979986218E+03  0.30292249831E+03  0.92792810484E+02  0.53396868558E+03  0.46999998093E+01 0. -1.
</event>
<event>
 5   0  0.3274879E-04  0.1301013E+04  0.7818609E-02  0.9028762E-01
       -1   -1    0    0    0  501  0.00000000000E+00  0.00000000000E+00  0.22857299511E+03  0.22857299517E+03  0.50400001928E-02 0. -1.
        1   -1    0    0  501    0  0.00000000000E+00  0.00000000000E+00 -0.18513066427E+04  0.18513066427E+04  0.50400001928E-02 0.  1.
    10030    2    1    2    0    0  0.00000000000E+00  0.00000000000E+00 -0.16227336476E+04  0.20798796379E+04  0.13010129965E+04 0.  0.
        4    1    3    3  502    0  0.52823391606E+02 -0.32002199577E+03 -0.17128089068E+04  0.17432499398E+04  0.12699999809E+01 0.  1.
       -4    1    3    3    0  502 -0.52823391606E+02  0.32002199577E+03  0.90075259129E+02  0.33662969816E+03  0.12699999809E+01 0. -1.
</event>
<event>
 5   0  0.3403833E-04  0.1295099E+04  0.7818609E-02  0.9033461E-01
       -1   -1    0    0    0  501  0.00000000000E+00  0.00000000000E+00  0.74634353380E+03  0.74634353382E+03  0.50400001928E-02 0. -1.
        1   -1    0    0  501    0  0.00000000000E+00  0.00000000000E+00 -0.56183302569E+03  0.56183302571E+03  0.50400001928E-02 0.  1.
    10030    2    1    2    0    0  0.00000000000E+00  0.00000000000E+00  0.18451050811E+03  0.13081765595E+04  0.12950991403E+04 0.  0.
        1    1    3    3  502    0 -0.43067567712E+03  0.46927858496E+03 -0.25612866397E+02  0.63746368377E+03  0.50400001928E-02 0.  1.
       -1    1    3    3    0  502  0.43067567712E+03 -0.46927858496E+03  0.21012337451E+03  0.67071287576E+03  0.50400001928E-02 0. -1.
</event>
<event>
 5   0  0.3337520E-04  0.1302967E+04  0.7818609E-02  0.9027216E-01
       -1   -1    0    0    0  501  0.00000000000E+00  0.00000000000E+00  0.64516739977E+03  0.64516739979E+03  0.50400001928E-02 0.  1.
        1   -1    0    0  501    0  0.00000000000E+00  0.00000000000E+00 -0.65786150481E+03  0.65786150483E+03  0.50400001928E-02 0. -1.
    10030    2    1    2    0    0  0.00000000000E+00  0.00000000000E+00 -0.12694105042E+02  0.13030289046E+04  0.13029670702E+04 0.  0.
        5    1    3    3  502    0  0.51044233385E+03  0.23262310699E+03  0.32494471737E+03  0.64828700854E+03  0.46999998093E+01 0.  1.
       -5    1    3    3    0  502 -0.51044233385E+03 -0.23262310699E+03 -0.33763882241E+03  0.65474189609E+03  0.46999998093E+01 0. -1.
</event>
<event>
 5   0  0.5787604E-04  0.1300283E+04  0.7818609E-02  0.9029341E-01
        2   -1    0    0  501    0  0.00000000000E+00  0.00000000000E+00  0.15701542483E+04  0.15701542483E+04  0.25500000920E-02 0. -1.
       -2   -1    0    0    0  501  0.00000000000E+00  0.00000000000E+00 -0.26919890579E+03  0.26919890580E+03  0.25500000920E-02 0.  1.
    10030    2    1    2    0    0  0.00000000000E+00  0.00000000000E+00  0.13009553425E+04  0.18393531541E+04  0.13002827471E+04 0.  0.
        4    1    3    3  502    0 -0.94575286153E+01 -0.49035248797E+02  0.15674353569E+04  0.15682312047E+04  0.12699999809E+01 0. -1.
       -4    1    3    3    0  502  0.94575286153E+01  0.49035248797E+02 -0.26648001439E+03  0.27112194939E+03  0.12699999809E+01 0.  1.
</event>
<event>
 5   0  0.5957913E-04  0.1298860E+04  0.7818609E-02  0.9030469E-01
       -2   -1    0    0    0  501  0.00000000000E+00  0.00000000000E+00  0.41331941473E+03  0.41331941473E+03  0.25500000920E-02 0. -1.
        2   -1    0    0  501    0  0.00000000000E+00  0.00000000000E+00 -0.10204204256E+04  0.10204204256E+04  0.25500000920E-02 0.  1.
    10030    2    1    2    0    0  0.00000000000E+00  0.00000000000E+00 -0.60710101088E+03  0.14337398403E+04  0.12988603822E+04 0.  0.
        1    1    3    3  502    0  0.10067031401E+02 -0.55107584521E+03  0.75590165656E+02  0.55632706699E+03  0.50400001928E-02 0. -1.
       -1    1    3    3    0  502 -0.10067031401E+02  0.55107584521E+03 -0.68269117653E+03  0.87741277335E+03  0.50400001928E-02 0.  1.
</event>
<event>
 5   0  0.6007125E-04  0.1319831E+04  0.7818609E-02  0.9013985E-01
       -2   -1    0    0    0  501  0.00000000000E+00  0.00000000000E+00  0.45490087192E+03  0.45490087192E+03  0.25500000920E-02 0. -1.
        2   -1    0    0  501    0  0.00000000000E+00  0.00000000000E+00 -0.95732641173E+03  0.95732641173E+03  0.25500000920E-02 0.  1.
    10030    2    1    2    0    0  0.00000000000E+00  0.00000000000E+00 -0.50242553981E+03  0.14122272837E+04  0.13198312307E+04 0.  0.
        5    1    3    3  502    0  0.40760316029E+03 -0.37753299870E+03 -0.63222358983E+03  0.84166517032E+03  0.46999998093E+01 0.  1.
       -5    1    3    3    0  502 -0.40760316029E+03  0.37753299870E+03  0.12979805002E+03  0.57056211334E+03  0.46999998093E+01 0. -1.
</event>
<event>
 5   0  0.5787604E-04  0.1302040E+04  0.7818609E-02  0.9027949E-01
        2   -1    0    0  501    0  0.00000000000E+00  0.00000000000E+00  0.73501922237E+03  0.73501922238E+03  0.25500000920E-02 0. -1.
       -2   -1    0    0    0  501  0.00000000000E+00  0.00000000000E+00 -0.57662074301E+03  0.57662074301E+03  0.25500000920E-02 0.  1.
    10030    2    1    2    0    0  0.00000000000E+00  0.00000000000E+00  0.15839847936E+03  0.13116399654E+04  0.13020404450E+04 0.  0.
        4    1    3    3  502    0  0.29421676609E+03 -0.57894525258E+03  0.12519334658E+03  0.66137440066E+03  0.12699999809E+01 0.  1.
       -4    1    3    3    0  502 -0.29421676609E+03  0.57894525258E+03  0.33205132782E+02  0.65026556473E+03  0.12699999809E+01 0. -1.
</event>
<event>
 5   0  0.6052864E-04  0.1304890E+04  0.7818609E-02  0.9025696E-01
       -2   -1    0    0    0  501  0.00000000000E+00  0.00000000000E+00  0.27831493291E+03  0.27831493292E+03  0.25500000920E-02 0. -1.
        2   -1    0    0  501    0  0.00000000000E+00  0.00000000000E+00 -0.15295060999E+04  0.15295060999E+04  0.25500000920E-02 0.  1.
    10030    2    1    2    0    0  0.00000000000E+00  0.00000000000E+00 -0.12511911670E+04  0.18078210328E+04  0.13048898614E+04 0.  0.
        2    1    3    3  502    0  0.22908809459E+03  0.57890491297E+03 -0.89591994734E+03  0.10910017440E+04  0.25500000920E-02 0. -1.
       -2    1    3    3    0  502 -0.22908809459E+03 -0.57890491297E+03 -0.35527121968E+03  0.71681928885E+03  0.25500000920E-02 0.  1.
</event>
<event>
 5   0  0.6007125E-04  0.1299445E+04  0.7818609E-02  0.9030005E-01
        2   -1    0    0  501    0  0.00000000000E+00  0.00000000000E+00  0.23438456441E+04  0.23438456441E+04  0.25500000920E-02 0. -1.
       -2   -1    0    0    0  501  0.00000000000E+00  0.00000000000E+00 -0.18010539655E+03  0.18010539657E+03  0.25500000920E-02 0.  1.
    10030    2    1    2    0    0  0.00000000000E+00  0.00000000000E+00  0.21637402475E+04  0.25239510407E+04  0.12994448802E+04 0.  0.
        5    1    3    3  502    0 -0.61146141116E+03  0.18947540486E+03  0.86618248505E+03  0.10770701805E+04  0.46999998093E+01 0.  1.
       -5    1    3    3    0  502  0.61146141116E+03 -0.18947540486E+03  0.12975577625E+04  0.14468808601E+04  0.46999998093E+01 0. -1.
</event>
<event>
 5   0  0.6007125E-04  0.1301340E+04  0.7818609E-02  0.9028503E-01
        2   -1    0    0  501    0  0.00000000000E+00  0.00000000000E+00  0.66878061101E+03  0.66878061102E+03  0.25500000920E-02 0.  1.
       -2   -1    0    0    0  501  0.00000000000E+00  0.00000000000E+00 -0.63305021565E+03  0.63305021565E+03  0.25500000920E-02 0. -1.
    10030    2    1    2    0    0  0.00000000000E+00  0.00000000000E+00  0.35730395364E+02  0.13018308267E+04  0.13013404013E+04 0.  0.
        5    1    3    3  502    0  0.30397033302E+03 -0.35291391009E+03 -0.43662245797E+03  0.63844142417E+03  0.46999998093E+01 0. -1.
       -5    1    3    3    0  502 -0.30397033302E+03  0.35291391009E+03  0.47235285333E+03  0.66338940250E+03  0.46999998093E+01 0.  1.
</event>
<event>
 5   0  0.3263679E-04  0.1296379E+04  0.7818609E-02  0.9032442E-01
        1   -1    0    0  501    0  0.00000000000E+00  0.00000000000E+00  0.10333526962E+04  0.10333526962E+04  0.50400001928E-02 0.  1.
       -1   -1    0    0    0  501  0.00000000000E+00  0.00000000000E+00 -0.40658849025E+03  0.40658849029E+03  0.50400001928E-02 0. -1.
    10030    2    1    2    0    0  0.00000000000E+00  0.00000000000E+00  0.62676420595E+03  0.14399411865E+04  0.12963785137E+04 0.  0.
        2    1    3    3  502    0 -0.40720504958E+03  0.36154890884E+03 -0.77143784528E+02  0.54998611744E+03  0.25500000920E-02 0. -1.
       -2    1    3    3    0  502  0.40720504958E+03 -0.36154890884E+03  0.70390799048E+03  0.88995506906E+03  0.25500000920E-02 0.  1.
</event>
<event>
 5   0  0.3263679E-04  0.1300566E+04  0.7818609E-02  0.9029117E-01
        1   -1    0    0  501    0  0.00000000000E+00  0.00000000000E+00  0.22454050256E+03  0.22454050262E+03  0.50400001928E-02 0.  1.
       -1   -1    0    0    0  501  0.00000000000E+00  0.00000000000E+00 -0.18832579114E+04  0.18832579114E+04  0.50400001928E-02 0. -1.
    10030    2    1    2    0    0  0.00000000000E+00  0.00000000000E+00 -0.16587174088E+04  0.21077984140E+04  0.13005655354E+04 0.  0.
        2    1    3    3  502    0  0.72477722615E+02  0.56647779739E+03 -0.32533669186E+03  0.65726256420E+03  0.25500000920E-02 0.  1.
       -2    1    3    3    0  502 -0.72477722615E+02 -0.56647779739E+03 -0.13333807170E+04  0.14505358498E+04  0.25500000920E-02 0. -1.
</event>
<event>
 5   0  0.2255875E-04  0.1301779E+04  0.7818609E-02  0.9028156E-01
       -4   -1    0    0    0  501  0.00000000000E+00  0.00000000000E+00  0.48858600595E+03  0.48858765653E+03  0.12699999809E+01 0. -1.
        4   -1    0    0  501    0  0.00000000000E+00  0.00000000000E+00 -0.86710495601E+03  0.86710588606E+03  0.12699999809E+01 0.  1.
    10030    2    1    2    0    0  0.00000000000E+00  0.00000000000E+00 -0.37851895005E+03  0.13556935426E+04  0.13017789313E+04 0.  0.
        2    1    3    3  502    0 -0.22749691486E+03  0.60967734725E+03 -0.20383120606E+03  0.68191529870E+03  0.25500000920E-02 0.  1.
       -2    1    3    3    0  502  0.22749691486E+03 -0.60967734725E+03 -0.17468774400E+03  0.67377824389E+03  0.25500000920E-02 0. -1.
</event>
<event>
 5   0  0.3335747E-04  0.1315092E+04  0.7818609E-02  0.9017682E-01
       -1   -1    0    0    0  501  0.00000000000E+00  0.00000000000E+00  0.40583580967E+03  0.40583580970E+03  0.50400001928E-02 0.  1.
        1   -1    0    0  501    0  0.00000000000E+00  0.00000000000E+00 -0.10653742776E+04  0.10653742776E+04  0.50400001928E-02 0. -1.
    10030    2    1    2    0    0  0.00000000000E+00  0.00000000000E+00 -0.65953846793E+03  0.14712100873E+04  0.13150924417E+04 0.  0.
        3    1    3    3  502    0 -0.36118601047E+03  0.47425045244E+03 -0.64019566292E+03  0.87476815375E+03  0.10100000352E+00 0. -1.
       -3    1    3    3    0  502  0.36118601047E+03 -0.47425045244E+03 -0.19342805010E+02  0.59644193356E+03  0.10100000352E+00 0.  1.
</event>
<event>
 5   0  0.5384960E-04  0.1303494E+04  0.7818609E-02  0.9026799E-01
       -2   -1    0    0    0  501  0.00000000000E+00  0.00000000000E+00  0.40718405437E+03  0.40718405438E+03  0.25500000920E-02 0.  1.
        2   -1    0    0  501    0  0.00000000000E+00  0.00000000000E+00 -0.10431995800E+04  0.10431995800E+04  0.25500000920E-02 0. -1.
    10030    2    1    2    0    0  0.00000000000E+00  0.00000000000E+00 -0.63601552567E+03  0.14503836344E+04  0.13034941266E+04 0.  0.
        3    1    3    3  502    0 -0.88318590167E+02  0.23654962462E+03  0.35054923069E+03  0.43201929542E+03  0.10100000352E+00 0.  1.
       -3    1    3    3    0  502  0.88318590167E+02 -0.23654962462E+03 -0.98656475635E+03  0.10183643390E+04  0.10100000352E+00 0. -1.
</event>
<event>
 5   0  0.3403833E-04  0.1300806E+04  0.7818609E-02  0.9028926E-01
        1   -1    0    0  501    0  0.00000000000E+00  0.00000000000E+00  0.12285286637E+04  0.12285286637E+04  0.50400001928E-02 0. -1.
       -1   -1    0    0    0  501  0.00000000000E+00  0.00000000000E+00 -0.34433394609E+03  0.34433394612E+03  0.50400001928E-02 0.  1.
    10030    2    1    2    0    0  0.00000000000E+00  0.00000000000E+00  0.88419471764E+03  0.15728626099E+04  0.13008060927E+04 0.  0.
        1    1    3    3  502    0  0.43673797835E+03 -0.48135996571E+03  0.47113305526E+03  0.80275390632E+03  0.50400001928E-02 0.  1.
       -1    1    3    3    0  502 -0.43673797835E+03  0.48135996571E+03  0.41306166238E+03  0.77010870355E+03  0.50400001928E-02 0. -1.
</event>
<event>
 5   0  0.3263679E-04  0.1299458E+04  0.7818609E-02  0.9029995E-01
        1   -1    0    0  501    0  0.00000000000E+00  0.00000000000E+00  0.91350099453E+03  0.91350099455E+03  0.50400001928E-02 0.  1.
       -1   -1    0    0    0  501  0.00000000000E+00  0.00000000000E+00 -0.46212098308E+03  0.46212098310E+03  0.50400001928E-02 0. -1.
    10030    2    1    2    0    0  0.00000000000E+00  0.00000000000E+00  0.45138001146E+03  0.13756219777E+04  0.12994583143E+04 0.  0.
        2    1    3    3  502    0 -0.60362250883E+03  0.61069965612E+02  0.47182193777E+03  0.76857375368E+03  0.25500000920E-02 0. -1.
       -2    1    3    3    0  502  0.60362250883E+03 -0.61069965612E+02 -0.20441926314E+02  0.60704822397E+03  0.25500000920E-02 0.  1.
</event>
<event>
 5   0  0.3337520E-04  0.1295727E+04  0.7818609E-02  0.9032961E-01
        1   -1    0    0  501    0  0.00000000000E+00  0.00000000000E+00  0.83054299237E+03  0.83054299239E+03  0.50400001928E-02 0. -1.
       -1   -1    0    0    0  501  0.00000000000E+00  0.00000000000E+00 -0.50536475828E+03  0.50536475830E+03  0.50400001928E-02 0.  1.
    10030    2    1    2    0    0  0.00000000000E+00  0.00000000000E+00  0.32517823410E+03  0.13359077507E+04  0.12957270679E+04 0.  0.
        5    1    3    3  502    0 -0.64662481160E+03 -0.22765965295E+02  0.12897229719E+03  0.65977108120E+03  0.46999998093E+01 0. -1.
       -5    1    3    3    0  502  0.64662481160E+03  0.22765965295E+02  0.19620593691E+03  0.67613666949E+03  0.46999998093E+01 0.  1.
</event>
<event>
 5   0  0.6052864E-04  0.1324696E+04  0.7818609E-02  0.9010207E-01
        2   -1    0    0  501    0  0.00000000000E+00  0.00000000000E+00  0.81971120793E+03  0.81971120794E+03  0.25500000920E-02 0. -1.
       -2   -1    0    0    0  501  0.00000000000E+00  0.00000000000E+00 -0.53519447944E+03  0.53519447944E+03  0.25500000920E-02 0.  1.
    10030    2    1    2    0    0  0.00000000000E+00  0.00000000000E+00  0.28451672849E+03  0.13549056874E+04  0.13246960606E+04 0.  0.
        2    1    3    3  502    0  0.16350977760E+03  0.56148593125E+03  0.46032112774E+03  0.74424286293E+03  0.25500000920E-02 0. -1.
       -2    1    3    3    0  502 -0.16350977760E+03 -0.56148593125E+03 -0.17580439925E+03  0.61066282445E+03  0.25500000920E-02 0.  1.
</event>
<event>
 5   0  0.5787604E-04  0.1294893E+04  0.7818609E-02  0.9033625E-01
        2   -1    0    0  501    0  0.00000000000E+00  0.00000000000E+00  0.63858585452E+03  0.63858585453E+03  0.25500000920E-02 0. -1.
       -2   -1    0    0    0  501  0.00000000000E+00  0.00000000000E+00 -0.65643032604E+03  0.65643032605E+03  0.25500000920E-02 0.  1.
    10030    2    1    2    0    0  0.00000000000E+00  0.00000000000E+00 -0.17844471518E+02  0.12950161806E+04  0.12948932322E+04 0.  0.
        4    1    3    3  502    0  0.34598077548E+03  0.51703015769E+03  0.17043421024E+03  0.64503667638E+03  0.12699999809E+01 0. -1.
       -4    1    3    3    0  502 -0.34598077548E+03 -0.51703015769E+03 -0.18827868175E+03  0.64997950419E+03  0.12699999809E+01 0.  1.
</event>
<event>
 5   0  0.3335747E-04  0.1299751E+04  0.7818609E-02  0.9029763E-01
       -1   -1    0    0    0  501  0.00000000000E+00  0.00000000000E+00  0.24676695493E+03  0.24676695498E+03  0.50400001928E-02 0.  1.
        1   -1    0    0  501    0  0.00000000000E+00  0.00000000000E+00 -0.17114856416E+04  0.17114856416E+04  0.50400001928E-02 0. -1.
    10030    2    1    2    0    0  0.00000000000E+00  0.00000000000E+00 -0.14647186867E+04  0.19582525966E+04  0.12997508996E+04 0.  0.
        3    1    3    3  502    0  0.32728327350E+03 -0.48136389607E+03 -0.11677553614E+04  0.13047904567E+04  0.10100000352E+00 0. -1.
       -3    1    3    3    0  502 -0.32728327350E+03  0.48136389607E+03 -0.29696332527E+03  0.65346213992E+03  0.10100000352E+00 0.  1.
</event>
<event>
 5   0  0.6052864E-04  0.1296348E+04  0.7818609E-02  0.9032466E-01
       -2   -1    0    0    0  501  0.00000000000E+00  0.00000000000E+00  0.10593615670E+04  0.10593615670E+04  0.25500000920E-02 0.  1.
        2   -1    0    0  501    0  0.00000000000E+00  0.00000000000E+00 -0.39658767701E+03  0.39658767702E+03  0.25500000920E-02 0. -1.
    10030    2    1    2    0    0  0.00000000000E+00  0.00000000000E+00  0.66277389002E+03  0.14559492441E+04  0.12963483220E+04 0.  0.
        2    1    3    3  502    0  0.52698668778E+03  0.37088394603E+03  0.40968247380E+03  0.76361613385E+03  0.25500000920E-02 0.  1.
       -2    1    3    3    0  502 -0.52698668778E+03 -0.37088394603E+03  0.25309141623E+03  0.69233311022E+03  0.25500000920E-02 0. -1.
</event>
<event>
 5   0  0.3337520E-04  0.1282223E+04  0.7818609E-02  0.9043783E-01
       -1   -1    0    0    0  501  0.00000000000E+00  0.00000000000E+00  0.88094434581E+03  0.88094434582E+03  0.50400001928E-02 0. -1.
        1   -1    0    0  501    0  0.00000000000E+00  0.00000000000E+00 -0.46657181633E+03  0.46657181635E+03  0.50400001928E-02 0.  1.
    10030    2    1    2    0    0  0.00000000000E+00  0.00000000000E+00  0.41437252948E+03  0.13475161622E+04  0.12822227631E+04 0.  0.
        5    1    3    3  502    0 -0.62036625565E+03 -0.16009914958E+03  0.23105132975E+03  0.68109678888E+03  0.46999998093E+01 0.  1.
       -5    1    3    3    0  502  0.62036625565E+03  0.16009914958E+03  0.18332119973E+03  0.66641937330E+03  0.46999998093E+01 0. -1.
</event>
<event>
 5   0  0.2255875E-04  0.1299576E+04  0.7818609E-02  0.9029901E-01
        3   -1    0    0  501    0  0.00000000000E+00  0.00000000000E+00  0.13808086349E+04  0.13808086386E+04  0.10100000352E+00 0. -1.
       -3   -1    0    0    0  501  0.00000000000E+00  0.00000000000E+00 -0.30578058462E+03  0.30578060130E+03  0.10100000352E+00 0.  1.
    10030    2    1    2    0    0  0.00000000000E+00  0.00000000000E+00  0.10750280503E+04  0.16865892399E+04  0.12995760675E+04 0.  0.
        4    1    3    3  502    0 -0.35632022422E+03 -0.48251075444E+03  0.21321433847E+03  0.63658675557E+03  0.12699999809E+01 0.  1.
       -4    1    3    3    0  502  0.35632022422E+03  0.48251075444E+03  0.86181371185E+03  0.10500024844E+04  0.12699999809E+01 0. -1.
</event>
<event>
 5   0  0.3274879E-04  0.1298972E+04  0.7818609E-02  0.9030381E-01
        1   -1    0    0  501    0  0.00000000000E+00  0.00000000000E+00  0.16257337958E+04  0.16257337959E+04  0.50400001928E-02 0.  1.
       -1   -1    0    0    0  501  0.00000000000E+00  0.00000000000E+00 -0.25947192013E+03  0.25947192018E+03  0.50400001928E-02 0. -1.
    10030    2    1    2    0    0  0.00000000000E+00  0.00000000000E+00  0.13662618757E+04  0.18852057160E+04  0.12989723164E+04 0.  0.
        4    1    3    3  502    0 -0.34068486387E+03  0.27897211577E+03 -0.97653087574E+01  0.44044136045E+03  0.12699999809E+01 0. -1.
       -4    1    3    3    0  502  0.34068486387E+03 -0.27897211577E+03  0.13760271845E+04  0.14447643556E+04  0.12699999809E+01 0.  1.
</event>
<event>
 5   0  0.3263679E-04  0.1302231E+04  0.7818609E-02  0.9027797E-01
       -1   -1    0    0    0  501  0.00000000000E+00  0.00000000000E+00  0.59514384529E+03  0.59514384531E+03  0.50400001928E-02 0. -1.
        1   -1    0    0  501    0  0.00000000000E+00  0.00000000000E+00 -0.71235164316E+03  0.71235164317E+03  0.50400001928E-02 0.  1.
    10030    2    1    2    0    0  0.00000000000E+00  0.00000000000E+00 -0.11720779786E+03  0.13074954885E+04  0.13022314635E+04 0.  0.
        2    1    3    3  502    0 -0.92573553151E+02 -0.40608689677E+03  0.44389421698E+03  0.60870231341E+03  0.25500000920E-02 0. -1.
       -2    1    3    3    0  502  0.92573553151E+02  0.40608689677E+03 -0.56110201484E+03  0.69879317508E+03  0.25500000920E-02 0.  1.
</event>
<event>
 5   0  0.3337520E-04  0.1307761E+04  0.7818609E-02  0.9023434E-01
       -1   -1    0    0    0  501  0.00000000000E+00  0.00000000000E+00  0.24354984065E+03  0.24354984071E+03  0.50400001928E-02 0. -1.
        1   -1    0    0  501    0  0.00000000000E+00  0.00000000000E+00 -0.17555315491E+04  0.17555315491E+04  0.50400001928E-02 0.  1.
    10030    2    1    2    0    0  0.00000000000E+00  0.00000000000E+00 -0.15119817085E+04  0.19990813899E+04  0.13077605731E+04 0.  0.
        5    1    3    3  502    0 -0.16224552845E+03 -0.58185412409E+02  0.20817114534E+03  0.27030810100E+03  0.46999998093E+01 0. -1.
       -5    1    3    3    0  502  0.16224552845E+03  0.58185412409E+02 -0.17201528538E+04  0.17287732888E+04  0.46999998093E+01 0.  1.
</event>
<event>
 5   0  0.3403833E-04  0.1309519E+04  0.7818609E-02  0.9022050E-01
       -1   -1    0    0    0  501  0.00000000000E+00  0.00000000000E+00  0.13532093604E+04  0.13532093605E+04  0.50400001928E-02 0. -1.
        1   -1    0    0  501    0  0.00000000000E+00  0.00000000000E+00 -0.31681004273E+03  0.31681004277E+03  0.50400001928E-02 0.  1.
    10030    2    1    2    0    0  0.00000000000E+00  0.00000000000E+00  0.10363993177E+04  0.16700194032E+04  0.13095194773E+04 0.  0.
        1    1    3    3  502    0  0.52888487401E+03  0.34496021155E+03  0.29733636388E+03  0.69794388802E+03  0.50400001928E-02 0.  1.
       -1    1    3    3    0  502 -0.52888487401E+03 -0.34496021155E+03  0.73906295384E+03  0.97207551521E+03  0.50400001928E-02 0. -1.
</event>
<event>
 5   0  0.5384960E-04  0.1316952E+04  0.7818609E-02  0.9016229E-01
       -2   -1    0    0    0  501  0.00000000000E+00  0.00000000000E+00  0.28748375116E+03  0.28748375117E+03  0.25500000920E-02 0.  1.
        2   -1    0    0  501    0  0.00000000000E+00  0.00000000000E+00 -0.15082268974E+04  0.15082268974E+04  0.25500000920E-02 0. -1.
    10030    2    1    2    0    0  0.00000000000E+00  0.00000000000E+00 -0.12207431462E+04  0.17957106486E+04  0.13169521268E+04 0.  0.
        3    1    3    3  502    0 -0.58763875950E+03  0.52152218920E+02 -0.21154846668E+03  0.62673114615E+03  0.10100000352E+00 0.  1.
       -3    1    3    3    0  502  0.58763875950E+03 -0.52152218920E+02 -0.10091946795E+04  0.11689795024E+04  0.10100000352E+00 0. -1.
</event>
<event>
 5   0  0.5384960E-04  0.1295409E+04  0.7818609E-02  0.9033214E-01
        2   -1    0    0  501    0  0.00000000000E+00  0.00000000000E+00  0.13382884041E+04  0.13382884041E+04  0.25500000920E-02 0. -1.
       -2   -1    0    0    0  501  0.00000000000E+00  0.00000000000E+00 -0.31347601967E+03  0.31347601968E+03  0.25500000920E-02 0.  1.
    10030    2    1    2    0    0  0.00000000000E+00  0.00000000000E+00  0.10248123844E+04  0.16517644238E+04  0.12954093131E+04 0.  0.
        3    1    3    3  502    0  0.23688830580E+03 -0.31724627565E+02  0.12800053025E+04  0.13021275306E+04  0.10100000352E+00 0. -1.
       -3    1    3    3    0  502 -0.23688830580E+03  0.31724627565E+02 -0.25519291806E+03  0.34963689315E+03  0.10100000352E+00 0.  1.
</event>
<event>
 5   0  0.3337520E-04  0.1296216E+04  0.7818609E-02  0.9032571E-01
       -1   -1    0    0    0  501  0.00000000000E+00  0.00000000000E+00  0.98357041782E+03  0.98357041783E+03  0.50400001928E-02 0.  1.
        1   -1    0    0  501    0  0.00000000000E+00  0.00000000000E+00 -0.42706039827E+03  0.42706039830E+03  0.50400001928E-02 0. -1.
    10030    2    1    2    0    0  0.00000000000E+00  0.00000000000E+00  0.55651001955E+03  0.14106308161E+04  0.12962159919E+04 0.  0.
        5    1    3    3  502    0 -0.24044603553E+03 -0.60259328081E+02  0.92992368306E+03  0.96240616630E+03  0.46999998093E+01 0.  1.
       -5    1    3    3    0  502  0.24044603553E+03  0.60259328081E+02 -0.37341366351E+03  0.44822464983E+03  0.46999998093E+01 0. -1.
</event>
<event>
 5   0  0.3335747E-04  0.1302833E+04  0.7818609E-02  0.9027322E-01
        1   -1    0    0  501    0  0.00000000000E+00  0.00000000000E+00  0.13575604803E+04  0.13575604803E+04  0.50400001928E-02 0.  1.
       -1   -1    0    0    0  501  0.00000000000E+00  0.00000000000E+00 -0.31257795753E+03  0.31257795757E+03  0.50400001928E-02 0. -1.
    10030    2    1    2    0    0  0.00000000000E+00  0.00000000000E+00  0.10449825228E+04  0.16701384379E+04  0.13028330395E+04 0.  0.
        3    1    3    3  502    0  0.22466584409E+02 -0.14525045027E+03 -0.29104449667E+03  0.32605114623E+03  0.10100000352E+00 0. -1.
       -3    1    3    3    0  502 -0.22466584409E+02  0.14525045027E+03  0.13360270195E+04  0.13440872917E+04  0.10100000352E+00 0.  1.
</event>
<event>
 5   0  0.3335747E-04  0.1294960E+04  0.7818609E-02  0.9033571E-01
       -1   -1    0    0    0  501  0.00000000000E+00  0.00000000000E+00  0.42471776817E+03  0.42471776820E+03  0.50400001928E-02 0. -1.
        1   -1    0    0  501    0  0.00000000000E+00  0.00000000000E+00 -0.98708055905E+03  0.98708055907E+03  0.50400001928E-02 0.  1.
    10030    2    1    2    0    0  0.00000000000E+00  0.00000000000E+00 -0.56236279089E+03  0.14117983273E+04  0.12949604659E+04 0.  0.
        3    1    3    3  502    0  0.22095079812E+03 -0.59869413433E+03 -0.40049366443E+03  0.75342491804E+03  0.10100000352E+00 0.  1.
       -3    1    3    3    0  502 -0.22095079812E+03  0.59869413433E+03 -0.16186912646E+03  0.65837340922E+03  0.10100000352E+00 0. -1.
</event>
<event>
 5   0  0.6052864E-04  0.1296545E+04  0.7818609E-02  0.9032310E-01
       -2   -1    0    0    0  501  0.00000000000E+00  0.00000000000E+00  0.76094701230E+03  0.76094701230E+03  0.25500000920E-02 0.  1.
        2   -1    0    0  501    0  0.00000000000E+00  0.00000000000E+00 -0.55228148465E+03  0.55228148465E+03  0.25500000920E-02 0. -1.
    10030    2    1    2    0    0  0.00000000000E+00  0.00000000000E+00  0.20866552765E+03  0.13132284970E+04  0.12965445549E+04 0.  0.
        2    1    3    3  502    0 -0.50020753549E+03  0.40517566766E+03  0.18201416336E+03  0.66895743952E+03  0.25500000920E-02 0.  1.
       -2    1    3    3    0  502  0.50020753549E+03 -0.40517566766E+03  0.26651364297E+02  0.64427105744E+03  0.25500000920E-02 0. -1.
</event>
<event>
 5   0  0.6052864E-04  0.1299753E+04  0.7818609E-02  0.9029761E-01
        2   -1    0    0  501    0  0.00000000000E+00  0.00000000000E+00  0.25364012810E+04  0.25364012810E+04  0.25500000920E-02 0.  1.
       -2   -1    0    0    0  501  0.00000000000E+00  0.00000000000E+00 -0.16651130861E+03  0.16651130863E+03  0.25500000920E-02 0. -1.
    10030    2    1    2    0    0  0.00000000000E+00  0.00000000000E+00  0.23698899724E+04  0.27029125897E+04  0.12997530481E+04 0.  0.
        2    1    3    3  502    0 -0.31515173898E+03  0.47254747538E+03  0.18416304709E+04  0.19272323488E+04  0.25500000920E-02 0.  1.
       -2    1    3    3    0  502  0.31515173898E+03 -0.47254747538E+03  0.52825950156E+03  0.77568024086E+03  0.25500000920E-02 0. -1.
</event>
<event>
 5   0  0.3274879E-04  0.1309182E+04  0.7818609E-02  0.9022315E-01
        1   -1    0    0  501    0  0.00000000000E+00  0.00000000000E+00  0.14826578938E+04  0.14826578938E+04  0.50400001928E-02 0.  1.
       -1   -1    0    0    0  501  0.00000000000E+00  0.00000000000E+00 -0.28900091556E+03  0.28900091560E+03  0.50400001928E-02 0. -1.
    10030    2    1    2    0    0  0.00000000000E+00  0.00000000000E+00  0.11936569782E+04  0.17716588094E+04  0.13091821704E+04 0.  0.
        4    1    3    3  502    0 -0.15059917019E+03 -0.24693063863E+03  0.13914941237E+04  0.14212362083E+04  0.12699999809E+01 0.  1.
       -4    1    3    3    0  502  0.15059917019E+03  0.24693063863E+03 -0.19783714550E+03  0.35042260115E+03  0.12699999809E+01 0. -1.
</event>
<event>
 5   0  0.5957913E-04  0.1300872E+04  0.7818609E-02  0.9028874E-01
        2   -1    0    0  501    0  0.00000000000E+00  0.00000000000E+00  0.96706843346E+03  0.96706843347E+03  0.25500000920E-02 0. -1.
       -2   -1    0    0    0  501  0.00000000000E+00  0.00000000000E+00 -0.43747380431E+03  0.43747380431E+03  0.25500000920E-02 0.  1.
    10030    2    1    2    0    0  0.00000000000E+00  0.00000000000E+00  0.52959462916E+03  0.14045422378E+04  0.13008721791E+04 0.  0.
        1    1    3    3  502    0 -0.52785256752E+01 -0.64579110099E+03  0.34838183499E+03  0.73378737515E+03  0.50400001928E-02 0. -1.
       -1    1    3    3    0  502  0.52785256752E+01  0.64579110099E+03  0.18121279417E+03  0.67075486263E+03  0.50400001928E-02 0.  1.
</event>
<event>
 5   0  0.2255875E-04  0.1297000E+04  0.7818609E-02  0.9031947E-01
        3   -1    0    0  501    0  0.00000000000E+00  0.00000000000E+00  0.20988070840E+03  0.20988073270E+03  0.10100000352E+00 0.  1.
       -3   -1    0    0    0  501  0.00000000000E+00  0.00000000000E+00 -0.20037684766E+04  0.20037684791E+04  0.10100000352E+00 0. -1.
    10030    2    1    2    0    0  0.00000000000E+00  0.00000000000E+00 -0.17938877682E+04  0.22136492118E+04  0.12970001959E+04 0.  0.
        4    1    3    3  502    0 -0.48628600359E+02  0.63988121448E+03 -0.73740147714E+03  0.97753529900E+03  0.12699999809E+01 0.  1.
       -4    1    3    3    0  502  0.48628600359E+02 -0.63988121448E+03 -0.10564862911E+04  0.12361139128E+04  0.12699999809E+01 0. -1.
</event>
<event>
 5   0  0.6007125E-04  0.1308140E+04  0.7818609E-02  0.9023135E-01
        2   -1    0    0  501    0  0.00000000000E+00  0.00000000000E+00  0.17983018947E+04  0.17983018947E+04  0.25500000920E-02 0. -1.
       -2   -1    0    0    0  501  0.00000000000E+00  0.00000000000E+00 -0.23789540611E+03  0.23789540613E+03  0.25500000920E-02 0.  1.
    10030    2    1    2    0    0  0.00000000000E+00  0.00000000000E+00  0.15604064886E+04  0.20361973008E+04  0.13081402976E+04 0.  0.
        5    1    3    3  502    0 -0.22656865229E+03 -0.57941499605E+03  0.46606137907E+03  0.77736117147E+03  0.46999998093E+01 0.  1.
       -5    1    3    3    0  502  0.22656865229E+03  0.57941499605E+03  0.10943451095E+04  0.12588361293E+04  0.46999998093E+01 0. -1.
</event>
<event>
 5   0  0.6007125E-04  0.1304604E+04  0.7818609E-02  0.9025922E-01
        2   -1    0    0  501    0  0.00000000000E+00  0.00000000000E+00  0.43787339312E+03  0.43787339312E+03  0.25500000920E-02 0. -1.
       -2   -1    0    0    0  501  0.00000000000E+00  0.00000000000E+00 -0.97173693124E+03  0.97173693124E+03  0.25500000920E-02 0.  1.
    10030    2    1    2    0    0  0.00000000000E+00  0.00000000000E+00 -0.53386353813E+03  0.14096103244E+04  0.13046037671E+04 0.  0.
        5    1    3    3  502    0  0.50915398931E+03  0.34203239580E+03 -0.50672179377E+03  0.79562114784E+03  0.46999998093E+01 0.  1.
       -5    1    3    3    0  502 -0.50915398931E+03 -0.34203239580E+03 -0.27141744356E+02  0.61398917653E+03  0.46999998093E+01 0. -1.
</event>
<event>
 5   0  0.6052864E-04  0.1296292E+04  0.7818609E-02  0.9032511E-01
       -2   -1    0    0    0  501  0.00000000000E+00  0.00000000000E+00  0.33123039206E+03  0.33123039207E+03  0.25500000920E-02 0.  1.
        2   -1    0    0  501    0  0.00000000000E+00  0.00000000000E+00 -0.12682817431E+04  0.12682817431E+04  0.25500000920E-02 0. -1.
    10030    2    1    2    0    0  0.00000000000E+00  0.00000000000E+00 -0.93705135100E+03  0.15995121351E+04  0.12962923420E+04 0.  0.
        2    1    3    3  502    0  0.67623850863E+02  0.16483447472E+03 -0.12374724467E+04  0.12502325566E+04  0.25500000920E-02 0. -1.
       -2    1    3    3    0  502 -0.67623850863E+02 -0.16483447472E+03  0.30042109567E+03  0.34927957855E+03  0.25500000920E-02 0.  1.
</event>
<event>
 5   0  0.3337520E-04  0.1287739E+04  0.7818609E-02  0.9039345E-01
        1   -1    0    0  501    0  0.00000000000E+00  0.00000000000E+00  0.74990251001E+03  0.74990251003E+03  0.50400001928E-02 0.  1.
       -1   -1    0    0    0  501  0.00000000000E+00  0.00000000000E+00 -0.55282942727E+03  0.55282942729E+03  0.50400001928E-02 0. -1.
    10030    2    1    2    0    0  0.00000000000E+00  0.00000000000E+00  0.19707308275E+03  0.13027319373E+04  0.12877393760E+04 0.  0.
        5    1    3    3  502    0  0.56233009007E+03 -0.10062237878E+03  0.39898942376E+03  0.69681751096E+03  0.46999998093E+01 0.  1.
       -5    1    3    3    0  502 -0.56233009007E+03  0.10062237878E+03 -0.20191634101E+03  0.60591442636E+03  0.46999998093E+01 0. -1.
</event>
<event>
 5   0  0.5384960E-04  0.1299535E+04  0.7818609E-02  0.9029934E-01
        2   -1    0    0  501    0  0.00000000000E+00  0.00000000000E+00  0.15381100147E+04  0.15381100147E+04  0.25500000920E-02 0. -1.
       -2   -1    0    0    0  501  0.00000000000E+00  0.00000000000E+00 -0.27449118335E+03  0.27449118337E+03  0.25500000920E-02 0.  1.
    10030    2    1    2    0    0  0.00000000000E+00  0.00000000000E+00  0.12636188313E+04  0.18126011980E+04  0.12995347445E+04 0.  0.
        3    1    3    3  502    0 -0.21746774521E+03  0.61038469080E+03  0.56439621920E+03  0.85930483149E+03  0.10100000352E+00 0.  1.
       -3    1    3    3    0  502  0.21746774521E+03 -0.61038469080E+03  0.69922261210E+03  0.95329636653E+03  0.10100000352E+00 0. -1.
</event>
<event>
 5   0  0.3335747E-04  0.1302444E+04  0.7818609E-02  0.9027630E-01
       -1   -1    0    0    0  501  0.00000000000E+00  0.00000000000E+00  0.30218751685E+03  0.30218751689E+03  0.50400001928E-02 0.  1.
        1   -1    0    0  501    0  0.00000000000E+00  0.00000000000E+00 -0.14033995821E+04  0.14033995822E+04  0.50400001928E-02 0. -1.
    10030    2    1    2    0    0  0.00000000000E+00  0.00000000000E+00 -0.11012120653E+04  0.17055870990E+04  0.13024436033E+04 0.  0.
        3    1    3    3  502    0  0.46755812708E+03  0.37554436615E+03 -0.88304489294E+03  0.10674326519E+04  0.10100000352E+00 0. -1.
       -3    1    3    3    0  502 -0.46755812708E+03 -0.37554436615E+03 -0.21816717235E+03  0.63815444717E+03  0.10100000352E+00 0.  1.
</event>
<event>
 5   0  0.5787604E-04  0.1301647E+04  0.7818609E-02  0.9028260E-01
        2   -1    0    0  501    0  0.00000000000E+00  0.00000000000E+00  0.56632500176E+03  0.56632500177E+03  0.25500000920E-02 0. -1.
       -2   -1    0    0    0  501  0.00000000000E+00  0.00000000000E+00 -0.74792976737E+03  0.74792976738E+03  0.25500000920E-02 0.  1.
    10030    2    1    2    0    0  0.00000000000E+00  0.00000000000E+00 -0.18160476561E+03  0.13142547691E+04  0.13016471516E+04 0.  0.
        4    1    3    3  502    0  0.62503074929E+03 -0.60569878396E+02 -0.26344853294E+03  0.68098376643E+03  0.12699999809E+01 0. -1.
       -4    1    3    3    0  502 -0.62503074929E+03  0.60569878396E+02  0.81843767328E+02  0.63327100272E+03  0.12699999809E+01 0.  1.
</event>
<event>
 5   0  0.3263679E-04  0.1303255E+04  0.7818609E-02  0.9026988E-01
        1   -1    0    0  501    0  0.00000000000E+00  0.00000000000E+00  0.19075048229E+04  0.19075048229E+04  0.50400001928E-02 0. -1.
       -1   -1    0    0    0  501  0.00000000000E+00  0.00000000000E+00 -0.22260419877E+03  0.22260419883E+03  0.50400001928E-02 0.  1.
    10030    2    1    2    0    0  0.00000000000E+00  0.00000000000E+00  0.16849006241E+04  0.21301090217E+04  0.13032552825E+04 0.  0.
        2    1    3    3  502    0 -0.48453766008E+03  0.24245007623E+03  0.14341578299E+04  0.15330908207E+04  0.25500000920E-02 0. -1.
       -2    1    3    3    0  502  0.48453766008E+03 -0.24245007623E+03  0.25074279427E+03  0.59701820105E+03  0.25500000920E-02 0.  1.
</event>
<event>
 5   0  0.3403833E-04  0.1306393E+04  0.7818609E-02  0.9024511E-01
        1   -1    0    0  501    0  0.00000000000E+00  0.00000000000E+00  0.43483110412E+03  0.43483110415E+03  0.50400001928E-02 0.  1.
       -1   -1    0    0    0  501  0.00000000000E+00  0.00000000000E+00 -0.98122160822E+03  0.98122160823E+03  0.50400001928E-02 0. -1.
    10030    2    1    2    0    0  0.00000000000E+00  0.00000000000E+00 -0.54639050409E+03  0.14160527124E+04  0.13063930118E+04 0.  0.
        1    1    3    3  502    0 -0.43261845781E+03 -0.46789092707E+03 -0.42871347229E+03  0.76803378247E+03  0.50400001928E-02 0. -1.
       -1    1    3    3    0  502  0.43261845781E+03  0.46789092707E+03 -0.11767703181E+03  0.64801892991E+03  0.50400001928E-02 0.  1.
</event>
<event>
 5   0  0.6007125E-04  0.1276106E+04  0.7818609E-02  0.9048731E-01
        2   -1    0    0  501    0  0.00000000000E+00  0.00000000000E+00  0.21892653346E+04  0.21892653346E+04  0.25500000920E-02 0. -1.
       -2   -1    0    0    0  501  0.00000000000E+00  0.00000000000E+00 -0.18595812863E+03  0.18595812865E+03  0.25500000920E-02 0.  1.
    10030    2    1    2    0    0  0.00000000000E+00  0.00000000000E+00  0.20033072059E+04  0.23752234632E+04  0.12761060845E+04 0.  0.
        5    1    3    3  502    0 -0.36097991694E+03 -0.10225833271E+03  0.19622141516E+04  0.19977661859E+04  0.46999998093E+01 0. -1.
       -5    1    3    3    0  502  0.36097991694E+03  0.10225833271E+03  0.41093054340E+02  0.37745727726E+03  0.46999998093E+01 0.  1.
</event>
<event>
 5   0  0.3337520E-04  0.1311466E+04  0.7818609E-02  0.9020522E-01
       -1   -1    0    0    0  501  0.00000000000E+00  0.00000000000E+00  0.15276582482E+04  0.15276582482E+04  0.50400001928E-02 0.  1.
        1   -1    0    0  501    0  0.00000000000E+00  0.00000000000E+00 -0.28146714462E+03  0.28146714466E+03  0.50400001928E-02 0. -1.
    10030    2    1    2    0    0  0.00000000000E+00  0.00000000000E+00  0.12461911035E+04  0.18091253928E+04  0.13114657527E+04 0.  0.
        5    1    3    3  502    0 -0.43843237880E+03 -0.25836608393E+03  0.52676613328E+02  0.51163746901E+03  0.46999998093E+01 0. -1.
       -5    1    3    3    0  502  0.43843237880E+03  0.25836608393E+03  0.11935144902E+04  0.12974879238E+04  0.46999998093E+01 0.  1.
</event>
<event>
 5   0  0.5384960E-04  0.1301683E+04  0.7818609E-02  0.9028231E-01
       -2   -1    0    0    0  501  0.00000000000E+00  0.00000000000E+00  0.28846556814E+03  0.28846556815E+03  0.25500000920E-02 0.  1.
        2   -1    0    0  501    0  0.00000000000E+00  0.00000000000E+00 -0.14684418057E+04  0.14684418057E+04  0.25500000920E-02 0. -1.
    10030    2    1    2    0    0  0.00000000000E+00  0.00000000000E+00 -0.11799762375E+04  0.17569073738E+04  0.13016833713E+04 0.  0.
        3    1    3    3  502    0 -0.36134730212E+03 -0.15444898516E+03  0.11026596190E+03  0.40814820142E+03  0.10100000352E+00 0.  1.
       -3    1    3    3    0  502  0.36134730212E+03  0.15444898516E+03 -0.12902421994E+04  0.13487591724E+04  0.10100000352E+00 0. -1.
</event>
<event>
 5   0  0.5957913E-04  0.1295310E+04  0.7818609E-02  0.9033293E-01
       -2   -1    0    0    0  501  0.00000000000E+00  0.00000000000E+00  0.25036757150E+03  0.25036757152E+03  0.25500000920E-02 0. -1.
        2   -1    0    0  501    0  0.00000000000E+00  0.00000000000E+00 -0.16753636953E+04  0.16753636953E+04  0.25500000920E-02 0.  1.
    10030    2    1    2    0    0  0.00000000000E+00  0.00000000000E+00 -0.14249961238E+04  0.19257312668E+04  0.12953095997E+04 0.  0.
        1    1    3    3  502    0  0.53627828328E+03 -0.24879372935E+03 -0.31925643493E+03  0.67187602141E+03  0.50400001928E-02 0. -1.
       -1    1    3    3    0  502 -0.53627828328E+03  0.24879372935E+03 -0.11057396888E+04  0.12538552454E+04  0.50400001928E-02 0.  1.
</event>
<event>
 5   0  0.3263679E-04  0.1301568E+04  0.7818609E-02  0.9028323E-01
        1   -1    0    0  501    0  0.00000000000E+00  0.00000000000E+00  0.24061971897E+03  0.24061971902E+03  0.50400001928E-02 0. -1.
       -1   -1    0    0    0  501  0.00000000000E+00  0.00000000000E+00 -0.17601202043E+04  0.17601202043E+04  0.50400001928E-02 0.  1.
    10030    2    1    2    0    0  0.00000000000E+00  0.00000000000E+00 -0.15195004853E+04  0.20007399233E+04  0.13015677147E+04 0.  0.
        2    1    3    3  502    0  0.22705201037E+03 -0.47590566873E+03 -0.13460594618E+04  0.14456537953E+04  0.25500000920E-02 0.  1.
       -2    1    3    3    0  502 -0.22705201037E+03  0.47590566873E+03 -0.17344102350E+03  0.55508612807E+03  0.25500000920E-02 0. -1.
</event>
<event>
 5   0  0.3263679E-04  0.1298513E+04  0.7818609E-02  0.9030745E-01
        1   -1    0    0  501    0  0.00000000000E+00  0.00000000000E+00  0.56724074711E+03  0.56724074713E+03  0.50400001928E-02 0.  1.
       -1   -1    0    0    0  501  0.00000000000E+00  0.00000000000E+00 -0.74313029043E+03  0.74313029045E+03  0.50400001928E-02 0. -1.
    10030    2    1    2    0    0  0.00000000000E+00  0.00000000000E+00 -0.17588954332E+03  0.13103710376E+04  0.12985126586E+04 0.  0.
        2    1    3    3  502    0  0.16689511234E+03 -0.98294294904E+02 -0.71329585693E+03  0.73912564998E+03  0.25500000920E-02 0. -1.
       -2    1    3    3    0  502 -0.16689511234E+03  0.98294294904E+02  0.53740631361E+03  0.57124538760E+03  0.25500000920E-02 0.  1.
</event>
<event>
 5   0  0.5384960E-04  0.1268286E+04  0.7818609E-02  0.9055100E-01
        2   -1    0    0  501    0  0.00000000000E+00  0.00000000000E+00  0.65020133566E+03  0.65020133566E+03  0.25500000920E-02 0. -1.
       -2   -1    0    0    0  501  0.00000000000E+00  0.00000000000E+00 -0.61848126538E+03  0.61848126539E+03  0.25500000920E-02 0.  1.
    10030    2    1    2    0    0  0.00000000000E+00  0.00000000000E+00  0.31720070272E+02  0.12686826010E+04  0.12682860006E+04 0.  0.
        3    1    3    3  502    0 -0.59645195765E+01  0.30552025418E+03  0.57169478143E+03  0.64823848584E+03  0.10100000352E+00 0. -1.
       -3    1    3    3    0  502  0.59645195765E+01 -0.30552025418E+03 -0.53997471116E+03  0.62044411521E+03  0.10100000352E+00 0.  1.
</event>
<event>
 5   0  0.5384960E-04  0.1298381E+04  0.7818609E-02  0.9030850E-01
       -2   -1    0    0    0  501  0.00000000000E+00  0.00000000000E+00  0.12770167503E+04  0.12770167503E+04  0.25500000920E-02 0.  1.
        2   -1    0    0  501    0  0.00000000000E+00  0.00000000000E+00 -0.33002577312E+03  0.33002577313E+03  0.25500000920E-02 0. -1.
    10030    2    1    2    0    0  0.00000000000E+00  0.00000000000E+00  0.94699097722E+03  0.16070425235E+04  0.12983812080E+04 0.  0.
        3    1    3    3  502    0  0.45264586378E+03 -0.45957187360E+03  0.56406000027E+03  0.85688872037E+03  0.10100000352E+00 0.  1.
       -3    1    3    3    0  502 -0.45264586378E+03  0.45957187360E+03  0.38293097696E+03  0.75015380311E+03  0.10100000352E+00 0. -1.
</event>
<event>
 5   0  0.3274879E-04  0.1300287E+04  0.7818609E-02  0.9029338E-01
       -1   -1    0    0    0  501  0.00000000000E+00  0.00000000000E+00  0.50763168208E+03  0.50763168210E+03  0.50400001928E-02 0. -1.
        1   -1    0    0  501    0  0.00000000000E+00  0.00000000000E+00 -0.83266379683E+03  0.83266379684E+03  0.50400001928E-02 0.  1.
    10030    2    1    2    0    0  0.00000000000E+00  0.00000000000E+00 -0.32503211475E+03  0.13402954789E+04  0.13002869281E+04 0.  0.
        4    1    3    3  502    0  0.42262567108E+03 -0.21195338388E+03  0.29747518817E+03  0.55859627216E+03  0.12699999809E+01 0. -1.
       -4    1    3    3    0  502 -0.42262567108E+03  0.21195338388E+03 -0.62250730292E+03  0.78169920678E+03  0.12699999809E+01 0.  1.
</event>
<event>
 5   0  0.3274879E-04  0.1300561E+04  0.7818609E-02  0.9029121E-01
       -1   -1    0    0    0  501  0.00000000000E+00  0.00000000000E+00  0.53427224202E+03  0.53427224204E+03  0.50400001928E-02 0.  1.
        1   -1    0    0  501    0  0.00000000000E+00  0.00000000000E+00 -0.79147764507E+03  0.79147764508E+03  0.50400001928E-02 0. -1.
    10030    2    1    2    0    0  0.00000000000E+00  0.00000000000E+00 -0.25720540305E+03  0.13257498871E+04  0.13005607036E+04 0.  0.
        4    1    3    3  502    0  0.37197964794E+01 -0.34229177277E+03 -0.69219926933E+03  0.77221689696E+03  0.12699999809E+01 0. -1.
       -4    1    3    3    0  502 -0.37197964794E+01  0.34229177277E+03  0.43499386629E+03  0.55353299016E+03  0.12699999809E+01 0.  1.
</event>
<event>
 5   0  0.3403833E-04  0.1289909E+04  0.7818609E-02  0.9037606E-01
        1   -1    0    0  501    0  0.00000000000E+00  0.00000000000E+00  0.16628546479E+04  0.16628546480E+04  0.50400001928E-02 0. -1.
       -1   -1    0    0    0  501  0.00000000000E+00  0.00000000000E+00 -0.25015197561E+03  0.25015197566E+03  0.50400001928E-02 0.  1.
    10030    2    1    2    0    0  0.00000000000E+00  0.00000000000E+00  0.14127026723E+04  0.19130066236E+04  0.12899091059E+04 0.  0.
        1    1    3    3  502    0  0.15183388641E+03  0.33696863274E+03  0.14902200886E+04  0.15353687834E+04  0.50400001928E-02 0. -1.
       -1    1    3    3    0  502 -0.15183388641E+03 -0.33696863274E+03 -0.77517416272E+02  0.37763784021E+03  0.50400001928E-02 0.  1.
</event>
<event>
 5   0  0.3403833E-04  0.1302198E+04  0.7818609E-02  0.9027824E-01
        1   -1    0    0  501    0  0.00000000000E+00  0.00000000000E+00  0.92823057396E+03  0.92823057397E+03  0.50400001928E-02 0.  1.
       -1   -1    0    0    0  501  0.00000000000E+00  0.00000000000E+00 -0.45670743219E+03  0.45670743222E+03  0.50400001928E-02 0. -1.
    10030    2    1    2    0    0  0.00000000000E+00  0.00000000000E+00  0.47152314177E+03  0.13849380062E+04  0.13021978374E+04 0.  0.
        1    1    3    3  502    0 -0.11237813712E+03 -0.55619695822E+03 -0.10381541225E+03  0.57685487073E+03  0.50400001928E-02 0.  1.
       -1    1    3    3    0  502  0.11237813712E+03  0.55619695822E+03  0.57533855402E+03  0.80808313546E+03  0.50400001928E-02 0. -1.
</event>
<event>
 5   0  0.3263679E-04  0.1302305E+04  0.7818609E-02  0.9027739E-01
        1   -1    0    0  501    0  0.00000000000E+00  0.00000000000E+00  0.56313831716E+03  0.56313831718E+03  0.50400001928E-02 0.  1.
       -1   -1    0    0    0  501  0.00000000000E+00  0.00000000000E+00 -0.75292282971E+03  0.75292282972E+03  0.50400001928E-02 0. -1.
    10030    2    1    2    0    0  0.00000000000E+00  0.00000000000E+00 -0.18978451255E+03  0.13160611469E+04  0.13023051797E+04 0.  0.
        2    1    3    3  502    0  0.17767591050E+03 -0.40491149822E+03  0.38815003602E+03  0.58837275687E+03  0.25500000920E-02 0.  1.
       -2    1    3    3    0  502 -0.17767591050E+03  0.40491149822E+03 -0.57793454857E+03  0.72768839004E+03  0.25500000920E-02 0. -1.
</event>
<event>
 5   0  0.3337520E-04  0.1300389E+04  0.7818609E-02  0.9029257E-01
       -1   -1    0    0    0  501  0.00000000000E+00  0.00000000000E+00  0.54758148533E+03  0.54758148536E+03  0.50400001928E-02 0. -1.
        1   -1    0    0  501    0  0.00000000000E+00  0.00000000000E+00 -0.77203613070E+03  0.77203613072E+03  0.50400001928E-02 0.  1.
    10030    2    1    2    0    0  0.00000000000E+00  0.00000000000E+00 -0.22445464537E+03  0.13196176161E+04  0.13003886976E+04 0.  0.
        5    1    3    3  502    0 -0.28600564453E+02 -0.41847181251E+02 -0.77001086857E+03  0.77169165253E+03  0.46999998093E+01 0.  1.
       -5    1    3    3    0  502  0.28600564453E+02  0.41847181251E+02  0.54555622320E+03  0.54792596355E+03  0.46999998093E+01 0. -1.
</event>
<event>
 5   0  0.3263679E-04  0.1294824E+04  0.7818609E-02  0.9033680E-01
        1   -1    0    0  501    0  0.00000000000E+00  0.00000000000E+00  0.41643703719E+03  0.41643703722E+03  0.50400001928E-02 0.  1.
       -1   -1    0    0    0  501  0.00000000000E+00  0.00000000000E+00 -0.10064957019E+04  0.10064957019E+04  0.50400001928E-02 0. -1.
    10030    2    1    2    0    0  0.00000000000E+00  0.00000000000E+00 -0.59005866472E+03  0.14229327391E+04  0.12948236761E+04 0.  0.
        2    1    3    3  502    0 -0.56226618938E+03  0.29925210894E+03 -0.42246364239E+03  0.76431055310E+03  0.25500000920E-02 0.  1.
       -2    1    3    3    0  502  0.56226618938E+03 -0.29925210894E+03 -0.16759502233E+03  0.65862218604E+03  0.25500000920E-02 0. -1.
</event>
<event>
 5   0  0.5957913E-04  0.1286700E+04  0.7818609E-02  0.9040179E-01
        2   -1    0    0  501    0  0.00000000000E+00  0.00000000000E+00  0.54830024078E+03  0.54830024079E+03  0.25500000920E-02 0.  1.
       -2   -1    0    0    0  501  0.00000000000E+00  0.00000000000E+00 -0.75487718059E+03  0.75487718059E+03  0.25500000920E-02 0. -1.
    10030    2    1    2    0    0  0.00000000000E+00  0.00000000000E+00 -0.20657693980E+03  0.13031774214E+04  0.12867001825E+04 0.  0.
        1    1    3    3  502    0  0.40225020051E+03  0.25723539050E+03 -0.53999933108E+03  0.72081519651E+03  0.50400001928E-02 0. -1.
       -1    1    3    3    0  502 -0.40225020051E+03 -0.25723539050E+03  0.33342239127E+03  0.58236222487E+03  0.50400001928E-02 0.  1.
</event>
<event>
 5   0  0.5957913E-04  0.1289919E+04  0.7818609E-02  0.9037598E-01
       -2   -1    0    0    0  501  0.00000000000E+00  0.00000000000E+00  0.39011878791E+03  0.39011878792E+03  0.25500000920E-02 0. -1.
        2   -1    0    0  501    0  0.00000000000E+00  0.00000000000E+00 -0.10662715667E+04  0.10662715668E+04  0.25500000920E-02 0.  1.
    10030    2    1    2    0    0  0.00000000000E+00  0.00000000000E+00 -0.67615277884E+03  0.14563903547E+04  0.12899187125E+04 0.  0.
        1    1    3    3  502    0  0.14038183679E+03  0.61967367525E+03 -0.46314219056E+03  0.78625899842E+03  0.50400001928E-02 0. -1.
       -1    1    3    3    0  502 -0.14038183679E+03 -0.61967367525E+03 -0.21301058828E+03  0.67013135626E+03  0.50400001928E-02 0.  1.
</event>
<event>
 5   0  0.6052864E-04  0.1300465E+04  0.7818609E-02  0.9029197E-01
        2   -1    0    0  501    0  0.00000000000E+00  0.00000000000E+00  0.18030174568E+04  0.18030174568E+04  0.25500000920E-02 0. -1.
       -2   -1    0    0    0  501  0.00000000000E+00  0.00000000000E+00 -0.23449690233E+03  0.23449690234E+03  0.25500000920E-02 0.  1.
    10030    2    1    2    0    0  0.00000000000E+00  0.00000000000E+00  0.15685205544E+04  0.20375143591E+04  0.13004645454E+04 0.  0.
        2    1    3    3  502    0 -0.47099517921E+03  0.78415921313E+02  0.14757966410E+04  0.15511161275E+04  0.25500000920E-02 0. -1.
       -2    1    3    3    0  502  0.47099517921E+03 -0.78415921313E+02  0.92723913460E+02  0.48639823158E+03  0.25500000920E-02 0.  1.
</event>
<event>
 5   0  0.3274879E-04  0.1286467E+04  0.7818609E-02  0.9040366E-01
        1   -1    0    0  501    0  0.00000000000E+00  0.00000000000E+00  0.82947421160E+03  0.82947421161E+03  0.50400001928E-02 0.  1.
       -1   -1    0    0    0  501  0.00000000000E+00  0.00000000000E+00 -0.49880920089E+03  0.49880920092E+03  0.50400001928E-02 0. -1.
    10030    2    1    2    0    0  0.00000000000E+00  0.00000000000E+00  0.33066501070E+03  0.13282834125E+04  0.12864670515E+04 0.  0.
        4    1    3    3  502    0  0.23456655171E+03  0.53517094856E+03  0.44299442326E+03  0.73326331103E+03  0.12699999809E+01 0.  1.
       -4    1    3    3    0  502 -0.23456655171E+03 -0.53517094856E+03 -0.11232941256E+03  0.59502010150E+03  0.12699999809E+01 0. -1.
</event>
<event>
 5   0  0.3274879E-04  0.1296094E+04  0.7818609E-02  0.9032668E-01
        1   -1    0    0  501    0  0.00000000000E+00  0.00000000000E+00  0.16636137325E+04  0.16636137325E+04  0.50400001928E-02 0.  1.
       -1   -1    0    0    0  501  0.00000000000E+00  0.00000000000E+00 -0.25244149375E+03  0.25244149380E+03  0.50400001928E-02 0. -1.
    10030    2    1    2    0    0  0.00000000000E+00  0.00000000000E+00  0.14111722388E+04  0.19160552263E+04  0.12960943418E+04 0.  0.
        4    1    3    3  502    0  0.35273155002E+03  0.23557388250E+03  0.14298907941E+04  0.14914770854E+04  0.12699999809E+01 0.  1.
       -4    1    3    3    0  502 -0.35273155002E+03 -0.23557388250E+03 -0.18718555325E+02  0.42457814088E+03  0.12699999809E+01 0. -1.
</event>
<event>
 5   0  0.3403833E-04  0.1287489E+04  0.7818609E-02  0.9039546E-01
        1   -1    0    0  501    0  0.00000000000E+00  0.00000000000E+00  0.85658326012E+03  0.85658326013E+03  0.50400001928E-02 0.  1.
       -1   -1    0    0    0  501  0.00000000000E+00  0.00000000000E+00 -0.48379056862E+03  0.48379056865E+03  0.50400001928E-02 0. -1.
    10030    2    1    2    0    0  0.00000000000E+00  0.00000000000E+00  0.37279269150E+03  0.13403738288E+04  0.12874888776E+04 0.  0.
        1    1    3    3  502    0 -0.39364752342E+02  0.44483030226E+03  0.66910472446E+03  0.80444062171E+03  0.50400001928E-02 0.  1.
       -1    1    3    3    0  502  0.39364752342E+02 -0.44483030226E+03 -0.29631203296E+03  0.53593320707E+03  0.50400001928E-02 0. -1.
</event>
<event>
 5   0  0.3263679E-04  0.1311013E+04  0.7818609E-02  0.9020877E-01
        1   -1    0    0  501    0  0.00000000000E+00  0.00000000000E+00  0.10500723660E+04  0.10500723660E+04  0.50400001928E-02 0. -1.
       -1   -1    0    0    0  501  0.00000000000E+00  0.00000000000E+00 -0.40919899552E+03  0.40919899555E+03  0.50400001928E-02 0.  1.
    10030    2    1    2    0    0  0.00000000000E+00  0.00000000000E+00  0.64087337051E+03  0.14592713616E+04  0.13110126734E+04 0.  0.
        2    1    3    3  502    0  0.65174396447E+02  0.44949467399E+03  0.84653423158E+03  0.96068380289E+03  0.25500000920E-02 0. -1.
       -2    1    3    3    0  502 -0.65174396447E+02 -0.44949467399E+03 -0.20566086108E+03  0.49858755869E+03  0.25500000920E-02 0.  1.
</event>
<event>
 5   0  0.2255875E-04  0.1284290E+04  0.7818609E-02  0.9042117E-01
       -4   -1    0    0    0  501  0.00000000000E+00  0.00000000000E+00  0.27023289098E+03  0.27023587524E+03  0.12699999809E+01 0. -1.
        4   -1    0    0  501    0  0.00000000000E+00  0.00000000000E+00 -0.15258958378E+04  0.15258963663E+04  0.12699999809E+01 0.  1.
    10030    2    1    2    0    0  0.00000000000E+00  0.00000000000E+00 -0.12556629468E+04  0.17961322416E+04  0.12842903072E+04 0.  0.
        3    1    3    3  502    0  0.22628963544E+03  0.18042627879E+03  0.17385048090E+03  0.33761611498E+03  0.10100000352E+00 0. -1.
       -3    1    3    3    0  502 -0.22628963544E+03 -0.18042627879E+03 -0.14295134277E+04  0.14585161266E+04  0.10100000352E+00 0.  1.
</event>
<event>
 5   0  0.5384960E-04  0.1293228E+04  0.7818609E-02  0.9034952E-01
       -2   -1    0    0    0  501  0.00000000000E+00  0.00000000000E+00  0.69686077243E+03  0.69686077244E+03  0.25500000920E-02 0.  1.
        2   -1    0    0  501    0  0.00000000000E+00  0.00000000000E+00 -0.59999068115E+03  0.59999068115E+03  0.25500000920E-02 0. -1.
    10030    2    1    2    0    0  0.00000000000E+00  0.00000000000E+00  0.96870091286E+02  0.12968514536E+04  0.12932284710E+04 0.  0.
        3    1    3    3  502    0 -0.10892253928E+03 -0.17003441115E+03 -0.56756114365E+03  0.60241304976E+03  0.10100000352E+00 0. -1.
       -3    1    3    3    0  502  0.10892253928E+03  0.17003441115E+03  0.66443123494E+03  0.69443840382E+03  0.10100000352E+00 0.  1.
</event>
<event>
 5   0  0.5957913E-04  0.1299740E+04  0.7818609E-02  0.9029772E-01
       -2   -1    0    0    0  501  0.00000000000E+00  0.00000000000E+00  0.53977445732E+03  0.53977445732E+03  0.25500000920E-02 0.  1.
        2   -1    0    0  501    0  0.00000000000E+00  0.00000000000E+00 -0.78242094594E+03  0.78242094594E+03  0.25500000920E-02 0. -1.
    10030    2    1    2    0    0  0.00000000000E+00  0.00000000000E+00 -0.24264648862E+03  0.13221954033E+04  0.12997397301E+04 0.  0.
        1    1    3    3  502    0  0.53220942751E+03 -0.15971662264E+03 -0.46415401395E+03  0.72401327541E+03  0.50400001928E-02 0.  1.
       -1    1    3    3    0  502 -0.53220942751E+03  0.15971662264E+03  0.22150752533E+03  0.59818212785E+03  0.50400001928E-02 0. -1.
</event>
<event>
 5   0  0.5384960E-04  0.1299480E+04  0.7818609E-02  0.9029978E-01
       -2   -1    0    0    0  501  0.00000000000E+00  0.00000000000E+00  0.11532340438E+04  0.11532340438E+04  0.25500000920E-02 0.  1.
        2   -1    0    0  501    0  0.00000000000E+00  0.00000000000E+00 -0.36606787297E+03  0.36606787298E+03  0.25500000920E-02 0. -1.
    10030    2    1    2    0    0  0.00000000000E+00  0.00000000000E+00  0.78716617081E+03  0.15193019168E+04  0.12994797935E+04 0.  0.
        3    1    3    3  502    0  0.46164180570E+03 -0.22481803131E+03  0.85905864919E+03  0.10008187033E+04  0.10100000352E+00 0.  1.
       -3    1    3    3    0  502 -0.46164180570E+03  0.22481803131E+03 -0.71892478376E+02  0.51848321345E+03  0.10100000352E+00 0. -1.
</event>
<event>
 5   0  0.3274879E-04  0.1297677E+04  0.7818609E-02  0.9031410E-01
       -1   -1    0    0    0  501  0.00000000000E+00  0.00000000000E+00  0.70171295110E+03  0.70171295111E+03  0.50400001928E-02 0. -1.
        1   -1    0    0  501    0  0.00000000000E+00  0.00000000000E+00 -0.59994781753E+03  0.59994781755E+03  0.50400001928E-02 0.  1.
    10030    2    1    2    0    0  0.00000000000E+00  0.00000000000E+00  0.10176513357E+03  0.13016607687E+04  0.12976766216E+04 0.  0.
        4    1    3    3  502    0  0.60821551025E+03  0.11562733837E+03 -0.14386230115E+03  0.63560503686E+03  0.12699999809E+01 0. -1.
       -4    1    3    3    0  502 -0.60821551025E+03 -0.11562733837E+03  0.24562743472E+03  0.66605573181E+03  0.12699999809E+01 0.  1.
</event>
<event>
 5   0  0.6052864E-04  0.1298555E+04  0.7818609E-02  0.9030712E-01
       -2   -1    0    0    0  501  0.00000000000E+00  0.00000000000E+00  0.68113946356E+03  0.68113946356E+03  0.25500000920E-02 0. -1.
        2   -1    0    0  501    0  0.00000000000E+00  0.00000000000E+00 -0.61890564300E+03  0.61890564301E+03  0.25500000920E-02 0.  1.
    10030    2    1    2    0    0  0.00000000000E+00  0.00000000000E+00  0.62233820555E+02  0.13000451066E+04  0.12985546699E+04 0.  0.
        2    1    3    3  502    0  0.38415286305E+03 -0.18624769208E+03 -0.45862696905E+03  0.62657826466E+03  0.25500000920E-02 0.  1.
       -2    1    3    3    0  502 -0.38415286305E+03  0.18624769208E+03  0.52086078961E+03  0.67346684191E+03  0.25500000920E-02 0. -1.
</event>
<event>
 5   0  0.6052864E-04  0.1298289E+04  0.7818609E-02  0.9030923E-01
       -2   -1    0    0    0  501  0.00000000000E+00  0.00000000000E+00  0.47964031840E+03  0.47964031841E+03  0.25500000920E-02 0.  1.
        2   -1    0    0  501    0  0.00000000000E+00  0.00000000000E+00 -0.87855157539E+03  0.87855157539E+03  0.25500000920E-02 0. -1.
    10030    2    1    2    0    0  0.00000000000E+00  0.00000000000E+00 -0.39891125698E+03  0.13581918938E+04  0.12982892703E+04 0.  0.
        2    1    3    3  502    0  0.40268888011E+03  0.32004795423E+03 -0.61370544214E+03  0.80076425800E+03  0.25500000920E-02 0. -1.
       -2    1    3    3    0  502 -0.40268888011E+03 -0.32004795423E+03  0.21479418516E+03  0.55742763580E+03  0.25500000920E-02 0.  1.
</event>
<event>
 5   0  0.3274879E-04  0.1300262E+04  0.7818609E-02  0.9029357E-01
        1   -1    0    0  501    0  0.00000000000E+00  0.00000000000E+00  0.14820204840E+04  0.14820204840E+04  0.50400001928E-02 0. -1.
       -1   -1    0    0    0  501  0.00000000000E+00  0.00000000000E+00 -0.28519867037E+03  0.28519867042E+03  0.50400001928E-02 0.  1.
    10030    2    1    2    0    0  0.00000000000E+00  0.00000000000E+00  0.11968218136E+04  0.17672191544E+04  0.13002619298E+04 0.  0.
        4    1    3    3  502    0  0.62421423432E+03 -0.63031706866E+02  0.83007006088E+03  0.10404971529E+04  0.12699999809E+01 0. -1.
       -4    1    3    3    0  502 -0.62421423432E+03  0.63031706866E+02  0.36675175275E+03  0.72672200149E+03  0.12699999809E+01 0.  1.
</event>
<event>
 5   0  0.3263679E-04  0.1298253E+04  0.7818609E-02  0.9030952E-01
       -1   -1    0    0    0  501  0.00000000000E+00  0.00000000000E+00  0.31470249985E+03  0.31470249989E+03  0.50400001928E-02 0. -1.
        1   -1    0    0  501    0  0.00000000000E+00  0.00000000000E+00 -0.13389312132E+04  0.13389312132E+04  0.50400001928E-02 0.  1.
    10030    2    1    2    0    0  0.00000000000E+00  0.00000000000E+00 -0.10242287133E+04  0.16536337131E+04  0.12982526718E+04 0.  0.
        2    1    3    3  502    0  0.64307394039E+03  0.64469623436E+02 -0.58922101600E+03  0.87457522882E+03  0.25500000920E-02 0. -1.
       -2    1    3    3    0  502 -0.64307394039E+03 -0.64469623436E+02 -0.43500769732E+03  0.77905848426E+03  0.25500000920E-02 0.  1.
</event>
<event>
 5   0  0.3337520E-04  0.1294218E+04  0.7818609E-02  0.9034163E-01
        1   -1    0    0  501    0  0.00000000000E+00  0.00000000000E+00  0.41205941446E+03  0.41205941449E+03  0.50400001928E-02 0.  1.
       -1   -1    0    0    0  501  0.00000000000E+00  0.00000000000E+00 -0.10162368957E+04  0.10162368957E+04  0.50400001928E-02 0. -1.
    10030    2    1    2    0    0  0.00000000000E+00  0.00000000000E+00 -0.60417748121E+03  0.14282963102E+04  0.12942178800E+04 0.  0.
        5    1    3    3  502    0  0.16967978143E+03  0.53908228455E+03 -0.64990067052E+03  0.86127458414E+03  0.46999998093E+01 0. -1.
       -5    1    3    3    0  502 -0.16967978143E+03 -0.53908228455E+03  0.45723189311E+02  0.56702172602E+03  0.46999998093E+01 0.  1.
</event>
<event>
 5   0  0.5787604E-04  0.1299695E+04  0.7818609E-02  0.9029807E-01
        2   -1    0    0  501    0  0.00000000000E+00  0.00000000000E+00  0.13078633896E+04  0.13078633896E+04  0.25500000920E-02 0. -1.
       -2   -1    0    0    0  501  0.00000000000E+00  0.00000000000E+00 -0.32289446926E+03  0.32289446927E+03  0.25500000920E-02 0.  1.
    10030    2    1    2    0    0  0.00000000000E+00  0.00000000000E+00  0.98496892032E+03  0.16307578589E+04  0.12996951259E+04 0.  0.
        4    1    3    3  502    0  0.39919722645E+03 -0.50811030707E+03  0.40586552992E+03  0.76306156438E+03  0.12699999809E+01 0.  1.
       -4    1    3    3    0  502 -0.39919722645E+03  0.50811030707E+03  0.57910339041E+03  0.86769629447E+03  0.12699999809E+01 0. -1.
</event>
<event>
 5   0  0.3337520E-04  0.1301525E+04  0.7818609E-02  0.9028357E-01
        1   -1    0    0  501    0  0.00000000000E+00  0.00000000000E+00  0.34765447045E+03  0.34765447049E+03  0.50400001928E-02 0.  1.
       -1   -1    0    0    0  501  0.00000000000E+00  0.00000000000E+00 -0.12181400214E+04  0.12181400214E+04  0.50400001928E-02 0. -1.
    10030    2    1    2    0    0  0.00000000000E+00  0.00000000000E+00 -0.87048555096E+03  0.15657944919E+04  0.13015249888E+04 0.  0.
        5    1    3    3  502    0 -0.51113632443E+03 -0.11109589446E+03 -0.90097404052E+03  0.10418152195E+04  0.46999998093E+01 0. -1.
       -5    1    3    3    0  502  0.51113632443E+03  0.11109589446E+03  0.30488489561E+02  0.52397927240E+03  0.46999998093E+01 0.  1.
</event>
<event>
 5   0  0.5957913E-04  0.1295954E+04  0.7818609E-02  0.9032780E-01
        2   -1    0    0  501    0  0.00000000000E+00  0.00000000000E+00  0.51768415056E+03  0.51768415057E+03  0.25500000920E-02 0.  1.
       -2   -1    0    0    0  501  0.00000000000E+00  0.00000000000E+00 -0.81106237514E+03  0.81106237514E+03  0.25500000920E-02 0. -1.
    10030    2    1    2    0    0  0.00000000000E+00  0.00000000000E+00 -0.29337822458E+03  0.13287465257E+04  0.12959539139E+04 0.  0.
        1    1    3    3  502    0  0.45055788276E+03  0.80116360442E+02 -0.61704896726E+03  0.76822553001E+03  0.50400001928E-02 0. -1.
       -1    1    3    3    0  502 -0.45055788276E+03 -0.80116360442E+02  0.32367074268E+03  0.56052099570E+03  0.50400001928E-02 0.  1.
</event>
<event>
 5   0  0.3337520E-04  0.1336982E+04  0.7818609E-02  0.9000742E-01
       -1   -1    0    0    0  501  0.00000000000E+00  0.00000000000E+00  0.61974914746E+03  0.61974914748E+03  0.50400001928E-02 0.  1.
        1   -1    0    0  501    0  0.00000000000E+00  0.00000000000E+00 -0.72106607064E+03  0.72106607065E+03  0.50400001928E-02 0. -1.
    10030    2    1    2    0    0  0.00000000000E+00  0.00000000000E+00 -0.10131692318E+03  0.13408152181E+04  0.13369817988E+04 0.  0.
        5    1    3    3  502    0  0.55619339778E+03 -0.36104823533E+03  0.34147993036E+02  0.66399932183E+03  0.46999998093E+01 0.  1.
       -5    1    3    3    0  502 -0.55619339778E+03  0.36104823533E+03 -0.13546491621E+03  0.67681589630E+03  0.46999998093E+01 0. -1.
</event>
<event>
 5   0  0.3403833E-04  0.1301246E+04  0.7818609E-02  0.9028577E-01
        1   -1    0    0  501    0  0.00000000000E+00  0.00000000000E+00  0.16754218114E+04  0.16754218114E+04  0.50400001928E-02 0. -1.
       -1   -1    0    0    0  501  0.00000000000E+00  0.00000000000E+00 -0.25265903921E+03  0.25265903926E+03  0.50400001928E-02 0.  1.
    10030    2    1    2    0    0  0.00000000000E+00  0.00000000000E+00  0.14227627722E+04  0.19280808506E+04  0.13012462721E+04 0.  0.
        1    1    3    3  502    0  0.14150995917E+03  0.50419373348E+03  0.12834746124E+04  0.13861974860E+04  0.50400001928E-02 0. -1.
       -1    1    3    3    0  502 -0.14150995917E+03 -0.50419373348E+03  0.13928815975E+03  0.54188336466E+03  0.50400001928E-02 0.  1.
</event>
<event>
 5   0  0.3335747E-04  0.1298087E+04  0.7818609E-02  0.9031083E-01
        1   -1    0    0  501    0  0.00000000000E+00  0.00000000000E+00  0.16554314109E+04  0.16554314109E+04  0.50400001928E-02 0. -1.
       -1   -1    0    0    0  501  0.00000000000E+00  0.00000000000E+00 -0.25447007091E+03  0.25447007096E+03  0.50400001928E-02 0.  1.
    10030    2    1    2    0    0  0.00000000000E+00  0.00000000000E+00  0.14009613399E+04  0.19099014818E+04  0.12980874371E+04 0.  0.
        3    1    3    3  502    0  0.11625426661E+03 -0.63609332512E+03  0.61819238659E+03  0.89459019099E+03  0.10100000352E+00 0.  1.
       -3    1    3    3    0  502 -0.11625426661E+03  0.63609332512E+03  0.78276895335E+03  0.10153112908E+04  0.10100000352E+00 0. -1.
</event>
<event>
 5   0  0.3337520E-04  0.1297412E+04  0.7818609E-02  0.9031620E-01
       -1   -1    0    0    0  501  0.00000000000E+00  0.00000000000E+00  0.42346396612E+03  0.42346396615E+03  0.50400001928E-02 0. -1.
        1   -1    0    0  501    0  0.00000000000E+00  0.00000000000E+00 -0.99375444135E+03  0.99375444136E+03  0.50400001928E-02 0.  1.
    10030    2    1    2    0    0  0.00000000000E+00  0.00000000000E+00 -0.57029047523E+03  0.14172184075E+04  0.12974115725E+04 0.  0.
        5    1    3    3  502    0  0.33259278461E+03 -0.14150630243E+03  0.30325675013E+03  0.47183550152E+03  0.46999998093E+01 0. -1.
       -5    1    3    3    0  502 -0.33259278461E+03  0.14150630243E+03 -0.87354722536E+03  0.94538290599E+03  0.46999998093E+01 0.  1.
</event>
<event>
 5   0  0.5787604E-04  0.1289817E+04  0.7818609E-02  0.9037680E-01
        2   -1    0    0  501    0  0.00000000000E+00  0.00000000000E+00  0.27670620779E+04  0.27670620779E+04  0.25500000920E-02 0.  1.
       -2   -1    0    0    0  501  0.00000000000E+00  0.00000000000E+00 -0.15030625889E+03  0.15030625891E+03  0.25500000920E-02 0. -1.
    10030    2    1    2    0    0  0.00000000000E+00  0.00000000000E+00  0.26167558190E+04  0.29173683368E+04  0.12898166522E+04 0.  0.
        4    1    3    3  502    0  0.38116277904E+03  0.23691701809E+03  0.23559097044E+04  0.23982758152E+04  0.12699999809E+01 0.  1.
       -4    1    3    3    0  502 -0.38116277904E+03 -0.23691701809E+03  0.26084611461E+03  0.51909252161E+03  0.12699999809E+01 0. -1.
</event>
<event>
 5   0  0.5384960E-04  0.1298482E+04  0.7818609E-02  0.9030770E-01
        2   -1    0    0  501    0  0.00000000000E+00  0.00000000000E+00  0.23316190155E+04  0.23316190155E+04  0.25500000920E-02 0.  1.
       -2   -1    0    0    0  501  0.00000000000E+00  0.00000000000E+00 -0.18078159326E+03  0.18078159328E+03  0.25500000920E-02 0. -1.
    10030    2    1    2    0    0  0.00000000000E+00  0.00000000000E+00  0.21508374223E+04  0.25124006088E+04  0.12984818836E+04 0.  0.
        3    1    3    3  502    0  0.37597419706E+03  0.29650903546E+03  0.22706999728E+03  0.52993867459E+03  0.10100000352E+00 0. -1.
       -3    1    3    3    0  502 -0.37597419706E+03 -0.29650903546E+03  0.19237674250E+04  0.19824619342E+04  0.10100000352E+00 0.  1.
</event>
<event>
 5   0  0.6052864E-04  0.1298684E+04  0.7818609E-02  0.9030609E-01
       -2   -1    0    0    0  501  0.00000000000E+00  0.00000000000E+00  0.71756476914E+03  0.71756476914E+03  0.25500000920E-02 0.  1.
        2   -1    0    0  501    0  0.00000000000E+00  0.00000000000E+00 -0.58760574962E+03  0.58760574962E+03  0.25500000920E-02 0. -1.
    10030    2    1    2    0    0  0.00000000000E+00  0.00000000000E+00  0.12995901952E+03  0.13051705188E+04  0.12986842327E+04 0.  0.
        2    1    3    3  502    0 -0.10600855702E+03  0.41925009344E+03 -0.42183295016E+03  0.60411215255E+03  0.25500000920E-02 0. -1.
       -2    1    3    3    0  502  0.10600855702E+03 -0.41925009344E+03  0.55179196968E+03  0.70105836621E+03  0.25500000920E-02 0.  1.
</event>
<event>
 5   0  0.5957913E-04  0.1299985E+04  0.7818609E-02  0.9029577E-01
        2   -1    0    0  501    0  0.00000000000E+00  0.00000000000E+00  0.64772438998E+03  0.64772438998E+03  0.25500000920E-02 0. -1.
       -2   -1    0    0    0  501  0.00000000000E+00  0.00000000000E+00 -0.65226862230E+03  0.65226862230E+03  0.25500000920E-02 0.  1.
    10030    2    1    2    0    0  0.00000000000E+00  0.00000000000E+00 -0.45442323205E+01  0.12999930123E+04  0.12999850699E+04 0.  0.
        1    1    3    3  502    0  0.61480051626E+03  0.18990941012E+03 -0.94169557978E+02  0.65031774120E+03  0.50400001928E-02 0.  1.
       -1    1    3    3    0  502 -0.61480051626E+03 -0.18990941012E+03  0.89625325657E+02  0.64967527109E+03  0.50400001928E-02 0. -1.
</event>
<event>
 5   0  0.6007125E-04  0.1300406E+04  0.7818609E-02  0.9029243E-01
       -2   -1    0    0    0  501  0.00000000000E+00  0.00000000000E+00  0.35233576075E+03  0.35233576075E+03  0.25500000920E-02 0. -1.
        2   -1    0    0  501    0  0.00000000000E+00  0.00000000000E+00 -0.11998897000E+04  0.11998897000E+04  0.25500000920E-02 0.  1.
    10030    2    1    2    0    0  0.00000000000E+00  0.00000000000E+00 -0.84755393921E+03  0.15522254607E+04  0.13004061677E+04 0.  0.
        5    1    3    3  502    0 -0.24502069278E+03  0.50953002403E+03 -0.80702115420E+03  0.98537364416E+03  0.46999998093E+01 0.  1.
       -5    1    3    3    0  502  0.24502069278E+03 -0.50953002403E+03 -0.40532785011E+02  0.56685181656E+03  0.46999998093E+01 0. -1.
</event>
<event>
 5   0  0.5384960E-04  0.1298916E+04  0.7818609E-02  0.9030426E-01
        2   -1    0    0  501    0  0.00000000000E+00  0.00000000000E+00  0.87967990310E+03  0.87967990311E+03  0.25500000920E-02 0.  1.
       -2   -1    0    0    0  501  0.00000000000E+00  0.00000000000E+00 -0.47948736898E+03  0.47948736899E+03  0.25500000920E-02 0. -1.
    10030    2    1    2    0    0  0.00000000000E+00  0.00000000000E+00  0.40019253413E+03  0.13591672721E+04  0.12989155512E+04 0.  0.
        3    1    3    3  502    0 -0.54615508118E+03 -0.20629315576E+03 -0.97624327104E+02  0.59192293270E+03  0.10100000352E+00 0. -1.
       -3    1    3    3    0  502  0.54615508118E+03  0.20629315576E+03  0.49781686123E+03  0.76724433940E+03  0.10100000352E+00 0.  1.
</event>
<event>
 5   0  0.3403833E-04  0.1299730E+04  0.7818609E-02  0.9029779E-01
        1   -1    0    0  501    0  0.00000000000E+00  0.00000000000E+00  0.12569790128E+04  0.12569790128E+04  0.50400001928E-02 0. -1.
       -1   -1    0    0    0  501  0.00000000000E+00  0.00000000000E+00 -0.33598367985E+03  0.33598367989E+03  0.50400001928E-02 0.  1.
    10030    2    1    2    0    0  0.00000000000E+00  0.00000000000E+00  0.92099533297E+03  0.15929626927E+04  0.12997298708E+04 0.  0.
        1    1    3    3  502    0 -0.42023342315E+03 -0.66390268477E+02 -0.14157614314E+03  0.44838332040E+03  0.50400001928E-02 0.  1.
       -1    1    3    3    0  502  0.42023342315E+03  0.66390268477E+02  0.10625714761E+04  0.11445793723E+04  0.50400001928E-02 0. -1.
</event>
<event>
 5   0  0.3335747E-04  0.1302801E+04  0.7818609E-02  0.9027347E-01
        1   -1    0    0  501    0  0.00000000000E+00  0.00000000000E+00  0.49159035102E+03  0.49159035105E+03  0.50400001928E-02 0.  1.
       -1   -1    0    0    0  501  0.00000000000E+00  0.00000000000E+00 -0.86316273612E+03  0.86316273613E+03  0.50400001928E-02 0. -1.
    10030    2    1    2    0    0  0.00000000000E+00  0.00000000000E+00 -0.37157238510E+03  0.13547530872E+04  0.13028007867E+04 0.  0.
        3    1    3    3  502    0  0.63480187491E+03  0.13536222944E+03 -0.12858245563E+03  0.66168709496E+03  0.10100000352E+00 0. -1.
       -3    1    3    3    0  502 -0.63480187491E+03 -0.13536222944E+03 -0.24298992947E+03  0.69306599222E+03  0.10100000352E+00 0.  1.
</event>
<event>
 5   0  0.3337520E-04  0.1298115E+04  0.7818609E-02  0.9031062E-01
       -1   -1    0    0    0  501  0.00000000000E+00  0.00000000000E+00  0.91451925703E+03  0.91451925704E+03  0.50400001928E-02 0.  1.
        1   -1    0    0  501    0  0.00000000000E+00  0.00000000000E+00 -0.46065229107E+03  0.46065229109E+03  0.50400001928E-02 0. -1.
    10030    2    1    2    0    0  0.00000000000E+00  0.00000000000E+00  0.45386696596E+03  0.13751715481E+04  0.12981146190E+04 0.  0.
        5    1    3    3  502    0  0.10102457048E+03  0.28966746777E+02  0.90542752843E+03  0.91151858758E+03  0.46999998093E+01 0.  1.
       -5    1    3    3    0  502 -0.10102457048E+03 -0.28966746777E+02 -0.45156056247E+03  0.46365296056E+03  0.46999998093E+01 0. -1.
</event>
<event>
 5   0  0.3335747E-04  0.1296117E+04  0.7818609E-02  0.9032650E-01
        1   -1    0    0  501    0  0.00000000000E+00  0.00000000000E+00  0.13624859455E+04  0.13624859455E+04  0.50400001928E-02 0.  1.
       -1   -1    0    0    0  501  0.00000000000E+00  0.00000000000E+00 -0.30824529621E+03  0.30824529625E+03  0.50400001928E-02 0. -1.
    10030    2    1    2    0    0  0.00000000000E+00  0.00000000000E+00  0.10542406493E+04  0.16707312417E+04  0.12961170995E+04 0.  0.
        3    1    3    3  502    0  0.11997126798E+03  0.88726536944E+02 -0.28580002466E+03  0.32240838667E+03  0.10100000352E+00 0. -1.
       -3    1    3    3    0  502 -0.11997126798E+03 -0.88726536944E+02  0.13400406739E+04  0.13483228551E+04  0.10100000352E+00 0.  1.
</event>
<event>
 5   0  0.6052864E-04  0.1290319E+04  0.7818609E-02  0.9037278E-01
       -2   -1    0    0    0  501  0.00000000000E+00  0.00000000000E+00  0.21374066108E+03  0.21374066109E+03  0.25500000920E-02 0. -1.
        2   -1    0    0  501    0  0.00000000000E+00  0.00000000000E+00 -0.19473636833E+04  0.19473636833E+04  0.25500000920E-02 0.  1.
    10030    2    1    2    0    0  0.00000000000E+00  0.00000000000E+00 -0.17336230223E+04  0.21611043444E+04  0.12903190319E+04 0.  0.
        2    1    3    3  502    0  0.49892196234E+03 -0.13153241608E+03 -0.21812591974E+03  0.56018105809E+03  0.25500000920E-02 0. -1.
       -2    1    3    3    0  502 -0.49892196234E+03  0.13153241608E+03 -0.15154971025E+04  0.16009232863E+04  0.25500000920E-02 0.  1.
</event>
<event>
 5   0  0.5384960E-04  0.1301455E+04  0.7818609E-02  0.9028412E-01
       -2   -1    0    0    0  501  0.00000000000E+00  0.00000000000E+00  0.34593630477E+03  0.34593630478E+03  0.25500000920E-02 0. -1.
        2   -1    0    0  501    0  0.00000000000E+00  0.00000000000E+00 -0.12240578219E+04  0.12240578219E+04  0.25500000920E-02 0.  1.
    10030    2    1    2    0    0  0.00000000000E+00  0.00000000000E+00 -0.87812151716E+03  0.15699941267E+04  0.13014546319E+04 0.  0.
        3    1    3    3  502    0 -0.89644518208E+01  0.57358228721E+03 -0.68479258371E+02  0.57772521204E+03  0.10100000352E+00 0.  1.
       -3    1    3    3    0  502  0.89644518208E+01 -0.57358228721E+03 -0.80964225879E+03  0.99226891467E+03  0.10100000352E+00 0. -1.
</event>
<event>
 5   0  0.3335747E-04  0.1301711E+04  0.7818609E-02  0.9028209E-01
       -1   -1    0    0    0  501  0.00000000000E+00  0.00000000000E+00  0.29663919828E+03  0.29663919832E+03  0.50400001928E-02 0.  1.
        1   -1    0    0  501    0  0.00000000000E+00  0.00000000000E+00 -0.14280419016E+04  0.14280419016E+04  0.50400001928E-02 0. -1.
    10030    2    1    2    0    0  0.00000000000E+00  0.00000000000E+00 -0.11314027034E+04  0.17246811000E+04  0.13017114962E+04 0.  0.
        3    1    3    3  502    0  0.48566917504E+03 -0.43328370728E+03 -0.56309285532E+03  0.86062935837E+03  0.10100000352E+00 0.  1.
       -3    1    3    3    0  502 -0.48566917504E+03  0.43328370728E+03 -0.56830984804E+03  0.86405174159E+03  0.10100000352E+00 0. -1.
</event>
<event>
 5   0  0.3263679E-04  0.1307682E+04  0.7818609E-02  0.9023495E-01
        1   -1    0    0  501    0  0.00000000000E+00  0.00000000000E+00  0.11192236165E+04  0.11192236165E+04  0.50400001928E-02 0.  1.
       -1   -1    0    0    0  501  0.00000000000E+00  0.00000000000E+00 -0.38196851333E+03  0.38196851336E+03  0.50400001928E-02 0. -1.
    10030    2    1    2    0    0  0.00000000000E+00  0.00000000000E+00  0.73725510313E+03  0.15011921298E+04  0.13076821952E+04 0.  0.
        2    1    3    3  502    0  0.48579163641E+03 -0.30888405350E+03  0.12744130612E+02  0.57581705895E+03  0.25500000920E-02 0. -1.
       -2    1    3    3    0  502 -0.48579163641E+03  0.30888405350E+03  0.72451097252E+03  0.92537507088E+03  0.25500000920E-02 0.  1.
</event>
<event>
 5   0  0.6052864E-04  0.1299724E+04  0.7818609E-02  0.9029784E-01
       -2   -1    0    0    0  501  0.00000000000E+00  0.00000000000E+00  0.56715796793E+03  0.56715796793E+03  0.25500000920E-02 0.  1.
        2   -1    0    0  501    0  0.00000000000E+00  0.00000000000E+00 -0.74462657442E+03  0.74462657443E+03  0.25500000920E-02 0. -1.
    10030    2    1    2    0    0  0.00000000000E+00  0.00000000000E+00 -0.17746860649E+03  0.13117845424E+04  0.12997244244E+04 0.  0.
        2    1    3    3  502    0 -0.11933243771E+03  0.44277638919E+03  0.37600522446E+03  0.59301862562E+03  0.25500000920E-02 0.  1.
       -2    1    3    3    0  502  0.11933243771E+03 -0.44277638919E+03 -0.55347383095E+03  0.71876591674E+03  0.25500000920E-02 0. -1.
</event>
<event>
 5   0  0.3263679E-04  0.1299726E+04  0.7818609E-02  0.9029782E-01
       -1   -1    0    0    0  501  0.00000000000E+00  0.00000000000E+00  0.12870573380E+04  0.12870573380E+04  0.50400001928E-02 0.  1.
        1   -1    0    0  501    0  0.00000000000E+00  0.00000000000E+00 -0.32813006307E+03  0.32813006311E+03  0.50400001928E-02 0. -1.
    10030    2    1    2    0    0  0.00000000000E+00  0.00000000000E+00  0.95892727493E+03  0.16151874011E+04  0.12997264413E+04 0.  0.
        2    1    3    3  502    0 -0.29952241448E+03  0.37348255832E+03  0.10255782682E+04  0.11318187498E+04  0.25500000920E-02 0.  1.
       -2    1    3    3    0  502  0.29952241448E+03 -0.37348255832E+03 -0.66650993308E+02  0.48336865130E+03  0.25500000920E-02 0. -1.
</event>
<event>
 5   0  0.2255875E-04  0.1303864E+04  0.7818609E-02  0.9026506E-01
        3   -1    0    0  501    0  0.00000000000E+00  0.00000000000E+00  0.10623733168E+04  0.10623733216E+04  0.10100000352E+00 0. -1.
       -3   -1    0    0    0  501  0.00000000000E+00  0.00000000000E+00 -0.40006241046E+03  0.40006242321E+03  0.10100000352E+00 0.  1.
    10030    2    1    2    0    0  0.00000000000E+00  0.00000000000E+00  0.66231090637E+03  0.14624357448E+04  0.13038644757E+04 0.  0.
        4    1    3    3  502    0  0.87779439349E+02  0.35495537046E+03  0.93653274425E+03  0.10053823844E+04  0.12699999809E+01 0. -1.
       -4    1    3    3    0  502 -0.87779439349E+02 -0.35495537046E+03 -0.27422183788E+03  0.45705336040E+03  0.12699999809E+01 0.  1.
</event>
<event>
 5   0  0.5957913E-04  0.1299800E+04  0.7818609E-02  0.9029724E-01
       -2   -1    0    0    0  501  0.00000000000E+00  0.00000000000E+00  0.26642677642E+03  0.26642677643E+03  0.25500000920E-02 0. -1.
        2   -1    0    0  501    0  0.00000000000E+00  0.00000000000E+00 -0.15853141891E+04  0.15853141891E+04  0.25500000920E-02 0.  1.
    10030    2    1    2    0    0  0.00000000000E+00  0.00000000000E+00 -0.13188874127E+04  0.18517409656E+04  0.12998002139E+04 0.  0.
        1    1    3    3  502    0 -0.62331861547E+02 -0.18959902134E+02  0.26176261809E+03  0.26974878518E+03  0.50400001928E-02 0. -1.
       -1    1    3    3    0  502  0.62331861547E+02  0.18959902134E+02 -0.15806500308E+04  0.15819921804E+04  0.50400001928E-02 0.  1.
</event>
<event>
 5   0  0.3274879E-04  0.1304769E+04  0.7818609E-02  0.9025792E-01
        1   -1    0    0  501    0  0.00000000000E+00  0.00000000000E+00  0.13451129496E+04  0.13451129496E+04  0.50400001928E-02 0.  1.
       -1   -1    0    0    0  501  0.00000000000E+00  0.00000000000E+00 -0.31640889883E+03  0.31640889887E+03  0.50400001928E-02 0. -1.
    10030    2    1    2    0    0  0.00000000000E+00  0.00000000000E+00  0.10287040508E+04  0.16615218485E+04  0.13047692627E+04 0.  0.
        4    1    3    3  502    0  0.60113335187E+03 -0.24495801654E+03  0.43144885403E+03  0.77943278296E+03  0.12699999809E+01 0. -1.
       -4    1    3    3    0  502 -0.60113335187E+03  0.24495801654E+03  0.59725519678E+03  0.88208906556E+03  0.12699999809E+01 0.  1.
</event>
<event>
 5   0  0.3403833E-04  0.1297022E+04  0.7818609E-02  0.9031930E-01
        1   -1    0    0  501    0  0.00000000000E+00  0.00000000000E+00  0.12707930990E+04  0.12707930990E+04  0.50400001928E-02 0.  1.
       -1   -1    0    0    0  501  0.00000000000E+00  0.00000000000E+00 -0.33094799342E+03  0.33094799346E+03  0.50400001928E-02 0. -1.
    10030    2    1    2    0    0  0.00000000000E+00  0.00000000000E+00  0.93984510561E+03  0.16017410925E+04  0.12970218598E+04 0.  0.
        1    1    3    3  502    0  0.37138336456E+03  0.48251835702E+03  0.19428829901E+03  0.63913810049E+03  0.50400001928E-02 0. -1.
       -1    1    3    3    0  502 -0.37138336456E+03 -0.48251835702E+03  0.74555680660E+03  0.96260299201E+03  0.50400001928E-02 0.  1.
</event>
<event>
 5   0  0.3263679E-04  0.1305795E+04  0.7818609E-02  0.9024982E-01
       -1   -1    0    0    0  501  0.00000000000E+00  0.00000000000E+00  0.40905840397E+03  0.40905840400E+03  0.50400001928E-02 0. -1.
        1   -1    0    0  501    0  0.00000000000E+00  0.00000000000E+00 -0.10420894760E+04  0.10420894760E+04  0.50400001928E-02 0.  1.
    10030    2    1    2    0    0  0.00000000000E+00  0.00000000000E+00 -0.63303107203E+03  0.14511478800E+04  0.13057954784E+04 0.  0.
        2    1    3    3  502    0 -0.90179668821E+02  0.22066790563E+03  0.35896621150E+03  0.43091001177E+03  0.25500000920E-02 0. -1.
       -2    1    3    3    0  502  0.90179668821E+02 -0.22066790563E+03 -0.99199728352E+03  0.10202378682E+04  0.25500000920E-02 0.  1.
</event>
<event>
 5   0  0.5957913E-04  0.1297532E+04  0.7818609E-02  0.9031524E-01
       -2   -1    0    0    0  501  0.00000000000E+00  0.00000000000E+00  0.38854134343E+03  0.38854134343E+03  0.25500000920E-02 0. -1.
        2   -1    0    0  501    0  0.00000000000E+00  0.00000000000E+00 -0.10832759393E+04  0.10832759393E+04  0.25500000920E-02 0.  1.
    10030    2    1    2    0    0  0.00000000000E+00  0.00000000000E+00 -0.69473459583E+03  0.14718172827E+04  0.12975322559E+04 0.  0.
        1    1    3    3  502    0 -0.22640254237E+03 -0.19547656428E+03 -0.10003933742E+04  0.10441532941E+04  0.50400001928E-02 0.  1.
       -1    1    3    3    0  502  0.22640254237E+03  0.19547656428E+03  0.30565877835E+03  0.42766398864E+03  0.50400001928E-02 0. -1.
</event>
<event>
 5   0  0.6007125E-04  0.1299267E+04  0.7818609E-02  0.9030146E-01
        2   -1    0    0  501    0  0.00000000000E+00  0.00000000000E+00  0.15416278792E+04  0.15416278793E+04  0.25500000920E-02 0. -1.
       -2   -1    0    0    0  501  0.00000000000E+00  0.00000000000E+00 -0.27375211134E+03  0.27375211136E+03  0.25500000920E-02 0.  1.
    10030    2    1    2    0    0  0.00000000000E+00  0.00000000000E+00  0.12678757679E+04  0.18153799906E+04  0.12992673118E+04 0.  0.
        5    1    3    3  502    0  0.58391985449E+03 -0.45153491900E+02  0.10266588831E+04  0.11819694525E+04  0.46999998093E+01 0. -1.
       -5    1    3    3    0  502 -0.58391985449E+03  0.45153491900E+02  0.24121688476E+03  0.63341053811E+03  0.46999998093E+01 0.  1.
</event>
<event>
 5   0  0.3335747E-04  0.1295742E+04  0.7818609E-02  0.9032949E-01
        1   -1    0    0  501    0  0.00000000000E+00  0.00000000000E+00  0.46281617681E+03  0.46281617684E+03  0.50400001928E-02 0.  1.
       -1   -1    0    0    0  501  0.00000000000E+00  0.00000000000E+00 -0.90691917234E+03  0.90691917236E+03  0.50400001928E-02 0. -1.
    10030    2    1    2    0    0  0.00000000000E+00  0.00000000000E+00 -0.44410299553E+03  0.13697353492E+04  0.12957420485E+04 0.  0.
        3    1    3    3  502    0  0.35805563806E+03 -0.43468911430E+03  0.11651660981E+03  0.57509529350E+03  0.10100000352E+00 0.  1.
       -3    1    3    3    0  502 -0.35805563806E+03  0.43468911430E+03 -0.56061960533E+03  0.79464005570E+03  0.10100000352E+00 0. -1.
</event>
<event>
 5   0  0.5787604E-04  0.1297350E+04  0.7818609E-02  0.9031669E-01
        2   -1    0    0  501    0  0.00000000000E+00  0.00000000000E+00  0.14512775225E+04  0.14512775225E+04  0.25500000920E-02 0.  1.
       -2   -1    0    0    0  501  0.00000000000E+00  0.00000000000E+00 -0.28993720753E+03  0.28993720754E+03  0.25500000920E-02 0. -1.
    10030    2    1    2    0    0  0.00000000000E+00  0.00000000000E+00  0.11613403150E+04  0.17412147300E+04  0.12973501489E+04 0.  0.
        4    1    3    3  502    0 -0.61975158836E+03 -0.67001684860E+02  0.33984639428E+03  0.70998481791E+03  0.12699999809E+01 0. -1.
       -4    1    3    3    0  502  0.61975158836E+03  0.67001684860E+02  0.82149392067E+03  0.10312299121E+04  0.12699999809E+01 0.  1.
</event>
<event>
 5   0  0.3274879E-04  0.1298919E+04  0.7818609E-02  0.9030423E-01
       -1   -1    0    0    0  501  0.00000000000E+00  0.00000000000E+00  0.29192874302E+03  0.29192874307E+03  0.50400001928E-02 0.  1.
        1   -1    0    0  501    0  0.00000000000E+00  0.00000000000E+00 -0.14448646605E+04  0.14448646605E+04  0.50400001928E-02 0. -1.
    10030    2    1    2    0    0  0.00000000000E+00  0.00000000000E+00 -0.11529359175E+04  0.17367934036E+04  0.12989188184E+04 0.  0.
        4    1    3    3  502    0 -0.31513252422E+03  0.20142948902E+03  0.13347611545E+03  0.39711438298E+03  0.12699999809E+01 0.  1.
       -4    1    3    3    0  502  0.31513252422E+03 -0.20142948902E+03 -0.12864120329E+04  0.13396790206E+04  0.12699999809E+01 0. -1.
</event>
<event>
 5   0  0.3337520E-04  0.1301972E+04  0.7818609E-02  0.9028003E-01
        1   -1    0    0  501    0  0.00000000000E+00  0.00000000000E+00  0.76224197679E+03  0.76224197681E+03  0.50400001928E-02 0. -1.
       -1   -1    0    0    0  501  0.00000000000E+00  0.00000000000E+00 -0.55596907458E+03  0.55596907460E+03  0.50400001928E-02 0.  1.
    10030    2    1    2    0    0  0.00000000000E+00  0.00000000000E+00  0.20627290221E+03  0.13182110514E+04  0.13019722984E+04 0.  0.
        5    1    3    3  502    0 -0.23006755284E+03  0.25698482557E+03 -0.45582590606E+03  0.57163941963E+03  0.46999998093E+01 0.  1.
       -5    1    3    3    0  502  0.23006755284E+03 -0.25698482557E+03  0.66209880828E+03  0.74657163177E+03  0.46999998093E+01 0. -1.
</event>
<event>
 5   0  0.3263679E-04  0.1217440E+04  0.7818609E-02  0.9097727E-01
        1   -1    0    0  501    0  0.00000000000E+00  0.00000000000E+00  0.32602172718E+03  0.32602172722E+03  0.50400001928E-02 0. -1.
       -1   -1    0    0    0  501  0.00000000000E+00  0.00000000000E+00 -0.11365495458E+04  0.11365495459E+04  0.50400001928E-02 0.  1.
    10030    2    1    2    0    0  0.00000000000E+00  0.00000000000E+00 -0.81052781866E+03  0.14625712731E+04  0.12174396839E+04 0.  0.
        2    1    3    3  502    0 -0.19850614370E+03  0.57338167731E+03 -0.46373164507E+03  0.76368728916E+03  0.25500000920E-02 0.  1.
       -2    1    3    3    0  502  0.19850614370E+03 -0.57338167731E+03 -0.34679617359E+03  0.69888398393E+03  0.25500000920E-02 0. -1.
</event>
<event>
 5   0  0.3263679E-04  0.1298439E+04  0.7818609E-02  0.9030804E-01
       -1   -1    0    0    0  501  0.00000000000E+00  0.00000000000E+00  0.36224881648E+03  0.36224881652E+03  0.50400001928E-02 0. -1.
        1   -1    0    0  501    0  0.00000000000E+00  0.00000000000E+00 -0.11635254778E+04  0.11635254778E+04  0.50400001928E-02 0.  1.
    10030    2    1    2    0    0  0.00000000000E+00  0.00000000000E+00 -0.80127666131E+03  0.15257742943E+04  0.12984386429E+04 0.  0.
        2    1    3    3  502    0  0.22031298595E+03 -0.58200683190E+03 -0.61800014299E+03  0.87703702367E+03  0.25500000920E-02 0. -1.
       -2    1    3    3    0  502 -0.22031298595E+03  0.58200683190E+03 -0.18327651832E+03  0.64873727065E+03  0.25500000920E-02 0.  1.
</event>
<event>
 5   0  0.3337520E-04  0.1303677E+04  0.7818609E-02  0.9026655E-01
        1   -1    0    0  501    0  0.00000000000E+00  0.00000000000E+00  0.62227134188E+03  0.62227134190E+03  0.50400001928E-02 0. -1.
       -1   -1    0    0    0  501  0.00000000000E+00  0.00000000000E+00 -0.68281030247E+03  0.68281030248E+03  0.50400001928E-02 0.  1.
    10030    2    1    2    0    0  0.00000000000E+00  0.00000000000E+00 -0.60538960586E+02  0.13050816444E+04  0.13036767746E+04 0.  0.
        5    1    3    3  502    0 -0.20188966251E+03  0.18744353776E+03 -0.62164855678E+03  0.67997318610E+03  0.46999998093E+01 0.  1.
       -5    1    3    3    0  502  0.20188966251E+03 -0.18744353776E+03  0.56110959619E+03  0.62510845828E+03  0.46999998093E+01 0. -1.
</event>
<event>
 5   0  0.3337520E-04  0.1302164E+04  0.7818609E-02  0.9027851E-01
       -1   -1    0    0    0  501  0.00000000000E+00  0.00000000000E+00  0.44661992262E+03  0.44661992264E+03  0.50400001928E-02 0.  1.
        1   -1    0    0  501    0  0.00000000000E+00  0.00000000000E+00 -0.94914652253E+03  0.94914652255E+03  0.50400001928E-02 0. -1.
    10030    2    1    2    0    0  0.00000000000E+00  0.00000000000E+00 -0.50252659992E+03  0.13957664452E+04  0.13021639628E+04 0.  0.
        5    1    3    3  502    0  0.33892425512E+03  0.44579650510E+03 -0.60722098839E+03  0.82604091510E+03  0.46999998093E+01 0. -1.
       -5    1    3    3    0  502 -0.33892425512E+03 -0.44579650510E+03  0.10469438848E+03  0.56972553010E+03  0.46999998093E+01 0.  1.
</event>
<event>
 5   0  0.3263679E-04  0.1299650E+04  0.7818609E-02  0.9029843E-01
        1   -1    0    0  501    0  0.00000000000E+00  0.00000000000E+00  0.85443598496E+03  0.85443598498E+03  0.50400001928E-02 0.  1.
       -1   -1    0    0    0  501  0.00000000000E+00  0.00000000000E+00 -0.49421171726E+03  0.49421171729E+03  0.50400001928E-02 0. -1.
    10030    2    1    2    0    0  0.00000000000E+00  0.00000000000E+00  0.36022426770E+03  0.13486477023E+04  0.12996496073E+04 0.  0.
        2    1    3    3  502    0  0.54564964279E+03 -0.26240637466E+03 -0.64753724371E+02  0.60892009572E+03  0.25500000920E-02 0.  1.
       -2    1    3    3    0  502 -0.54564964279E+03  0.26240637466E+03  0.42497799207E+03  0.73972760655E+03  0.25500000920E-02 0. -1.
</event>
<event>
 5   0  0.3263679E-04  0.1300491E+04  0.7818609E-02  0.9029176E-01
        1   -1    0    0  501    0  0.00000000000E+00  0.00000000000E+00  0.73812842926E+03  0.73812842928E+03  0.50400001928E-02 0. -1.
       -1   -1    0    0    0  501  0.00000000000E+00  0.00000000000E+00 -0.57282636315E+03  0.57282636317E+03  0.50400001928E-02 0.  1.
    10030    2    1    2    0    0  0.00000000000E+00  0.00000000000E+00  0.16530206612E+03  0.13109547925E+04  0.13004913282E+04 0.  0.
        2    1    3    3  502    0 -0.19444028893E+03 -0.32840734109E+03 -0.44804559386E+03  0.58856032981E+03  0.25500000920E-02 0.  1.
       -2    1    3    3    0  502  0.19444028893E+03  0.32840734109E+03  0.61334765998E+03  0.72239446264E+03  0.25500000920E-02 0. -1.
</event>
<event>
 5   0  0.2255875E-04  0.1303044E+04  0.7818609E-02  0.9027154E-01
       -4   -1    0    0    0  501  0.00000000000E+00  0.00000000000E+00  0.39366270291E+03  0.39366475148E+03  0.12699999809E+01 0. -1.
        4   -1    0    0  501    0  0.00000000000E+00  0.00000000000E+00 -0.10782812420E+04  0.10782819899E+04  0.12699999809E+01 0.  1.
    10030    2    1    2    0    0  0.00000000000E+00  0.00000000000E+00 -0.68461853908E+03  0.14719467414E+04  0.13030443835E+04 0.  0.
        2    1    3    3  502    0  0.19597478027E+03 -0.50824892966E+03 -0.74607278357E+03  0.92376820004E+03  0.25500000920E-02 0.  1.
       -2    1    3    3    0  502 -0.19597478027E+03  0.50824892966E+03  0.61454244496E+02  0.54817854133E+03  0.25500000920E-02 0. -1.
</event>
<event>
 5   0  0.5957913E-04  0.1289075E+04  0.7818609E-02  0.9038274E-01
       -2   -1    0    0    0  501  0.00000000000E+00  0.00000000000E+00  0.54876360931E+03  0.54876360932E+03  0.25500000920E-02 0.  1.
        2   -1    0    0  501    0  0.00000000000E+00  0.00000000000E+00 -0.75702637738E+03  0.75702637739E+03  0.25500000920E-02 0. -1.
    10030    2    1    2    0    0  0.00000000000E+00  0.00000000000E+00 -0.20826276807E+03  0.13057899867E+04  0.12890749043E+04 0.  0.
        1    1    3    3  502    0  0.56931214826E+03 -0.29933063304E+03 -0.62201692760E+02  0.64620755230E+03  0.50400001928E-02 0.  1.
       -1    1    3    3    0  502 -0.56931214826E+03  0.29933063304E+03 -0.14606107531E+03  0.65958243441E+03  0.50400001928E-02 0. -1.
</event>
<event>
 5   0  0.3337520E-04  0.1296008E+04  0.7818609E-02  0.9032737E-01
       -1   -1    0    0    0  501  0.00000000000E+00  0.00000000000E+00  0.31632554367E+03  0.31632554371E+03  0.50400001928E-02 0.  1.
        1   -1    0    0  501    0  0.00000000000E+00  0.00000000000E+00 -0.13274587932E+04  0.13274587932E+04  0.50400001928E-02 0. -1.
    10030    2    1    2    0    0  0.00000000000E+00  0.00000000000E+00 -0.10111332495E+04  0.16437843369E+04  0.12960079081E+04 0.  0.
        5    1    3    3  502    0  0.52721109752E+03  0.24856698269E+03 -0.14648861491E+03  0.60101421824E+03  0.46999998093E+01 0.  1.
       -5    1    3    3    0  502 -0.52721109752E+03 -0.24856698269E+03 -0.86464463461E+03  0.10427701187E+04  0.46999998093E+01 0. -1.
</event>
<event>
 5   0  0.3263679E-04  0.1300748E+04  0.7818609E-02  0.9028972E-01
        1   -1    0    0  501    0  0.00000000000E+00  0.00000000000E+00  0.19599758603E+04  0.19599758603E+04  0.50400001928E-02 0.  1.
       -1   -1    0    0    0  501  0.00000000000E+00  0.00000000000E+00 -0.21581197372E+03  0.21581197378E+03  0.50400001928E-02 0. -1.
    10030    2    1    2    0    0  0.00000000000E+00  0.00000000000E+00  0.17441638866E+04  0.21757878341E+04  0.13007478755E+04 0.  0.
        2    1    3    3  502    0  0.50601053147E+03  0.13513129609E+03  0.22709870278E+03  0.57085983039E+03  0.25500000920E-02 0. -1.
       -2    1    3    3    0  502 -0.50601053147E+03 -0.13513129609E+03  0.15170651838E+04  0.16049280037E+04  0.25500000920E-02 0.  1.
</event>
<event>
 5   0  0.3403833E-04  0.1300429E+04  0.7818609E-02  0.9029225E-01
        1   -1    0    0  501    0  0.00000000000E+00  0.00000000000E+00  0.22485413030E+04  0.22485413030E+04  0.50400001928E-02 0.  1.
       -1   -1    0    0    0  501  0.00000000000E+00  0.00000000000E+00 -0.18802351867E+03  0.18802351874E+03  0.50400001928E-02 0. -1.
    10030    2    1    2    0    0  0.00000000000E+00  0.00000000000E+00  0.20605177843E+04  0.24365648218E+04  0.13004286182E+04 0.  0.
        1    1    3    3  502    0  0.49176525629E+03 -0.25565989394E+03  0.39325870762E+03  0.67959359900E+03  0.50400001928E-02 0. -1.
       -1    1    3    3    0  502 -0.49176525629E+03  0.25565989394E+03  0.16672590767E+04  0.17569712228E+04  0.50400001928E-02 0.  1.
</event>
<event>
 5   0  0.6007125E-04  0.1288274E+04  0.7818609E-02  0.9038916E-01
        2   -1    0    0  501    0  0.00000000000E+00  0.00000000000E+00  0.78638050460E+03  0.78638050460E+03  0.25500000920E-02 0. -1.
       -2   -1    0    0    0  501  0.00000000000E+00  0.00000000000E+00 -0.52762318941E+03  0.52762318942E+03  0.25500000920E-02 0.  1.
    10030    2    1    2    0    0  0.00000000000E+00  0.00000000000E+00  0.25875731519E+03  0.13140036940E+04  0.12882741788E+04 0.  0.
        5    1    3    3  502    0  0.46617837976E+03  0.10489024497E+03  0.56993842128E+03  0.74375811881E+03  0.46999998093E+01 0. -1.
       -5    1    3    3    0  502 -0.46617837976E+03 -0.10489024497E+03 -0.31118110610E+03  0.57024557520E+03  0.46999998093E+01 0.  1.
</event>
<event>
 5   0  0.6007125E-04  0.1292603E+04  0.7818609E-02  0.9035452E-01
        2   -1    0    0  501    0  0.00000000000E+00  0.00000000000E+00  0.73359660529E+03  0.73359660530E+03  0.25500000920E-02 0. -1.
       -2   -1    0    0    0  501  0.00000000000E+00  0.00000000000E+00 -0.56939411843E+03  0.56939411843E+03  0.25500000920E-02 0.  1.
    10030    2    1    2    0    0  0.00000000000E+00  0.00000000000E+00  0.16420248686E+03  0.13029907237E+04  0.12926029435E+04 0.  0.
        5    1    3    3  502    0  0.15362478569E+03 -0.56360333936E+03  0.36079038980E+03  0.68661568165E+03  0.46999998093E+01 0.  1.
       -5    1    3    3    0  502 -0.15362478569E+03  0.56360333936E+03 -0.19658790293E+03  0.61637504208E+03  0.46999998093E+01 0. -1.
</event>
<event>
 5   0  0.5787604E-04  0.1298087E+04  0.7818609E-02  0.9031084E-01
       -2   -1    0    0    0  501  0.00000000000E+00  0.00000000000E+00  0.15596710030E+03  0.15596710033E+03  0.25500000920E-02 0.  1.
        2   -1    0    0  501    0  0.00000000000E+00  0.00000000000E+00 -0.27009362342E+04  0.27009362342E+04  0.25500000920E-02 0. -1.
    10030    2    1    2    0    0  0.00000000000E+00  0.00000000000E+00 -0.25449691339E+04  0.28569033346E+04  0.12980865805E+04 0.  0.
        4    1    3    3  502    0  0.12564829185E+03  0.38219413678E+03 -0.15156798032E+03  0.42992361762E+03  0.12699999809E+01 0.  1.
       -4    1    3    3    0  502 -0.12564829185E+03 -0.38219413678E+03 -0.23934011536E+04  0.24269797169E+04  0.12699999809E+01 0. -1.
</event>
<event>
 5   0  0.3337520E-04  0.1301589E+04  0.7818609E-02  0.9028306E-01
        1   -1    0    0  501    0  0.00000000000E+00  0.00000000000E+00  0.12070096438E+04  0.12070096438E+04  0.50400001928E-02 0. -1.
       -1   -1    0    0    0  501  0.00000000000E+00  0.00000000000E+00 -0.35089477799E+03  0.35089477802E+03  0.50400001928E-02 0.  1.
    10030    2    1    2    0    0  0.00000000000E+00  0.00000000000E+00  0.85611486578E+03  0.15579044218E+04  0.13015888460E+04 0.  0.
        5    1    3    3  502    0 -0.51937926265E+03 -0.30771094297E+03  0.13715180415E+03  0.61909090631E+03  0.46999998093E+01 0. -1.
       -5    1    3    3    0  502  0.51937926265E+03  0.30771094297E+03  0.71896306163E+03  0.93881351549E+03  0.46999998093E+01 0.  1.
</event>
<event>
 5   0  0.6052864E-04  0.1294735E+04  0.7818609E-02  0.9033751E-01
       -2   -1    0    0    0  501  0.00000000000E+00  0.00000000000E+00  0.28771617347E+03  0.28771617348E+03  0.25500000920E-02 0. -1.
        2   -1    0    0  501    0  0.00000000000E+00  0.00000000000E+00 -0.14565910667E+04  0.14565910667E+04  0.25500000920E-02 0.  1.
    10030    2    1    2    0    0  0.00000000000E+00  0.00000000000E+00 -0.11688748932E+04  0.17443072401E+04  0.12947351977E+04 0.  0.
        2    1    3    3  502    0 -0.47193630713E+03  0.31028351945E+03 -0.10106504272E+04  0.11577625086E+04  0.25500000920E-02 0.  1.
       -2    1    3    3    0  502  0.47193630713E+03 -0.31028351945E+03 -0.15822446604E+03  0.58654473153E+03  0.25500000920E-02 0. -1.
</event>
<event>
 5   0  0.3263679E-04  0.1299854E+04  0.7818609E-02  0.9029681E-01
        1   -1    0    0  501    0  0.00000000000E+00  0.00000000000E+00  0.66735757334E+03  0.66735757336E+03  0.50400001928E-02 0. -1.
       -1   -1    0    0    0  501  0.00000000000E+00  0.00000000000E+00 -0.63295198997E+03  0.63295198999E+03  0.50400001928E-02 0.  1.
    10030    2    1    2    0    0  0.00000000000E+00  0.00000000000E+00  0.34405583373E+02  0.13003095633E+04  0.12998543058E+04 0.  0.
        2    1    3    3  502    0 -0.56593099031E+03 -0.76536005944E+02  0.32758498246E+03  0.65836734939E+03  0.25500000920E-02 0. -1.
       -2    1    3    3    0  502  0.56593099031E+03  0.76536005944E+02 -0.29317939909E+03  0.64194221396E+03  0.25500000920E-02 0.  1.
</event>
<event>
 5   0  0.6052864E-04  0.1303800E+04  0.7818609E-02  0.9026557E-01
       -2   -1    0    0    0  501  0.00000000000E+00  0.00000000000E+00  0.10526194802E+04  0.10526194802E+04  0.25500000920E-02 0. -1.
        2   -1    0    0  501    0  0.00000000000E+00  0.00000000000E+00 -0.40372987426E+03  0.40372987427E+03  0.25500000920E-02 0.  1.
    10030    2    1    2    0    0  0.00000000000E+00  0.00000000000E+00  0.64888960595E+03  0.14563493545E+04  0.13038004915E+04 0.  0.
        2    1    3    3  502    0 -0.82232329667E+02 -0.43431737700E+03  0.85965161580E+03  0.96664090570E+03  0.25500000920E-02 0. -1.
       -2    1    3    3    0  502  0.82232329667E+02  0.43431737700E+03 -0.21076200985E+03  0.48970844879E+03  0.25500000920E-02 0.  1.
</event>
<event>
 5   0  0.3337520E-04  0.1294009E+04  0.7818609E-02  0.9034330E-01
        1   -1    0    0  501    0  0.00000000000E+00  0.00000000000E+00  0.63160140624E+03  0.63160140626E+03  0.50400001928E-02 0. -1.
       -1   -1    0    0    0  501  0.00000000000E+00  0.00000000000E+00 -0.66278277950E+03  0.66278277952E+03  0.50400001928E-02 0.  1.
    10030    2    1    2    0    0  0.00000000000E+00  0.00000000000E+00 -0.31181373256E+02  0.12943841858E+04  0.12940085558E+04 0.  0.
        5    1    3    3  502    0  0.27771633535E+03  0.53304297311E+03  0.22391831327E+03  0.64142238433E+03  0.46999998093E+01 0. -1.
       -5    1    3    3    0  502 -0.27771633535E+03 -0.53304297311E+03 -0.25509968653E+03  0.65296180146E+03  0.46999998093E+01 0.  1.
</event>
<event>
 5   0  0.5787604E-04  0.1294705E+04  0.7818609E-02  0.9033775E-01
        2   -1    0    0  501    0  0.00000000000E+00  0.00000000000E+00  0.94957124451E+03  0.94957124451E+03  0.25500000920E-02 0. -1.
       -2   -1    0    0    0  501  0.00000000000E+00  0.00000000000E+00 -0.44132019585E+03  0.44132019586E+03  0.25500000920E-02 0.  1.
    10030    2    1    2    0    0  0.00000000000E+00  0.00000000000E+00  0.50825104865E+03  0.13908914404E+04  0.12947045495E+04 0.  0.
        4    1    3    3  502    0 -0.13941298457E+03 -0.41649232155E+02 -0.42352465056E+03  0.44782293525E+03  0.12699999809E+01 0.  1.
       -4    1    3    3    0  502  0.13941298457E+03  0.41649232155E+02  0.93177569922E+03  0.94306850512E+03  0.12699999809E+01 0. -1.
</event>
<event>
 5   0  0.3403833E-04  0.1299964E+04  0.7818609E-02  0.9029594E-01
        1   -1    0    0  501    0  0.00000000000E+00  0.00000000000E+00  0.50289753593E+03  0.50289753595E+03  0.50400001928E-02 0.  1.
       -1   -1    0    0    0  501  0.00000000000E+00  0.00000000000E+00 -0.84008495517E+03  0.84008495518E+03  0.50400001928E-02 0. -1.
    10030    2    1    2    0    0  0.00000000000E+00  0.00000000000E+00 -0.33718741924E+03  0.13429824911E+04  0.12999640825E+04 0.  0.
        1    1    3    3  502    0 -0.21374724009E+02  0.30261366613E+02  0.50180580894E+03  0.50317163975E+03  0.50400001928E-02 0.  1.
       -1    1    3    3    0  502  0.21374724009E+02 -0.30261366613E+02 -0.83899322818E+03  0.83981085138E+03  0.50400001928E-02 0. -1.
</event>
<event>
 5   0  0.3337520E-04  0.1299251E+04  0.7818609E-02  0.9030159E-01
       -1   -1    0    0    0  501  0.00000000000E+00  0.00000000000E+00  0.10240869510E+04  0.10240869510E+04  0.50400001928E-02 0.  1.
        1   -1    0    0  501    0  0.00000000000E+00  0.00000000000E+00 -0.41208733367E+03  0.41208733370E+03  0.50400001928E-02 0. -1.
    10030    2    1    2    0    0  0.00000000000E+00  0.00000000000E+00  0.61199961729E+03  0.14361742847E+04  0.12992509551E+04 0.  0.
        5    1    3    3  502    0  0.61167977799E+03 -0.13426011718E+03  0.49686146945E+03  0.79941937660E+03  0.46999998093E+01 0. -1.
       -5    1    3    3    0  502 -0.61167977799E+03  0.13426011718E+03  0.11513814784E+03  0.63675490807E+03  0.46999998093E+01 0.  1.
</event>
<event>
 5   0  0.3274879E-04  0.1306054E+04  0.7818609E-02  0.9024778E-01
        1   -1    0    0  501    0  0.00000000000E+00  0.00000000000E+00  0.32136104003E+03  0.32136104007E+03  0.50400001928E-02 0. -1.
       -1   -1    0    0    0  501  0.00000000000E+00  0.00000000000E+00 -0.13269942330E+04  0.13269942330E+04  0.50400001928E-02 0.  1.
    10030    2    1    2    0    0  0.00000000000E+00  0.00000000000E+00 -0.10056331929E+04  0.16483552731E+04  0.13060539757E+04 0.  0.
        4    1    3    3  502    0  0.29590462575E+03  0.42791216188E+03 -0.10009406987E+04  0.11280745813E+04  0.12699999809E+01 0.  1.
       -4    1    3    3    0  502 -0.29590462575E+03 -0.42791216188E+03 -0.46924942910E+01  0.52028069177E+03  0.12699999809E+01 0. -1.
</event>
<event>
 5   0  0.6052864E-04  0.1298113E+04  0.7818609E-02  0.9031063E-01
        2   -1    0    0  501    0  0.00000000000E+00  0.00000000000E+00  0.11020404823E+04  0.11020404823E+04  0.25500000920E-02 0. -1.
       -2   -1    0    0    0  501  0.00000000000E+00  0.00000000000E+00 -0.38226731445E+03  0.38226731446E+03  0.25500000920E-02 0.  1.
    10030    2    1    2    0    0  0.00000000000E+00  0.00000000000E+00  0.71977316781E+03  0.14843077967E+04  0.12981125615E+04 0.  0.
        2    1    3    3  502    0 -0.40975818243E+03 -0.24920116822E+03 -0.14018969526E+03  0.49965602265E+03  0.25500000920E-02 0.  1.
       -2    1    3    3    0  502  0.40975818243E+03  0.24920116822E+03  0.85996286308E+03  0.98465177407E+03  0.25500000920E-02 0. -1.
</event>
<event>
 5   0  0.5384960E-04  0.1304384E+04  0.7818609E-02  0.9026096E-01
        2   -1    0    0  501    0  0.00000000000E+00  0.00000000000E+00  0.13395971670E+04  0.13395971670E+04  0.25500000920E-02 0. -1.
       -2   -1    0    0    0  501  0.00000000000E+00  0.00000000000E+00 -0.31752396082E+03  0.31752396083E+03  0.25500000920E-02 0.  1.
    10030    2    1    2    0    0  0.00000000000E+00  0.00000000000E+00  0.10220732061E+04  0.16571211278E+04  0.13043836834E+04 0.  0.
        3    1    3    3  502    0 -0.13658607401E+03 -0.10000912046E+03 -0.28912579842E+03  0.33503927725E+03  0.10100000352E+00 0.  1.
       -3    1    3    3    0  502  0.13658607401E+03  0.10000912046E+03  0.13111990046E+04  0.13220818505E+04  0.10100000352E+00 0. -1.
</event>
<event>
 5   0  0.3337520E-04  0.1295789E+04  0.7818609E-02  0.9032911E-01
        1   -1    0    0  501    0  0.00000000000E+00  0.00000000000E+00  0.38532905104E+03  0.38532905107E+03  0.50400001928E-02 0.  1.
       -1   -1    0    0    0  501  0.00000000000E+00  0.00000000000E+00 -0.10893740439E+04  0.10893740439E+04  0.50400001928E-02 0. -1.
    10030    2    1    2    0    0  0.00000000000E+00  0.00000000000E+00 -0.70404499290E+03  0.14747030950E+04  0.12957892832E+04 0.  0.
        5    1    3    3  502    0  0.22798761376E+03  0.16473974728E+03  0.31219494955E+03  0.42024434902E+03  0.46999998093E+01 0.  1.
       -5    1    3    3    0  502 -0.22798761376E+03 -0.16473974728E+03 -0.10162399425E+04  0.10544587460E+04  0.46999998093E+01 0. -1.
</event>
<event>
 5   0  0.6007125E-04  0.1298850E+04  0.7818609E-02  0.9030478E-01
       -2   -1    0    0    0  501  0.00000000000E+00  0.00000000000E+00  0.28472211785E+03  0.28472211786E+03  0.25500000920E-02 0. -1.
        2   -1    0    0  501    0  0.00000000000E+00  0.00000000000E+00 -0.14812784216E+04  0.14812784216E+04  0.25500000920E-02 0.  1.
    10030    2    1    2    0    0  0.00000000000E+00  0.00000000000E+00 -0.11965563038E+04  0.17660005395E+04  0.12988498440E+04 0.  0.
        5    1    3    3  502    0 -0.58957905983E+03 -0.19951360830E+03 -0.85017049288E+03  0.10536703017E+04  0.46999998093E+01 0. -1.
       -5    1    3    3    0  502  0.58957905983E+03  0.19951360830E+03 -0.34638581087E+03  0.71233023778E+03  0.46999998093E+01 0.  1.
</event>
<event>
 5   0  0.6007125E-04  0.1285170E+04  0.7818609E-02  0.9041409E-01
       -2   -1    0    0    0  501  0.00000000000E+00  0.00000000000E+00  0.28632507492E+03  0.28632507494E+03  0.25500000920E-02 0. -1.
        2   -1    0    0  501    0  0.00000000000E+00  0.00000000000E+00 -0.14421202746E+04  0.14421202746E+04  0.25500000920E-02 0.  1.
    10030    2    1    2    0    0  0.00000000000E+00  0.00000000000E+00 -0.11557951997E+04  0.17284453496E+04  0.12851695541E+04 0.  0.
        5    1    3    3  502    0 -0.32982852739E+03 -0.19139776441E+03  0.11766354764E+03  0.39910745689E+03  0.46999998093E+01 0. -1.
       -5    1    3    3    0  502  0.32982852739E+03  0.19139776441E+03 -0.12734587473E+04  0.13293378927E+04  0.46999998093E+01 0.  1.
</event>
<event>
 5   0  0.6007125E-04  0.1299255E+04  0.7818609E-02  0.9030156E-01
       -2   -1    0    0    0  501  0.00000000000E+00  0.00000000000E+00  0.19789449607E+03  0.19789449609E+03  0.25500000920E-02 0.  1.
        2   -1    0    0  501    0  0.00000000000E+00  0.00000000000E+00 -0.21325299477E+04  0.21325299477E+04  0.25500000920E-02 0. -1.
    10030    2    1    2    0    0  0.00000000000E+00  0.00000000000E+00 -0.19346354517E+04  0.23304244438E+04  0.12992550779E+04 0.  0.
        5    1    3    3  502    0  0.46834489516E+03 -0.45015384009E+03 -0.97252516014E+03  0.11695352486E+04  0.46999998093E+01 0.  1.
       -5    1    3    3    0  502 -0.46834489516E+03  0.45015384009E+03 -0.96211029152E+03  0.11608891952E+04  0.46999998093E+01 0. -1.
</event>
<event>
 5   0  0.3274879E-04  0.1303360E+04  0.7818609E-02  0.9026905E-01
       -1   -1    0    0    0  501  0.00000000000E+00  0.00000000000E+00  0.33063901127E+03  0.33063901131E+03  0.50400001928E-02 0. -1.
        1   -1    0    0  501    0  0.00000000000E+00  0.00000000000E+00 -0.12844428834E+04  0.12844428834E+04  0.50400001928E-02 0.  1.
    10030    2    1    2    0    0  0.00000000000E+00  0.00000000000E+00 -0.95380387210E+03  0.16150818947E+04  0.13033601575E+04 0.  0.
        4    1    3    3  502    0 -0.57133762437E+03  0.31267558272E+03 -0.50440507089E+03  0.82378321753E+03  0.12699999809E+01 0.  1.
       -4    1    3    3    0  502  0.57133762437E+03 -0.31267558272E+03 -0.44939880120E+03  0.79129867716E+03  0.12699999809E+01 0. -1.
</event>
<event>
 5   0  0.5787604E-04  0.1259776E+04  0.7818609E-02  0.9062086E-01
       -2   -1    0    0    0  501  0.00000000000E+00  0.00000000000E+00  0.50106260510E+03  0.50106260511E+03  0.25500000920E-02 0.  1.
        2   -1    0    0  501    0  0.00000000000E+00  0.00000000000E+00 -0.79183513345E+03  0.79183513345E+03  0.25500000920E-02 0. -1.
    10030    2    1    2    0    0  0.00000000000E+00  0.00000000000E+00 -0.29077252834E+03  0.12928977386E+04  0.12597761306E+04 0.  0.
        4    1    3    3  502    0 -0.26935714995E+03 -0.10205439837E+03  0.42951021556E+03  0.51715472794E+03  0.12699999809E+01 0.  1.
       -4    1    3    3    0  502  0.26935714995E+03  0.10205439837E+03 -0.72028274391E+03  0.77574301062E+03  0.12699999809E+01 0. -1.
</event>
<event>
 5   0  0.3403833E-04  0.1250967E+04  0.7818609E-02  0.9069379E-01
        1   -1    0    0  501    0  0.00000000000E+00  0.00000000000E+00  0.94032978963E+03  0.94032978964E+03  0.50400001928E-02 0.  1.
       -1   -1    0    0    0  501  0.00000000000E+00  0.00000000000E+00 -0.41605588032E+03  0.41605588035E+03  0.50400001928E-02 0. -1.
    10030    2    1    2    0    0  0.00000000000E+00  0.00000000000E+00  0.52427390930E+03  0.13563856700E+04  0.12509672073E+04 0.  0.
        1    1    3    3  502    0 -0.33475660014E+03 -0.30690214542E+03  0.72847224457E+03  0.85844203027E+03  0.50400001928E-02 0.  1.
       -1    1    3    3    0  502  0.33475660014E+03  0.30690214542E+03 -0.20419833526E+03  0.49794363973E+03  0.50400001928E-02 0. -1.
</event>
<event>
 5   0  0.2255875E-04  0.1235994E+04  0.7818609E-02  0.9081922E-01
       -3   -1    0    0    0  501  0.00000000000E+00  0.00000000000E+00  0.67548986455E+03  0.67548987210E+03  0.10100000352E+00 0.  1.
        3   -1    0    0  501    0  0.00000000000E+00  0.00000000000E+00 -0.56539712052E+03  0.56539712954E+03  0.10100000352E+00 0. -1.
    10030    2    1    2    0    0  0.00000000000E+00  0.00000000000E+00  0.11009274403E+03  0.12408870016E+04  0.12359935835E+04 0.  0.
        5    1    3    3  502    0  0.50225984007E+03  0.15022663781E+03 -0.27345689157E+03  0.59129836056E+03  0.46999998093E+01 0. -1.
       -5    1    3    3    0  502 -0.50225984007E+03 -0.15022663781E+03  0.38354963559E+03  0.64958864108E+03  0.46999998093E+01 0.  1.
</event>
<event>
 5   0  0.3403833E-04  0.1301882E+04  0.7818609E-02  0.9028074E-01
       -1   -1    0    0    0  501  0.00000000000E+00  0.00000000000E+00  0.52896654082E+03  0.52896654085E+03  0.50400001928E-02 0. -1.
        1   -1    0    0  501    0  0.00000000000E+00  0.00000000000E+00 -0.80104195677E+03  0.80104195678E+03  0.50400001928E-02 0.  1.
    10030    2    1    2    0    0  0.00000000000E+00  0.00000000000E+00 -0.27207541594E+03  0.13300084976E+04  0.13018823187E+04 0.  0.
        1    1    3    3  502    0 -0.39777842558E+02  0.16099634633E+03  0.50702324576E+03  0.53345540775E+03  0.50400001928E-02 0. -1.
       -1    1    3    3    0  502  0.39777842558E+02 -0.16099634633E+03 -0.77909866171E+03  0.79655308988E+03  0.50400001928E-02 0.  1.
</event>
<event>
 5   0  0.3263679E-04  0.1302020E+04  0.7818609E-02  0.9027965E-01
        1   -1    0    0  501    0  0.00000000000E+00  0.00000000000E+00  0.48325585799E+03  0.48325585802E+03  0.50400001928E-02 0.  1.
       -1   -1    0    0    0  501  0.00000000000E+00  0.00000000000E+00 -0.87699673353E+03  0.87699673354E+03  0.50400001928E-02 0. -1.
    10030    2    1    2    0    0  0.00000000000E+00  0.00000000000E+00 -0.39374087554E+03  0.13602525916E+04  0.13020196756E+04 0.  0.
        2    1    3    3  502    0  0.36101978205E+02 -0.41389093526E+03 -0.72049009040E+03  0.83169407206E+03  0.25500000920E-02 0. -1.
       -2    1    3    3    0  502 -0.36101978205E+02  0.41389093526E+03  0.32674921486E+03  0.52855851950E+03  0.25500000920E-02 0.  1.
</event>
<event>
 5   0  0.5787604E-04  0.1294573E+04  0.7818609E-02  0.9033880E-01
       -2   -1    0    0    0  501  0.00000000000E+00  0.00000000000E+00  0.33602475001E+03  0.33602475001E+03  0.25500000920E-02 0. -1.
        2   -1    0    0  501    0  0.00000000000E+00  0.00000000000E+00 -0.12468725306E+04  0.12468725306E+04  0.25500000920E-02 0.  1.
    10030    2    1    2    0    0  0.00000000000E+00  0.00000000000E+00 -0.91084778064E+03  0.15828972807E+04  0.12945733357E+04 0.  0.
        4    1    3    3  502    0 -0.21968839628E+02 -0.53091028496E+03 -0.90738305779E+03  0.10515198463E+04  0.12699999809E+01 0.  1.
       -4    1    3    3    0  502  0.21968839628E+02  0.53091028496E+03 -0.34647228452E+01  0.53137743441E+03  0.12699999809E+01 0. -1.
</event>
<event>
 5   0  0.3274879E-04  0.1318227E+04  0.7818609E-02  0.9015234E-01
        1   -1    0    0  501    0  0.00000000000E+00  0.00000000000E+00  0.10621633888E+04  0.10621633889E+04  0.50400001928E-02 0. -1.
       -1   -1    0    0    0  501  0.00000000000E+00  0.00000000000E+00 -0.40900563050E+03  0.40900563053E+03  0.50400001928E-02 0.  1.
    10030    2    1    2    0    0  0.00000000000E+00  0.00000000000E+00  0.65315775834E+03  0.14711690194E+04  0.13182273045E+04 0.  0.
        4    1    3    3  502    0  0.47592901880E+03  0.30076014506E+03  0.70907306822E+03  0.90540119547E+03  0.12699999809E+01 0. -1.
       -4    1    3    3    0  502 -0.47592901880E+03 -0.30076014506E+03 -0.55915309878E+02  0.56576782391E+03  0.12699999809E+01 0.  1.
</event>
<event>
 5   0  0.3403833E-04  0.1303323E+04  0.7818609E-02  0.9026934E-01
        1   -1    0    0  501    0  0.00000000000E+00  0.00000000000E+00  0.15531742987E+04  0.15531742987E+04  0.50400001928E-02 0.  1.
       -1   -1    0    0    0  501  0.00000000000E+00  0.00000000000E+00 -0.27341604634E+03  0.27341604638E+03  0.50400001928E-02 0. -1.
    10030    2    1    2    0    0  0.00000000000E+00  0.00000000000E+00  0.12797582524E+04  0.18265903451E+04  0.13033231005E+04 0.  0.
        1    1    3    3  502    0 -0.19414813984E+03 -0.24429117407E+03  0.14416608665E+04  0.14750449932E+04  0.50400001928E-02 0.  1.
       -1    1    3    3    0  502  0.19414813984E+03  0.24429117407E+03 -0.16190261415E+03  0.35154535188E+03  0.50400001928E-02 0. -1.
</event>
<event>
 5   0  0.5957913E-04  0.1299799E+04  0.7818609E-02  0.9029725E-01
        2   -1    0    0  501    0  0.00000000000E+00  0.00000000000E+00  0.12773502834E+04  0.12773502834E+04  0.25500000920E-02 0.  1.
       -2   -1    0    0    0  501  0.00000000000E+00  0.00000000000E+00 -0.33066035827E+03  0.33066035828E+03  0.25500000920E-02 0. -1.
    10030    2    1    2    0    0  0.00000000000E+00  0.00000000000E+00  0.94668992509E+03  0.16080106416E+04  0.12997986034E+04 0.  0.
        1    1    3    3  502    0  0.96692807043E+02  0.61468526133E+03  0.70538923264E+03  0.94061758382E+03  0.50400001928E-02 0.  1.
       -1    1    3    3    0  502 -0.96692807043E+02 -0.61468526133E+03  0.24130069245E+03  0.66739305783E+03  0.50400001928E-02 0. -1.
</event>
<event>
 5   0  0.6007125E-04  0.1299779E+04  0.7818609E-02  0.9029741E-01
        2   -1    0    0  501    0  0.00000000000E+00  0.00000000000E+00  0.13661089101E+04  0.13661089101E+04  0.25500000920E-02 0. -1.
       -2   -1    0    0    0  501  0.00000000000E+00  0.00000000000E+00 -0.30916736643E+03  0.30916736644E+03  0.25500000920E-02 0.  1.
    10030    2    1    2    0    0  0.00000000000E+00  0.00000000000E+00  0.10569415437E+04  0.16752762766E+04  0.12997788951E+04 0.  0.
        5    1    3    3  502    0  0.20857538669E+03  0.33498910750E+03  0.11939851822E+04  0.12575150494E+04  0.46999998093E+01 0. -1.
       -5    1    3    3    0  502 -0.20857538669E+03 -0.33498910750E+03 -0.13704363852E+03  0.41776122718E+03  0.46999998093E+01 0.  1.
</event>
<event>
 5   0  0.3274879E-04  0.1300961E+04  0.7818609E-02  0.9028804E-01
       -1   -1    0    0    0  501  0.00000000000E+00  0.00000000000E+00  0.55567581231E+03  0.55567581234E+03  0.50400001928E-02 0. -1.
        1   -1    0    0  501    0  0.00000000000E+00  0.00000000000E+00 -0.76145963338E+03  0.76145963339E+03  0.50400001928E-02 0.  1.
    10030    2    1    2    0    0  0.00000000000E+00  0.00000000000E+00 -0.20578382107E+03  0.13171354457E+04  0.13009607225E+04 0.  0.
        4    1    3    3  502    0  0.34510804709E+03  0.51085378733E+03 -0.31296120239E+03  0.69138808444E+03  0.12699999809E+01 0.  1.
       -4    1    3    3    0  502 -0.34510804709E+03 -0.51085378733E+03  0.10717738133E+03  0.62574736129E+03  0.12699999809E+01 0. -1.
</event>
<event>
 5   0  0.5787604E-04  0.1293458E+04  0.7818609E-02  0.9034769E-01
       -2   -1    0    0    0  501  0.00000000000E+00  0.00000000000E+00  0.42459036099E+03  0.42459036100E+03  0.25500000920E-02 0. -1.
        2   -1    0    0  501    0  0.00000000000E+00  0.00000000000E+00 -0.98508652667E+03  0.98508652667E+03  0.25500000920E-02 0.  1.
    10030    2    1    2    0    0  0.00000000000E+00  0.00000000000E+00 -0.56049616567E+03  0.14096768877E+04  0.12934577596E+04 0.  0.
        4    1    3    3  502    0  0.39809262961E+03  0.29288249511E+03 -0.73485953535E+03  0.88559474213E+03  0.12699999809E+01 0.  1.
       -4    1    3    3    0  502 -0.39809262961E+03 -0.29288249511E+03  0.17436336967E+03  0.52408214554E+03  0.12699999809E+01 0. -1.
</event>
<event>
 5   0  0.6052864E-04  0.1298757E+04  0.7818609E-02  0.9030551E-01
        2   -1    0    0  501    0  0.00000000000E+00  0.00000000000E+00  0.18418814054E+04  0.18418814054E+04  0.25500000920E-02 0. -1.
       -2   -1    0    0    0  501  0.00000000000E+00  0.00000000000E+00 -0.22894666082E+03  0.22894666084E+03  0.25500000920E-02 0.  1.
    10030    2    1    2    0    0  0.00000000000E+00  0.00000000000E+00  0.16129347446E+04  0.20708280662E+04  0.12987572482E+04 0.  0.
        2    1    3    3  502    0  0.25697002761E+03 -0.77928960431E+02 -0.13627520885E+03  0.30112696743E+03  0.25500000920E-02 0.  1.
       -2    1    3    3    0  502 -0.25697002761E+03  0.77928960431E+02  0.17492099534E+04  0.17697010988E+04  0.25500000920E-02 0. -1.
</event>
<event>
 5   0  0.3403833E-04  0.1298748E+04  0.7818609E-02  0.9030558E-01
        1   -1    0    0  501    0  0.00000000000E+00  0.00000000000E+00  0.14550023954E+04  0.14550023954E+04  0.50400001928E-02 0. -1.
       -1   -1    0    0    0  501  0.00000000000E+00  0.00000000000E+00 -0.28981864859E+03  0.28981864864E+03  0.50400001928E-02 0.  1.
    10030    2    1    2    0    0  0.00000000000E+00  0.00000000000E+00  0.11651837468E+04  0.17448210441E+04  0.12987483636E+04 0.  0.
        1    1    3    3  502    0 -0.42222217903E+03  0.41727716654E+03  0.22893923084E+03  0.63624285742E+03  0.50400001928E-02 0.  1.
       -1    1    3    3    0  502  0.42222217903E+03 -0.41727716654E+03  0.93624451599E+03  0.11085781867E+04  0.50400001928E-02 0. -1.
</event>
<event>
 5   0  0.6052864E-04  0.1299665E+04  0.7818609E-02  0.9029831E-01
        2   -1    0    0  501    0  0.00000000000E+00  0.00000000000E+00  0.13955948197E+04  0.13955948197E+04  0.25500000920E-02 0.  1.
       -2   -1    0    0    0  501  0.00000000000E+00  0.00000000000E+00 -0.30258226326E+03  0.30258226327E+03  0.25500000920E-02 0. -1.
    10030    2    1    2    0    0  0.00000000000E+00  0.00000000000E+00  0.10930125564E+04  0.16981770830E+04  0.12996649401E+04 0.  0.
        2    1    3    3  502    0  0.51335792842E+03  0.67071724986E+02  0.10596751462E+04  0.11793839046E+04  0.25500000920E-02 0.  1.
       -2    1    3    3    0  502 -0.51335792842E+03 -0.67071724986E+02  0.33337410200E+02  0.51879317833E+03  0.25500000920E-02 0. -1.
</event>
<event>
 5   0  0.3263679E-04  0.1299645E+04  0.7818609E-02  0.9029847E-01
       -1   -1    0    0    0  501  0.00000000000E+00  0.00000000000E+00  0.29676839834E+03  0.29676839839E+03  0.50400001928E-02 0. -1.
        1   -1    0    0  501    0  0.00000000000E+00  0.00000000000E+00 -0.14228922689E+04  0.14228922689E+04  0.50400001928E-02 0.  1.
    10030    2    1    2    0    0  0.00000000000E+00  0.00000000000E+00 -0.11261238706E+04  0.17196606673E+04  0.12996452742E+04 0.  0.
        2    1    3    3  502    0 -0.29588788862E+03 -0.39527938662E+03 -0.11220537305E+04  0.12258874378E+04  0.25500000920E-02 0.  1.
       -2    1    3    3    0  502  0.29588788862E+03  0.39527938662E+03 -0.40701401006E+01  0.49377322950E+03  0.25500000920E-02 0. -1.
</event>
<event>
 5   0  0.3274879E-04  0.1298828E+04  0.7818609E-02  0.9030495E-01
        1   -1    0    0  501    0  0.00000000000E+00  0.00000000000E+00  0.10183854347E+04  0.10183854347E+04  0.50400001928E-02 0.  1.
       -1   -1    0    0    0  501  0.00000000000E+00  0.00000000000E+00 -0.41412472600E+03  0.41412472603E+03  0.50400001928E-02 0. -1.
    10030    2    1    2    0    0  0.00000000000E+00  0.00000000000E+00  0.60426070870E+03  0.14325101607E+04  0.12988280704E+04 0.  0.
        4    1    3    3  502    0 -0.32141576666E+03  0.34471494799E+03  0.79488059153E+03  0.92410673524E+03  0.12699999809E+01 0.  1.
       -4    1    3    3    0  502  0.32141576666E+03 -0.34471494799E+03 -0.19061988284E+03  0.50840342549E+03  0.12699999809E+01 0. -1.
</event>
<event>
 5   0  0.5957913E-04  0.1306765E+04  0.7818609E-02  0.9024217E-01
       -2   -1    0    0    0  501  0.00000000000E+00  0.00000000000E+00  0.51820823096E+03  0.51820823097E+03  0.25500000920E-02 0. -1.
        2   -1    0    0  501    0  0.00000000000E+00  0.00000000000E+00 -0.82381720012E+03  0.82381720012E+03  0.25500000920E-02 0.  1.
    10030    2    1    2    0    0  0.00000000000E+00  0.00000000000E+00 -0.30560896916E+03  0.13420254311E+04  0.13067652489E+04 0.  0.
        1    1    3    3  502    0 -0.60577804923E+03 -0.91923019837E+02  0.80236824822E+02  0.61794403839E+03  0.50400001928E-02 0. -1.
       -1    1    3    3    0  502  0.60577804923E+03  0.91923019837E+02 -0.38584579398E+03  0.72408139270E+03  0.50400001928E-02 0.  1.
</event>
<event>
 5   0  0.6052864E-04  0.1298300E+04  0.7818609E-02  0.9030914E-01
       -2   -1    0    0    0  501  0.00000000000E+00  0.00000000000E+00  0.53272918155E+03  0.53272918155E+03  0.25500000920E-02 0. -1.
        2   -1    0    0  501    0  0.00000000000E+00  0.00000000000E+00 -0.79101299070E+03  0.79101299070E+03  0.25500000920E-02 0.  1.
    10030    2    1    2    0    0  0.00000000000E+00  0.00000000000E+00 -0.25828380915E+03  0.13237421723E+04  0.12982999702E+04 0.  0.
        2    1    3    3  502    0 -0.24142947636E+03 -0.53212779453E+03  0.15914894616E+03  0.60562081275E+03  0.25500000920E-02 0. -1.
       -2    1    3    3    0  502  0.24142947636E+03  0.53212779453E+03 -0.41743275531E+03  0.71812135951E+03  0.25500000920E-02 0.  1.
</event>
<event>
 5   0  0.3403833E-04  0.1288677E+04  0.7818609E-02  0.9038593E-01
       -1   -1    0    0    0  501  0.00000000000E+00  0.00000000000E+00  0.32044484045E+03  0.32044484049E+03  0.50400001928E-02 0. -1.
        1   -1    0    0  501    0  0.00000000000E+00  0.00000000000E+00 -0.12956116188E+04  0.12956116188E+04  0.50400001928E-02 0.  1.
    10030    2    1    2    0    0  0.00000000000E+00  0.00000000000E+00 -0.97516677838E+03  0.16160564593E+04  0.12886769316E+04 0.  0.
        1    1    3    3  502    0  0.44274992690E+03 -0.13592862695E+03 -0.10493442825E+04  0.11470080700E+04  0.50400001928E-02 0.  1.
       -1    1    3    3    0  502 -0.44274992690E+03  0.13592862695E+03  0.74177504113E+02  0.46904838933E+03  0.50400001928E-02 0. -1.
</event>
<event>
 5   0  0.3263679E-04  0.1299409E+04  0.7818609E-02  0.9030034E-01
        1   -1    0    0  501    0  0.00000000000E+00  0.00000000000E+00  0.43779464418E+03  0.43779464421E+03  0.50400001928E-02 0.  1.
       -1   -1    0    0    0  501  0.00000000000E+00  0.00000000000E+00 -0.96418655011E+03  0.96418655012E+03  0.50400001928E-02 0. -1.
    10030    2    1    2    0    0  0.00000000000E+00  0.00000000000E+00 -0.52639190593E+03  0.14019811943E+04  0.12994086465E+04 0.  0.
        2    1    3    3  502    0 -0.22668368180E+03  0.60885651548E+03 -0.26847719878E+03  0.70297350896E+03  0.25500000920E-02 0.  1.
       -2    1    3    3    0  502  0.22668368180E+03 -0.60885651548E+03 -0.25791470715E+03  0.69900768537E+03  0.25500000920E-02 0. -1.
</event>
<event>
 5   0  0.5957913E-04  0.1298362E+04  0.7818609E-02  0.9030865E-01
        2   -1    0    0  501    0  0.00000000000E+00  0.00000000000E+00  0.43587879856E+03  0.43587879857E+03  0.25500000920E-02 0.  1.
       -2   -1    0    0    0  501  0.00000000000E+00  0.00000000000E+00 -0.96686570473E+03  0.96686570473E+03  0.25500000920E-02 0. -1.
    10030    2    1    2    0    0  0.00000000000E+00  0.00000000000E+00 -0.53098690616E+03  0.14027445033E+04  0.12983624483E+04 0.  0.
        1    1    3    3  502    0  0.62645874452E+03  0.15368890384E+03 -0.18635552921E+03  0.67141583318E+03  0.50400001928E-02 0. -1.
       -1    1    3    3    0  502 -0.62645874452E+03 -0.15368890384E+03 -0.34463137695E+03  0.73132867013E+03  0.50400001928E-02 0.  1.
</event>
<event>
 5   0  0.3263679E-04  0.1303375E+04  0.7818609E-02  0.9026893E-01
        1   -1    0    0  501    0  0.00000000000E+00  0.00000000000E+00  0.93357352710E+03  0.93357352711E+03  0.50400001928E-02 0.  1.
       -1   -1    0    0    0  501  0.00000000000E+00  0.00000000000E+00 -0.45491509972E+03  0.45491509975E+03  0.50400001928E-02 0. -1.
    10030    2    1    2    0    0  0.00000000000E+00  0.00000000000E+00  0.47865842737E+03  0.13884886269E+04  0.13033751482E+04 0.  0.
        2    1    3    3  502    0 -0.45644418746E+03  0.21177827620E+03 -0.20184664451E+03  0.54215625279E+03  0.25500000920E-02 0. -1.
       -2    1    3    3    0  502  0.45644418746E+03 -0.21177827620E+03  0.68050507189E+03  0.84633237407E+03  0.25500000920E-02 0.  1.
</event>
<event>
 5   0  0.3403833E-04  0.1299487E+04  0.7818609E-02  0.9029972E-01
        1   -1    0    0  501    0  0.00000000000E+00  0.00000000000E+00  0.81562824343E+03  0.81562824345E+03  0.50400001928E-02 0. -1.
       -1   -1    0    0    0  501  0.00000000000E+00  0.00000000000E+00 -0.51759715466E+03  0.51759715468E+03  0.50400001928E-02 0.  1.
    10030    2    1    2    0    0  0.00000000000E+00  0.00000000000E+00  0.29803108878E+03  0.13332253981E+04  0.12994873729E+04 0.  0.
        1    1    3    3  502    0  0.40278775265E+03 -0.12547280450E+03  0.65599623018E+03  0.77994387771E+03  0.50400001928E-02 0. -1.
       -1    1    3    3    0  502 -0.40278775265E+03  0.12547280450E+03 -0.35796514140E+03  0.55328152042E+03  0.50400001928E-02 0.  1.
</event>
<event>
 5   0  0.5787604E-04  0.1277755E+04  0.7818609E-02  0.9047394E-01
        2   -1    0    0  501    0  0.00000000000E+00  0.00000000000E+00  0.10448370394E+04  0.10448370394E+04  0.25500000920E-02 0. -1.
       -2   -1    0    0    0  501  0.00000000000E+00  0.00000000000E+00 -0.39064891639E+03  0.39064891639E+03  0.25500000920E-02 0.  1.
    10030    2    1    2    0    0  0.00000000000E+00  0.00000000000E+00  0.65418812302E+03  0.14354859558E+04  0.12777549957E+04 0.  0.
        4    1    3    3  502    0  0.62675654470E+03  0.12151787294E+03  0.30021381443E+03  0.70549295322E+03  0.12699999809E+01 0. -1.
       -4    1    3    3    0  502 -0.62675654470E+03 -0.12151787294E+03  0.35397430859E+03  0.72999300258E+03  0.12699999809E+01 0.  1.
</event>
<event>
 5   0  0.5787604E-04  0.1268759E+04  0.7818609E-02  0.9054713E-01
        2   -1    0    0  501    0  0.00000000000E+00  0.00000000000E+00  0.21637556992E+04  0.21637556992E+04  0.25500000920E-02 0.  1.
       -2   -1    0    0    0  501  0.00000000000E+00  0.00000000000E+00 -0.18599022838E+03  0.18599022840E+03  0.25500000920E-02 0. -1.
    10030    2    1    2    0    0  0.00000000000E+00  0.00000000000E+00  0.19777654709E+04  0.23497459276E+04  0.12687591051E+04 0.  0.
        4    1    3    3  502    0 -0.30813300564E+03 -0.15661909521E+03  0.19740375809E+04  0.20040712248E+04  0.12699999809E+01 0.  1.
       -4    1    3    3    0  502  0.30813300564E+03  0.15661909521E+03  0.37278899494E+01  0.34567470289E+03  0.12699999809E+01 0. -1.
</event>
<event>
 5   0  0.5787604E-04  0.1289924E+04  0.7818609E-02  0.9037594E-01
        2   -1    0    0  501    0  0.00000000000E+00  0.00000000000E+00  0.15939190150E+04  0.15939190150E+04  0.25500000920E-02 0.  1.
       -2   -1    0    0    0  501  0.00000000000E+00  0.00000000000E+00 -0.26097671625E+03  0.26097671626E+03  0.25500000920E-02 0. -1.
    10030    2    1    2    0    0  0.00000000000E+00  0.00000000000E+00  0.13329422987E+04  0.18548957313E+04  0.12899236419E+04 0.  0.
        4    1    3    3  502    0  0.46357289171E+03  0.27792374219E+03  0.16044474440E+03  0.56381341001E+03  0.12699999809E+01 0. -1.
       -4    1    3    3    0  502 -0.46357289171E+03 -0.27792374219E+03  0.11724975543E+04  0.12910823212E+04  0.12699999809E+01 0.  1.
</event>
<event>
 5   0  0.5384960E-04  0.1291503E+04  0.7818609E-02  0.9036330E-01
        2   -1    0    0  501    0  0.00000000000E+00  0.00000000000E+00  0.63539960042E+03  0.63539960042E+03  0.25500000920E-02 0.  1.
       -2   -1    0    0    0  501  0.00000000000E+00  0.00000000000E+00 -0.65627243786E+03  0.65627243787E+03  0.25500000920E-02 0. -1.
    10030    2    1    2    0    0  0.00000000000E+00  0.00000000000E+00 -0.20872837444E+02  0.12916720383E+04  0.12915033795E+04 0.  0.
        3    1    3    3  502    0 -0.91643121057E+02 -0.23143530340E+03 -0.60636192415E+03  0.65546590648E+03  0.10100000352E+00 0. -1.
       -3    1    3    3    0  502  0.91643121057E+02  0.23143530340E+03  0.58548908671E+03  0.63620613181E+03  0.10100000352E+00 0.  1.
</event>
<event>
 5   0  0.3403833E-04  0.1297921E+04  0.7818609E-02  0.9031216E-01
        1   -1    0    0  501    0  0.00000000000E+00  0.00000000000E+00  0.85685062341E+03  0.85685062343E+03  0.50400001928E-02 0. -1.
       -1   -1    0    0    0  501  0.00000000000E+00  0.00000000000E+00 -0.49150866125E+03  0.49150866127E+03  0.50400001928E-02 0.  1.
    10030    2    1    2    0    0  0.00000000000E+00  0.00000000000E+00  0.36534196217E+03  0.13483592847E+04  0.12979206491E+04 0.  0.
        1    1    3    3  502    0 -0.47811907497E+03 -0.37332860638E+03  0.42223470579E+03  0.73909014673E+03  0.50400001928E-02 0. -1.
       -1    1    3    3    0  502  0.47811907497E+03  0.37332860638E+03 -0.56892743624E+02  0.60926913798E+03  0.50400001928E-02 0.  1.
</event>
<event>
 5   0  0.6052864E-04  0.1300613E+04  0.7818609E-02  0.9029079E-01
       -2   -1    0    0    0  501  0.00000000000E+00  0.00000000000E+00  0.55813255510E+03  0.55813255510E+03  0.25500000920E-02 0.  1.
        2   -1    0    0  501    0  0.00000000000E+00  0.00000000000E+00 -0.75770257898E+03  0.75770257899E+03  0.25500000920E-02 0. -1.
    10030    2    1    2    0    0  0.00000000000E+00  0.00000000000E+00 -0.19957002389E+03  0.13158351341E+04  0.13006128962E+04 0.  0.
        2    1    3    3  502    0 -0.55203044057E+03  0.95021334167E+02 -0.43400245457E+03  0.70860764309E+03  0.25500000920E-02 0. -1.
       -2    1    3    3    0  502  0.55203044057E+03 -0.95021334167E+02  0.23443243069E+03  0.60722749100E+03  0.25500000920E-02 0.  1.
</event>
<event>
 5   0  0.5957913E-04  0.1298852E+04  0.7818609E-02  0.9030476E-01
       -2   -1    0    0    0  501  0.00000000000E+00  0.00000000000E+00  0.23844230050E+03  0.23844230051E+03  0.25500000920E-02 0.  1.
        2   -1    0    0  501    0  0.00000000000E+00  0.00000000000E+00 -0.17687900579E+04  0.17687900579E+04  0.25500000920E-02 0. -1.
    10030    2    1    2    0    0  0.00000000000E+00  0.00000000000E+00 -0.15303477574E+04  0.20072323585E+04  0.12988523712E+04 0.  0.
        1    1    3    3  502    0  0.39678012885E+03  0.12938243391E+03 -0.15341196492E+04  0.15898733858E+04  0.50400001928E-02 0. -1.
       -1    1    3    3    0  502 -0.39678012885E+03 -0.12938243391E+03  0.37718917520E+01  0.41735897264E+03  0.50400001928E-02 0.  1.
</event>
<event>
 5   0  0.3263679E-04  0.1298424E+04  0.7818609E-02  0.9030816E-01
       -1   -1    0    0    0  501  0.00000000000E+00  0.00000000000E+00  0.47928269562E+03  0.47928269564E+03  0.50400001928E-02 0.  1.
        1   -1    0    0  501    0  0.00000000000E+00  0.00000000000E+00 -0.87938894540E+03  0.87938894541E+03  0.50400001928E-02 0. -1.
    10030    2    1    2    0    0  0.00000000000E+00  0.00000000000E+00 -0.40010624978E+03  0.13586716411E+04  0.12984235122E+04 0.  0.
        2    1    3    3  502    0  0.10749104956E+03  0.53407138096E+03  0.16944547749E+03  0.57052461432E+03  0.25500000920E-02 0.  1.
       -2    1    3    3    0  502 -0.10749104956E+03 -0.53407138096E+03 -0.56955172728E+03  0.78814702673E+03  0.25500000920E-02 0. -1.
</event>
<event>
 5   0  0.3263679E-04  0.1308701E+04  0.7818609E-02  0.9022693E-01
       -1   -1    0    0    0  501  0.00000000000E+00  0.00000000000E+00  0.64328346217E+03  0.64328346219E+03  0.50400001928E-02 0. -1.
        1   -1    0    0  501    0  0.00000000000E+00  0.00000000000E+00 -0.66560812419E+03  0.66560812421E+03  0.50400001928E-02 0.  1.
    10030    2    1    2    0    0  0.00000000000E+00  0.00000000000E+00 -0.22324662025E+02  0.13088915864E+04  0.13087011861E+04 0.  0.
        2    1    3    3  502    0 -0.15354359654E+03 -0.25974466262E+03  0.56955263969E+03  0.64454102676E+03  0.25500000920E-02 0. -1.
       -2    1    3    3    0  502  0.15354359654E+03  0.25974466262E+03 -0.59187730171E+03  0.66435055963E+03  0.25500000920E-02 0.  1.
</event>
<event>
 5   0  0.5957913E-04  0.1300034E+04  0.7818609E-02  0.9029539E-01
       -2   -1    0    0    0  501  0.00000000000E+00  0.00000000000E+00  0.63625351700E+03  0.63625351700E+03  0.25500000920E-02 0.  1.
        2   -1    0    0  501    0  0.00000000000E+00  0.00000000000E+00 -0.66407782119E+03  0.66407782119E+03  0.25500000920E-02 0. -1.
    10030    2    1    2    0    0  0.00000000000E+00  0.00000000000E+00 -0.27824304191E+02  0.13003313382E+04  0.13000336139E+04 0.  0.
        1    1    3    3  502    0 -0.17555157398E+03 -0.43245462537E+03 -0.46643867454E+03  0.65984876697E+03  0.50400001928E-02 0.  1.
       -1    1    3    3    0  502  0.17555157398E+03  0.43245462537E+03  0.43861437035E+03  0.64048257122E+03  0.50400001928E-02 0. -1.
</event>
<event>
 5   0  0.5787604E-04  0.1303141E+04  0.7818609E-02  0.9027078E-01
        2   -1    0    0  501    0  0.00000000000E+00  0.00000000000E+00  0.13233049025E+04  0.13233049025E+04  0.25500000920E-02 0. -1.
       -2   -1    0    0    0  501  0.00000000000E+00  0.00000000000E+00 -0.32082085896E+03  0.32082085897E+03  0.25500000920E-02 0.  1.
    10030    2    1    2    0    0  0.00000000000E+00  0.00000000000E+00  0.10024840436E+04  0.16441257615E+04  0.13031405381E+04 0.  0.
        4    1    3    3  502    0 -0.13106619926E+03 -0.50647349271E+03  0.99126248076E+03  0.11208464061E+04  0.12699999809E+01 0. -1.
       -4    1    3    3    0  502  0.13106619926E+03  0.50647349271E+03  0.11221562798E+02  0.52327935538E+03  0.12699999809E+01 0.  1.
</event>
<event>
 5   0  0.5787604E-04  0.1297094E+04  0.7818609E-02  0.9031873E-01
        2   -1    0    0  501    0  0.00000000000E+00  0.00000000000E+00  0.36931542701E+03  0.36931542702E+03  0.25500000920E-02 0.  1.
       -2   -1    0    0    0  501  0.00000000000E+00  0.00000000000E+00 -0.11388988586E+04  0.11388988586E+04  0.25500000920E-02 0. -1.
    10030    2    1    2    0    0  0.00000000000E+00  0.00000000000E+00 -0.76958343160E+03  0.15082142856E+04  0.12970935483E+04 0.  0.
        4    1    3    3  502    0  0.25978551159E+02 -0.52332113914E+02  0.36624771733E+03  0.37088076064E+03  0.12699999809E+01 0.  1.
       -4    1    3    3    0  502 -0.25978551159E+02  0.52332113914E+02 -0.11358311489E+04  0.11373335250E+04  0.12699999809E+01 0. -1.
</event>
<event>
 5   0  0.3335747E-04  0.1304117E+04  0.7818609E-02  0.9026307E-01
        1   -1    0    0  501    0  0.00000000000E+00  0.00000000000E+00  0.95759420999E+03  0.95759421000E+03  0.50400001928E-02 0. -1.
       -1   -1    0    0    0  501  0.00000000000E+00  0.00000000000E+00 -0.44400878089E+03  0.44400878091E+03  0.50400001928E-02 0.  1.
    10030    2    1    2    0    0  0.00000000000E+00  0.00000000000E+00  0.51358542911E+03  0.14016029909E+04  0.13041169239E+04 0.  0.
        3    1    3    3  502    0 -0.22792371132E+03  0.11174491598E+03 -0.38872489319E+03  0.46426629989E+03  0.10100000352E+00 0.  1.
       -3    1    3    3    0  502  0.22792371132E+03 -0.11174491598E+03  0.90231032229E+03  0.93733669103E+03  0.10100000352E+00 0. -1.
</event>
<event>
 5   0  0.2255875E-04  0.1304626E+04  0.7818609E-02  0.9025905E-01
        3   -1    0    0  501    0  0.00000000000E+00  0.00000000000E+00  0.11494390276E+04  0.11494390320E+04  0.10100000352E+00 0.  1.
       -3   -1    0    0    0  501  0.00000000000E+00  0.00000000000E+00 -0.37019129144E+03  0.37019130522E+03  0.10100000352E+00 0. -1.
    10030    2    1    2    0    0  0.00000000000E+00  0.00000000000E+00  0.77924773613E+03  0.15196303372E+04  0.13046261256E+04 0.  0.
        3    1    3    3  502    0  0.34127931322E+03 -0.13302058105E+03 -0.23909518304E+03  0.43741577632E+03  0.10100000352E+00 0. -1.
       -3    1    3    3    0  502 -0.34127931322E+03  0.13302058105E+03  0.10183429192E+04  0.10822145609E+04  0.10100000352E+00 0.  1.
</event>
<event>
 5   0  0.3335747E-04  0.1254580E+04  0.7818609E-02  0.9066380E-01
       -1   -1    0    0    0  501  0.00000000000E+00  0.00000000000E+00  0.36371132196E+03  0.36371132200E+03  0.50400001928E-02 0.  1.
        1   -1    0    0  501    0  0.00000000000E+00  0.00000000000E+00 -0.10818824738E+04  0.10818824738E+04  0.50400001928E-02 0. -1.
    10030    2    1    2    0    0  0.00000000000E+00  0.00000000000E+00 -0.71817115180E+03  0.14455937958E+04  0.12545802561E+04 0.  0.
        3    1    3    3  502    0  0.10124902683E+03  0.57320860026E+03 -0.89661757838E+02  0.58894711636E+03  0.10100000352E+00 0.  1.
       -3    1    3    3    0  502 -0.10124902683E+03 -0.57320860026E+03 -0.62850939396E+03  0.85664667941E+03  0.10100000352E+00 0. -1.
</event>
<event>
 5   0  0.6052864E-04  0.1298014E+04  0.7818609E-02  0.9031142E-01
       -2   -1    0    0    0  501  0.00000000000E+00  0.00000000000E+00  0.61028906696E+03  0.61028906697E+03  0.25500000920E-02 0.  1.
        2   -1    0    0  501    0  0.00000000000E+00  0.00000000000E+00 -0.69018109897E+03  0.69018109898E+03  0.25500000920E-02 0. -1.
    10030    2    1    2    0    0  0.00000000000E+00  0.00000000000E+00 -0.79892032008E+02  0.13004701659E+04  0.12980138350E+04 0.  0.
        2    1    3    3  502    0 -0.61812846372E+03  0.29356887336E+01  0.15821239838E+03  0.63806157927E+03  0.25500000920E-02 0.  1.
       -2    1    3    3    0  502  0.61812846372E+03 -0.29356887336E+01 -0.23810443039E+03  0.66240858668E+03  0.25500000920E-02 0. -1.
</event>
<event>
 5   0  0.3263679E-04  0.1301575E+04  0.7818609E-02  0.9028317E-01
       -1   -1    0    0    0  501  0.00000000000E+00  0.00000000000E+00  0.33045692172E+03  0.33045692176E+03  0.50400001928E-02 0.  1.
        1   -1    0    0  501    0  0.00000000000E+00  0.00000000000E+00 -0.12816326585E+04  0.12816326585E+04  0.50400001928E-02 0. -1.
    10030    2    1    2    0    0  0.00000000000E+00  0.00000000000E+00 -0.95117573674E+03  0.16120895802E+04  0.13015750199E+04 0.  0.
        2    1    3    3  502    0 -0.21155030277E+03  0.14199455113E+03 -0.12172911406E+04  0.12436694514E+04  0.25500000920E-02 0. -1.
       -2    1    3    3    0  502  0.21155030277E+03 -0.14199455113E+03  0.26611540390E+03  0.36842012886E+03  0.25500000920E-02 0.  1.
</event>
<event>
 5   0  0.3263679E-04  0.1313906E+04  0.7818609E-02  0.9018610E-01
        1   -1    0    0  501    0  0.00000000000E+00  0.00000000000E+00  0.97534910395E+03  0.97534910396E+03  0.50400001928E-02 0. -1.
       -1   -1    0    0    0  501  0.00000000000E+00  0.00000000000E+00 -0.44249523335E+03  0.44249523338E+03  0.50400001928E-02 0.  1.
    10030    2    1    2    0    0  0.00000000000E+00  0.00000000000E+00  0.53285387060E+03  0.14178443373E+04  0.13139061296E+04 0.  0.
        2    1    3    3  502    0  0.20394668688E+03  0.51776406949E+03 -0.11035495362E+03  0.56732010235E+03  0.25500000920E-02 0.  1.
       -2    1    3    3    0  502 -0.20394668688E+03 -0.51776406949E+03  0.64320882422E+03  0.85052423499E+03  0.25500000920E-02 0. -1.
</event>
<event>
 5   0  0.3403833E-04  0.1302101E+04  0.7818609E-02  0.9027901E-01
       -1   -1    0    0    0  501  0.00000000000E+00  0.00000000000E+00  0.78153342738E+03  0.78153342739E+03  0.50400001928E-02 0.  1.
        1   -1    0    0  501    0  0.00000000000E+00  0.00000000000E+00 -0.54235288316E+03  0.54235288318E+03  0.50400001928E-02 0. -1.
    10030    2    1    2    0    0  0.00000000000E+00  0.00000000000E+00  0.23918054422E+03  0.13238863106E+04  0.13021012367E+04 0.  0.
        1    1    3    3  502    0 -0.53018228122E+03 -0.17960609273E+03 -0.21841008473E+03  0.60087816153E+03  0.50400001928E-02 0. -1.
       -1    1    3    3    0  502  0.53018228122E+03  0.17960609273E+03  0.45759062895E+03  0.72300814905E+03  0.50400001928E-02 0.  1.
</event>
<event>
 5   0  0.6052864E-04  0.1293568E+04  0.7818609E-02  0.9034682E-01
        2   -1    0    0  501    0  0.00000000000E+00  0.00000000000E+00  0.12452246961E+04  0.12452246961E+04  0.25500000920E-02 0.  1.
       -2   -1    0    0    0  501  0.00000000000E+00  0.00000000000E+00 -0.33594687893E+03  0.33594687894E+03  0.25500000920E-02 0. -1.
    10030    2    1    2    0    0  0.00000000000E+00  0.00000000000E+00  0.90927781714E+03  0.15811715750E+04  0.12935677025E+04 0.  0.
        2    1    3    3  502    0 -0.56433402620E+03 -0.30239132471E+03  0.56677392442E+03  0.85507080865E+03  0.25500000920E-02 0.  1.
       -2    1    3    3    0  502  0.56433402620E+03  0.30239132471E+03  0.34250389271E+03  0.72610076637E+03  0.25500000920E-02 0. -1.
</event>
<event>
 5   0  0.5787604E-04  0.1299004E+04  0.7818609E-02  0.9030356E-01
       -2   -1    0    0    0  501  0.00000000000E+00  0.00000000000E+00  0.56694418774E+03  0.56694418775E+03  0.25500000920E-02 0. -1.
        2   -1    0    0  501    0  0.00000000000E+00  0.00000000000E+00 -0.74408146577E+03  0.74408146578E+03  0.25500000920E-02 0.  1.
    10030    2    1    2    0    0  0.00000000000E+00  0.00000000000E+00 -0.17713727803E+03  0.13110256535E+04  0.12990037140E+04 0.  0.
        4    1    3    3  502    0 -0.58476683024E+03 -0.14907640709E+03  0.15381020269E+03  0.62276417066E+03  0.12699999809E+01 0. -1.
       -4    1    3    3    0  502  0.58476683024E+03  0.14907640709E+03 -0.33094748072E+03  0.68826148287E+03  0.12699999809E+01 0.  1.
</event>
<event>
 5   0  0.3403833E-04  0.1298843E+04  0.7818609E-02  0.9030483E-01
       -1   -1    0    0    0  501  0.00000000000E+00  0.00000000000E+00  0.72662140003E+03  0.72662140005E+03  0.50400001928E-02 0. -1.
        1   -1    0    0  501    0  0.00000000000E+00  0.00000000000E+00 -0.58042397634E+03  0.58042397636E+03  0.50400001928E-02 0.  1.
    10030    2    1    2    0    0  0.00000000000E+00  0.00000000000E+00  0.14619742369E+03  0.13070453764E+04  0.12988433044E+04 0.  0.
        1    1    3    3  502    0  0.25356841848E+03 -0.43566409100E+03  0.48513316600E+03  0.69961012844E+03  0.50400001928E-02 0. -1.
       -1    1    3    3    0  502 -0.25356841848E+03  0.43566409100E+03 -0.33893574231E+03  0.60743524797E+03  0.50400001928E-02 0.  1.
</event>
<event>
 5   0  0.5957913E-04  0.1298838E+04  0.7818609E-02  0.9030487E-01
       -2   -1    0    0    0  501  0.00000000000E+00  0.00000000000E+00  0.10787680879E+04  0.10787680879E+04  0.25500000920E-02 0. -1.
        2   -1    0    0  501    0  0.00000000000E+00  0.00000000000E+00 -0.39095046127E+03  0.39095046128E+03  0.25500000920E-02 0.  1.
    10030    2    1    2    0    0  0.00000000000E+00  0.00000000000E+00  0.68781762665E+03  0.14697185492E+04  0.12988377598E+04 0.  0.
        1    1    3    3  502    0  0.39011338330E+03 -0.31983072980E+03  0.80669614445E+03  0.95144039070E+03  0.50400001928E-02 0. -1.
       -1    1    3    3    0  502 -0.39011338330E+03  0.31983072980E+03 -0.11887851780E+03  0.51827815850E+03  0.50400001928E-02 0.  1.
</event>
<event>
 5   0  0.3263679E-04  0.1300512E+04  0.7818609E-02  0.9029159E-01
       -1   -1    0    0    0  501  0.00000000000E+00  0.00000000000E+00  0.31043769565E+03  0.31043769569E+03  0.50400001928E-02 0.  1.
        1   -1    0    0  501    0  0.00000000000E+00  0.00000000000E+00 -0.13620548160E+04  0.13620548160E+04  0.50400001928E-02 0. -1.
    10030    2    1    2    0    0  0.00000000000E+00  0.00000000000E+00 -0.10516171204E+04  0.16724925117E+04  0.13005124505E+04 0.  0.
        2    1    3    3  502    0  0.26153104522E+03 -0.30403103474E+03 -0.11840726265E+04  0.12501445287E+04  0.25500000920E-02 0. -1.
       -2    1    3    3    0  502 -0.26153104522E+03  0.30403103474E+03  0.13245550612E+03  0.42234798308E+03  0.25500000920E-02 0.  1.
</event>
<event>
 5   0  0.3274879E-04  0.1298134E+04  0.7818609E-02  0.9031046E-01
        1   -1    0    0  501    0  0.00000000000E+00  0.00000000000E+00  0.34764025494E+03  0.34764025497E+03  0.50400001928E-02 0. -1.
       -1   -1    0    0    0  501  0.00000000000E+00  0.00000000000E+00 -0.12118497610E+04  0.12118497611E+04  0.50400001928E-02 0.  1.
    10030    2    1    2    0    0  0.00000000000E+00  0.00000000000E+00 -0.86420950611E+03  0.15594900160E+04  0.12981336756E+04 0.  0.
        4    1    3    3  502    0  0.61533982789E+02  0.64608469684E+03 -0.42175093462E+03  0.77400731926E+03  0.12699999809E+01 0.  1.
       -4    1    3    3    0  502 -0.61533982789E+02 -0.64608469684E+03 -0.44245857149E+03  0.78548269676E+03  0.12699999809E+01 0. -1.
</event>
<event>
 5   0  0.3403833E-04  0.1299314E+04  0.7818609E-02  0.9030110E-01
        1   -1    0    0  501    0  0.00000000000E+00  0.00000000000E+00  0.34967492275E+03  0.34967492279E+03  0.50400001928E-02 0.  1.
       -1   -1    0    0    0  501  0.00000000000E+00  0.00000000000E+00 -0.12069894047E+04  0.12069894047E+04  0.50400001928E-02 0. -1.
    10030    2    1    2    0    0  0.00000000000E+00  0.00000000000E+00 -0.85731448193E+03  0.15566643275E+04  0.12993135524E+04 0.  0.
        1    1    3    3  502    0 -0.37910879213E+02  0.64823416323E+03 -0.40442305134E+03  0.76498547020E+03  0.50400001928E-02 0.  1.
       -1    1    3    3    0  502  0.37910879213E+02 -0.64823416323E+03 -0.45289143059E+03  0.79167885728E+03  0.50400001928E-02 0. -1.
</event>
<event>
 5   0  0.3403833E-04  0.1299579E+04  0.7818609E-02  0.9029899E-01
        1   -1    0    0  501    0  0.00000000000E+00  0.00000000000E+00  0.74825300422E+03  0.74825300424E+03  0.50400001928E-02 0.  1.
       -1   -1    0    0    0  501  0.00000000000E+00  0.00000000000E+00 -0.56428259141E+03  0.56428259143E+03  0.50400001928E-02 0. -1.
    10030    2    1    2    0    0  0.00000000000E+00  0.00000000000E+00  0.18397041281E+03  0.13125355957E+04  0.12995786152E+04 0.  0.
        1    1    3    3  502    0  0.34817986283E+03  0.32380621441E+03  0.53928507884E+03  0.71896319631E+03  0.50400001928E-02 0.  1.
       -1    1    3    3    0  502 -0.34817986283E+03 -0.32380621441E+03 -0.35531466603E+03  0.59357239936E+03  0.50400001928E-02 0. -1.
</event>
<event>
 5   0  0.3403833E-04  0.1277424E+04  0.7818609E-02  0.9047662E-01
       -1   -1    0    0    0  501  0.00000000000E+00  0.00000000000E+00  0.23840834315E+03  0.23840834321E+03  0.50400001928E-02 0. -1.
        1   -1    0    0  501    0  0.00000000000E+00  0.00000000000E+00 -0.17111515916E+04  0.17111515916E+04  0.50400001928E-02 0.  1.
    10030    2    1    2    0    0  0.00000000000E+00  0.00000000000E+00 -0.14727432484E+04  0.19495599348E+04  0.12774236821E+04 0.  0.
        1    1    3    3  502    0 -0.53320370403E+03 -0.24564313855E+03 -0.35237772927E+03  0.68470198307E+03  0.50400001928E-02 0.  1.
       -1    1    3    3    0  502  0.53320370403E+03  0.24564313855E+03 -0.11203655192E+04  0.12648579517E+04  0.50400001928E-02 0. -1.
</event>
<event>
 5   0  0.3263679E-04  0.1296420E+04  0.7818609E-02  0.9032409E-01
       -1   -1    0    0    0  501  0.00000000000E+00  0.00000000000E+00  0.99569779221E+03  0.99569779223E+03  0.50400001928E-02 0.  1.
        1   -1    0    0  501    0  0.00000000000E+00  0.00000000000E+00 -0.42199138227E+03  0.42199138230E+03  0.50400001928E-02 0. -1.
    10030    2    1    2    0    0  0.00000000000E+00  0.00000000000E+00  0.57370640994E+03  0.14176891745E+04  0.12964195119E+04 0.  0.
        2    1    3    3  502    0  0.53357579837E+03 -0.20351635951E+02  0.68873333250E+03  0.87147629056E+03  0.25500000920E-02 0.  1.
       -2    1    3    3    0  502 -0.53357579837E+03  0.20351635951E+02 -0.11502692256E+03  0.54621288397E+03  0.25500000920E-02 0. -1.
</event>
<event>
 5   0  0.3274879E-04  0.1302636E+04  0.7818609E-02  0.9027477E-01
        1   -1    0    0  501    0  0.00000000000E+00  0.00000000000E+00  0.14213842738E+04  0.14213842738E+04  0.50400001928E-02 0.  1.
       -1   -1    0    0    0  501  0.00000000000E+00  0.00000000000E+00 -0.29845205506E+03  0.29845205510E+03  0.50400001928E-02 0. -1.
    10030    2    1    2    0    0  0.00000000000E+00  0.00000000000E+00  0.11229322187E+04  0.17198363289E+04  0.13026358779E+04 0.  0.
        4    1    3    3  502    0 -0.40502466204E+01  0.47271508628E+03  0.11529982201E+04  0.12461470482E+04  0.12699999809E+01 0.  1.
       -4    1    3    3    0  502  0.40502466204E+01 -0.47271508628E+03 -0.30066001387E+02  0.47368928068E+03  0.12699999809E+01 0. -1.
</event>
<event>
 5   0  0.6052864E-04  0.1296449E+04  0.7818609E-02  0.9032386E-01
       -2   -1    0    0    0  501  0.00000000000E+00  0.00000000000E+00  0.89141456671E+03  0.89141456672E+03  0.25500000920E-02 0. -1.
        2   -1    0    0  501    0  0.00000000000E+00  0.00000000000E+00 -0.47138028557E+03  0.47138028557E+03  0.25500000920E-02 0.  1.
    10030    2    1    2    0    0  0.00000000000E+00  0.00000000000E+00  0.42003428115E+03  0.13627948523E+04  0.12964493866E+04 0.  0.
        2    1    3    3  502    0  0.30209314368E+03 -0.11072104187E+03 -0.38152049490E+03  0.49907645166E+03  0.25500000920E-02 0.  1.
       -2    1    3    3    0  502 -0.30209314368E+03  0.11072104187E+03  0.80155477605E+03  0.86371840063E+03  0.25500000920E-02 0. -1.
</event>
<event>
 5   0  0.3263679E-04  0.1280682E+04  0.7818609E-02  0.9045026E-01
       -1   -1    0    0    0  501  0.00000000000E+00  0.00000000000E+00  0.72440175500E+03  0.72440175502E+03  0.50400001928E-02 0. -1.
        1   -1    0    0  501    0  0.00000000000E+00  0.00000000000E+00 -0.56603514736E+03  0.56603514739E+03  0.50400001928E-02 0.  1.
    10030    2    1    2    0    0  0.00000000000E+00  0.00000000000E+00  0.15836660764E+03  0.12904369024E+04  0.12806824027E+04 0.  0.
        2    1    3    3  502    0  0.54922267388E+03  0.72939612757E+02 -0.24430891055E+03  0.60551843604E+03  0.25500000920E-02 0.  1.
       -2    1    3    3    0  502 -0.54922267388E+03 -0.72939612757E+02  0.40267551818E+03  0.68491846636E+03  0.25500000920E-02 0. -1.
</event>
<event>
 5   0  0.3337520E-04  0.1317274E+04  0.7818609E-02  0.9015978E-01
        1   -1    0    0  501    0  0.00000000000E+00  0.00000000000E+00  0.11080196671E+04  0.11080196671E+04  0.50400001928E-02 0.  1.
       -1   -1    0    0    0  501  0.00000000000E+00  0.00000000000E+00 -0.39151151623E+03  0.39151151627E+03  0.50400001928E-02 0. -1.
    10030    2    1    2    0    0  0.00000000000E+00  0.00000000000E+00  0.71650815082E+03  0.14995311833E+04  0.13172736388E+04 0.  0.
        5    1    3    3  502    0  0.39281350074E+03 -0.74772640769E+02 -0.23749748829E+03  0.46510272103E+03  0.46999998093E+01 0. -1.
       -5    1    3    3    0  502 -0.39281350074E+03  0.74772640769E+02  0.95400563910E+03  0.10344284623E+04  0.46999998093E+01 0.  1.
</event>
<event>
 5   0  0.5957913E-04  0.1294912E+04  0.7818609E-02  0.9033610E-01
        2   -1    0    0  501    0  0.00000000000E+00  0.00000000000E+00  0.78163822155E+03  0.78163822155E+03  0.25500000920E-02 0.  1.
       -2   -1    0    0    0  501  0.00000000000E+00  0.00000000000E+00 -0.53630876491E+03  0.53630876491E+03  0.25500000920E-02 0. -1.
    10030    2    1    2    0    0  0.00000000000E+00  0.00000000000E+00  0.24532945664E+03  0.13179469865E+04  0.12949122429E+04 0.  0.
        1    1    3    3  502    0  0.32439481853E+03 -0.53841857311E+03  0.28057906085E+03  0.68836848240E+03  0.50400001928E-02 0.  1.
       -1    1    3    3    0  502 -0.32439481853E+03  0.53841857311E+03 -0.35249604203E+02  0.62957850406E+03  0.50400001928E-02 0. -1.
</event>
<event>
 5   0  0.5957913E-04  0.1299957E+04  0.7818609E-02  0.9029599E-01
       -2   -1    0    0    0  501  0.00000000000E+00  0.00000000000E+00  0.41114546823E+03  0.41114546824E+03  0.25500000920E-02 0. -1.
        2   -1    0    0  501    0  0.00000000000E+00  0.00000000000E+00 -0.10275486004E+04  0.10275486004E+04  0.25500000920E-02 0.  1.
    10030    2    1    2    0    0  0.00000000000E+00  0.00000000000E+00 -0.61640313214E+03  0.14386940686E+04  0.12999568461E+04 0.  0.
        1    1    3    3  502    0  0.30296140582E+02  0.17282095827E+03  0.38444088022E+03  0.42258694983E+03  0.50400001928E-02 0. -1.
       -1    1    3    3    0  502 -0.30296140582E+02 -0.17282095827E+03 -0.10008440124E+04  0.10161071188E+04  0.50400001928E-02 0.  1.
</event>
<event>
 5   0  0.6052864E-04  0.1295821E+04  0.7818609E-02  0.9032886E-01
        2   -1    0    0  501    0  0.00000000000E+00  0.00000000000E+00  0.50079907744E+03  0.50079907745E+03  0.25500000920E-02 0. -1.
       -2   -1    0    0    0  501  0.00000000000E+00  0.00000000000E+00 -0.83823641293E+03  0.83823641294E+03  0.25500000920E-02 0.  1.
    10030    2    1    2    0    0  0.00000000000E+00  0.00000000000E+00 -0.33743733549E+03  0.13390354904E+04  0.12958210097E+04 0.  0.
        2    1    3    3  502    0 -0.46363512832E+03 -0.10160485776E+03 -0.62445602006E+03  0.78436369136E+03  0.25500000920E-02 0.  1.
       -2    1    3    3    0  502  0.46363512832E+03  0.10160485776E+03  0.28701868457E+03  0.55467179902E+03  0.25500000920E-02 0. -1.
</event>
<event>
 5   0  0.6007125E-04  0.1312142E+04  0.7818609E-02  0.9019991E-01
        2   -1    0    0  501    0  0.00000000000E+00  0.00000000000E+00  0.21286463932E+04  0.21286463932E+04  0.25500000920E-02 0.  1.
       -2   -1    0    0    0  501  0.00000000000E+00  0.00000000000E+00 -0.20220799824E+03  0.20220799825E+03  0.25500000920E-02 0. -1.
    10030    2    1    2    0    0  0.00000000000E+00  0.00000000000E+00  0.19264383950E+04  0.23308543915E+04  0.13121422578E+04 0.  0.
        5    1    3    3  502    0 -0.16725839537E+03  0.43463004925E+03  0.17840662318E+04  0.18438527761E+04  0.46999998093E+01 0.  1.
       -5    1    3    3    0  502  0.16725839537E+03 -0.43463004925E+03  0.14237216320E+03  0.48700161538E+03  0.46999998093E+01 0. -1.
</event>
<event>
 5   0  0.3263679E-04  0.1298637E+04  0.7818609E-02  0.9030647E-01
        1   -1    0    0  501    0  0.00000000000E+00  0.00000000000E+00  0.27494499163E+03  0.27494499168E+03  0.50400001928E-02 0. -1.
       -1   -1    0    0    0  501  0.00000000000E+00  0.00000000000E+00 -0.15334495669E+04  0.15334495670E+04  0.50400001928E-02 0.  1.
    10030    2    1    2    0    0  0.00000000000E+00  0.00000000000E+00 -0.12585045753E+04  0.18083945586E+04  0.12986366365E+04 0.  0.
        2    1    3    3  502    0 -0.97022854553E+02 -0.64146167059E+03 -0.59168564406E+03  0.87805376289E+03  0.25500000920E-02 0. -1.
       -2    1    3    3    0  502  0.97022854553E+02  0.64146167059E+03 -0.66681893125E+03  0.93034079574E+03  0.25500000920E-02 0.  1.
</event>
<event>
 5   0  0.5957913E-04  0.1305307E+04  0.7818609E-02  0.9025367E-01
        2   -1    0    0  501    0  0.00000000000E+00  0.00000000000E+00  0.92281253909E+03  0.92281253910E+03  0.25500000920E-02 0. -1.
       -2   -1    0    0    0  501  0.00000000000E+00  0.00000000000E+00 -0.46158541940E+03  0.46158541941E+03  0.25500000920E-02 0.  1.
    10030    2    1    2    0    0  0.00000000000E+00  0.00000000000E+00  0.46122711969E+03  0.13843979585E+04  0.13053073399E+04 0.  0.
        1    1    3    3  502    0  0.50361466495E+03 -0.39363438472E+03  0.90788113112E+02  0.64561462274E+03  0.50400001928E-02 0.  1.
       -1    1    3    3    0  502 -0.50361466495E+03  0.39363438472E+03  0.37043900658E+03  0.73878333577E+03  0.50400001928E-02 0. -1.
</event>
<event>
 5   0  0.3403833E-04  0.1300151E+04  0.7818609E-02  0.9029446E-01
        1   -1    0    0  501    0  0.00000000000E+00  0.00000000000E+00  0.15026236963E+04  0.15026236963E+04  0.50400001928E-02 0.  1.
       -1   -1    0    0    0  501  0.00000000000E+00  0.00000000000E+00 -0.28124007846E+03  0.28124007850E+03  0.50400001928E-02 0. -1.
    10030    2    1    2    0    0  0.00000000000E+00  0.00000000000E+00  0.12213836179E+04  0.17838637748E+04  0.13001507702E+04 0.  0.
        1    1    3    3  502    0 -0.38999747405E+03  0.42077038834E+02  0.13219473130E+04  0.13789174034E+04  0.50400001928E-02 0.  1.
       -1    1    3    3    0  502  0.38999747405E+03 -0.42077038834E+02 -0.10056369512E+03  0.40494637147E+03  0.50400001928E-02 0. -1.
</event>
<event>
 5   0  0.2255875E-04  0.1300185E+04  0.7818609E-02  0.9029418E-01
       -4   -1    0    0    0  501  0.00000000000E+00  0.00000000000E+00  0.10035546794E+04  0.10035554830E+04  0.12699999809E+01 0. -1.
        4   -1    0    0  501    0  0.00000000000E+00  0.00000000000E+00 -0.42112151384E+03  0.42112342884E+03  0.12699999809E+01 0.  1.
    10030    2    1    2    0    0  0.00000000000E+00  0.00000000000E+00  0.58243316556E+03  0.14246789118E+04  0.13001852212E+04 0.  0.
        1    1    3    3  502    0  0.21729229456E+03  0.94493256437E+02 -0.37212043679E+03  0.44115590928E+03  0.50400001928E-02 0.  1.
       -1    1    3    3    0  502 -0.21729229456E+03 -0.94493256437E+02  0.95455360235E+03  0.98352300256E+03  0.50400001928E-02 0. -1.
</event>
<event>
 5   0  0.3403833E-04  0.1366833E+04  0.7818609E-02  0.8978183E-01
       -1   -1    0    0    0  501  0.00000000000E+00  0.00000000000E+00  0.26951547289E+03  0.26951547294E+03  0.50400001928E-02 0. -1.
        1   -1    0    0  501    0  0.00000000000E+00  0.00000000000E+00 -0.17329539842E+04  0.17329539843E+04  0.50400001928E-02 0.  1.
    10030    2    1    2    0    0  0.00000000000E+00  0.00000000000E+00 -0.14634385114E+04  0.20024694572E+04  0.13668327076E+04 0.  0.
        1    1    3    3  502    0 -0.29817869902E+03 -0.51400902898E+03 -0.12262492488E+04  0.13626456028E+04  0.50400001928E-02 0.  1.
       -1    1    3    3    0  502  0.29817869902E+03  0.51400902898E+03 -0.23718926251E+03  0.63982385443E+03  0.50400001928E-02 0. -1.
</event>
<event>
 5   0  0.3337520E-04  0.1301211E+04  0.7818609E-02  0.9028606E-01
       -1   -1    0    0    0  501  0.00000000000E+00  0.00000000000E+00  0.62404238895E+03  0.62404238897E+03  0.50400001928E-02 0.  1.
        1   -1    0    0  501    0  0.00000000000E+00  0.00000000000E+00 -0.67829911609E+03  0.67829911611E+03  0.50400001928E-02 0. -1.
    10030    2    1    2    0    0  0.00000000000E+00  0.00000000000E+00 -0.54256727139E+02  0.13023415051E+04  0.13012108220E+04 0.  0.
        5    1    3    3  502    0 -0.37261995554E+02  0.63162140536E+03 -0.17869064194E+03  0.65748497438E+03  0.46999998093E+01 0.  1.
       -5    1    3    3    0  502  0.37261995554E+02 -0.63162140536E+03  0.12443391480E+03  0.64485653069E+03  0.46999998093E+01 0. -1.
</event>
<event>
 5   0  0.2255875E-04  0.1302911E+04  0.7818609E-02  0.9027260E-01
       -4   -1    0    0    0  501  0.00000000000E+00  0.00000000000E+00  0.63331586526E+03  0.63331713863E+03  0.12699999809E+01 0. -1.
        4   -1    0    0  501    0  0.00000000000E+00  0.00000000000E+00 -0.67011236572E+03  0.67011356918E+03  0.12699999809E+01 0.  1.
    10030    2    1    2    0    0  0.00000000000E+00  0.00000000000E+00 -0.36796500468E+02  0.13034307078E+04  0.13029112125E+04 0.  0.
        5    1    3    3  502    0  0.12746348432E+03  0.34533903169E+03  0.51927891045E+03  0.63653645887E+03  0.46999998093E+01 0. -1.
       -5    1    3    3    0  502 -0.12746348432E+03 -0.34533903169E+03 -0.55607541091E+03  0.66689424894E+03  0.46999998093E+01 0.  1.
</event>
<event>
 5   0  0.5957913E-04  0.1302072E+04  0.7818609E-02  0.9027924E-01
        2   -1    0    0  501    0  0.00000000000E+00  0.00000000000E+00  0.18247002731E+04  0.18247002731E+04  0.25500000920E-02 0.  1.
       -2   -1    0    0    0  501  0.00000000000E+00  0.00000000000E+00 -0.23228349401E+03  0.23228349403E+03  0.25500000920E-02 0. -1.
    10030    2    1    2    0    0  0.00000000000E+00  0.00000000000E+00  0.15924167791E+04  0.20569837672E+04  0.13020718183E+04 0.  0.
        1    1    3    3  502    0  0.24761450738E+03  0.58208284745E+03  0.10394857614E+04  0.12168253917E+04  0.50400001928E-02 0.  1.
       -1    1    3    3    0  502 -0.24761450738E+03 -0.58208284745E+03  0.55293101770E+03  0.84015837550E+03  0.50400001928E-02 0. -1.
</event>
<event>
 5   0  0.5384960E-04  0.1259695E+04  0.7818609E-02  0.9062152E-01
        2   -1    0    0  501    0  0.00000000000E+00  0.00000000000E+00  0.16380030775E+04  0.16380030775E+04  0.25500000920E-02 0.  1.
       -2   -1    0    0    0  501  0.00000000000E+00  0.00000000000E+00 -0.24218999750E+03  0.24218999751E+03  0.25500000920E-02 0. -1.
    10030    2    1    2    0    0  0.00000000000E+00  0.00000000000E+00  0.13958130800E+04  0.18801930750E+04  0.12596951397E+04 0.  0.
        3    1    3    3  502    0 -0.33081434017E+03  0.12179236411E+03  0.14769641893E+04  0.15184514264E+04  0.10100000352E+00 0.  1.
       -3    1    3    3    0  502  0.33081434017E+03 -0.12179236411E+03 -0.81151109290E+02  0.36174164864E+03  0.10100000352E+00 0. -1.
</event>
<event>
 5   0  0.3403833E-04  0.1302369E+04  0.7818609E-02  0.9027689E-01
       -1   -1    0    0    0  501  0.00000000000E+00  0.00000000000E+00  0.12790735708E+04  0.12790735708E+04  0.50400001928E-02 0. -1.
        1   -1    0    0  501    0  0.00000000000E+00  0.00000000000E+00 -0.33152212924E+03  0.33152212928E+03  0.50400001928E-02 0.  1.
    10030    2    1    2    0    0  0.00000000000E+00  0.00000000000E+00  0.94755144160E+03  0.16105957001E+04  0.13023689089E+04 0.  0.
        1    1    3    3  502    0 -0.37114644060E+03  0.32724745670E+03  0.99728244432E+03  0.11132892041E+04  0.50400001928E-02 0. -1.
       -1    1    3    3    0  502  0.37114644060E+03 -0.32724745670E+03 -0.49731002718E+02  0.49730649598E+03  0.50400001928E-02 0.  1.
</event>
<event>
 5   0  0.3263679E-04  0.1298311E+04  0.7818609E-02  0.9030906E-01
       -1   -1    0    0    0  501  0.00000000000E+00  0.00000000000E+00  0.48414777333E+03  0.48414777335E+03  0.50400001928E-02 0.  1.
        1   -1    0    0  501    0  0.00000000000E+00  0.00000000000E+00 -0.87040115114E+03  0.87040115115E+03  0.50400001928E-02 0. -1.
    10030    2    1    2    0    0  0.00000000000E+00  0.00000000000E+00 -0.38625337781E+03  0.13545489245E+04  0.12983108707E+04 0.  0.
        2    1    3    3  502    0 -0.43820936078E+03  0.12590350702E+03 -0.67522874853E+03  0.81474719994E+03  0.25500000920E-02 0. -1.
       -2    1    3    3    0  502  0.43820936078E+03 -0.12590350702E+03  0.28897537072E+03  0.53980172457E+03  0.25500000920E-02 0.  1.
</event>
<event>
 5   0  0.2255875E-04  0.1302323E+04  0.7818609E-02  0.9027725E-01
       -3   -1    0    0    0  501  0.00000000000E+00  0.00000000000E+00  0.99686170524E+03  0.99686171036E+03  0.10100000352E+00 0.  1.
        3   -1    0    0  501    0  0.00000000000E+00  0.00000000000E+00 -0.42534622257E+03  0.42534623456E+03  0.10100000352E+00 0. -1.
    10030    2    1    2    0    0  0.00000000000E+00  0.00000000000E+00  0.57151548267E+03  0.14222079449E+04  0.13023231134E+04 0.  0.
        4    1    3    3  502    0 -0.31483089013E+02 -0.55989639365E+03 -0.75668783755E+02  0.56586441331E+03  0.12699999809E+01 0. -1.
       -4    1    3    3    0  502  0.31483089013E+02  0.55989639365E+03  0.64718426643E+03  0.85634353161E+03  0.12699999809E+01 0.  1.
</event>
<event>
 5   0  0.3274879E-04  0.1301944E+04  0.7818609E-02  0.9028025E-01
       -1   -1    0    0    0  501  0.00000000000E+00  0.00000000000E+00  0.40327277252E+03  0.40327277255E+03  0.50400001928E-02 0. -1.
        1   -1    0    0  501    0  0.00000000000E+00  0.00000000000E+00 -0.10508137741E+04  0.10508137741E+04  0.50400001928E-02 0.  1.
    10030    2    1    2    0    0  0.00000000000E+00  0.00000000000E+00 -0.64754100156E+03  0.14540865466E+04  0.13019440604E+04 0.  0.
        4    1    3    3  502    0 -0.51589119429E+03  0.64645357499E+02  0.11371890885E+03  0.53221832900E+03  0.12699999809E+01 0. -1.
       -4    1    3    3    0  502  0.51589119429E+03 -0.64645357499E+02 -0.76125991041E+03  0.92186821763E+03  0.12699999809E+01 0.  1.
</event>
<event>
 5   0  0.3263679E-04  0.1301940E+04  0.7818609E-02  0.9028028E-01
        1   -1    0    0  501    0  0.00000000000E+00  0.00000000000E+00  0.56218395511E+03  0.56218395513E+03  0.50400001928E-02 0.  1.
       -1   -1    0    0    0  501  0.00000000000E+00  0.00000000000E+00 -0.75377835014E+03  0.75377835016E+03  0.50400001928E-02 0. -1.
    10030    2    1    2    0    0  0.00000000000E+00  0.00000000000E+00 -0.19159439503E+03  0.13159623053E+04  0.13019402355E+04 0.  0.
        2    1    3    3  502    0  0.56759116387E+03  0.24902147041E+03  0.10531982844E+03  0.62869999865E+03  0.25500000920E-02 0.  1.
       -2    1    3    3    0  502 -0.56759116387E+03 -0.24902147041E+03 -0.29691422348E+03  0.68726230665E+03  0.25500000920E-02 0. -1.
</event>
<event>
 5   0  0.3335747E-04  0.1324793E+04  0.7818609E-02  0.9010132E-01
       -1   -1    0    0    0  501  0.00000000000E+00  0.00000000000E+00  0.26765191063E+03  0.26765191068E+03  0.50400001928E-02 0.  1.
        1   -1    0    0  501    0  0.00000000000E+00  0.00000000000E+00 -0.16393264869E+04  0.16393264869E+04  0.50400001928E-02 0. -1.
    10030    2    1    2    0    0  0.00000000000E+00  0.00000000000E+00 -0.13716745762E+04  0.19069783976E+04  0.13247926123E+04 0.  0.
        3    1    3    3  502    0 -0.49565441164E+03 -0.56341670847E+02 -0.13131506985E+04  0.14047108054E+04  0.10100000352E+00 0. -1.
       -3    1    3    3    0  502  0.49565441164E+03  0.56341670847E+02 -0.58523877729E+02  0.50226759214E+03  0.10100000352E+00 0.  1.
</event>
<event>
 5   0  0.5957913E-04  0.1295750E+04  0.7818609E-02  0.9032942E-01
        2   -1    0    0  501    0  0.00000000000E+00  0.00000000000E+00  0.74330604745E+03  0.74330604746E+03  0.25500000920E-02 0.  1.
       -2   -1    0    0    0  501  0.00000000000E+00  0.00000000000E+00 -0.56469600611E+03  0.56469600612E+03  0.25500000920E-02 0. -1.
    10030    2    1    2    0    0  0.00000000000E+00  0.00000000000E+00  0.17861004134E+03  0.13080020536E+04  0.12957499085E+04 0.  0.
        1    1    3    3  502    0  0.40127496408E+03  0.35478412147E+03 -0.27862540950E+03  0.60375946244E+03  0.50400001928E-02 0. -1.
       -1    1    3    3    0  502 -0.40127496408E+03 -0.35478412147E+03  0.45723545084E+03  0.70424259114E+03  0.50400001928E-02 0.  1.
</event>
<event>
 5   0  0.3337520E-04  0.1294148E+04  0.7818609E-02  0.9034219E-01
       -1   -1    0    0    0  501  0.00000000000E+00  0.00000000000E+00  0.94660748501E+03  0.94660748502E+03  0.50400001928E-02 0. -1.
        1   -1    0    0  501    0  0.00000000000E+00  0.00000000000E+00 -0.44232120179E+03  0.44232120182E+03  0.50400001928E-02 0.  1.
    10030    2    1    2    0    0  0.00000000000E+00  0.00000000000E+00  0.50428628322E+03  0.13889286868E+04  0.12941476893E+04 0.  0.
        5    1    3    3  502    0 -0.59415806202E+03  0.25256763879E+03  0.20575422259E+03  0.67762165324E+03  0.46999998093E+01 0.  1.
       -5    1    3    3    0  502  0.59415806202E+03 -0.25256763879E+03  0.29853206062E+03  0.71130703360E+03  0.46999998093E+01 0. -1.
</event>
<event>
 5   0  0.6052864E-04  0.1299977E+04  0.7818609E-02  0.9029583E-01
        2   -1    0    0  501    0  0.00000000000E+00  0.00000000000E+00  0.13815556622E+04  0.13815556622E+04  0.25500000920E-02 0. -1.
       -2   -1    0    0    0  501  0.00000000000E+00  0.00000000000E+00 -0.30580404387E+03  0.30580404388E+03  0.25500000920E-02 0.  1.
    10030    2    1    2    0    0  0.00000000000E+00  0.00000000000E+00  0.10757516183E+04  0.16873597061E+04  0.12999773973E+04 0.  0.
        2    1    3    3  502    0 -0.21002190675E+03 -0.84777757784E+02 -0.25292904642E+03  0.33951372883E+03  0.25500000920E-02 0.  1.
       -2    1    3    3    0  502  0.21002190675E+03  0.84777757784E+02  0.13286806647E+04  0.13478459773E+04  0.25500000920E-02 0. -1.
</event>
<event>
 5   0  0.3263679E-04  0.1280904E+04  0.7818609E-02  0.9044847E-01
        1   -1    0    0  501    0  0.00000000000E+00  0.00000000000E+00  0.60294454744E+03  0.60294454746E+03  0.50400001928E-02 0.  1.
       -1   -1    0    0    0  501  0.00000000000E+00  0.00000000000E+00 -0.68029279962E+03  0.68029279964E+03  0.50400001928E-02 0. -1.
    10030    2    1    2    0    0  0.00000000000E+00  0.00000000000E+00 -0.77348252182E+02  0.12832373471E+04  0.12809041092E+04 0.  0.
        2    1    3    3  502    0  0.45497207595E+03  0.36223743674E+03  0.23007425577E+03  0.62541963004E+03  0.25500000920E-02 0.  1.
       -2    1    3    3    0  502 -0.45497207595E+03 -0.36223743674E+03 -0.30742250795E+03  0.65781771706E+03  0.25500000920E-02 0. -1.
</event>
<event>
 5   0  0.5384960E-04  0.1300725E+04  0.7818609E-02  0.9028991E-01
        2   -1    0    0  501    0  0.00000000000E+00  0.00000000000E+00  0.41111694835E+03  0.41111694836E+03  0.25500000920E-02 0. -1.
       -2   -1    0    0    0  501  0.00000000000E+00  0.00000000000E+00 -0.10288343567E+04  0.10288343567E+04  0.25500000920E-02 0.  1.
    10030    2    1    2    0    0  0.00000000000E+00  0.00000000000E+00 -0.61771740832E+03  0.14399513050E+04  0.13007247842E+04 0.  0.
        3    1    3    3  502    0  0.23409312574E+03  0.58948001796E+03 -0.14964164249E+03  0.65167393263E+03  0.10100000352E+00 0. -1.
       -3    1    3    3    0  502 -0.23409312574E+03 -0.58948001796E+03 -0.46807576583E+03  0.78827737241E+03  0.10100000352E+00 0.  1.
</event>
<event>
 5   0  0.3403833E-04  0.1297755E+04  0.7818609E-02  0.9031347E-01
       -1   -1    0    0    0  501  0.00000000000E+00  0.00000000000E+00  0.58198768793E+03  0.58198768795E+03  0.50400001928E-02 0.  1.
        1   -1    0    0  501    0  0.00000000000E+00  0.00000000000E+00 -0.72345567796E+03  0.72345567798E+03  0.50400001928E-02 0. -1.
    10030    2    1    2    0    0  0.00000000000E+00  0.00000000000E+00 -0.14146799003E+03  0.13054433659E+04  0.12977554429E+04 0.  0.
        1    1    3    3  502    0  0.42816898316E+03  0.44919469971E+03 -0.26142954713E+03  0.67338693522E+03  0.50400001928E-02 0. -1.
       -1    1    3    3    0  502 -0.42816898316E+03 -0.44919469971E+03  0.11996155710E+03  0.63205643071E+03  0.50400001928E-02 0.  1.
</event>
<event>
 5   0  0.5384960E-04  0.1292554E+04  0.7818609E-02  0.9035491E-01
       -2   -1    0    0    0  501  0.00000000000E+00  0.00000000000E+00  0.55882732064E+03  0.55882732065E+03  0.25500000920E-02 0.  1.
        2   -1    0    0  501    0  0.00000000000E+00  0.00000000000E+00 -0.74741145538E+03  0.74741145538E+03  0.25500000920E-02 0. -1.
    10030    2    1    2    0    0  0.00000000000E+00  0.00000000000E+00 -0.18858413474E+03  0.13062387760E+04  0.12925539695E+04 0.  0.
        3    1    3    3  502    0  0.40823060837E+03 -0.26523439126E+03 -0.52384809304E+03  0.71513519470E+03  0.10100000352E+00 0. -1.
       -3    1    3    3    0  502 -0.40823060837E+03  0.26523439126E+03  0.33526395830E+03  0.59110358133E+03  0.10100000352E+00 0.  1.
</event>
<event>
 5   0  0.3335747E-04  0.1306055E+04  0.7818609E-02  0.9024777E-01
       -1   -1    0    0    0  501  0.00000000000E+00  0.00000000000E+00  0.77808967420E+03  0.77808967421E+03  0.50400001928E-02 0.  1.
        1   -1    0    0  501    0  0.00000000000E+00  0.00000000000E+00 -0.54806642760E+03  0.54806642762E+03  0.50400001928E-02 0. -1.
    10030    2    1    2    0    0  0.00000000000E+00  0.00000000000E+00  0.23002324660E+03  0.13261561018E+04  0.13060548658E+04 0.  0.
        3    1    3    3  502    0  0.22829629146E+03  0.53735445261E+03 -0.18202414183E+03  0.61155686804E+03  0.10100000352E+00 0. -1.
       -3    1    3    3    0  502 -0.22829629146E+03 -0.53735445261E+03  0.41204738843E+03  0.71459923380E+03  0.10100000352E+00 0.  1.
</event>
<event>
 5   0  0.3337520E-04  0.1293247E+04  0.7818609E-02  0.9034937E-01
       -1   -1    0    0    0  501  0.00000000000E+00  0.00000000000E+00  0.49361804543E+03  0.49361804545E+03  0.50400001928E-02 0.  1.
        1   -1    0    0  501    0  0.00000000000E+00  0.00000000000E+00 -0.84705595299E+03  0.84705595301E+03  0.50400001928E-02 0. -1.
    10030    2    1    2    0    0  0.00000000000E+00  0.00000000000E+00 -0.35343790756E+03  0.13406739985E+04  0.12932472369E+04 0.  0.
        5    1    3    3  502    0  0.25412642539E+03  0.41608172326E+03  0.26358725185E+03  0.55426038091E+03  0.46999998093E+01 0.  1.
       -5    1    3    3    0  502 -0.25412642539E+03 -0.41608172326E+03 -0.61702515942E+03  0.78641361755E+03  0.46999998093E+01 0. -1.
</event>
<event>
 5   0  0.3335747E-04  0.1298164E+04  0.7818609E-02  0.9031022E-01
       -1   -1    0    0    0  501  0.00000000000E+00  0.00000000000E+00  0.78042615144E+03  0.78042615146E+03  0.50400001928E-02 0. -1.
        1   -1    0    0  501    0  0.00000000000E+00  0.00000000000E+00 -0.53984298192E+03  0.53984298194E+03  0.50400001928E-02 0.  1.
    10030    2    1    2    0    0  0.00000000000E+00  0.00000000000E+00  0.24058316952E+03  0.13202691334E+04  0.12981642127E+04 0.  0.
        3    1    3    3  502    0 -0.66965000369E+02 -0.43259152883E+03  0.60770988233E+03  0.74895330520E+03  0.10100000352E+00 0. -1.
       -3    1    3    3    0  502  0.66965000369E+02  0.43259152883E+03 -0.36712671281E+03  0.57131582820E+03  0.10100000352E+00 0.  1.
</event>
<event>
 5   0  0.6007125E-04  0.1288646E+04  0.7818609E-02  0.9038618E-01
       -2   -1    0    0    0  501  0.00000000000E+00  0.00000000000E+00  0.35065464999E+03  0.35065464999E+03  0.25500000920E-02 0.  1.
        2   -1    0    0  501    0  0.00000000000E+00  0.00000000000E+00 -0.11839344441E+04  0.11839344442E+04  0.25500000920E-02 0. -1.
    10030    2    1    2    0    0  0.00000000000E+00  0.00000000000E+00 -0.83327979416E+03  0.15345890941E+04  0.12886459842E+04 0.  0.
        5    1    3    3  502    0 -0.64123759002E+03 -0.58782385127E+02 -0.44297399541E+03  0.78159392671E+03  0.46999998093E+01 0. -1.
       -5    1    3    3    0  502  0.64123759002E+03  0.58782385127E+02 -0.39030579875E+03  0.75299516744E+03  0.46999998093E+01 0.  1.
</event>
<event>
 5   0  0.5957913E-04  0.1362534E+04  0.7818609E-02  0.8981394E-01
       -2   -1    0    0    0  501  0.00000000000E+00  0.00000000000E+00  0.25875839488E+03  0.25875839489E+03  0.25500000920E-02 0. -1.
        2   -1    0    0  501    0  0.00000000000E+00  0.00000000000E+00 -0.17936608886E+04  0.17936608886E+04  0.25500000920E-02 0.  1.
    10030    2    1    2    0    0  0.00000000000E+00  0.00000000000E+00 -0.15349024938E+04  0.20524192835E+04  0.13625341280E+04 0.  0.
        1    1    3    3  502    0 -0.47160462187E+03 -0.29466063796E+03 -0.13602796288E+04  0.14695565587E+04  0.50400001928E-02 0.  1.
       -1    1    3    3    0  502  0.47160462187E+03  0.29466063796E+03 -0.17462286500E+03  0.58286272478E+03  0.50400001928E-02 0. -1.
</event>
<event>
 5   0  0.5957913E-04  0.1314186E+04  0.7818609E-02  0.9018390E-01
        2   -1    0    0  501    0  0.00000000000E+00  0.00000000000E+00  0.97608226361E+03  0.97608226362E+03  0.25500000920E-02 0.  1.
       -2   -1    0    0    0  501  0.00000000000E+00  0.00000000000E+00 -0.44235141253E+03  0.44235141254E+03  0.25500000920E-02 0. -1.
    10030    2    1    2    0    0  0.00000000000E+00  0.00000000000E+00  0.53373085108E+03  0.14184336762E+04  0.13141862396E+04 0.  0.
        1    1    3    3  502    0  0.44876867005E+03  0.14654402611E+03  0.76018045810E+03  0.89484233232E+03  0.50400001928E-02 0.  1.
       -1    1    3    3    0  502 -0.44876867005E+03 -0.14654402611E+03 -0.22644960702E+03  0.52359134384E+03  0.50400001928E-02 0. -1.
</event>
<event>
 5   0  0.3263679E-04  0.1301772E+04  0.7818609E-02  0.9028161E-01
       -1   -1    0    0    0  501  0.00000000000E+00  0.00000000000E+00  0.12259515395E+04  0.12259515395E+04  0.50400001928E-02 0. -1.
        1   -1    0    0  501    0  0.00000000000E+00  0.00000000000E+00 -0.34557060327E+03  0.34557060331E+03  0.50400001928E-02 0.  1.
    10030    2    1    2    0    0  0.00000000000E+00  0.00000000000E+00  0.88038093623E+03  0.15715221428E+04  0.13017723505E+04 0.  0.
        2    1    3    3  502    0  0.48541024098E+03 -0.38828798987E+03  0.67322452982E+03  0.91630886315E+03  0.25500000920E-02 0. -1.
       -2    1    3    3    0  502 -0.48541024098E+03  0.38828798987E+03  0.20715640640E+03  0.65521327966E+03  0.25500000920E-02 0.  1.
</event>
<event>
 5   0  0.6007125E-04  0.1296046E+04  0.7818609E-02  0.9032706E-01
        2   -1    0    0  501    0  0.00000000000E+00  0.00000000000E+00  0.12368970816E+04  0.12368970816E+04  0.25500000920E-02 0.  1.
       -2   -1    0    0    0  501  0.00000000000E+00  0.00000000000E+00 -0.33950594915E+03  0.33950594916E+03  0.25500000920E-02 0. -1.
    10030    2    1    2    0    0  0.00000000000E+00  0.00000000000E+00  0.89739113247E+03  0.15764030308E+04  0.12960461685E+04 0.  0.
        5    1    3    3  502    0  0.41890399822E+03  0.45890473388E+03  0.67243745053E+03  0.91556994784E+03  0.46999998093E+01 0.  1.
       -5    1    3    3    0  502 -0.41890399822E+03 -0.45890473388E+03  0.22495368194E+03  0.66083308295E+03  0.46999998093E+01 0. -1.
</event>
<event>
 5   0  0.6052864E-04  0.1274913E+04  0.7818609E-02  0.9049700E-01
       -2   -1    0    0    0  501  0.00000000000E+00  0.00000000000E+00  0.74372077209E+03  0.74372077209E+03  0.25500000920E-02 0. -1.
        2   -1    0    0  501    0  0.00000000000E+00  0.00000000000E+00 -0.54637523063E+03  0.54637523063E+03  0.25500000920E-02 0.  1.
    10030    2    1    2    0    0  0.00000000000E+00  0.00000000000E+00  0.19734554146E+03  0.12900960027E+04  0.12749127160E+04 0.  0.
        2    1    3    3  502    0 -0.45751012796E+03 -0.13991940260E+03 -0.32760132541E+03  0.57984099961E+03  0.25500000920E-02 0.  1.
       -2    1    3    3    0  502  0.45751012796E+03  0.13991940260E+03  0.52494686687E+03  0.71025500312E+03  0.25500000920E-02 0. -1.
</event>
<event>
 5   0  0.3337520E-04  0.1314991E+04  0.7818609E-02  0.9017761E-01
        1   -1    0    0  501    0  0.00000000000E+00  0.00000000000E+00  0.42016238575E+03  0.42016238578E+03  0.50400001928E-02 0.  1.
       -1   -1    0    0    0  501  0.00000000000E+00  0.00000000000E+00 -0.10288881510E+04  0.10288881510E+04  0.50400001928E-02 0. -1.
    10030    2    1    2    0    0  0.00000000000E+00  0.00000000000E+00 -0.60872576524E+03  0.14490505368E+04  0.13149906467E+04 0.  0.
        5    1    3    3  502    0 -0.48972538370E+03  0.11989622753E+03  0.16064319564E+03  0.52918275021E+03  0.46999998093E+01 0.  1.
       -5    1    3    3    0  502  0.48972538370E+03 -0.11989622753E+03 -0.76936896088E+03  0.91986778658E+03  0.46999998093E+01 0. -1.
</event>
<event>
 5   0  0.3274879E-04  0.1311336E+04  0.7818609E-02  0.9020624E-01
       -1   -1    0    0    0  501  0.00000000000E+00  0.00000000000E+00  0.58209398615E+03  0.58209398617E+03  0.50400001928E-02 0.  1.
        1   -1    0    0  501    0  0.00000000000E+00  0.00000000000E+00 -0.73854148090E+03  0.73854148092E+03  0.50400001928E-02 0. -1.
    10030    2    1    2    0    0  0.00000000000E+00  0.00000000000E+00 -0.15644749475E+03  0.13206354671E+04  0.13113360433E+04 0.  0.
        4    1    3    3  502    0  0.42372957777E+03 -0.29920422128E+03 -0.48210264926E+03  0.70816276267E+03  0.12699999809E+01 0. -1.
       -4    1    3    3    0  502 -0.42372957777E+03  0.29920422128E+03  0.32565515451E+03  0.61247270442E+03  0.12699999809E+01 0.  1.
</event>
<event>
 5   0  0.3335747E-04  0.1305187E+04  0.7818609E-02  0.9025462E-01
        1   -1    0    0  501    0  0.00000000000E+00  0.00000000000E+00  0.68390856011E+03  0.68390856013E+03  0.50400001928E-02 0.  1.
       -1   -1    0    0    0  501  0.00000000000E+00  0.00000000000E+00 -0.62271208962E+03  0.62271208964E+03  0.50400001928E-02 0. -1.
    10030    2    1    2    0    0  0.00000000000E+00  0.00000000000E+00  0.61196470487E+02  0.13066206498E+04  0.13051867738E+04 0.  0.
        3    1    3    3  502    0  0.24338664970E+03  0.34214426190E+03  0.53072525427E+03  0.67673411538E+03  0.10100000352E+00 0.  1.
       -3    1    3    3    0  502 -0.24338664970E+03 -0.34214426190E+03 -0.46952878378E+03  0.62988653439E+03  0.10100000352E+00 0. -1.
</event>
<event>
 5   0  0.3335747E-04  0.1317550E+04  0.7818609E-02  0.9015763E-01
        1   -1    0    0  501    0  0.00000000000E+00  0.00000000000E+00  0.69993558378E+03  0.69993558380E+03  0.50400001928E-02 0.  1.
       -1   -1    0    0    0  501  0.00000000000E+00  0.00000000000E+00 -0.62003471467E+03  0.62003471469E+03  0.50400001928E-02 0. -1.
    10030    2    1    2    0    0  0.00000000000E+00  0.00000000000E+00  0.79900869104E+02  0.13199702985E+04  0.13175497865E+04 0.  0.
        3    1    3    3  502    0 -0.52550473835E+03 -0.20031851761E+03 -0.30375652661E+03  0.63917976829E+03  0.10100000352E+00 0.  1.
       -3    1    3    3    0  502  0.52550473835E+03  0.20031851761E+03  0.38365739572E+03  0.68079053020E+03  0.10100000352E+00 0. -1.
</event>
<event>
 5   0  0.6052864E-04  0.1309462E+04  0.7818609E-02  0.9022095E-01
        2   -1    0    0  501    0  0.00000000000E+00  0.00000000000E+00  0.15593097532E+04  0.15593097532E+04  0.25500000920E-02 0.  1.
       -2   -1    0    0    0  501  0.00000000000E+00  0.00000000000E+00 -0.27491192745E+03  0.27491192747E+03  0.25500000920E-02 0. -1.
    10030    2    1    2    0    0  0.00000000000E+00  0.00000000000E+00  0.12843978258E+04  0.18342216807E+04  0.13094622557E+04 0.  0.
        2    1    3    3  502    0 -0.28802830862E+03  0.22330190566E+03  0.14040914953E+04  0.14506195142E+04  0.25500000920E-02 0.  1.
       -2    1    3    3    0  502  0.28802830862E+03 -0.22330190566E+03 -0.11969366954E+03  0.38360216654E+03  0.25500000920E-02 0. -1.
</event>
<event>
 5   0  0.6052864E-04  0.1296344E+04  0.7818609E-02  0.9032469E-01
        2   -1    0    0  501    0  0.00000000000E+00  0.00000000000E+00  0.28360870753E+04  0.28360870753E+04  0.25500000920E-02 0. -1.
       -2   -1    0    0    0  501  0.00000000000E+00  0.00000000000E+00 -0.14813614646E+03  0.14813614648E+03  0.25500000920E-02 0.  1.
    10030    2    1    2    0    0  0.00000000000E+00  0.00000000000E+00  0.26879509288E+04  0.29842232217E+04  0.12963441062E+04 0.  0.
        2    1    3    3  502    0 -0.98940374084E+02 -0.48549538125E+03  0.23059708327E+04  0.23586005266E+04  0.25500000920E-02 0. -1.
       -2    1    3    3    0  502  0.98940374084E+02  0.48549538125E+03  0.38198009606E+03  0.62562269510E+03  0.25500000920E-02 0.  1.
</event>
<event>
 5   0  0.3274879E-04  0.1302079E+04  0.7818609E-02  0.9027918E-01
       -1   -1    0    0    0  501  0.00000000000E+00  0.00000000000E+00  0.29134654976E+03  0.29134654981E+03  0.50400001928E-02 0. -1.
        1   -1    0    0  501    0  0.00000000000E+00  0.00000000000E+00 -0.14548045075E+04  0.14548045075E+04  0.50400001928E-02 0.  1.
    10030    2    1    2    0    0  0.00000000000E+00  0.00000000000E+00 -0.11634579577E+04  0.17461510573E+04  0.13020787594E+04 0.  0.
        4    1    3    3  502    0  0.33516422653E+02  0.41868483417E+03 -0.12487983732E+04  0.13175429142E+04  0.12699999809E+01 0.  1.
       -4    1    3    3    0  502 -0.33516422653E+02 -0.41868483417E+03  0.85340415451E+02  0.42860814313E+03  0.12699999809E+01 0. -1.
</event>
<event>
 5   0  0.3403833E-04  0.1305031E+04  0.7818609E-02  0.9025585E-01
        1   -1    0    0  501    0  0.00000000000E+00  0.00000000000E+00  0.71789257296E+03  0.71789257298E+03  0.50400001928E-02 0. -1.
       -1   -1    0    0    0  501  0.00000000000E+00  0.00000000000E+00 -0.59309226727E+03  0.59309226729E+03  0.50400001928E-02 0.  1.
    10030    2    1    2    0    0  0.00000000000E+00  0.00000000000E+00  0.12480030569E+03  0.13109848403E+04  0.13050310859E+04 0.  0.
        1    1    3    3  502    0 -0.53559275881E+02 -0.62184178329E+03  0.25358586717E+03  0.67369250518E+03  0.50400001928E-02 0. -1.
       -1    1    3    3    0  502  0.53559275881E+02  0.62184178329E+03 -0.12878556149E+03  0.63729233508E+03  0.50400001928E-02 0.  1.
</event>
<event>
 5   0  0.3274879E-04  0.1305559E+04  0.7818609E-02  0.9025168E-01
       -1   -1    0    0    0  501  0.00000000000E+00  0.00000000000E+00  0.12186145234E+04  0.12186145234E+04  0.50400001928E-02 0. -1.
        1   -1    0    0  501    0  0.00000000000E+00  0.00000000000E+00 -0.34967679761E+03  0.34967679764E+03  0.50400001928E-02 0.  1.
    10030    2    1    2    0    0  0.00000000000E+00  0.00000000000E+00  0.86893772583E+03  0.15682913211E+04  0.13055592275E+04 0.  0.
        4    1    3    3  502    0  0.43462291179E+03 -0.24076098633E+03 -0.74121162752E+02  0.50235295128E+03  0.12699999809E+01 0.  1.
       -4    1    3    3    0  502 -0.43462291179E+03  0.24076098633E+03  0.94305888858E+03  0.10659383698E+04  0.12699999809E+01 0. -1.
</event>
<event>
 5   0  0.2255875E-04  0.1299206E+04  0.7818609E-02  0.9030195E-01
       -3   -1    0    0    0  501  0.00000000000E+00  0.00000000000E+00  0.11762833974E+04  0.11762834018E+04  0.10100000352E+00 0. -1.
        3   -1    0    0  501    0  0.00000000000E+00  0.00000000000E+00 -0.35874353944E+03  0.35874355366E+03  0.10100000352E+00 0.  1.
    10030    2    1    2    0    0  0.00000000000E+00  0.00000000000E+00  0.81753985799E+03  0.15350269554E+04  0.12992060400E+04 0.  0.
        1    1    3    3  502    0 -0.92615749896E+02 -0.30308205485E+03  0.10787481136E+04  0.11243370944E+04  0.50400001928E-02 0. -1.
       -1    1    3    3    0  502  0.92615749896E+02  0.30308205485E+03 -0.26120825566E+03  0.41068986103E+03  0.50400001928E-02 0.  1.
</event>
<event>
 5   0  0.3337520E-04  0.1296583E+04  0.7818609E-02  0.9032280E-01
       -1   -1    0    0    0  501  0.00000000000E+00  0.00000000000E+00  0.35595963285E+03  0.35595963288E+03  0.50400001928E-02 0. -1.
        1   -1    0    0  501    0  0.00000000000E+00  0.00000000000E+00 -0.11807000820E+04  0.11807000820E+04  0.50400001928E-02 0.  1.
    10030    2    1    2    0    0  0.00000000000E+00  0.00000000000E+00 -0.82474044916E+03  0.15366597149E+04  0.12965825353E+04 0.  0.
        5    1    3    3  502    0 -0.53077146923E+03  0.34674790421E+03 -0.57272663291E+03  0.85439472591E+03  0.46999998093E+01 0.  1.
       -5    1    3    3    0  502  0.53077146923E+03 -0.34674790421E+03 -0.25201381625E+03  0.68226498899E+03  0.46999998093E+01 0. -1.
</event>
<event>
 5   0  0.5787604E-04  0.1285163E+04  0.7818609E-02  0.9041414E-01
        2   -1    0    0  501    0  0.00000000000E+00  0.00000000000E+00  0.10536551367E+04  0.10536551367E+04  0.25500000920E-02 0.  1.
       -2   -1    0    0    0  501  0.00000000000E+00  0.00000000000E+00 -0.39188438329E+03  0.39188438330E+03  0.25500000920E-02 0. -1.
    10030    2    1    2    0    0  0.00000000000E+00  0.00000000000E+00  0.66177075338E+03  0.14455395200E+04  0.12851630145E+04 0.  0.
        4    1    3    3  502    0 -0.17842143282E+03 -0.28854644247E+03 -0.28294143457E+03  0.44175867331E+03  0.12699999809E+01 0. -1.
       -4    1    3    3    0  502  0.17842143282E+03  0.28854644247E+03  0.94471218795E+03  0.10037808467E+04  0.12699999809E+01 0.  1.
</event>
<event>
 5   0  0.5384960E-04  0.1307300E+04  0.7818609E-02  0.9023796E-01
        2   -1    0    0  501    0  0.00000000000E+00  0.00000000000E+00  0.90218002507E+03  0.90218002508E+03  0.25500000920E-02 0.  1.
       -2   -1    0    0    0  501  0.00000000000E+00  0.00000000000E+00 -0.47358429476E+03  0.47358429477E+03  0.25500000920E-02 0. -1.
    10030    2    1    2    0    0  0.00000000000E+00  0.00000000000E+00  0.42859573031E+03  0.13757643198E+04  0.13072999517E+04 0.  0.
        3    1    3    3  502    0  0.52429712634E+03 -0.31719957244E+03  0.45370987935E+03  0.76246685847E+03  0.10100000352E+00 0.  1.
       -3    1    3    3    0  502 -0.52429712634E+03  0.31719957244E+03 -0.25114149041E+02  0.61329746137E+03  0.10100000352E+00 0. -1.
</event>
<event>
 5   0  0.5957913E-04  0.1291212E+04  0.7818609E-02  0.9036563E-01
       -2   -1    0    0    0  501  0.00000000000E+00  0.00000000000E+00  0.35179387483E+03  0.35179387484E+03  0.25500000920E-02 0.  1.
        2   -1    0    0  501    0  0.00000000000E+00  0.00000000000E+00 -0.11848047838E+04  0.11848047838E+04  0.25500000920E-02 0. -1.
    10030    2    1    2    0    0  0.00000000000E+00  0.00000000000E+00 -0.83301090899E+03  0.15365986587E+04  0.12912119359E+04 0.  0.
        1    1    3    3  502    0  0.14439274987E+03 -0.59955049922E+03 -0.64385364003E+03  0.89154785465E+03  0.50400001928E-02 0. -1.
       -1    1    3    3    0  502 -0.14439274987E+03  0.59955049922E+03 -0.18915726896E+03  0.64505080401E+03  0.50400001928E-02 0.  1.
</event>
<event>
 5   0  0.5384960E-04  0.1303690E+04  0.7818609E-02  0.9026644E-01
        2   -1    0    0  501    0  0.00000000000E+00  0.00000000000E+00  0.63025609364E+03  0.63025609365E+03  0.25500000920E-02 0.  1.
       -2   -1    0    0    0  501  0.00000000000E+00  0.00000000000E+00 -0.67417299744E+03  0.67417299744E+03  0.25500000920E-02 0. -1.
    10030    2    1    2    0    0  0.00000000000E+00  0.00000000000E+00 -0.43916903793E+02  0.13044290911E+04  0.13036895947E+04 0.  0.
        3    1    3    3  502    0  0.30593211068E+03  0.45352818457E+03  0.33267080593E+03  0.64027505485E+03  0.10100000352E+00 0.  1.
       -3    1    3    3    0  502 -0.30593211068E+03 -0.45352818457E+03 -0.37658770972E+03  0.66415403624E+03  0.10100000352E+00 0. -1.
</event>
<event>
 5   0  0.6007125E-04  0.1337330E+04  0.7818609E-02  0.9000475E-01
        2   -1    0    0  501    0  0.00000000000E+00  0.00000000000E+00  0.16537189440E+04  0.16537189440E+04  0.25500000920E-02 0. -1.
       -2   -1    0    0    0  501  0.00000000000E+00  0.00000000000E+00 -0.27036832022E+03  0.27036832023E+03  0.25500000920E-02 0.  1.
    10030    2    1    2    0    0  0.00000000000E+00  0.00000000000E+00  0.13833506238E+04  0.19240872642E+04  0.13373304947E+04 0.  0.
        5    1    3    3  502    0  0.12460797043E+03 -0.20804849795E+02 -0.25301771754E+03  0.28284278929E+03  0.46999998093E+01 0.  1.
       -5    1    3    3    0  502 -0.12460797043E+03  0.20804849795E+02  0.16363683413E+04  0.16412444749E+04  0.46999998093E+01 0. -1.
</event>
<event>
 5   0  0.6007125E-04  0.1314554E+04  0.7818609E-02  0.9018103E-01
        2   -1    0    0  501    0  0.00000000000E+00  0.00000000000E+00  0.14338448607E+04  0.14338448607E+04  0.25500000920E-02 0.  1.
       -2   -1    0    0    0  501  0.00000000000E+00  0.00000000000E+00 -0.30129698416E+03  0.30129698417E+03  0.25500000920E-02 0. -1.
    10030    2    1    2    0    0  0.00000000000E+00  0.00000000000E+00  0.11325478765E+04  0.17351418449E+04  0.13145541180E+04 0.  0.
        5    1    3    3  502    0 -0.11846853863E+03  0.49564994623E+03  0.18396716536E+02  0.50996489391E+03  0.46999998093E+01 0. -1.
       -5    1    3    3    0  502  0.11846853863E+03 -0.49564994623E+03  0.11141511600E+04  0.12251769510E+04  0.46999998093E+01 0.  1.
</event>
<event>
 5   0  0.3403833E-04  0.1300535E+04  0.7818609E-02  0.9029141E-01
       -1   -1    0    0    0  501  0.00000000000E+00  0.00000000000E+00  0.19919656197E+04  0.19919656197E+04  0.50400001928E-02 0.  1.
        1   -1    0    0  501    0  0.00000000000E+00  0.00000000000E+00 -0.21227672629E+03  0.21227672635E+03  0.50400001928E-02 0. -1.
    10030    2    1    2    0    0  0.00000000000E+00  0.00000000000E+00  0.17796888934E+04  0.22042423460E+04  0.13005351832E+04 0.  0.
        1    1    3    3  502    0  0.19556548152E+03  0.30130033024E+03 -0.28864734342E+02  0.36036220595E+03  0.50400001928E-02 0. -1.
       -1    1    3    3    0  502 -0.19556548152E+03 -0.30130033024E+03  0.18085536277E+04  0.18438801401E+04  0.50400001928E-02 0.  1.
</event>
<event>
 5   0  0.5957913E-04  0.1296142E+04  0.7818609E-02  0.9032630E-01
        2   -1    0    0  501    0  0.00000000000E+00  0.00000000000E+00  0.79347614476E+03  0.79347614477E+03  0.25500000920E-02 0.  1.
       -2   -1    0    0    0  501  0.00000000000E+00  0.00000000000E+00 -0.52931130247E+03  0.52931130248E+03  0.25500000920E-02 0. -1.
    10030    2    1    2    0    0  0.00000000000E+00  0.00000000000E+00  0.26416484229E+03  0.13227874472E+04  0.12961418004E+04 0.  0.
        1    1    3    3  502    0  0.55092305142E+03 -0.10269539161E+03 -0.20008258720E+03  0.59505931954E+03  0.50400001928E-02 0. -1.
       -1    1    3    3    0  502 -0.55092305142E+03  0.10269539161E+03  0.46424742949E+03  0.72772812771E+03  0.50400001928E-02 0.  1.
</event>
<event>
 5   0  0.3335747E-04  0.1297943E+04  0.7818609E-02  0.9031198E-01
       -1   -1    0    0    0  501  0.00000000000E+00  0.00000000000E+00  0.25581829573E+03  0.25581829578E+03  0.50400001928E-02 0.  1.
        1   -1    0    0  501    0  0.00000000000E+00  0.00000000000E+00 -0.16463402500E+04  0.16463402500E+04  0.50400001928E-02 0. -1.
    10030    2    1    2    0    0  0.00000000000E+00  0.00000000000E+00 -0.13905219542E+04  0.19021585457E+04  0.12979429217E+04 0.  0.
        3    1    3    3  502    0  0.55289949042E+03 -0.21679095555E+03 -0.10787334972E+04  0.12314065670E+04  0.10100000352E+00 0. -1.
       -3    1    3    3    0  502 -0.55289949042E+03  0.21679095555E+03 -0.31178845700E+03  0.67075197878E+03  0.10100000352E+00 0.  1.
</event>
<event>
 5   0  0.3263679E-04  0.1313738E+04  0.7818609E-02  0.9018741E-01
       -1   -1    0    0    0  501  0.00000000000E+00  0.00000000000E+00  0.10509006153E+04  0.10509006153E+04  0.50400001928E-02 0.  1.
        1   -1    0    0  501    0  0.00000000000E+00  0.00000000000E+00 -0.41057820537E+03  0.41057820540E+03  0.50400001928E-02 0. -1.
    10030    2    1    2    0    0  0.00000000000E+00  0.00000000000E+00  0.64032240994E+03  0.14614788207E+04  0.13137380084E+04 0.  0.
        2    1    3    3  502    0  0.42588116469E+03  0.41546931364E+03  0.62983127068E+03  0.86641615090E+03  0.25500000920E-02 0.  1.
       -2    1    3    3    0  502 -0.42588116469E+03 -0.41546931364E+03  0.10491139268E+02  0.59506266983E+03  0.25500000920E-02 0. -1.
</event>
<event>
 5   0  0.3274879E-04  0.1305292E+04  0.7818609E-02  0.9025379E-01
       -1   -1    0    0    0  501  0.00000000000E+00  0.00000000000E+00  0.36741735547E+03  0.36741735551E+03  0.50400001928E-02 0. -1.
        1   -1    0    0  501    0  0.00000000000E+00  0.00000000000E+00 -0.11593003539E+04  0.11593003539E+04  0.50400001928E-02 0.  1.
    10030    2    1    2    0    0  0.00000000000E+00  0.00000000000E+00 -0.79188299846E+03  0.15267177095E+04  0.13052924121E+04 0.  0.
        4    1    3    3  502    0  0.18087281894E+03  0.50668469128E+03 -0.82807607118E+03  0.98749984586E+03  0.12699999809E+01 0.  1.
       -4    1    3    3    0  502 -0.18087281894E+03 -0.50668469128E+03  0.36193072716E+02  0.53921786360E+03  0.12699999809E+01 0. -1.
</event>
<event>
 5   0  0.5787604E-04  0.1321070E+04  0.7818609E-02  0.9013021E-01
       -2   -1    0    0    0  501  0.00000000000E+00  0.00000000000E+00  0.21302527373E+03  0.21302527374E+03  0.25500000920E-02 0. -1.
        2   -1    0    0  501    0  0.00000000000E+00  0.00000000000E+00 -0.20481441418E+04  0.20481441418E+04  0.25500000920E-02 0.  1.
    10030    2    1    2    0    0  0.00000000000E+00  0.00000000000E+00 -0.18351188681E+04  0.22611694156E+04  0.13210699701E+04 0.  0.
        4    1    3    3  502    0 -0.36099120941E+03  0.94751249156E+02 -0.18503723986E+04  0.18876366384E+04  0.12699999809E+01 0.  1.
       -4    1    3    3    0  502  0.36099120941E+03 -0.94751249156E+02  0.15253530489E+02  0.37353277712E+03  0.12699999809E+01 0. -1.
</event>
<event>
 5   0  0.3337520E-04  0.1302324E+04  0.7818609E-02  0.9027724E-01
        1   -1    0    0  501    0  0.00000000000E+00  0.00000000000E+00  0.88246116692E+03  0.88246116693E+03  0.50400001928E-02 0.  1.
       -1   -1    0    0    0  501  0.00000000000E+00  0.00000000000E+00 -0.48048826982E+03  0.48048826985E+03  0.50400001928E-02 0. -1.
    10030    2    1    2    0    0  0.00000000000E+00  0.00000000000E+00  0.40197289710E+03  0.13629494368E+04  0.13023244439E+04 0.  0.
        5    1    3    3  502    0 -0.82442464794E+02  0.45295154479E+03 -0.28091413823E+03  0.53934840779E+03  0.46999998093E+01 0. -1.
       -5    1    3    3    0  502  0.82442464794E+02 -0.45295154479E+03  0.68288703533E+03  0.82360102899E+03  0.46999998093E+01 0.  1.
</event>
<event>
 5   0  0.3335747E-04  0.1296893E+04  0.7818609E-02  0.9032032E-01
        1   -1    0    0  501    0  0.00000000000E+00  0.00000000000E+00  0.24895594678E+03  0.24895594683E+03  0.50400001928E-02 0.  1.
       -1   -1    0    0    0  501  0.00000000000E+00  0.00000000000E+00 -0.16889862767E+04  0.16889862767E+04  0.50400001928E-02 0. -1.
    10030    2    1    2    0    0  0.00000000000E+00  0.00000000000E+00 -0.14400303299E+04  0.19379422236E+04  0.12968934847E+04 0.  0.
        3    1    3    3  502    0 -0.37240210367E+03  0.65799756105E+02 -0.15071419948E+04  0.15538629082E+04  0.10100000352E+00 0. -1.
       -3    1    3    3    0  502  0.37240210367E+03 -0.65799756105E+02  0.67111664883E+02  0.38407931535E+03  0.10100000352E+00 0.  1.
</event>
<event>
 5   0  0.3337520E-04  0.1304376E+04  0.7818609E-02  0.9026102E-01
       -1   -1    0    0    0  501  0.00000000000E+00  0.00000000000E+00  0.82427498623E+03  0.82427498625E+03  0.50400001928E-02 0. -1.
        1   -1    0    0  501    0  0.00000000000E+00  0.00000000000E+00 -0.51602805213E+03  0.51602805215E+03  0.50400001928E-02 0.  1.
    10030    2    1    2    0    0  0.00000000000E+00  0.00000000000E+00  0.30824693411E+03  0.13403030384E+04  0.13043757367E+04 0.  0.
        5    1    3    3  502    0  0.77830167926E+01  0.52006679674E+02 -0.51382865375E+03  0.51653387642E+03  0.46999998093E+01 0.  1.
       -5    1    3    3    0  502 -0.77830167926E+01 -0.52006679674E+02  0.82207558786E+03  0.82376916198E+03  0.46999998093E+01 0. -1.
</event>
<event>
 5   0  0.6007125E-04  0.1310725E+04  0.7818609E-02  0.9021103E-01
       -2   -1    0    0    0  501  0.00000000000E+00  0.00000000000E+00  0.11498386706E+04  0.11498386706E+04  0.25500000920E-02 0. -1.
        2   -1    0    0  501    0  0.00000000000E+00  0.00000000000E+00 -0.37353087739E+03  0.37353087740E+03  0.25500000920E-02 0.  1.
    10030    2    1    2    0    0  0.00000000000E+00  0.00000000000E+00  0.77630779318E+03  0.15233695480E+04  0.13107253679E+04 0.  0.
        5    1    3    3  502    0 -0.13745059113E+03 -0.64052196381E+03  0.36745743761E+03  0.75113787654E+03  0.46999998093E+01 0.  1.
       -5    1    3    3    0  502  0.13745059113E+03  0.64052196381E+03  0.40885035557E+03  0.77223167144E+03  0.46999998093E+01 0. -1.
</event>
<event>
 5   0  0.5957913E-04  0.1302654E+04  0.7818609E-02  0.9027463E-01
       -2   -1    0    0    0  501  0.00000000000E+00  0.00000000000E+00  0.28051940810E+03  0.28051940811E+03  0.25500000920E-02 0. -1.
        2   -1    0    0  501    0  0.00000000000E+00  0.00000000000E+00 -0.15122912050E+04  0.15122912050E+04  0.25500000920E-02 0.  1.
    10030    2    1    2    0    0  0.00000000000E+00  0.00000000000E+00 -0.12317717969E+04  0.17928106132E+04  0.13026542653E+04 0.  0.
        1    1    3    3  502    0 -0.35803856968E+03 -0.22227943142E+03  0.67594079974E+02  0.42681228038E+03  0.50400001928E-02 0. -1.
       -1    1    3    3    0  502  0.35803856968E+03  0.22227943142E+03 -0.12993658769E+04  0.13659983328E+04  0.50400001928E-02 0.  1.
</event>
<event>
 5   0  0.3263679E-04  0.1294833E+04  0.7818609E-02  0.9033673E-01
       -1   -1    0    0    0  501  0.00000000000E+00  0.00000000000E+00  0.93480181418E+03  0.93480181419E+03  0.50400001928E-02 0.  1.
        1   -1    0    0  501    0  0.00000000000E+00  0.00000000000E+00 -0.44838170618E+03  0.44838170621E+03  0.50400001928E-02 0. -1.
    10030    2    1    2    0    0  0.00000000000E+00  0.00000000000E+00  0.48642010800E+03  0.13831835204E+04  0.12948328578E+04 0.  0.
        2    1    3    3  502    0 -0.27000252361E+03  0.44261828091E+03 -0.17097764402E+03  0.54593558239E+03  0.25500000920E-02 0. -1.
       -2    1    3    3    0  502  0.27000252361E+03 -0.44261828091E+03  0.65739775201E+03  0.83724793802E+03  0.25500000920E-02 0.  1.
</event>
<event>
 5   0  0.6007125E-04  0.1314750E+04  0.7818609E-02  0.9017949E-01
        2   -1    0    0  501    0  0.00000000000E+00  0.00000000000E+00  0.61221627830E+03  0.61221627830E+03  0.25500000920E-02 0. -1.
       -2   -1    0    0    0  501  0.00000000000E+00  0.00000000000E+00 -0.70586486565E+03  0.70586486566E+03  0.25500000920E-02 0.  1.
    10030    2    1    2    0    0  0.00000000000E+00  0.00000000000E+00 -0.93648587355E+02  0.13180811440E+04  0.13147501071E+04 0.  0.
        5    1    3    3  502    0  0.36045724289E+03  0.42241716772E+03 -0.39950270590E+03  0.68409808475E+03  0.46999998093E+01 0.  1.
       -5    1    3    3    0  502 -0.36045724289E+03 -0.42241716772E+03  0.30585411855E+03  0.63398305921E+03  0.46999998093E+01 0. -1.
</event>
<event>
 5   0  0.5957913E-04  0.1303010E+04  0.7818609E-02  0.9027182E-01
        2   -1    0    0  501    0  0.00000000000E+00  0.00000000000E+00  0.12031303928E+04  0.12031303928E+04  0.25500000920E-02 0.  1.
       -2   -1    0    0    0  501  0.00000000000E+00  0.00000000000E+00 -0.35279535283E+03  0.35279535284E+03  0.25500000920E-02 0. -1.
    10030    2    1    2    0    0  0.00000000000E+00  0.00000000000E+00  0.85033503998E+03  0.15559257457E+04  0.13030100712E+04 0.  0.
        1    1    3    3  502    0 -0.32511081429E+03  0.47077611325E+03  0.53014615365E+02  0.57457613929E+03  0.50400001928E-02 0.  1.
       -1    1    3    3    0  502  0.32511081429E+03 -0.47077611325E+03  0.79732042462E+03  0.98134960636E+03  0.50400001928E-02 0. -1.
</event>
<event>
 5   0  0.2255875E-04  0.1291558E+04  0.7818609E-02  0.9036287E-01
       -3   -1    0    0    0  501  0.00000000000E+00  0.00000000000E+00  0.10179173724E+04  0.10179173774E+04  0.10100000352E+00 0.  1.
        3   -1    0    0  501    0  0.00000000000E+00  0.00000000000E+00 -0.40968975675E+03  0.40968976920E+03  0.10100000352E+00 0. -1.
    10030    2    1    2    0    0  0.00000000000E+00  0.00000000000E+00  0.60822761568E+03  0.14276071466E+04  0.12915577156E+04 0.  0.
        4    1    3    3  502    0 -0.18281793838E+03  0.47826222409E+03 -0.13087766250E+03  0.52847680084E+03  0.12699999809E+01 0. -1.
       -4    1    3    3    0  502  0.18281793838E+03 -0.47826222409E+03  0.73910527818E+03  0.89913034579E+03  0.12699999809E+01 0.  1.
</event>
<event>
 5   0  0.5957913E-04  0.1301588E+04  0.7818609E-02  0.9028307E-01
        2   -1    0    0  501    0  0.00000000000E+00  0.00000000000E+00  0.19640852948E+04  0.19640852948E+04  0.25500000920E-02 0. -1.
       -2   -1    0    0    0  501  0.00000000000E+00  0.00000000000E+00 -0.21563874793E+03  0.21563874794E+03  0.25500000920E-02 0.  1.
    10030    2    1    2    0    0  0.00000000000E+00  0.00000000000E+00  0.17484465469E+04  0.21797240428E+04  0.13015880974E+04 0.  0.
        1    1    3    3  502    0  0.39520477520E+02  0.60543979722E+03  0.12684412577E+04  0.14060805242E+04  0.50400001928E-02 0. -1.
       -1    1    3    3    0  502 -0.39520477520E+02 -0.60543979722E+03  0.48000528922E+03  0.77364351862E+03  0.50400001928E-02 0.  1.
</event>
<event>
 5   0  0.5384960E-04  0.1295157E+04  0.7818609E-02  0.9033414E-01
       -2   -1    0    0    0  501  0.00000000000E+00  0.00000000000E+00  0.23825833374E+03  0.23825833375E+03  0.25500000920E-02 0. -1.
        2   -1    0    0  501    0  0.00000000000E+00  0.00000000000E+00 -0.17600988467E+04  0.17600988467E+04  0.25500000920E-02 0.  1.
    10030    2    1    2    0    0  0.00000000000E+00  0.00000000000E+00 -0.15218405130E+04  0.19983571805E+04  0.12951574707E+04 0.  0.
        3    1    3    3  502    0 -0.19648040286E+03  0.48917112710E+03 -0.13412508334E+04  0.14411269024E+04  0.10100000352E+00 0.  1.
       -3    1    3    3    0  502  0.19648040286E+03 -0.48917112710E+03 -0.18058967957E+03  0.55723027813E+03  0.10100000352E+00 0. -1.
</event>
<event>
 5   0  0.3274879E-04  0.1303040E+04  0.7818609E-02  0.9027158E-01
       -1   -1    0    0    0  501  0.00000000000E+00  0.00000000000E+00  0.58617456695E+03  0.58617456697E+03  0.50400001928E-02 0.  1.
        1   -1    0    0  501    0  0.00000000000E+00  0.00000000000E+00 -0.72414980689E+03  0.72414980691E+03  0.50400001928E-02 0. -1.
    10030    2    1    2    0    0  0.00000000000E+00  0.00000000000E+00 -0.13797523994E+03  0.13103243739E+04  0.13030398298E+04 0.  0.
        4    1    3    3  502    0 -0.47701888129E+03  0.16794463714E+03 -0.48204442540E+03  0.69865646437E+03  0.12699999809E+01 0. -1.
       -4    1    3    3    0  502  0.47701888129E+03 -0.16794463714E+03  0.34406918545E+03  0.61166790951E+03  0.12699999809E+01 0.  1.
</event>
<event>
 5   0  0.3274879E-04  0.1306034E+04  0.7818609E-02  0.9024794E-01
        1   -1    0    0  501    0  0.00000000000E+00  0.00000000000E+00  0.17380075501E+04  0.17380075501E+04  0.50400001928E-02 0. -1.
       -1   -1    0    0    0  501  0.00000000000E+00  0.00000000000E+00 -0.24535642465E+03  0.24535642470E+03  0.50400001928E-02 0.  1.
    10030    2    1    2    0    0  0.00000000000E+00  0.00000000000E+00  0.14926511255E+04  0.19833639748E+04  0.13060341781E+04 0.  0.
        4    1    3    3  502    0  0.42475522144E+03  0.27662505547E+03  0.13715293008E+04  0.14622013047E+04  0.12699999809E+01 0. -1.
       -4    1    3    3    0  502 -0.42475522144E+03 -0.27662505547E+03  0.12112182464E+03  0.52116267015E+03  0.12699999809E+01 0.  1.
</event>
<event>
 5   0  0.3403833E-04  0.1299692E+04  0.7818609E-02  0.9029809E-01
       -1   -1    0    0    0  501  0.00000000000E+00  0.00000000000E+00  0.54851394117E+03  0.54851394120E+03  0.50400001928E-02 0. -1.
        1   -1    0    0  501    0  0.00000000000E+00  0.00000000000E+00 -0.76989821127E+03  0.76989821129E+03  0.50400001928E-02 0.  1.
    10030    2    1    2    0    0  0.00000000000E+00  0.00000000000E+00 -0.22138427010E+03  0.13184121525E+04  0.12996921208E+04 0.  0.
        1    1    3    3  502    0  0.21100170379E+03  0.61285287822E+03 -0.15815855114E+03  0.66717651088E+03  0.50400001928E-02 0. -1.
       -1    1    3    3    0  502 -0.21100170379E+03 -0.61285287822E+03 -0.63225718964E+02  0.65123564161E+03  0.50400001928E-02 0.  1.
</event>
<event>
 5   0  0.6007125E-04  0.1293127E+04  0.7818609E-02  0.9035033E-01
        2   -1    0    0  501    0  0.00000000000E+00  0.00000000000E+00  0.31358126276E+03  0.31358126277E+03  0.25500000920E-02 0.  1.
       -2   -1    0    0    0  501  0.00000000000E+00  0.00000000000E+00 -0.13331302290E+04  0.13331302290E+04  0.25500000920E-02 0. -1.
    10030    2    1    2    0    0  0.00000000000E+00  0.00000000000E+00 -0.10195489663E+04  0.16467114918E+04  0.12931274657E+04 0.  0.
        5    1    3    3  502    0  0.15583399444E+03  0.12537640592E+03 -0.12927227164E+04  0.13081122232E+04  0.46999998093E+01 0. -1.
       -5    1    3    3    0  502 -0.15583399444E+03 -0.12537640592E+03  0.27317375009E+03  0.33859926864E+03  0.46999998093E+01 0.  1.
</event>
<event>
 5   0  0.3403833E-04  0.1293880E+04  0.7818609E-02  0.9034432E-01
        1   -1    0    0  501    0  0.00000000000E+00  0.00000000000E+00  0.70740992358E+03  0.70740992360E+03  0.50400001928E-02 0.  1.
       -1   -1    0    0    0  501  0.00000000000E+00  0.00000000000E+00 -0.59163908494E+03  0.59163908496E+03  0.50400001928E-02 0. -1.
    10030    2    1    2    0    0  0.00000000000E+00  0.00000000000E+00  0.11577083864E+03  0.12990490086E+04  0.12938799943E+04 0.  0.
        1    1    3    3  502    0 -0.54526757904E+03 -0.18826876932E+03  0.35191970295E+03  0.67572874706E+03  0.50400001928E-02 0.  1.
       -1    1    3    3    0  502  0.54526757904E+03  0.18826876932E+03 -0.23614886431E+03  0.62332026150E+03  0.50400001928E-02 0. -1.
</event>
<event>
 5   0  0.2255875E-04  0.1280861E+04  0.7818609E-02  0.9044882E-01
       -3   -1    0    0    0  501  0.00000000000E+00  0.00000000000E+00  0.26485266520E+03  0.26485268446E+03  0.10100000352E+00 0.  1.
        3   -1    0    0  501    0  0.00000000000E+00  0.00000000000E+00 -0.15486007048E+04  0.15486007081E+04  0.10100000352E+00 0. -1.
    10030    2    1    2    0    0  0.00000000000E+00  0.00000000000E+00 -0.12837480396E+04  0.18134533926E+04  0.12808607176E+04 0.  0.
        1    1    3    3  502    0  0.45707474918E+03  0.31503513830E+02 -0.83234848268E+01  0.45823474131E+03  0.50400001928E-02 0.  1.
       -1    1    3    3    0  502 -0.45707474918E+03 -0.31503513830E+02 -0.12754245548E+04  0.13552186513E+04  0.50400001928E-02 0. -1.
</event>
<event>
 5   0  0.6007125E-04  0.1298122E+04  0.7818609E-02  0.9031056E-01
       -2   -1    0    0    0  501  0.00000000000E+00  0.00000000000E+00  0.18108066163E+03  0.18108066165E+03  0.25500000920E-02 0. -1.
        2   -1    0    0  501    0  0.00000000000E+00  0.00000000000E+00 -0.23264781845E+04  0.23264781845E+04  0.25500000920E-02 0.  1.
    10030    2    1    2    0    0  0.00000000000E+00  0.00000000000E+00 -0.21453975229E+04  0.25075588462E+04  0.12981220420E+04 0.  0.
        5    1    3    3  502    0 -0.12258011815E+03 -0.50483630283E+03 -0.32114654508E+03  0.61077227462E+03  0.46999998093E+01 0. -1.
       -5    1    3    3    0  502  0.12258011815E+03  0.50483630283E+03 -0.18242509778E+04  0.18967865716E+04  0.46999998093E+01 0.  1.
</event>
<event>
 5   0  0.5957913E-04  0.1302869E+04  0.7818609E-02  0.9027293E-01
       -2   -1    0    0    0  501  0.00000000000E+00  0.00000000000E+00  0.41113687382E+03  0.41113687383E+03  0.25500000920E-02 0. -1.
        2   -1    0    0  501    0  0.00000000000E+00  0.00000000000E+00 -0.10321784993E+04  0.10321784993E+04  0.25500000920E-02 0.  1.
    10030    2    1    2    0    0  0.00000000000E+00  0.00000000000E+00 -0.62104162549E+03  0.14433153732E+04  0.13028685911E+04 0.  0.
        1    1    3    3  502    0  0.57594419920E+03 -0.74926567019E+02  0.16309541932E+02  0.58102642988E+03  0.50400001928E-02 0.  1.
       -1    1    3    3    0  502 -0.57594419920E+03  0.74926567019E+02 -0.63735116742E+03  0.86228894327E+03  0.50400001928E-02 0. -1.
</event>
<event>
 5   0  0.5787604E-04  0.1298898E+04  0.7818609E-02  0.9030440E-01
        2   -1    0    0  501    0  0.00000000000E+00  0.00000000000E+00  0.12619319755E+04  0.12619319755E+04  0.25500000920E-02 0.  1.
       -2   -1    0    0    0  501  0.00000000000E+00  0.00000000000E+00 -0.33423668622E+03  0.33423668623E+03  0.25500000920E-02 0. -1.
    10030    2    1    2    0    0  0.00000000000E+00  0.00000000000E+00  0.92769528925E+03  0.15961686617E+04  0.12988979355E+04 0.  0.
        4    1    3    3  502    0  0.22838395369E+03  0.10875403549E+03  0.11989051199E+04  0.12253006856E+04  0.12699999809E+01 0.  1.
       -4    1    3    3    0  502 -0.22838395369E+03 -0.10875403549E+03 -0.27120983070E+03  0.37086797611E+03  0.12699999809E+01 0. -1.
</event>
<event>
 5   0  0.6007125E-04  0.1310690E+04  0.7818609E-02  0.9021131E-01
       -2   -1    0    0    0  501  0.00000000000E+00  0.00000000000E+00  0.29526146046E+03  0.29526146047E+03  0.25500000920E-02 0.  1.
        2   -1    0    0  501    0  0.00000000000E+00  0.00000000000E+00 -0.14545650531E+04  0.14545650531E+04  0.25500000920E-02 0. -1.
    10030    2    1    2    0    0  0.00000000000E+00  0.00000000000E+00 -0.11593035926E+04  0.17498265135E+04  0.13106898976E+04 0.  0.
        5    1    3    3  502    0 -0.26378288458E+03  0.98985198521E+02 -0.13695586054E+04  0.13982461669E+04  0.46999998093E+01 0. -1.
       -5    1    3    3    0  502  0.26378288458E+03 -0.98985198521E+02  0.21025501278E+03  0.35158034661E+03  0.46999998093E+01 0.  1.
</event>
<event>
 5   0  0.3274879E-04  0.1301179E+04  0.7818609E-02  0.9028631E-01
       -1   -1    0    0    0  501  0.00000000000E+00  0.00000000000E+00  0.56695891209E+03  0.56695891211E+03  0.50400001928E-02 0. -1.
        1   -1    0    0  501    0  0.00000000000E+00  0.00000000000E+00 -0.74655593469E+03  0.74655593470E+03  0.50400001928E-02 0.  1.
    10030    2    1    2    0    0  0.00000000000E+00  0.00000000000E+00 -0.17959702260E+03  0.13135148468E+04  0.13011787588E+04 0.  0.
        4    1    3    3  502    0 -0.45069186967E+03  0.28459111247E+03 -0.46636277579E+03  0.70824509474E+03  0.12699999809E+01 0.  1.
       -4    1    3    3    0  502  0.45069186967E+03 -0.28459111247E+03  0.28676575319E+03  0.60526975208E+03  0.12699999809E+01 0. -1.
</event>
<event>
 5   0  0.5957913E-04  0.1298322E+04  0.7818609E-02  0.9030897E-01
       -2   -1    0    0    0  501  0.00000000000E+00  0.00000000000E+00  0.34044546546E+03  0.34044546547E+03  0.25500000920E-02 0. -1.
        2   -1    0    0  501    0  0.00000000000E+00  0.00000000000E+00 -0.12378198719E+04  0.12378198719E+04  0.25500000920E-02 0.  1.
    10030    2    1    2    0    0  0.00000000000E+00  0.00000000000E+00 -0.89737440648E+03  0.15782653374E+04  0.12983222442E+04 0.  0.
        1    1    3    3  502    0 -0.34642949110E+03  0.54553222726E+03 -0.52353775123E+03  0.83169139726E+03  0.50400001928E-02 0.  1.
       -1    1    3    3    0  502  0.34642949110E+03 -0.54553222726E+03 -0.37383665525E+03  0.74657394016E+03  0.50400001928E-02 0. -1.
</event>
<event>
 5   0  0.3274879E-04  0.1295127E+04  0.7818609E-02  0.9033438E-01
       -1   -1    0    0    0  501  0.00000000000E+00  0.00000000000E+00  0.34970716745E+03  0.34970716749E+03  0.50400001928E-02 0. -1.
        1   -1    0    0  501    0  0.00000000000E+00  0.00000000000E+00 -0.11991140600E+04  0.11991140600E+04  0.50400001928E-02 0.  1.
    10030    2    1    2    0    0  0.00000000000E+00  0.00000000000E+00 -0.84940689256E+03  0.15488212275E+04  0.12951274554E+04 0.  0.
        4    1    3    3  502    0 -0.42295647458E+03  0.48076892847E+03 -0.30933804195E+03  0.71114174330E+03  0.12699999809E+01 0. -1.
       -4    1    3    3    0  502  0.42295647458E+03 -0.48076892847E+03 -0.54006885061E+03  0.83767948421E+03  0.12699999809E+01 0.  1.
</event>
<event>
 5   0  0.3263679E-04  0.1303759E+04  0.7818609E-02  0.9026590E-01
        1   -1    0    0  501    0  0.00000000000E+00  0.00000000000E+00  0.11896129775E+04  0.11896129775E+04  0.50400001928E-02 0.  1.
       -1   -1    0    0    0  501  0.00000000000E+00  0.00000000000E+00 -0.35721421915E+03  0.35721421918E+03  0.50400001928E-02 0. -1.
    10030    2    1    2    0    0  0.00000000000E+00  0.00000000000E+00  0.83239875832E+03  0.15468271967E+04  0.13037586753E+04 0.  0.
        2    1    3    3  502    0 -0.34846436032E+02 -0.60980598783E+03  0.68640772048E+03  0.91882162341E+03  0.25500000920E-02 0.  1.
       -2    1    3    3    0  502  0.34846436032E+02  0.60980598783E+03  0.14599103784E+03  0.62800557325E+03  0.25500000920E-02 0. -1.
</event>
<event>
 5   0  0.2255875E-04  0.1311923E+04  0.7818609E-02  0.9020164E-01
       -4   -1    0    0    0  501  0.00000000000E+00  0.00000000000E+00  0.35053996202E+03  0.35054226260E+03  0.12699999809E+01 0.  1.
        4   -1    0    0  501    0  0.00000000000E+00  0.00000000000E+00 -0.12274859931E+04  0.12274866501E+04  0.12699999809E+01 0. -1.
    10030    2    1    2    0    0  0.00000000000E+00  0.00000000000E+00 -0.87694603112E+03  0.15780289127E+04  0.13119225998E+04 0.  0.
        4    1    3    3  502    0 -0.45480872466E+02 -0.95232200910E+02 -0.12172074348E+04  0.12217746249E+04  0.12699999809E+01 0. -1.
       -4    1    3    3    0  502  0.45480872466E+02  0.95232200910E+02  0.34026140368E+03  0.35625428782E+03  0.12699999809E+01 0.  1.
</event>
<event>
 5   0  0.3274879E-04  0.1325645E+04  0.7818609E-02  0.9009472E-01
        1   -1    0    0  501    0  0.00000000000E+00  0.00000000000E+00  0.85603271659E+03  0.85603271660E+03  0.50400001928E-02 0. -1.
       -1   -1    0    0    0  501  0.00000000000E+00  0.00000000000E+00 -0.51322067850E+03  0.51322067853E+03  0.50400001928E-02 0.  1.
    10030    2    1    2    0    0  0.00000000000E+00  0.00000000000E+00  0.34281203809E+03  0.13692533951E+04  0.13256450379E+04 0.  0.
        4    1    3    3  502    0 -0.54800809147E+03  0.37010036197E+03  0.21811453456E+03  0.69632083793E+03  0.12699999809E+01 0. -1.
       -4    1    3    3    0  502  0.54800809147E+03 -0.37010036197E+03  0.12469750352E+03  0.67293255720E+03  0.12699999809E+01 0.  1.
</event>
<event>
 5   0  0.3274879E-04  0.1281716E+04  0.7818609E-02  0.9044191E-01
       -1   -1    0    0    0  501  0.00000000000E+00  0.00000000000E+00  0.12495265148E+04  0.12495265148E+04  0.50400001928E-02 0. -1.
        1   -1    0    0  501    0  0.00000000000E+00  0.00000000000E+00 -0.32868380313E+03  0.32868380317E+03  0.50400001928E-02 0.  1.
    10030    2    1    2    0    0  0.00000000000E+00  0.00000000000E+00  0.92084271165E+03  0.15782103180E+04  0.12817162354E+04 0.  0.
        4    1    3    3  502    0 -0.48235482327E+03  0.16990171077E+03  0.93598220204E+03  0.10665819529E+04  0.12699999809E+01 0. -1.
       -4    1    3    3    0  502  0.48235482327E+03 -0.16990171077E+03 -0.15139490394E+02  0.51162836504E+03  0.12699999809E+01 0.  1.
</event>
<event>
 5   0  0.5787604E-04  0.1299118E+04  0.7818609E-02  0.9030265E-01
        2   -1    0    0  501    0  0.00000000000E+00  0.00000000000E+00  0.65902838775E+03  0.65902838776E+03  0.25500000920E-02 0. -1.
       -2   -1    0    0    0  501  0.00000000000E+00  0.00000000000E+00 -0.64022585244E+03  0.64022585245E+03  0.25500000920E-02 0.  1.
    10030    2    1    2    0    0  0.00000000000E+00  0.00000000000E+00  0.18802535308E+02  0.12992542402E+04  0.12991181799E+04 0.  0.
        4    1    3    3  502    0  0.46855226899E+03  0.16003402821E+03 -0.41108691214E+03  0.64354190321E+03  0.12699999809E+01 0.  1.
       -4    1    3    3    0  502 -0.46855226899E+03 -0.16003402821E+03  0.42988944745E+03  0.65571233699E+03  0.12699999809E+01 0. -1.
</event>
<event>
 5   0  0.5787604E-04  0.1307793E+04  0.7818609E-02  0.9023408E-01
       -2   -1    0    0    0  501  0.00000000000E+00  0.00000000000E+00  0.78734975517E+03  0.78734975517E+03  0.25500000920E-02 0.  1.
        2   -1    0    0  501    0  0.00000000000E+00  0.00000000000E+00 -0.54306277563E+03  0.54306277564E+03  0.25500000920E-02 0. -1.
    10030    2    1    2    0    0  0.00000000000E+00  0.00000000000E+00  0.24428697954E+03  0.13304125308E+04  0.13077925576E+04 0.  0.
        4    1    3    3  502    0 -0.13208566013E+02 -0.43605091322E+03  0.61766586062E+03  0.75619282819E+03  0.12699999809E+01 0.  1.
       -4    1    3    3    0  502  0.13208566013E+02  0.43605091322E+03 -0.37337888108E+03  0.57421970262E+03  0.12699999809E+01 0. -1.
</event>
<event>
 5   0  0.3335747E-04  0.1298207E+04  0.7818609E-02  0.9030989E-01
       -1   -1    0    0    0  501  0.00000000000E+00  0.00000000000E+00  0.36221620695E+03  0.36221620698E+03  0.50400001928E-02 0.  1.
        1   -1    0    0  501    0  0.00000000000E+00  0.00000000000E+00 -0.11632143087E+04  0.11632143087E+04  0.50400001928E-02 0. -1.
    10030    2    1    2    0    0  0.00000000000E+00  0.00000000000E+00 -0.80099810173E+03  0.15254305157E+04  0.12982065703E+04 0.  0.
        3    1    3    3  502    0 -0.39277622181E+03  0.10251083897E+03  0.19466616571E+03  0.45019613370E+03  0.10100000352E+00 0.  1.
       -3    1    3    3    0  502  0.39277622181E+03 -0.10251083897E+03 -0.99566426744E+03  0.10752343820E+04  0.10100000352E+00 0. -1.
</event>
<event>
 5   0  0.6052864E-04  0.1304507E+04  0.7818609E-02  0.9025999E-01
       -2   -1    0    0    0  501  0.00000000000E+00  0.00000000000E+00  0.31466966687E+03  0.31466966688E+03  0.25500000920E-02 0.  1.
        2   -1    0    0  501    0  0.00000000000E+00  0.00000000000E+00 -0.13520034411E+04  0.13520034411E+04  0.25500000920E-02 0. -1.
    10030    2    1    2    0    0  0.00000000000E+00  0.00000000000E+00 -0.10373337742E+04  0.16666731080E+04  0.13045067611E+04 0.  0.
        2    1    3    3  502    0 -0.52073528891E+03  0.69367982675E+02 -0.24739985402E+02  0.52591750781E+03  0.25500000920E-02 0.  1.
       -2    1    3    3    0  502  0.52073528891E+03 -0.69367982675E+02 -0.10125937888E+04  0.11407556001E+04  0.25500000920E-02 0. -1.
</event>
<event>
 5   0  0.3337520E-04  0.1296844E+04  0.7818609E-02  0.9032071E-01
        1   -1    0    0  501    0  0.00000000000E+00  0.00000000000E+00  0.77768152728E+03  0.77768152730E+03  0.50400001928E-02 0.  1.
       -1   -1    0    0    0  501  0.00000000000E+00  0.00000000000E+00 -0.54064706429E+03  0.54064706431E+03  0.50400001928E-02 0. -1.
    10030    2    1    2    0    0  0.00000000000E+00  0.00000000000E+00  0.23703446300E+03  0.13183285916E+04  0.12968442230E+04 0.  0.
        5    1    3    3  502    0 -0.25220212164E+03 -0.22277647284E+03 -0.44491558366E+03  0.55785951062E+03  0.46999998093E+01 0. -1.
       -5    1    3    3    0  502  0.25220212164E+03  0.22277647284E+03  0.68195004665E+03  0.76046908099E+03  0.46999998093E+01 0.  1.
</event>
<event>
 5   0  0.5957913E-04  0.1301187E+04  0.7818609E-02  0.9028625E-01
       -2   -1    0    0    0  501  0.00000000000E+00  0.00000000000E+00  0.44246635281E+03  0.44246635282E+03  0.25500000920E-02 0.  1.
        2   -1    0    0  501    0  0.00000000000E+00  0.00000000000E+00 -0.95661869478E+03  0.95661869479E+03  0.25500000920E-02 0. -1.
    10030    2    1    2    0    0  0.00000000000E+00  0.00000000000E+00 -0.51415234197E+03  0.13990850476E+04  0.13011865123E+04 0.  0.
        1    1    3    3  502    0  0.16182814278E+03 -0.25330713782E+03 -0.87747886874E+03  0.92753545430E+03  0.50400001928E-02 0. -1.
       -1    1    3    3    0  502 -0.16182814278E+03  0.25330713782E+03  0.36332652677E+03  0.47154959331E+03  0.50400001928E-02 0.  1.
</event>
<event>
 5   0  0.5787604E-04  0.1303175E+04  0.7818609E-02  0.9027051E-01
       -2   -1    0    0    0  501  0.00000000000E+00  0.00000000000E+00  0.26209302542E+03  0.26209302543E+03  0.25500000920E-02 0.  1.
        2   -1    0    0  501    0  0.00000000000E+00  0.00000000000E+00 -0.16199071736E+04  0.16199071736E+04  0.25500000920E-02 0. -1.
    10030    2    1    2    0    0  0.00000000000E+00  0.00000000000E+00 -0.13578141481E+04  0.18820001990E+04  0.13031751563E+04 0.  0.
        4    1    3    3  502    0  0.29382437398E+03 -0.50229129242E+03 -0.11022604826E+04  0.12464385623E+04  0.12699999809E+01 0. -1.
       -4    1    3    3    0  502 -0.29382437398E+03  0.50229129242E+03 -0.25555366557E+03  0.63556163672E+03  0.12699999809E+01 0.  1.
</event>
<event>
 5   0  0.3335747E-04  0.1324358E+04  0.7818609E-02  0.9010469E-01
        1   -1    0    0  501    0  0.00000000000E+00  0.00000000000E+00  0.10847151233E+04  0.10847151233E+04  0.50400001928E-02 0.  1.
       -1   -1    0    0    0  501  0.00000000000E+00  0.00000000000E+00 -0.40423598643E+03  0.40423598647E+03  0.50400001928E-02 0. -1.
    10030    2    1    2    0    0  0.00000000000E+00  0.00000000000E+00  0.68047913689E+03  0.14889511098E+04  0.13243577884E+04 0.  0.
        3    1    3    3  502    0  0.95681484350E+02  0.26836611918E+03  0.10122793677E+04  0.10516105975E+04  0.10100000352E+00 0.  1.
       -3    1    3    3    0  502 -0.95681484350E+02 -0.26836611918E+03 -0.33180023077E+03  0.43734051231E+03  0.10100000352E+00 0. -1.
</event>
<event>
 5   0  0.5787604E-04  0.1317339E+04  0.7818609E-02  0.9015927E-01
       -2   -1    0    0    0  501  0.00000000000E+00  0.00000000000E+00  0.72816839253E+03  0.72816839253E+03  0.25500000920E-02 0. -1.
        2   -1    0    0  501    0  0.00000000000E+00  0.00000000000E+00 -0.59580416494E+03  0.59580416495E+03  0.25500000920E-02 0.  1.
    10030    2    1    2    0    0  0.00000000000E+00  0.00000000000E+00  0.13236422759E+03  0.13239725575E+04  0.13173393808E+04 0.  0.
        4    1    3    3  502    0 -0.45940961128E+03  0.37988353030E+03  0.34772739010E+03  0.69013378287E+03  0.12699999809E+01 0. -1.
       -4    1    3    3    0  502  0.45940961128E+03 -0.37988353030E+03 -0.21536316251E+03  0.63383877461E+03  0.12699999809E+01 0.  1.
</event>
<event>
 5   0  0.6007125E-04  0.1301057E+04  0.7818609E-02  0.9028727E-01
       -2   -1    0    0    0  501  0.00000000000E+00  0.00000000000E+00  0.17871583176E+03  0.17871583178E+03  0.25500000920E-02 0. -1.
        2   -1    0    0  501    0  0.00000000000E+00  0.00000000000E+00 -0.23679351565E+04  0.23679351565E+04  0.25500000920E-02 0.  1.
    10030    2    1    2    0    0  0.00000000000E+00  0.00000000000E+00 -0.21892193248E+04  0.25466509883E+04  0.13010572641E+04 0.  0.
        5    1    3    3  502    0 -0.40284159143E+02 -0.13095162884E+03  0.15012136177E+03  0.20329696464E+03  0.46999998093E+01 0. -1.
       -5    1    3    3    0  502  0.40284159143E+02  0.13095162884E+03 -0.23393406866E+04  0.23433540237E+04  0.46999998093E+01 0.  1.
</event>
<event>
 5   0  0.5957913E-04  0.1306023E+04  0.7818609E-02  0.9024802E-01
        2   -1    0    0  501    0  0.00000000000E+00  0.00000000000E+00  0.46522327373E+03  0.46522327374E+03  0.25500000920E-02 0. -1.
       -2   -1    0    0    0  501  0.00000000000E+00  0.00000000000E+00 -0.91660095509E+03  0.91660095510E+03  0.25500000920E-02 0.  1.
    10030    2    1    2    0    0  0.00000000000E+00  0.00000000000E+00 -0.45137768136E+03  0.13818242288E+04  0.13060231193E+04 0.  0.
        1    1    3    3  502    0  0.94039196973E+02  0.68313222448E+00  0.45802113804E+03  0.46757587636E+03  0.50400001928E-02 0. -1.
       -1    1    3    3    0  502 -0.94039196973E+02 -0.68313222448E+00 -0.90939881940E+03  0.91424835247E+03  0.50400001928E-02 0.  1.
</event>
<event>
 5   0  0.3274879E-04  0.1294021E+04  0.7818609E-02  0.9034320E-01
        1   -1    0    0  501    0  0.00000000000E+00  0.00000000000E+00  0.40068097661E+03  0.40068097664E+03  0.50400001928E-02 0. -1.
       -1   -1    0    0    0  501  0.00000000000E+00  0.00000000000E+00 -0.10447770392E+04  0.10447770392E+04  0.50400001928E-02 0.  1.
    10030    2    1    2    0    0  0.00000000000E+00  0.00000000000E+00 -0.64409606256E+03  0.14454580158E+04  0.12940205322E+04 0.  0.
        4    1    3    3  502    0  0.13810346704E+03 -0.59461659882E+03 -0.82526234832E+02  0.61599810027E+03  0.12699999809E+01 0. -1.
       -4    1    3    3    0  502 -0.13810346704E+03  0.59461659882E+03 -0.56156982773E+03  0.82945991555E+03  0.12699999809E+01 0.  1.
</event>
<event>
 5   0  0.5957913E-04  0.1296472E+04  0.7818609E-02  0.9032368E-01
        2   -1    0    0  501    0  0.00000000000E+00  0.00000000000E+00  0.50056858208E+03  0.50056858209E+03  0.25500000920E-02 0.  1.
       -2   -1    0    0    0  501  0.00000000000E+00  0.00000000000E+00 -0.83946472236E+03  0.83946472236E+03  0.25500000920E-02 0. -1.
    10030    2    1    2    0    0  0.00000000000E+00  0.00000000000E+00 -0.33889614027E+03  0.13400333044E+04  0.12964716206E+04 0.  0.
        1    1    3    3  502    0  0.10933392448E+03  0.63800962581E+03 -0.20524521390E+03  0.67906979576E+03  0.50400001928E-02 0. -1.
       -1    1    3    3    0  502 -0.10933392448E+03 -0.63800962581E+03 -0.13365092638E+03  0.66096350868E+03  0.50400001928E-02 0.  1.
</event>
<event>
 5   0  0.3263679E-04  0.1266848E+04  0.7818609E-02  0.9056276E-01
       -1   -1    0    0    0  501  0.00000000000E+00  0.00000000000E+00  0.62089545384E+03  0.62089545386E+03  0.50400001928E-02 0.  1.
        1   -1    0    0  501    0  0.00000000000E+00  0.00000000000E+00 -0.64620515603E+03  0.64620515605E+03  0.50400001928E-02 0. -1.
    10030    2    1    2    0    0  0.00000000000E+00  0.00000000000E+00 -0.25309702194E+02  0.12671006099E+04  0.12668478104E+04 0.  0.
        2    1    3    3  502    0 -0.45033253257E+03  0.14487689650E+03  0.40866208526E+03  0.62513470946E+03  0.25500000920E-02 0.  1.
       -2    1    3    3    0  502  0.45033253257E+03 -0.14487689650E+03 -0.43397178745E+03  0.64196590045E+03  0.25500000920E-02 0. -1.
</event>
<event>
 5   0  0.5384960E-04  0.1298573E+04  0.7818609E-02  0.9030697E-01
       -2   -1    0    0    0  501  0.00000000000E+00  0.00000000000E+00  0.88228638827E+03  0.88228638827E+03  0.25500000920E-02 0. -1.
        2   -1    0    0  501    0  0.00000000000E+00  0.00000000000E+00 -0.47781893076E+03  0.47781893077E+03  0.25500000920E-02 0.  1.
    10030    2    1    2    0    0  0.00000000000E+00  0.00000000000E+00  0.40446745751E+03  0.13601053190E+04  0.12985732766E+04 0.  0.
        3    1    3    3  502    0  0.42180060494E+03  0.49846542614E+02  0.71659723821E+03  0.83301382951E+03  0.10100000352E+00 0. -1.
       -3    1    3    3    0  502 -0.42180060494E+03 -0.49846542614E+02 -0.31212978070E+03  0.52709148953E+03  0.10100000352E+00 0.  1.
</event>
<event>
 5   0  0.3274879E-04  0.1297769E+04  0.7818609E-02  0.9031336E-01
       -1   -1    0    0    0  501  0.00000000000E+00  0.00000000000E+00  0.38865658951E+03  0.38865658954E+03  0.50400001928E-02 0.  1.
        1   -1    0    0  501    0  0.00000000000E+00  0.00000000000E+00 -0.10833494739E+04  0.10833494739E+04  0.50400001928E-02 0. -1.
    10030    2    1    2    0    0  0.00000000000E+00  0.00000000000E+00 -0.69469288438E+03  0.14720060634E+04  0.12977687187E+04 0.  0.
        4    1    3    3  502    0 -0.24025071563E+03 -0.34461147006E+03 -0.90828528123E+03  0.10007303516E+04  0.12699999809E+01 0. -1.
       -4    1    3    3    0  502  0.24025071563E+03  0.34461147006E+03  0.21359239685E+03  0.47127571182E+03  0.12699999809E+01 0.  1.
</event>
<event>
 5   0  0.3274879E-04  0.1301753E+04  0.7818609E-02  0.9028176E-01
        1   -1    0    0  501    0  0.00000000000E+00  0.00000000000E+00  0.12421006996E+04  0.12421006996E+04  0.50400001928E-02 0.  1.
       -1   -1    0    0    0  501  0.00000000000E+00  0.00000000000E+00 -0.34106744060E+03  0.34106744063E+03  0.50400001928E-02 0. -1.
    10030    2    1    2    0    0  0.00000000000E+00  0.00000000000E+00  0.90103325897E+03  0.15831681402E+04  0.13017528285E+04 0.  0.
        4    1    3    3  502    0 -0.33305599714E+02  0.33332999184E+03  0.11292074947E+04  0.11778494493E+04  0.12699999809E+01 0.  1.
       -4    1    3    3    0  502  0.33305599714E+02 -0.33332999184E+03 -0.22817423569E+03  0.40531869086E+03  0.12699999809E+01 0. -1.
</event>
<event>
 5   0  0.5957913E-04  0.1295884E+04  0.7818609E-02  0.9032836E-01
       -2   -1    0    0    0  501  0.00000000000E+00  0.00000000000E+00  0.47992987831E+03  0.47992987832E+03  0.25500000920E-02 0. -1.
        2   -1    0    0  501    0  0.00000000000E+00  0.00000000000E+00 -0.87477118359E+03  0.87477118360E+03  0.25500000920E-02 0.  1.
    10030    2    1    2    0    0  0.00000000000E+00  0.00000000000E+00 -0.39484130528E+03  0.13547010619E+04  0.12958839882E+04 0.  0.
        1    1    3    3  502    0 -0.26367962400E+02  0.60645832754E+03  0.39451019678E+02  0.60831188995E+03  0.50400001928E-02 0. -1.
       -1    1    3    3    0  502  0.26367962400E+02 -0.60645832754E+03 -0.43429232496E+03  0.74638917196E+03  0.50400001928E-02 0.  1.
</event>
<event>
 5   0  0.5787604E-04  0.1299051E+04  0.7818609E-02  0.9030318E-01
        2   -1    0    0  501    0  0.00000000000E+00  0.00000000000E+00  0.10332097558E+04  0.10332097558E+04  0.25500000920E-02 0. -1.
       -2   -1    0    0    0  501  0.00000000000E+00  0.00000000000E+00 -0.40832321470E+03  0.40832321471E+03  0.25500000920E-02 0.  1.
    10030    2    1    2    0    0  0.00000000000E+00  0.00000000000E+00  0.62488654107E+03  0.14415329705E+04  0.12990512368E+04 0.  0.
        4    1    3    3  502    0  0.47969061345E+03 -0.43726075525E+03  0.33921083111E+03  0.73236988849E+03  0.12699999809E+01 0. -1.
       -4    1    3    3    0  502 -0.47969061345E+03  0.43726075525E+03  0.28567570996E+03  0.70916308200E+03  0.12699999809E+01 0.  1.
</event>
<event>
 5   0  0.3337520E-04  0.1300984E+04  0.7818609E-02  0.9028785E-01
        1   -1    0    0  501    0  0.00000000000E+00  0.00000000000E+00  0.43569010210E+03  0.43569010212E+03  0.50400001928E-02 0.  1.
       -1   -1    0    0    0  501  0.00000000000E+00  0.00000000000E+00 -0.97119451581E+03  0.97119451583E+03  0.50400001928E-02 0. -1.
    10030    2    1    2    0    0  0.00000000000E+00  0.00000000000E+00 -0.53550441372E+03  0.14068846180E+04  0.13009839934E+04 0.  0.
        5    1    3    3  502    0  0.19367554286E+03 -0.30452904977E+03  0.31747386735E+03  0.48068690902E+03  0.46999998093E+01 0.  1.
       -5    1    3    3    0  502 -0.19367554286E+03  0.30452904977E+03 -0.85297828107E+03  0.92619770893E+03  0.46999998093E+01 0. -1.
</event>
<event>
 5   0  0.5957913E-04  0.1301034E+04  0.7818609E-02  0.9028745E-01
       -2   -1    0    0    0  501  0.00000000000E+00  0.00000000000E+00  0.33829117808E+03  0.33829117809E+03  0.25500000920E-02 0.  1.
        2   -1    0    0  501    0  0.00000000000E+00  0.00000000000E+00 -0.12509118742E+04  0.12509118742E+04  0.25500000920E-02 0. -1.
    10030    2    1    2    0    0  0.00000000000E+00  0.00000000000E+00 -0.91262069612E+03  0.15892030523E+04  0.13010341296E+04 0.  0.
        1    1    3    3  502    0  0.38761839068E+03  0.28097624020E+03  0.81668972474E+02  0.48565984541E+03  0.50400001928E-02 0.  1.
       -1    1    3    3    0  502 -0.38761839068E+03 -0.28097624020E+03 -0.99428966859E+03  0.11035432069E+04  0.50400001928E-02 0. -1.
</event>
<event>
 5   0  0.5384960E-04  0.1302787E+04  0.7818609E-02  0.9027358E-01
       -2   -1    0    0    0  501  0.00000000000E+00  0.00000000000E+00  0.23703575823E+03  0.23703575825E+03  0.25500000920E-02 0. -1.
        2   -1    0    0  501    0  0.00000000000E+00  0.00000000000E+00 -0.17900808709E+04  0.17900808709E+04  0.25500000920E-02 0.  1.
    10030    2    1    2    0    0  0.00000000000E+00  0.00000000000E+00 -0.15530451127E+04  0.20271166292E+04  0.13027865160E+04 0.  0.
        3    1    3    3  502    0  0.10917557805E+03 -0.46754466399E+03 -0.14615022770E+04  0.15383452914E+04  0.10100000352E+00 0.  1.
       -3    1    3    3    0  502 -0.10917557805E+03  0.46754466399E+03 -0.91542835678E+02  0.48877133777E+03  0.10100000352E+00 0. -1.
</event>
<event>
 5   0  0.3403833E-04  0.1296921E+04  0.7818609E-02  0.9032011E-01
        1   -1    0    0  501    0  0.00000000000E+00  0.00000000000E+00  0.97961720298E+03  0.97961720299E+03  0.50400001928E-02 0.  1.
       -1   -1    0    0    0  501  0.00000000000E+00  0.00000000000E+00 -0.42925018149E+03  0.42925018152E+03  0.50400001928E-02 0. -1.
    10030    2    1    2    0    0  0.00000000000E+00  0.00000000000E+00  0.55036702149E+03  0.14088673845E+04  0.12969207566E+04 0.  0.
        1    1    3    3  502    0 -0.33231038433E+03  0.39026949918E+03  0.70665853124E+03  0.87298725840E+03  0.50400001928E-02 0.  1.
       -1    1    3    3    0  502  0.33231038433E+03 -0.39026949918E+03 -0.15629150976E+03  0.53588012612E+03  0.50400001928E-02 0. -1.
</event>
<event>
 5   0  0.3274879E-04  0.1299990E+04  0.7818609E-02  0.9029573E-01
        1   -1    0    0  501    0  0.00000000000E+00  0.00000000000E+00  0.49843158163E+03  0.49843158165E+03  0.50400001928E-02 0. -1.
       -1   -1    0    0    0  501  0.00000000000E+00  0.00000000000E+00 -0.84764542483E+03  0.84764542485E+03  0.50400001928E-02 0.  1.
    10030    2    1    2    0    0  0.00000000000E+00  0.00000000000E+00 -0.34921384321E+03  0.13460770065E+04  0.12999896150E+04 0.  0.
        4    1    3    3  502    0 -0.54726458426E+03 -0.33956825228E+03 -0.26538787235E+03  0.69658987850E+03  0.12699999809E+01 0.  1.
       -4    1    3    3    0  502  0.54726458426E+03  0.33956825228E+03 -0.83825970863E+02  0.64948712800E+03  0.12699999809E+01 0. -1.
</event>
<event>
 5   0  0.3335747E-04  0.1299397E+04  0.7818609E-02  0.9030043E-01
        1   -1    0    0  501    0  0.00000000000E+00  0.00000000000E+00  0.13749262968E+04  0.13749262968E+04  0.50400001928E-02 0.  1.
       -1   -1    0    0    0  501  0.00000000000E+00  0.00000000000E+00 -0.30700442889E+03  0.30700442894E+03  0.50400001928E-02 0. -1.
    10030    2    1    2    0    0  0.00000000000E+00  0.00000000000E+00  0.10679218679E+04  0.16819307257E+04  0.12993974951E+04 0.  0.
        3    1    3    3  502    0  0.20076406576E+03 -0.52487656420E+03  0.11192767981E+03  0.57300037824E+03  0.10100000352E+00 0. -1.
       -3    1    3    3    0  502 -0.20076406576E+03  0.52487656420E+03  0.95599418808E+03  0.11089303475E+04  0.10100000352E+00 0.  1.
</event>
<event>
 5   0  0.3337520E-04  0.1304289E+04  0.7818609E-02  0.9026170E-01
       -1   -1    0    0    0  501  0.00000000000E+00  0.00000000000E+00  0.49397728931E+03  0.49397728934E+03  0.50400001928E-02 0. -1.
        1   -1    0    0  501    0  0.00000000000E+00  0.00000000000E+00 -0.86095606462E+03  0.86095606464E+03  0.50400001928E-02 0.  1.
    10030    2    1    2    0    0  0.00000000000E+00  0.00000000000E+00 -0.36697877531E+03  0.13549333540E+04  0.13042894511E+04 0.  0.
        5    1    3    3  502    0 -0.45495617967E+03  0.19415240135E+02 -0.66842168899E+03  0.80880882863E+03  0.46999998093E+01 0.  1.
       -5    1    3    3    0  502  0.45495617967E+03 -0.19415240135E+02  0.30144291368E+03  0.54612452534E+03  0.46999998093E+01 0. -1.
</event>
<event>
 5   0  0.2255875E-04  0.1293873E+04  0.7818609E-02  0.9034438E-01
       -3   -1    0    0    0  501  0.00000000000E+00  0.00000000000E+00  0.86307585035E+03  0.86307585626E+03  0.10100000352E+00 0. -1.
        3   -1    0    0  501    0  0.00000000000E+00  0.00000000000E+00 -0.48492461582E+03  0.48492462634E+03  0.10100000352E+00 0.  1.
    10030    2    1    2    0    0  0.00000000000E+00  0.00000000000E+00  0.37815123453E+03  0.13480004826E+04  0.12938728473E+04 0.  0.
        3    1    3    3  502    0  0.58135315222E+03 -0.16789263774E+03 -0.49336619689E+02  0.60711904734E+03  0.10100000352E+00 0.  1.
       -3    1    3    3    0  502 -0.58135315222E+03  0.16789263774E+03  0.42748785421E+03  0.74088143526E+03  0.10100000352E+00 0. -1.
</event>
<event>
 5   0  0.3335747E-04  0.1282970E+04  0.7818609E-02  0.9043180E-01
       -1   -1    0    0    0  501  0.00000000000E+00  0.00000000000E+00  0.22735379570E+03  0.22735379575E+03  0.50400001928E-02 0. -1.
        1   -1    0    0  501    0  0.00000000000E+00  0.00000000000E+00 -0.18099677206E+04  0.18099677206E+04  0.50400001928E-02 0.  1.
    10030    2    1    2    0    0  0.00000000000E+00  0.00000000000E+00 -0.15826139249E+04  0.20373215164E+04  0.12829700409E+04 0.  0.
        3    1    3    3  502    0 -0.59002655762E+02 -0.20993851239E+03 -0.17493002018E+04  0.17628405199E+04  0.10100000352E+00 0.  1.
       -3    1    3    3    0  502  0.59002655762E+02  0.20993851239E+03  0.16668627683E+03  0.27448099653E+03  0.10100000352E+00 0. -1.
</event>
<event>
 5   0  0.5787604E-04  0.1299984E+04  0.7818609E-02  0.9029578E-01
       -2   -1    0    0    0  501  0.00000000000E+00  0.00000000000E+00  0.34742315806E+03  0.34742315807E+03  0.25500000920E-02 0.  1.
        2   -1    0    0  501    0  0.00000000000E+00  0.00000000000E+00 -0.12160661121E+04  0.12160661121E+04  0.25500000920E-02 0. -1.
    10030    2    1    2    0    0  0.00000000000E+00  0.00000000000E+00 -0.86864295406E+03  0.15634892702E+04  0.12999838908E+04 0.  0.
        4    1    3    3  502    0 -0.17865768057E+03  0.59632498220E+02 -0.11825252394E+04  0.11974314829E+04  0.12699999809E+01 0. -1.
       -4    1    3    3    0  502  0.17865768057E+03 -0.59632498220E+02  0.31388228532E+03  0.36605778725E+03  0.12699999809E+01 0.  1.
</event>
<event>
 5   0  0.5957913E-04  0.1297143E+04  0.7818609E-02  0.9031834E-01
        2   -1    0    0  501    0  0.00000000000E+00  0.00000000000E+00  0.10206873372E+04  0.10206873372E+04  0.25500000920E-02 0.  1.
       -2   -1    0    0    0  501  0.00000000000E+00  0.00000000000E+00 -0.41211952111E+03  0.41211952111E+03  0.25500000920E-02 0. -1.
    10030    2    1    2    0    0  0.00000000000E+00  0.00000000000E+00  0.60856781613E+03  0.14328068583E+04  0.12971432868E+04 0.  0.
        1    1    3    3  502    0  0.13773156019E+03  0.35295230760E+03  0.88574124437E+03  0.96337057570E+03  0.50400001928E-02 0.  1.
       -1    1    3    3    0  502 -0.13773156019E+03 -0.35295230760E+03 -0.27717342825E+03  0.46943628265E+03  0.50400001928E-02 0. -1.
</event>
<event>
 5   0  0.3263679E-04  0.1308607E+04  0.7818609E-02  0.9022767E-01
       -1   -1    0    0    0  501  0.00000000000E+00  0.00000000000E+00  0.29040924417E+03  0.29040924421E+03  0.50400001928E-02 0.  1.
        1   -1    0    0  501    0  0.00000000000E+00  0.00000000000E+00 -0.14741725557E+04  0.14741725558E+04  0.50400001928E-02 0. -1.
    10030    2    1    2    0    0  0.00000000000E+00  0.00000000000E+00 -0.11837633116E+04  0.17645818000E+04  0.13086074090E+04 0.  0.
        2    1    3    3  502    0 -0.50246953473E+03 -0.18955557153E+03 -0.10958932832E+04  0.12204052754E+04  0.25500000920E-02 0. -1.
       -2    1    3    3    0  502  0.50246953473E+03  0.18955557153E+03 -0.87870028417E+02  0.54417652461E+03  0.25500000920E-02 0.  1.
</event>
<event>
 5   0  0.6007125E-04  0.1301264E+04  0.7818609E-02  0.9028563E-01
        2   -1    0    0  501    0  0.00000000000E+00  0.00000000000E+00  0.72670934161E+03  0.72670934161E+03  0.25500000920E-02 0.  1.
       -2   -1    0    0    0  501  0.00000000000E+00  0.00000000000E+00 -0.58251902134E+03  0.58251902135E+03  0.25500000920E-02 0. -1.
    10030    2    1    2    0    0  0.00000000000E+00  0.00000000000E+00  0.14419032027E+03  0.13092283630E+04  0.13012640231E+04 0.  0.
        5    1    3    3  502    0  0.38103584211E+02 -0.61757735808E+03  0.27443858821E+03  0.67689903607E+03  0.46999998093E+01 0.  1.
       -5    1    3    3    0  502 -0.38103584211E+02  0.61757735808E+03 -0.13024826794E+03  0.63232932689E+03  0.46999998093E+01 0. -1.
</event>
<event>
 5   0  0.3263679E-04  0.1302676E+04  0.7818609E-02  0.9027445E-01
       -1   -1    0    0    0  501  0.00000000000E+00  0.00000000000E+00  0.71943574759E+03  0.71943574761E+03  0.50400001928E-02 0.  1.
        1   -1    0    0  501    0  0.00000000000E+00  0.00000000000E+00 -0.58968642198E+03  0.58968642200E+03  0.50400001928E-02 0. -1.
    10030    2    1    2    0    0  0.00000000000E+00  0.00000000000E+00  0.12974932561E+03  0.13091221696E+04  0.13026764631E+04 0.  0.
        2    1    3    3  502    0 -0.52932908765E+03  0.32200779768E+03 -0.13702534539E+03  0.63455043147E+03  0.25500000920E-02 0. -1.
       -2    1    3    3    0  502  0.52932908765E+03 -0.32200779768E+03  0.26677467100E+03  0.67457173813E+03  0.25500000920E-02 0.  1.
</event>
<event>
 5   0  0.6052864E-04  0.1301407E+04  0.7818609E-02  0.9028450E-01
        2   -1    0    0  501    0  0.00000000000E+00  0.00000000000E+00  0.13220857000E+04  0.13220857000E+04  0.25500000920E-02 0.  1.
       -2   -1    0    0    0  501  0.00000000000E+00  0.00000000000E+00 -0.32026286077E+03  0.32026286078E+03  0.25500000920E-02 0. -1.
    10030    2    1    2    0    0  0.00000000000E+00  0.00000000000E+00  0.10018228392E+04  0.16423485608E+04  0.13014068518E+04 0.  0.
        2    1    3    3  502    0  0.44370660551E+03 -0.31788497411E+03  0.94795954541E+03  0.10938709742E+04  0.25500000920E-02 0.  1.
       -2    1    3    3    0  502 -0.44370660551E+03  0.31788497411E+03  0.53863293841E+02  0.54847758657E+03  0.25500000920E-02 0. -1.
</event>
<event>
 5   0  0.5384960E-04  0.1295474E+04  0.7818609E-02  0.9033162E-01
       -2   -1    0    0    0  501  0.00000000000E+00  0.00000000000E+00  0.10691762217E+04  0.10691762217E+04  0.25500000920E-02 0. -1.
        2   -1    0    0  501    0  0.00000000000E+00  0.00000000000E+00 -0.39241745555E+03  0.39241745556E+03  0.25500000920E-02 0.  1.
    10030    2    1    2    0    0  0.00000000000E+00  0.00000000000E+00  0.67675876614E+03  0.14615936773E+04  0.12954742953E+04 0.  0.
        3    1    3    3  502    0  0.20098788233E+03  0.42161981048E+03  0.84470734366E+03  0.96524085081E+03  0.10100000352E+00 0. -1.
       -3    1    3    3    0  502 -0.20098788233E+03 -0.42161981048E+03 -0.16794857752E+03  0.49635282645E+03  0.10100000352E+00 0.  1.
</event>
<event>
 5   0  0.2255875E-04  0.1291535E+04  0.7818609E-02  0.9036305E-01
        3   -1    0    0  501    0  0.00000000000E+00  0.00000000000E+00  0.78312483626E+03  0.78312484277E+03  0.10100000352E+00 0. -1.
       -3   -1    0    0    0  501  0.00000000000E+00  0.00000000000E+00 -0.53250197951E+03  0.53250198909E+03  0.10100000352E+00 0.  1.
    10030    2    1    2    0    0  0.00000000000E+00  0.00000000000E+00  0.25062285675E+03  0.13156268319E+04  0.12915348018E+04 0.  0.
        4    1    3    3  502    0 -0.26183665340E+03  0.31293137875E+03  0.63517736085E+03  0.75494130467E+03  0.12699999809E+01 0. -1.
       -4    1    3    3    0  502  0.26183665340E+03 -0.31293137875E+03 -0.38455450410E+03  0.56068552718E+03  0.12699999809E+01 0.  1.
</event>
<event>
 5   0  0.5957913E-04  0.1292380E+04  0.7818609E-02  0.9035630E-01
        2   -1    0    0  501    0  0.00000000000E+00  0.00000000000E+00  0.83757978899E+03  0.83757978900E+03  0.25500000920E-02 0. -1.
       -2   -1    0    0    0  501  0.00000000000E+00  0.00000000000E+00 -0.49853332765E+03  0.49853332765E+03  0.25500000920E-02 0.  1.
    10030    2    1    2    0    0  0.00000000000E+00  0.00000000000E+00  0.33904646135E+03  0.13361131167E+04  0.12923798813E+04 0.  0.
        1    1    3    3  502    0  0.41658347894E+03 -0.49396859067E+03  0.16556268632E+03  0.66705154720E+03  0.50400001928E-02 0.  1.
       -1    1    3    3    0  502 -0.41658347894E+03  0.49396859067E+03  0.17348377503E+03  0.66906156945E+03  0.50400001928E-02 0. -1.
</event>
<event>
 5   0  0.5787604E-04  0.1300629E+04  0.7818609E-02  0.9029067E-01
        2   -1    0    0  501    0  0.00000000000E+00  0.00000000000E+00  0.15900503611E+04  0.15900503611E+04  0.25500000920E-02 0. -1.
       -2   -1    0    0    0  501  0.00000000000E+00  0.00000000000E+00 -0.26597184669E+03  0.26597184670E+03  0.25500000920E-02 0.  1.
    10030    2    1    2    0    0  0.00000000000E+00  0.00000000000E+00  0.13240785145E+04  0.18560222078E+04  0.13006285110E+04 0.  0.
        4    1    3    3  502    0 -0.48507105925E+02  0.59306100663E+03  0.28764656113E+03  0.66092091352E+03  0.12699999809E+01 0. -1.
       -4    1    3    3    0  502  0.48507105925E+02 -0.59306100663E+03  0.10364319533E+04  0.11951012943E+04  0.12699999809E+01 0.  1.
</event>
<event>
 5   0  0.3337520E-04  0.1297755E+04  0.7818609E-02  0.9031347E-01
        1   -1    0    0  501    0  0.00000000000E+00  0.00000000000E+00  0.45200075568E+03  0.45200075571E+03  0.50400001928E-02 0. -1.
       -1   -1    0    0    0  501  0.00000000000E+00  0.00000000000E+00 -0.93150725878E+03  0.93150725880E+03  0.50400001928E-02 0.  1.
    10030    2    1    2    0    0  0.00000000000E+00  0.00000000000E+00 -0.47950650310E+03  0.13835080145E+04  0.12977549613E+04 0.  0.
        5    1    3    3  502    0 -0.41945199621E+03  0.44696025881E+03 -0.12835237609E+02  0.61310707336E+03  0.46999998093E+01 0. -1.
       -5    1    3    3    0  502  0.41945199621E+03 -0.44696025881E+03 -0.46667126549E+03  0.77040094114E+03  0.46999998093E+01 0.  1.
</event>
<event>
 5   0  0.3263679E-04  0.1298853E+04  0.7818609E-02  0.9030475E-01
       -1   -1    0    0    0  501  0.00000000000E+00  0.00000000000E+00  0.31067988294E+03  0.31067988298E+03  0.50400001928E-02 0.  1.
        1   -1    0    0  501    0  0.00000000000E+00  0.00000000000E+00 -0.13575229707E+04  0.13575229707E+04  0.50400001928E-02 0. -1.
    10030    2    1    2    0    0  0.00000000000E+00  0.00000000000E+00 -0.10468430877E+04  0.16682028537E+04  0.12988534600E+04 0.  0.
        2    1    3    3  502    0  0.31831832564E+03  0.99374401074E+02 -0.12391639405E+04  0.12832494299E+04  0.25500000920E-02 0. -1.
       -2    1    3    3    0  502 -0.31831832564E+03 -0.99374401074E+02  0.19232085275E+03  0.38495342373E+03  0.25500000920E-02 0.  1.
</event>
<event>
 5   0  0.3337520E-04  0.1285334E+04  0.7818609E-02  0.9041277E-01
       -1   -1    0    0    0  501  0.00000000000E+00  0.00000000000E+00  0.35507156989E+03  0.35507156993E+03  0.50400001928E-02 0.  1.
        1   -1    0    0  501    0  0.00000000000E+00  0.00000000000E+00 -0.11632036930E+04  0.11632036930E+04  0.50400001928E-02 0. -1.
    10030    2    1    2    0    0  0.00000000000E+00  0.00000000000E+00 -0.80813212313E+03  0.15182752630E+04  0.12853335153E+04 0.  0.
        5    1    3    3  502    0  0.18243514841E+03 -0.94009495620E+01 -0.11318685271E+04  0.11465249294E+04  0.46999998093E+01 0. -1.
       -5    1    3    3    0  502 -0.18243514841E+03  0.94009495620E+01  0.32373640395E+03  0.37175033352E+03  0.46999998093E+01 0.  1.
</event>
<event>
 5   0  0.5384960E-04  0.1299766E+04  0.7818609E-02  0.9029751E-01
        2   -1    0    0  501    0  0.00000000000E+00  0.00000000000E+00  0.94829794473E+03  0.94829794473E+03  0.25500000920E-02 0. -1.
       -2   -1    0    0    0  501  0.00000000000E+00  0.00000000000E+00 -0.44537480201E+03  0.44537480201E+03  0.25500000920E-02 0.  1.
    10030    2    1    2    0    0  0.00000000000E+00  0.00000000000E+00  0.50292314272E+03  0.13936727467E+04  0.12997661472E+04 0.  0.
        3    1    3    3  502    0 -0.46090431919E+03  0.38134334113E+02  0.74102387974E+03  0.87350066939E+03  0.10100000352E+00 0. -1.
       -3    1    3    3    0  502  0.46090431919E+03 -0.38134334113E+02 -0.23810073702E+03  0.52017207735E+03  0.10100000352E+00 0.  1.
</event>
<event>
 5   0  0.6052864E-04  0.1299995E+04  0.7818609E-02  0.9029569E-01
       -2   -1    0    0    0  501  0.00000000000E+00  0.00000000000E+00  0.56677571944E+03  0.56677571945E+03  0.25500000920E-02 0.  1.
        2   -1    0    0  501    0  0.00000000000E+00  0.00000000000E+00 -0.74543956448E+03  0.74543956449E+03  0.25500000920E-02 0. -1.
    10030    2    1    2    0    0  0.00000000000E+00  0.00000000000E+00 -0.17866384504E+03  0.13122152839E+04  0.12999954546E+04 0.  0.
        2    1    3    3  502    0  0.23886155761E+02  0.61688183826E+03  0.11600913280E+03  0.62814955998E+03  0.25500000920E-02 0. -1.
       -2    1    3    3    0  502 -0.23886155761E+02 -0.61688183826E+03 -0.29467297785E+03  0.68406572395E+03  0.25500000920E-02 0.  1.
</event>
<event>
 5   0  0.6007125E-04  0.1295639E+04  0.7818609E-02  0.9033030E-01
       -2   -1    0    0    0  501  0.00000000000E+00  0.00000000000E+00  0.86626200155E+03  0.86626200155E+03  0.25500000920E-02 0. -1.
        2   -1    0    0  501    0  0.00000000000E+00  0.00000000000E+00 -0.48446108631E+03  0.48446108632E+03  0.25500000920E-02 0.  1.
    10030    2    1    2    0    0  0.00000000000E+00  0.00000000000E+00  0.38180091524E+03  0.13507230879E+04  0.12956391941E+04 0.  0.
        5    1    3    3  502    0 -0.52330469001E+01  0.47460254497E+03  0.65052204234E+03  0.80528006187E+03  0.46999998093E+01 0. -1.
       -5    1    3    3    0  502  0.52330469001E+01 -0.47460254497E+03 -0.26872112710E+03  0.54544302600E+03  0.46999998093E+01 0.  1.
</event>
<event>
 5   0  0.3274879E-04  0.1294808E+04  0.7818609E-02  0.9033693E-01
       -1   -1    0    0    0  501  0.00000000000E+00  0.00000000000E+00  0.34088469966E+03  0.34088469969E+03  0.50400001928E-02 0. -1.
        1   -1    0    0  501    0  0.00000000000E+00  0.00000000000E+00 -0.12295407781E+04  0.12295407781E+04  0.50400001928E-02 0.  1.
    10030    2    1    2    0    0  0.00000000000E+00  0.00000000000E+00 -0.88865607843E+03  0.15704254778E+04  0.12948075361E+04 0.  0.
        4    1    3    3  502    0 -0.24621326966E+03  0.53049163743E+03 -0.10758037956E+03  0.59465746653E+03  0.12699999809E+01 0.  1.
       -4    1    3    3    0  502  0.24621326966E+03 -0.53049163743E+03 -0.78107569887E+03  0.97576801126E+03  0.12699999809E+01 0. -1.
</event>
<event>
 5   0  0.3403833E-04  0.1316279E+04  0.7818609E-02  0.9016754E-01
        1   -1    0    0  501    0  0.00000000000E+00  0.00000000000E+00  0.91103777773E+03  0.91103777775E+03  0.50400001928E-02 0.  1.
       -1   -1    0    0    0  501  0.00000000000E+00  0.00000000000E+00 -0.47544415617E+03  0.47544415620E+03  0.50400001928E-02 0. -1.
    10030    2    1    2    0    0  0.00000000000E+00  0.00000000000E+00  0.43559362156E+03  0.13864819339E+04  0.13162789788E+04 0.  0.
        1    1    3    3  502    0 -0.58152745689E+03  0.29460123784E+03  0.12250924962E+03  0.66330429572E+03  0.50400001928E-02 0. -1.
       -1    1    3    3    0  502  0.58152745689E+03 -0.29460123784E+03  0.31308437194E+03  0.72317763823E+03  0.50400001928E-02 0.  1.
</event>
<event>
 5   0  0.6052864E-04  0.1300909E+04  0.7818609E-02  0.9028845E-01
        2   -1    0    0  501    0  0.00000000000E+00  0.00000000000E+00  0.44036252025E+03  0.44036252026E+03  0.25500000920E-02 0.  1.
       -2   -1    0    0    0  501  0.00000000000E+00  0.00000000000E+00 -0.96077829206E+03  0.96077829206E+03  0.25500000920E-02 0. -1.
    10030    2    1    2    0    0  0.00000000000E+00  0.00000000000E+00 -0.52041577181E+03  0.14011408123E+04  0.13009085288E+04 0.  0.
        2    1    3    3  502    0 -0.62627404214E+03  0.76406916903E+02 -0.89797403366E+02  0.63727605201E+03  0.25500000920E-02 0. -1.
       -2    1    3    3    0  502  0.62627404214E+03 -0.76406916903E+02 -0.43061836844E+03  0.76386476031E+03  0.25500000920E-02 0.  1.
</event>
<event>
 5   0  0.2255875E-04  0.1298009E+04  0.7818609E-02  0.9031145E-01
        3   -1    0    0  501    0  0.00000000000E+00  0.00000000000E+00  0.22937588895E+03  0.22937591119E+03  0.10100000352E+00 0.  1.
       -3   -1    0    0    0  501  0.00000000000E+00  0.00000000000E+00 -0.18363173268E+04  0.18363173296E+04  0.10100000352E+00 0. -1.
    10030    2    1    2    0    0  0.00000000000E+00  0.00000000000E+00 -0.16069414378E+04  0.20656932408E+04  0.12980091603E+04 0.  0.
        2    1    3    3  502    0 -0.13676553910E+03 -0.56416871880E+03 -0.34163785686E+03  0.67357819235E+03  0.25500000920E-02 0.  1.
       -2    1    3    3    0  502  0.13676553910E+03  0.56416871880E+03 -0.12653035810E+04  0.13921150484E+04  0.25500000920E-02 0. -1.
</event>
<event>
 5   0  0.3274879E-04  0.1301297E+04  0.7818609E-02  0.9028537E-01
       -1   -1    0    0    0  501  0.00000000000E+00  0.00000000000E+00  0.41720323405E+03  0.41720323408E+03  0.50400001928E-02 0. -1.
        1   -1    0    0  501    0  0.00000000000E+00  0.00000000000E+00 -0.10147174337E+04  0.10147174337E+04  0.50400001928E-02 0.  1.
    10030    2    1    2    0    0  0.00000000000E+00  0.00000000000E+00 -0.59751419963E+03  0.14319206678E+04  0.13012968839E+04 0.  0.
        4    1    3    3  502    0  0.22963591947E+03 -0.60875322267E+03 -0.29286821888E+03  0.71350301201E+03  0.12699999809E+01 0. -1.
       -4    1    3    3    0  502 -0.22963591947E+03  0.60875322267E+03 -0.30464598076E+03  0.71841765576E+03  0.12699999809E+01 0.  1.
</event>
<event>
 5   0  0.5787604E-04  0.1307428E+04  0.7818609E-02  0.9023696E-01
        2   -1    0    0  501    0  0.00000000000E+00  0.00000000000E+00  0.17465894241E+04  0.17465894241E+04  0.25500000920E-02 0. -1.
       -2   -1    0    0    0  501  0.00000000000E+00  0.00000000000E+00 -0.24467209519E+03  0.24467209520E+03  0.25500000920E-02 0.  1.
    10030    2    1    2    0    0  0.00000000000E+00  0.00000000000E+00  0.15019173289E+04  0.19912615193E+04  0.13074275412E+04 0.  0.
        4    1    3    3  502    0  0.31880401906E+02  0.33182384183E+03  0.16074106979E+04  0.16416132878E+04  0.12699999809E+01 0. -1.
       -4    1    3    3    0  502 -0.31880401906E+02 -0.33182384183E+03 -0.10549336895E+03  0.34964823155E+03  0.12699999809E+01 0.  1.
</event>
<event>
 5   0  0.3337520E-04  0.1304173E+04  0.7818609E-02  0.9026262E-01
       -1   -1    0    0    0  501  0.00000000000E+00  0.00000000000E+00  0.44129110397E+03  0.44129110400E+03  0.50400001928E-02 0. -1.
        1   -1    0    0  501    0  0.00000000000E+00  0.00000000000E+00 -0.96357463413E+03  0.96357463414E+03  0.50400001928E-02 0.  1.
    10030    2    1    2    0    0  0.00000000000E+00  0.00000000000E+00 -0.52228353016E+03  0.14048657381E+04  0.13041731696E+04 0.  0.
        5    1    3    3  502    0 -0.45931715555E+03  0.17419185556E+03  0.20077799205E+03  0.53070608063E+03  0.46999998093E+01 0. -1.
       -5    1    3    3    0  502  0.45931715555E+03 -0.17419185556E+03 -0.72306152221E+03  0.87415965752E+03  0.46999998093E+01 0.  1.
</event>
<event>
 5   0  0.5384960E-04  0.1316058E+04  0.7818609E-02  0.9016927E-01
        2   -1    0    0  501    0  0.00000000000E+00  0.00000000000E+00  0.11702293472E+04  0.11702293472E+04  0.25500000920E-02 0.  1.
       -2   -1    0    0    0  501  0.00000000000E+00  0.00000000000E+00 -0.37001465225E+03  0.37001465226E+03  0.25500000920E-02 0. -1.
    10030    2    1    2    0    0  0.00000000000E+00  0.00000000000E+00  0.80021469495E+03  0.15402439995E+04  0.13160577570E+04 0.  0.
        3    1    3    3  502    0  0.16359448370E+03  0.76088616487E+02  0.11407153140E+04  0.11548956967E+04  0.10100000352E+00 0.  1.
       -3    1    3    3    0  502 -0.16359448370E+03 -0.76088616487E+02 -0.34050061902E+03  0.38534830272E+03  0.10100000352E+00 0. -1.
</event>
<event>
 5   0  0.5957913E-04  0.1294329E+04  0.7818609E-02  0.9034074E-01
       -2   -1    0    0    0  501  0.00000000000E+00  0.00000000000E+00  0.13715219322E+03  0.13715219324E+03  0.25500000920E-02 0. -1.
        2   -1    0    0  501    0  0.00000000000E+00  0.00000000000E+00 -0.30537032435E+04  0.30537032435E+04  0.25500000920E-02 0.  1.
    10030    2    1    2    0    0  0.00000000000E+00  0.00000000000E+00 -0.29165510503E+04  0.31908554367E+04  0.12943293203E+04 0.  0.
        1    1    3    3  502    0 -0.38167908120E+03  0.13781505398E+03 -0.27010935874E+04  0.27314059526E+04  0.50400001928E-02 0.  1.
       -1    1    3    3    0  502  0.38167908120E+03 -0.13781505398E+03 -0.21545746289E+03  0.45944948413E+03  0.50400001928E-02 0. -1.
</event>
<event>
 5   0  0.3403833E-04  0.1302471E+04  0.7818609E-02  0.9027608E-01
       -1   -1    0    0    0  501  0.00000000000E+00  0.00000000000E+00  0.70365819031E+03  0.70365819033E+03  0.50400001928E-02 0. -1.
        1   -1    0    0  501    0  0.00000000000E+00  0.00000000000E+00 -0.60271859814E+03  0.60271859816E+03  0.50400001928E-02 0.  1.
    10030    2    1    2    0    0  0.00000000000E+00  0.00000000000E+00  0.10093959216E+03  0.13063767885E+04  0.13024713096E+04 0.  0.
        1    1    3    3  502    0  0.28342758660E+03 -0.46503367363E+03  0.40864050037E+03  0.68086310887E+03  0.50400001928E-02 0.  1.
       -1    1    3    3    0  502 -0.28342758660E+03  0.46503367363E+03 -0.30770090820E+03  0.62551367962E+03  0.50400001928E-02 0. -1.
</event>
<event>
 5   0  0.2255875E-04  0.1294103E+04  0.7818609E-02  0.9034254E-01
        3   -1    0    0  501    0  0.00000000000E+00  0.00000000000E+00  0.22529213649E+04  0.22529213671E+04  0.10100000352E+00 0.  1.
       -3   -1    0    0    0  501  0.00000000000E+00  0.00000000000E+00 -0.18583690238E+03  0.18583692983E+03  0.10100000352E+00 0. -1.
    10030    2    1    2    0    0  0.00000000000E+00  0.00000000000E+00  0.20670844625E+04  0.24387582970E+04  0.12941034951E+04 0.  0.
        3    1    3    3  502    0 -0.12302972755E+03 -0.28303899914E+03 -0.38196526701E+02  0.31097648424E+03  0.10100000352E+00 0. -1.
       -3    1    3    3    0  502  0.12302972755E+03  0.28303899914E+03  0.21052809892E+04  0.21277818127E+04  0.10100000352E+00 0.  1.
</event>
<event>
 5   0  0.3263679E-04  0.1300888E+04  0.7818609E-02  0.9028862E-01
       -1   -1    0    0    0  501  0.00000000000E+00  0.00000000000E+00  0.73263179971E+03  0.73263179973E+03  0.50400001928E-02 0. -1.
        1   -1    0    0  501    0  0.00000000000E+00  0.00000000000E+00 -0.57747572917E+03  0.57747572919E+03  0.50400001928E-02 0.  1.
    10030    2    1    2    0    0  0.00000000000E+00  0.00000000000E+00  0.15515607054E+03  0.13101075289E+04  0.13008875167E+04 0.  0.
        2    1    3    3  502    0 -0.35640196482E+03  0.53350350500E+03 -0.30084903002E+02  0.64230323973E+03  0.25500000920E-02 0. -1.
       -2    1    3    3    0  502  0.35640196482E+03 -0.53350350500E+03  0.18524097355E+03  0.66780428919E+03  0.25500000920E-02 0.  1.
</event>
<event>
 5   0  0.3274879E-04  0.1298380E+04  0.7818609E-02  0.9030851E-01
        1   -1    0    0  501    0  0.00000000000E+00  0.00000000000E+00  0.11787539685E+04  0.11787539685E+04  0.50400001928E-02 0. -1.
       -1   -1    0    0    0  501  0.00000000000E+00  0.00000000000E+00 -0.35753657022E+03  0.35753657026E+03  0.50400001928E-02 0.  1.
    10030    2    1    2    0    0  0.00000000000E+00  0.00000000000E+00  0.82121739823E+03  0.15362905387E+04  0.12983799922E+04 0.  0.
        4    1    3    3  502    0  0.11580151964E+03  0.40895834449E+02 -0.34366493782E+03  0.36495159078E+03  0.12699999809E+01 0.  1.
       -4    1    3    3    0  502 -0.11580151964E+03 -0.40895834449E+02  0.11648823360E+04  0.11713389479E+04  0.12699999809E+01 0. -1.
</event>
<event>
 5   0  0.3274879E-04  0.1308007E+04  0.7818609E-02  0.9023240E-01
       -1   -1    0    0    0  501  0.00000000000E+00  0.00000000000E+00  0.35387168914E+03  0.35387168917E+03  0.50400001928E-02 0.  1.
        1   -1    0    0  501    0  0.00000000000E+00  0.00000000000E+00 -0.12086883497E+04  0.12086883498E+04  0.50400001928E-02 0. -1.
    10030    2    1    2    0    0  0.00000000000E+00  0.00000000000E+00 -0.85481666061E+03  0.15625600389E+04  0.13080070153E+04 0.  0.
        4    1    3    3  502    0  0.95884225320E+02 -0.26588898769E+03  0.27713718971E+03  0.39585019043E+03  0.12699999809E+01 0.  1.
       -4    1    3    3    0  502 -0.95884225320E+02  0.26588898769E+03 -0.11319538503E+04  0.11667098485E+04  0.12699999809E+01 0. -1.
</event>
<event>
 5   0  0.3403833E-04  0.1290024E+04  0.7818609E-02  0.9037513E-01
        1   -1    0    0  501    0  0.00000000000E+00  0.00000000000E+00  0.16275371908E+04  0.16275371908E+04  0.50400001928E-02 0. -1.
       -1   -1    0    0    0  501  0.00000000000E+00  0.00000000000E+00 -0.25562595459E+03  0.25562595464E+03  0.50400001928E-02 0.  1.
    10030    2    1    2    0    0  0.00000000000E+00  0.00000000000E+00  0.13719112362E+04  0.18831631455E+04  0.12900244154E+04 0.  0.
        1    1    3    3  502    0 -0.59031475445E+03  0.16900207217E+03  0.39764257622E+03  0.73154140564E+03  0.50400001928E-02 0.  1.
       -1    1    3    3    0  502  0.59031475445E+03 -0.16900207217E+03  0.97426866001E+03  0.11516217398E+04  0.50400001928E-02 0. -1.
</event>
<event>
 5   0  0.6007125E-04  0.1301915E+04  0.7818609E-02  0.9028048E-01
        2   -1    0    0  501    0  0.00000000000E+00  0.00000000000E+00  0.20730608313E+04  0.20730608313E+04  0.25500000920E-02 0. -1.
       -2   -1    0    0    0  501  0.00000000000E+00  0.00000000000E+00 -0.20440585022E+03  0.20440585024E+03  0.25500000920E-02 0.  1.
    10030    2    1    2    0    0  0.00000000000E+00  0.00000000000E+00  0.18686549811E+04  0.22774666816E+04  0.13019151459E+04 0.  0.
        5    1    3    3  502    0  0.38924434065E+03 -0.47208187229E+03  0.54571361474E+03  0.81987675305E+03  0.46999998093E+01 0.  1.
       -5    1    3    3    0  502 -0.38924434065E+03  0.47208187229E+03  0.13229413664E+04  0.14575899285E+04  0.46999998093E+01 0. -1.
</event>
<event>
 5   0  0.6052864E-04  0.1306329E+04  0.7818609E-02  0.9024561E-01
       -2   -1    0    0    0  501  0.00000000000E+00  0.00000000000E+00  0.20908937051E+03  0.20908937053E+03  0.25500000920E-02 0. -1.
        2   -1    0    0  501    0  0.00000000000E+00  0.00000000000E+00 -0.20403906283E+04  0.20403906283E+04  0.25500000920E-02 0.  1.
    10030    2    1    2    0    0  0.00000000000E+00  0.00000000000E+00 -0.18313012578E+04  0.22494799988E+04  0.13063291960E+04 0.  0.
        2    1    3    3  502    0 -0.27914654972E+03 -0.59482939489E+02 -0.19273269961E+04  0.19483455459E+04  0.25500000920E-02 0.  1.
       -2    1    3    3    0  502  0.27914654972E+03  0.59482939489E+02  0.96025738323E+02  0.30113445292E+03  0.25500000920E-02 0. -1.
</event>
<event>
 5   0  0.3263679E-04  0.1299924E+04  0.7818609E-02  0.9029626E-01
       -1   -1    0    0    0  501  0.00000000000E+00  0.00000000000E+00  0.39473975404E+03  0.39473975407E+03  0.50400001928E-02 0. -1.
        1   -1    0    0  501    0  0.00000000000E+00  0.00000000000E+00 -0.10701997489E+04  0.10701997489E+04  0.50400001928E-02 0.  1.
    10030    2    1    2    0    0  0.00000000000E+00  0.00000000000E+00 -0.67545999484E+03  0.14649395030E+04  0.12999236680E+04 0.  0.
        2    1    3    3  502    0 -0.25673495684E+03 -0.20823239707E+01  0.33517202660E+03  0.42220547316E+03  0.25500000920E-02 0. -1.
       -2    1    3    3    0  502  0.25673495684E+03  0.20823239707E+01 -0.10106320214E+04  0.10427340298E+04  0.25500000920E-02 0.  1.
</event>
<event>
 5   0  0.3274879E-04  0.1305128E+04  0.7818609E-02  0.9025509E-01
        1   -1    0    0  501    0  0.00000000000E+00  0.00000000000E+00  0.99812321255E+03  0.99812321256E+03  0.50400001928E-02 0. -1.
       -1   -1    0    0    0  501  0.00000000000E+00  0.00000000000E+00 -0.42664030843E+03  0.42664030846E+03  0.50400001928E-02 0.  1.
    10030    2    1    2    0    0  0.00000000000E+00  0.00000000000E+00  0.57148290411E+03  0.14247635210E+04  0.13051277260E+04 0.  0.
        4    1    3    3  502    0 -0.55376645109E+03 -0.29810401799E+03  0.95670229061E+02  0.63614282478E+03  0.12699999809E+01 0.  1.
       -4    1    3    3    0  502  0.55376645109E+03  0.29810401799E+03  0.47581267505E+03  0.78862069624E+03  0.12699999809E+01 0. -1.
</event>
<event>
 5   0  0.3335747E-04  0.1284897E+04  0.7818609E-02  0.9041628E-01
       -1   -1    0    0    0  501  0.00000000000E+00  0.00000000000E+00  0.52465217177E+03  0.52465217179E+03  0.50400001928E-02 0. -1.
        1   -1    0    0  501    0  0.00000000000E+00  0.00000000000E+00 -0.78669275618E+03  0.78669275620E+03  0.50400001928E-02 0.  1.
    10030    2    1    2    0    0  0.00000000000E+00  0.00000000000E+00 -0.26204058442E+03  0.13113449280E+04  0.12848969812E+04 0.  0.
        3    1    3    3  502    0  0.12143860645E+03 -0.20748908378E+02  0.51248359540E+03  0.52708376762E+03  0.10100000352E+00 0. -1.
       -3    1    3    3    0  502 -0.12143860645E+03  0.20748908378E+02 -0.77452417982E+03  0.78426116037E+03  0.10100000352E+00 0.  1.
</event>
<event>
 5   0  0.3403833E-04  0.1251716E+04  0.7818609E-02  0.9068756E-01
        1   -1    0    0  501    0  0.00000000000E+00  0.00000000000E+00  0.21935837300E+04  0.21935837300E+04  0.50400001928E-02 0.  1.
       -1   -1    0    0    0  501  0.00000000000E+00  0.00000000000E+00 -0.17856549344E+03  0.17856549351E+03  0.50400001928E-02 0. -1.
    10030    2    1    2    0    0  0.00000000000E+00  0.00000000000E+00  0.20150182366E+04  0.23721492235E+04  0.12517161998E+04 0.  0.
        1    1    3    3  502    0  0.20300446311E+03  0.44431860965E+03  0.17489543513E+04  0.18158940393E+04  0.50400001928E-02 0.  1.
       -1    1    3    3    0  502 -0.20300446311E+03 -0.44431860965E+03  0.26606388526E+03  0.55625518424E+03  0.50400001928E-02 0. -1.
</event>
<event>
 5   0  0.3263679E-04  0.1300155E+04  0.7818609E-02  0.9029442E-01
       -1   -1    0    0    0  501  0.00000000000E+00  0.00000000000E+00  0.13052880028E+04  0.13052880028E+04  0.50400001928E-02 0. -1.
        1   -1    0    0  501    0  0.00000000000E+00  0.00000000000E+00 -0.32376074948E+03  0.32376074952E+03  0.50400001928E-02 0.  1.
    10030    2    1    2    0    0  0.00000000000E+00  0.00000000000E+00  0.98152725329E+03  0.16290487523E+04  0.13001554093E+04 0.  0.
        2    1    3    3  502    0  0.55645537804E+03 -0.17938772851E+02  0.91127587265E+03  0.10678895558E+04  0.25500000920E-02 0. -1.
       -2    1    3    3    0  502 -0.55645537804E+03  0.17938772851E+02  0.70251380640E+02  0.56115919650E+03  0.25500000920E-02 0.  1.
</event>
<event>
 5   0  0.3274879E-04  0.1300405E+04  0.7818609E-02  0.9029244E-01
        1   -1    0    0  501    0  0.00000000000E+00  0.00000000000E+00  0.10849327709E+04  0.10849327709E+04  0.50400001928E-02 0.  1.
       -1   -1    0    0    0  501  0.00000000000E+00  0.00000000000E+00 -0.38966752068E+03  0.38966752071E+03  0.50400001928E-02 0. -1.
    10030    2    1    2    0    0  0.00000000000E+00  0.00000000000E+00  0.69526525017E+03  0.14746002916E+04  0.13004046493E+04 0.  0.
        4    1    3    3  502    0 -0.35087327512E+03  0.39940768674E+03  0.77210590005E+03  0.93743676545E+03  0.12699999809E+01 0.  1.
       -4    1    3    3    0  502  0.35087327512E+03 -0.39940768674E+03 -0.76840649881E+02  0.53716352612E+03  0.12699999809E+01 0. -1.
</event>
<event>
 5   0  0.3335747E-04  0.1300661E+04  0.7818609E-02  0.9029041E-01
       -1   -1    0    0    0  501  0.00000000000E+00  0.00000000000E+00  0.27470853035E+03  0.27470853040E+03  0.50400001928E-02 0.  1.
        1   -1    0    0  501    0  0.00000000000E+00  0.00000000000E+00 -0.15395583546E+04  0.15395583546E+04  0.50400001928E-02 0. -1.
    10030    2    1    2    0    0  0.00000000000E+00  0.00000000000E+00 -0.12648498242E+04  0.18142668850E+04  0.13006610827E+04 0.  0.
        3    1    3    3  502    0 -0.38619737664E+03 -0.78820205478E+02  0.89105654860E+02  0.40410501908E+03  0.10100000352E+00 0.  1.
       -3    1    3    3    0  502  0.38619737664E+03  0.78820205478E+02 -0.13539554791E+04  0.14101618659E+04  0.10100000352E+00 0. -1.
</event>
<event>
 5   0  0.6052864E-04  0.1296871E+04  0.7818609E-02  0.9032050E-01
        2   -1    0    0  501    0  0.00000000000E+00  0.00000000000E+00  0.88458133126E+03  0.88458133126E+03  0.25500000920E-02 0. -1.
       -2   -1    0    0    0  501  0.00000000000E+00  0.00000000000E+00 -0.47533098167E+03  0.47533098168E+03  0.25500000920E-02 0.  1.
    10030    2    1    2    0    0  0.00000000000E+00  0.00000000000E+00  0.40925034959E+03  0.13599123129E+04  0.12968714856E+04 0.  0.
        2    1    3    3  502    0  0.54477983757E+03  0.33741189697E+03  0.30862831884E+03  0.71125473554E+03  0.25500000920E-02 0.  1.
       -2    1    3    3    0  502 -0.54477983757E+03 -0.33741189697E+03  0.10062203074E+03  0.64865757739E+03  0.25500000920E-02 0. -1.
</event>
<event>
 5   0  0.3337520E-04  0.1303086E+04  0.7818609E-02  0.9027122E-01
        1   -1    0    0  501    0  0.00000000000E+00  0.00000000000E+00  0.45046984909E+03  0.45046984912E+03  0.50400001928E-02 0. -1.
       -1   -1    0    0    0  501  0.00000000000E+00  0.00000000000E+00 -0.94236776577E+03  0.94236776578E+03  0.50400001928E-02 0.  1.
    10030    2    1    2    0    0  0.00000000000E+00  0.00000000000E+00 -0.49189791667E+03  0.13928376149E+04  0.13030859761E+04 0.  0.
        5    1    3    3  502    0  0.63498404832E+03 -0.12991422340E+03 -0.17501769920E+03  0.67136855161E+03  0.46999998093E+01 0. -1.
       -5    1    3    3    0  502 -0.63498404832E+03  0.12991422340E+03 -0.31688021747E+03  0.72146906329E+03  0.46999998093E+01 0.  1.
</event>
<event>
 5   0  0.5957913E-04  0.1299166E+04  0.7818609E-02  0.9030227E-01
       -2   -1    0    0    0  501  0.00000000000E+00  0.00000000000E+00  0.13843769642E+04  0.13843769642E+04  0.25500000920E-02 0.  1.
        2   -1    0    0  501    0  0.00000000000E+00  0.00000000000E+00 -0.30479990111E+03  0.30479990112E+03  0.25500000920E-02 0. -1.
    10030    2    1    2    0    0  0.00000000000E+00  0.00000000000E+00  0.10795770630E+04  0.16891768653E+04  0.12991658274E+04 0.  0.
        1    1    3    3  502    0  0.60703290392E+03 -0.10325702005E+03  0.27077882642E+03  0.67266048754E+03  0.50400001928E-02 0. -1.
       -1    1    3    3    0  502 -0.60703290392E+03  0.10325702005E+03  0.80879823662E+03  0.10165163777E+04  0.50400001928E-02 0.  1.
</event>
<event>
 5   0  0.3335747E-04  0.1298743E+04  0.7818609E-02  0.9030562E-01
        1   -1    0    0  501    0  0.00000000000E+00  0.00000000000E+00  0.57423823558E+03  0.57423823560E+03  0.50400001928E-02 0. -1.
       -1   -1    0    0    0  501  0.00000000000E+00  0.00000000000E+00 -0.73433558810E+03  0.73433558812E+03  0.50400001928E-02 0.  1.
    10030    2    1    2    0    0  0.00000000000E+00  0.00000000000E+00 -0.16009735252E+03  0.13085738237E+04  0.12987433503E+04 0.  0.
        3    1    3    3  502    0  0.19860633675E+02  0.55871119257E+03  0.25280150778E+03  0.61356438456E+03  0.10100000352E+00 0. -1.
       -3    1    3    3    0  502 -0.19860633675E+02 -0.55871119257E+03 -0.41289886031E+03  0.69500943915E+03  0.10100000352E+00 0.  1.
</event>
<event>
 5   0  0.5957913E-04  0.1306905E+04  0.7818609E-02  0.9024107E-01
       -2   -1    0    0    0  501  0.00000000000E+00  0.00000000000E+00  0.11053962686E+04  0.11053962686E+04  0.25500000920E-02 0.  1.
        2   -1    0    0  501    0  0.00000000000E+00  0.00000000000E+00 -0.38628712566E+03  0.38628712567E+03  0.25500000920E-02 0. -1.
    10030    2    1    2    0    0  0.00000000000E+00  0.00000000000E+00  0.71910914290E+03  0.14916833942E+04  0.13069052717E+04 0.  0.
        1    1    3    3  502    0 -0.57929720595E+03  0.21097169805E+03  0.60675368930E+03  0.86501118472E+03  0.50400001928E-02 0.  1.
       -1    1    3    3    0  502  0.57929720595E+03 -0.21097169805E+03  0.11235545361E+03  0.62667220951E+03  0.50400001928E-02 0. -1.
</event>
<event>
 5   0  0.3403833E-04  0.1300442E+04  0.7818609E-02  0.9029214E-01
        1   -1    0    0  501    0  0.00000000000E+00  0.00000000000E+00  0.93955529719E+03  0.93955529720E+03  0.50400001928E-02 0.  1.
       -1   -1    0    0    0  501  0.00000000000E+00  0.00000000000E+00 -0.44998697128E+03  0.44998697131E+03  0.50400001928E-02 0. -1.
    10030    2    1    2    0    0  0.00000000000E+00  0.00000000000E+00  0.48956832590E+03  0.13895422685E+04  0.13004424517E+04 0.  0.
        1    1    3    3  502    0  0.48627723966E+03 -0.75997002560E+02  0.69880440318E+03  0.85473311165E+03  0.50400001928E-02 0.  1.
       -1    1    3    3    0  502 -0.48627723966E+03  0.75997002560E+02 -0.20923607728E+03  0.53480915687E+03  0.50400001928E-02 0. -1.
</event>
<event>
 5   0  0.6007125E-04  0.1300207E+04  0.7818609E-02  0.9029401E-01
        2   -1    0    0  501    0  0.00000000000E+00  0.00000000000E+00  0.10654787533E+04  0.10654787533E+04  0.25500000920E-02 0.  1.
       -2   -1    0    0    0  501  0.00000000000E+00  0.00000000000E+00 -0.39666136366E+03  0.39666136367E+03  0.25500000920E-02 0. -1.
    10030    2    1    2    0    0  0.00000000000E+00  0.00000000000E+00  0.66881738968E+03  0.14621401170E+04  0.13002065301E+04 0.  0.
        5    1    3    3  502    0 -0.64788612409E+03 -0.52086274288E+02  0.32097259956E+03  0.72492407149E+03  0.46999998093E+01 0.  1.
       -5    1    3    3    0  502  0.64788612409E+03  0.52086274288E+02  0.34784479012E+03  0.73721604552E+03  0.46999998093E+01 0. -1.
</event>
<event>
 5   0  0.3263679E-04  0.1327014E+04  0.7818609E-02  0.9008413E-01
        1   -1    0    0  501    0  0.00000000000E+00  0.00000000000E+00  0.41541837924E+03  0.41541837927E+03  0.50400001928E-02 0.  1.
       -1   -1    0    0    0  501  0.00000000000E+00  0.00000000000E+00 -0.10597552995E+04  0.10597552995E+04  0.50400001928E-02 0. -1.
    10030    2    1    2    0    0  0.00000000000E+00  0.00000000000E+00 -0.64433692027E+03  0.14751736788E+04  0.13270144369E+04 0.  0.
        2    1    3    3  502    0  0.52373251483E+03 -0.40494610303E+03 -0.37144265681E+03  0.75910917578E+03  0.25500000920E-02 0. -1.
       -2    1    3    3    0  502 -0.52373251483E+03  0.40494610303E+03 -0.27289426345E+03  0.71606450301E+03  0.25500000920E-02 0.  1.
</event>
<event>
 5   0  0.5384960E-04  0.1294950E+04  0.7818609E-02  0.9033580E-01
       -2   -1    0    0    0  501  0.00000000000E+00  0.00000000000E+00  0.29173966018E+03  0.29173966019E+03  0.25500000920E-02 0. -1.
        2   -1    0    0  501    0  0.00000000000E+00  0.00000000000E+00 -0.14369790694E+04  0.14369790694E+04  0.25500000920E-02 0.  1.
    10030    2    1    2    0    0  0.00000000000E+00  0.00000000000E+00 -0.11452394092E+04  0.17287187296E+04  0.12949498607E+04 0.  0.
        3    1    3    3  502    0  0.11816130042E+03  0.36893089057E+03 -0.12651996819E+04  0.13231788769E+04  0.10100000352E+00 0.  1.
       -3    1    3    3    0  502 -0.11816130042E+03 -0.36893089057E+03  0.11996027267E+03  0.40553985273E+03  0.10100000352E+00 0. -1.
</event>
<event>
 5   0  0.6052864E-04  0.1299589E+04  0.7818609E-02  0.9029891E-01
       -2   -1    0    0    0  501  0.00000000000E+00  0.00000000000E+00  0.87791468857E+03  0.87791468858E+03  0.25500000920E-02 0. -1.
        2   -1    0    0  501    0  0.00000000000E+00  0.00000000000E+00 -0.48095005212E+03  0.48095005213E+03  0.25500000920E-02 0.  1.
    10030    2    1    2    0    0  0.00000000000E+00  0.00000000000E+00  0.39696463645E+03  0.13588647407E+04  0.12995893432E+04 0.  0.
        2    1    3    3  502    0 -0.12147554211E+02  0.63543529885E+03  0.33995904482E+03  0.72076191233E+03  0.25500000920E-02 0. -1.
       -2    1    3    3    0  502  0.12147554211E+02 -0.63543529885E+03  0.57005591637E+02  0.63810282838E+03  0.25500000920E-02 0.  1.
</event>
<event>
 5   0  0.2255875E-04  0.1306552E+04  0.7818609E-02  0.9024385E-01
       -4   -1    0    0    0  501  0.00000000000E+00  0.00000000000E+00  0.74862208413E+03  0.74862316138E+03  0.12699999809E+01 0. -1.
        4   -1    0    0  501    0  0.00000000000E+00  0.00000000000E+00 -0.57007163119E+03  0.57007304584E+03  0.12699999809E+01 0.  1.
    10030    2    1    2    0    0  0.00000000000E+00  0.00000000000E+00  0.17855045294E+03  0.13186962072E+04  0.13065524952E+04 0.  0.
        4    1    3    3  502    0 -0.31771626387E+03  0.11310272089E+03  0.65396839526E+03  0.73580712465E+03  0.12699999809E+01 0. -1.
       -4    1    3    3    0  502  0.31771626387E+03 -0.11310272089E+03 -0.47541794231E+03  0.58288908256E+03  0.12699999809E+01 0.  1.
</event>
<event>
 5   0  0.6007125E-04  0.1286839E+04  0.7818609E-02  0.9040068E-01
       -2   -1    0    0    0  501  0.00000000000E+00  0.00000000000E+00  0.31391623313E+03  0.31391623314E+03  0.25500000920E-02 0.  1.
        2   -1    0    0  501    0  0.00000000000E+00  0.00000000000E+00 -0.13187870558E+04  0.13187870558E+04  0.25500000920E-02 0. -1.
    10030    2    1    2    0    0  0.00000000000E+00  0.00000000000E+00 -0.10048708226E+04  0.16327032889E+04  0.12868390185E+04 0.  0.
        5    1    3    3  502    0  0.51379217483E+03  0.26345034836E+03 -0.14227868431E+03  0.59468798456E+03  0.46999998093E+01 0.  1.
       -5    1    3    3    0  502 -0.51379217483E+03 -0.26345034836E+03 -0.86259213834E+03  0.10380153044E+04  0.46999998093E+01 0. -1.
</event>
<event>
 5   0  0.6007125E-04  0.1302593E+04  0.7818609E-02  0.9027511E-01
       -2   -1    0    0    0  501  0.00000000000E+00  0.00000000000E+00  0.60921349947E+03  0.60921349948E+03  0.25500000920E-02 0. -1.
        2   -1    0    0  501    0  0.00000000000E+00  0.00000000000E+00 -0.69628702709E+03  0.69628702710E+03  0.25500000920E-02 0.  1.
    10030    2    1    2    0    0  0.00000000000E+00  0.00000000000E+00 -0.87073527620E+02  0.13055005266E+04  0.13025934998E+04 0.  0.
        5    1    3    3  502    0 -0.80934515745E+02 -0.24546463216E+03 -0.64266857785E+03  0.69271081443E+03  0.46999998093E+01 0.  1.
       -5    1    3    3    0  502  0.80934515745E+02  0.24546463216E+03  0.55559505023E+03  0.61278971215E+03  0.46999998093E+01 0. -1.
</event>
<event>
 5   0  0.5384960E-04  0.1282300E+04  0.7818609E-02  0.9043721E-01
       -2   -1    0    0    0  501  0.00000000000E+00  0.00000000000E+00  0.61371565917E+03  0.61371565917E+03  0.25500000920E-02 0. -1.
        2   -1    0    0  501    0  0.00000000000E+00  0.00000000000E+00 -0.66981052067E+03  0.66981052067E+03  0.25500000920E-02 0.  1.
    10030    2    1    2    0    0  0.00000000000E+00  0.00000000000E+00 -0.56094861499E+02  0.12835261798E+04  0.12822998171E+04 0.  0.
        3    1    3    3  502    0  0.60425917080E+03 -0.12001777162E+03  0.14971685348E+03  0.63399413042E+03  0.10100000352E+00 0. -1.
       -3    1    3    3    0  502 -0.60425917080E+03  0.12001777162E+03 -0.20581171498E+03  0.64953204942E+03  0.10100000352E+00 0.  1.
</event>
<event>
 5   0  0.5957913E-04  0.1299183E+04  0.7818609E-02  0.9030213E-01
        2   -1    0    0  501    0  0.00000000000E+00  0.00000000000E+00  0.39242272271E+03  0.39242272272E+03  0.25500000920E-02 0. -1.
       -2   -1    0    0    0  501  0.00000000000E+00  0.00000000000E+00 -0.10752930443E+04  0.10752930444E+04  0.25500000920E-02 0.  1.
    10030    2    1    2    0    0  0.00000000000E+00  0.00000000000E+00 -0.68287032163E+03  0.14677157671E+04  0.12991834731E+04 0.  0.
        1    1    3    3  502    0 -0.40287783805E+03 -0.20586312892E+03 -0.86803484355E+03  0.97886396904E+03  0.50400001928E-02 0.  1.
       -1    1    3    3    0  502  0.40287783805E+03  0.20586312892E+03  0.18516452192E+03  0.48885179804E+03  0.50400001928E-02 0. -1.
</event>
<event>
 5   0  0.3337520E-04  0.1309189E+04  0.7818609E-02  0.9022310E-01
        1   -1    0    0  501    0  0.00000000000E+00  0.00000000000E+00  0.82046173621E+03  0.82046173623E+03  0.50400001928E-02 0.  1.
       -1   -1    0    0    0  501  0.00000000000E+00  0.00000000000E+00 -0.52225978284E+03  0.52225978286E+03  0.50400001928E-02 0. -1.
    10030    2    1    2    0    0  0.00000000000E+00  0.00000000000E+00  0.29820195337E+03  0.13427215191E+04  0.13091893189E+04 0.  0.
        5    1    3    3  502    0  0.12402038654E+03  0.22548814746E+02 -0.50967679311E+03  0.52505431029E+03  0.46999998093E+01 0. -1.
       -5    1    3    3    0  502 -0.12402038654E+03 -0.22548814746E+02  0.80787874649E+03  0.81766720880E+03  0.46999998093E+01 0.  1.
</event>
<event>
 5   0  0.3403833E-04  0.1298760E+04  0.7818609E-02  0.9030549E-01
       -1   -1    0    0    0  501  0.00000000000E+00  0.00000000000E+00  0.38794153441E+03  0.38794153445E+03  0.50400001928E-02 0.  1.
        1   -1    0    0  501    0  0.00000000000E+00  0.00000000000E+00 -0.10870050852E+04  0.10870050852E+04  0.50400001928E-02 0. -1.
    10030    2    1    2    0    0  0.00000000000E+00  0.00000000000E+00 -0.69906355074E+03  0.14749466196E+04  0.12987600559E+04 0.  0.
        1    1    3    3  502    0  0.29137330284E+03 -0.39012602026E+03  0.13840160635E+03  0.50621311516E+03  0.50400001928E-02 0.  1.
       -1    1    3    3    0  502 -0.29137330284E+03  0.39012602026E+03 -0.83746515709E+03  0.96873350446E+03  0.50400001928E-02 0. -1.
</event>
<event>
 5   0  0.2255875E-04  0.1292514E+04  0.7818609E-02  0.9035523E-01
       -3   -1    0    0    0  501  0.00000000000E+00  0.00000000000E+00  0.15234212454E+04  0.15234212488E+04  0.10100000352E+00 0. -1.
        3   -1    0    0  501    0  0.00000000000E+00  0.00000000000E+00 -0.27415143811E+03  0.27415145671E+03  0.10100000352E+00 0.  1.
    10030    2    1    2    0    0  0.00000000000E+00  0.00000000000E+00  0.12492698073E+04  0.17975727055E+04  0.12925140541E+04 0.  0.
        1    1    3    3  502    0 -0.91994184513E+02 -0.62329165767E+03  0.42457501227E+03  0.75974953871E+03  0.50400001928E-02 0. -1.
       -1    1    3    3    0  502  0.91994184513E+02  0.62329165767E+03  0.82469479506E+03  0.10378231668E+04  0.50400001928E-02 0.  1.
</event>
<event>
 5   0  0.6052864E-04  0.1332139E+04  0.7818609E-02  0.9004460E-01
        2   -1    0    0  501    0  0.00000000000E+00  0.00000000000E+00  0.60034673447E+03  0.60034673447E+03  0.25500000920E-02 0.  1.
       -2   -1    0    0    0  501  0.00000000000E+00  0.00000000000E+00 -0.73898737668E+03  0.73898737669E+03  0.25500000920E-02 0. -1.
    10030    2    1    2    0    0  0.00000000000E+00  0.00000000000E+00 -0.13864064222E+03  0.13393341112E+04  0.13321391195E+04 0.  0.
        2    1    3    3  502    0 -0.25047478896E+03  0.26362862302E+03 -0.63037645389E+03  0.72774455986E+03  0.25500000920E-02 0. -1.
       -2    1    3    3    0  502  0.25047478896E+03 -0.26362862302E+03  0.49173581167E+03  0.61158955131E+03  0.25500000920E-02 0.  1.
</event>
<event>
 5   0  0.3263679E-04  0.1311341E+04  0.7818609E-02  0.9020619E-01
        1   -1    0    0  501    0  0.00000000000E+00  0.00000000000E+00  0.11789808935E+04  0.11789808935E+04  0.50400001928E-02 0.  1.
       -1   -1    0    0    0  501  0.00000000000E+00  0.00000000000E+00 -0.36464031920E+03  0.36464031923E+03  0.50400001928E-02 0. -1.
    10030    2    1    2    0    0  0.00000000000E+00  0.00000000000E+00  0.81434057431E+03  0.15436212127E+04  0.13113412513E+04 0.  0.
        2    1    3    3  502    0 -0.50816669510E+03  0.10377332076E+03 -0.65007226024E+02  0.52271237937E+03  0.25500000920E-02 0. -1.
       -2    1    3    3    0  502  0.50816669510E+03 -0.10377332076E+03  0.87934780033E+03  0.10209088334E+04  0.25500000920E-02 0.  1.
</event>
<event>
 5   0  0.5957913E-04  0.1289986E+04  0.7818609E-02  0.9037545E-01
       -2   -1    0    0    0  501  0.00000000000E+00  0.00000000000E+00  0.41181759663E+03  0.41181759664E+03  0.25500000920E-02 0.  1.
        2   -1    0    0  501    0  0.00000000000E+00  0.00000000000E+00 -0.10101941969E+04  0.10101941969E+04  0.25500000920E-02 0. -1.
    10030    2    1    2    0    0  0.00000000000E+00  0.00000000000E+00 -0.59837660031E+03  0.14220117936E+04  0.12899856531E+04 0.  0.
        1    1    3    3  502    0 -0.51486868582E+03 -0.18813722957E+03  0.75496772881E+02  0.55333998909E+03  0.50400001928E-02 0.  1.
       -1    1    3    3    0  502  0.51486868582E+03  0.18813722957E+03 -0.67387337319E+03  0.86867180448E+03  0.50400001928E-02 0. -1.
</event>
<event>
 5   0  0.6007125E-04  0.1305687E+04  0.7818609E-02  0.9025067E-01
       -2   -1    0    0    0  501  0.00000000000E+00  0.00000000000E+00  0.28020169118E+03  0.28020169119E+03  0.25500000920E-02 0. -1.
        2   -1    0    0  501    0  0.00000000000E+00  0.00000000000E+00 -0.15210641187E+04  0.15210641187E+04  0.25500000920E-02 0.  1.
    10030    2    1    2    0    0  0.00000000000E+00  0.00000000000E+00 -0.12408624275E+04  0.18012658099E+04  0.13056871577E+04 0.  0.
        5    1    3    3  502    0  0.43973121661E+03 -0.27447551887E+03 -0.11678939213E+04  0.12777709711E+04  0.46999998093E+01 0.  1.
       -5    1    3    3    0  502 -0.43973121661E+03  0.27447551887E+03 -0.72968506249E+02  0.52349483877E+03  0.46999998093E+01 0. -1.
</event>
<event>
 5   0  0.2255875E-04  0.1307500E+04  0.7818609E-02  0.9023638E-01
        3   -1    0    0  501    0  0.00000000000E+00  0.00000000000E+00  0.10182452757E+04  0.10182452807E+04  0.10100000352E+00 0. -1.
       -3   -1    0    0    0  501  0.00000000000E+00  0.00000000000E+00 -0.41973109493E+03  0.41973110708E+03  0.10100000352E+00 0.  1.
    10030    2    1    2    0    0  0.00000000000E+00  0.00000000000E+00  0.59851418081E+03  0.14379763878E+04  0.13075002361E+04 0.  0.
        3    1    3    3  502    0  0.62972437873E+03 -0.11240407879E+03  0.44763402372E+03  0.78074560485E+03  0.10100000352E+00 0. -1.
       -3    1    3    3    0  502 -0.62972437873E+03  0.11240407879E+03  0.15088015709E+03  0.65723078298E+03  0.10100000352E+00 0.  1.
</event>
<event>
 5   0  0.3335747E-04  0.1295196E+04  0.7818609E-02  0.9033383E-01
        1   -1    0    0  501    0  0.00000000000E+00  0.00000000000E+00  0.74192017174E+03  0.74192017176E+03  0.50400001928E-02 0.  1.
       -1   -1    0    0    0  501  0.00000000000E+00  0.00000000000E+00 -0.56526760525E+03  0.56526760527E+03  0.50400001928E-02 0. -1.
    10030    2    1    2    0    0  0.00000000000E+00  0.00000000000E+00  0.17665256649E+03  0.13071877770E+04  0.12951964157E+04 0.  0.
        3    1    3    3  502    0 -0.59118353379E+03 -0.65483023397E+02  0.34681748292E+03  0.68852623308E+03  0.10100000352E+00 0.  1.
       -3    1    3    3    0  502  0.59118353379E+03  0.65483023397E+02 -0.17016491643E+03  0.61866154395E+03  0.10100000352E+00 0. -1.
</event>
<event>
 5   0  0.3337520E-04  0.1296981E+04  0.7818609E-02  0.9031963E-01
       -1   -1    0    0    0  501  0.00000000000E+00  0.00000000000E+00  0.23267241368E+03  0.23267241373E+03  0.50400001928E-02 0.  1.
        1   -1    0    0  501    0  0.00000000000E+00  0.00000000000E+00 -0.18074322739E+04  0.18074322739E+04  0.50400001928E-02 0. -1.
    10030    2    1    2    0    0  0.00000000000E+00  0.00000000000E+00 -0.15747598602E+04  0.20401046876E+04  0.12969805392E+04 0.  0.
        5    1    3    3  502    0 -0.37998618591E+03 -0.49376285012E+03 -0.10701913229E+04  0.12383548809E+04  0.46999998093E+01 0. -1.
       -5    1    3    3    0  502  0.37998618591E+03  0.49376285012E+03 -0.50456853735E+03  0.80174980669E+03  0.46999998093E+01 0.  1.
</event>
<event>
 5   0  0.5957913E-04  0.1293201E+04  0.7818609E-02  0.9034974E-01
       -2   -1    0    0    0  501  0.00000000000E+00  0.00000000000E+00  0.55068680283E+03  0.55068680283E+03  0.25500000920E-02 0.  1.
        2   -1    0    0  501    0  0.00000000000E+00  0.00000000000E+00 -0.75921981246E+03  0.75921981246E+03  0.25500000920E-02 0. -1.
    10030    2    1    2    0    0  0.00000000000E+00  0.00000000000E+00 -0.20853300964E+03  0.13099066153E+04  0.12932011927E+04 0.  0.
        1    1    3    3  502    0 -0.34901327306E+03  0.46979697315E+03  0.17418989117E+03  0.61062392597E+03  0.50400001928E-02 0.  1.
       -1    1    3    3    0  502  0.34901327306E+03 -0.46979697315E+03 -0.38272290081E+03  0.69928268932E+03  0.50400001928E-02 0. -1.
</event>
<event>
 5   0  0.5787604E-04  0.1307302E+04  0.7818609E-02  0.9023795E-01
       -2   -1    0    0    0  501  0.00000000000E+00  0.00000000000E+00  0.40738527885E+03  0.40738527886E+03  0.25500000920E-02 0.  1.
        2   -1    0    0  501    0  0.00000000000E+00  0.00000000000E+00 -0.10487851607E+04  0.10487851607E+04  0.25500000920E-02 0. -1.
    10030    2    1    2    0    0  0.00000000000E+00  0.00000000000E+00 -0.64139988187E+03  0.14561704396E+04  0.13073020082E+04 0.  0.
        4    1    3    3  502    0 -0.51366668473E+03  0.23900990463E+03 -0.68382787086E+03  0.88803230086E+03  0.12699999809E+01 0. -1.
       -4    1    3    3    0  502  0.51366668473E+03 -0.23900990463E+03  0.42427988990E+02  0.56813813872E+03  0.12699999809E+01 0.  1.
</event>
<event>
 5   0  0.2255875E-04  0.1298343E+04  0.7818609E-02  0.9030880E-01
        4   -1    0    0  501    0  0.00000000000E+00  0.00000000000E+00  0.10506467391E+04  0.10506475067E+04  0.12699999809E+01 0.  1.
       -4   -1    0    0    0  501  0.00000000000E+00  0.00000000000E+00 -0.40110670304E+03  0.40110871359E+03  0.12699999809E+01 0. -1.
    10030    2    1    2    0    0  0.00000000000E+00  0.00000000000E+00  0.64954003609E+03  0.14517562203E+04  0.12983427378E+04 0.  0.
        2    1    3    3  502    0 -0.64777126636E+02  0.17316961242E+03  0.10205857860E+04  0.10371977330E+04  0.25500000920E-02 0.  1.
       -2    1    3    3    0  502  0.64777126636E+02 -0.17316961242E+03 -0.37104574993E+03  0.41455848725E+03  0.25500000920E-02 0. -1.
</event>
<event>
 5   0  0.3263679E-04  0.1299610E+04  0.7818609E-02  0.9029874E-01
        1   -1    0    0  501    0  0.00000000000E+00  0.00000000000E+00  0.67328157137E+03  0.67328157139E+03  0.50400001928E-02 0. -1.
       -1   -1    0    0    0  501  0.00000000000E+00  0.00000000000E+00 -0.62714736124E+03  0.62714736126E+03  0.50400001928E-02 0.  1.
    10030    2    1    2    0    0  0.00000000000E+00  0.00000000000E+00  0.46134210138E+02  0.13004289326E+04  0.12996103430E+04 0.  0.
        2    1    3    3  502    0 -0.25477982174E+03  0.34911243385E+03  0.50860929501E+03  0.66743963324E+03  0.25500000920E-02 0. -1.
       -2    1    3    3    0  502  0.25477982174E+03 -0.34911243385E+03 -0.46247508487E+03  0.63298929941E+03  0.25500000920E-02 0.  1.
</event>
<event>
 5   0  0.5384960E-04  0.1302268E+04  0.7818609E-02  0.9027769E-01
        2   -1    0    0  501    0  0.00000000000E+00  0.00000000000E+00  0.10408501229E+04  0.10408501229E+04  0.25500000920E-02 0.  1.
       -2   -1    0    0    0  501  0.00000000000E+00  0.00000000000E+00 -0.40733558286E+03  0.40733558287E+03  0.25500000920E-02 0. -1.
    10030    2    1    2    0    0  0.00000000000E+00  0.00000000000E+00  0.63351454007E+03  0.14481857058E+04  0.13022677014E+04 0.  0.
        3    1    3    3  502    0 -0.52743535356E+03 -0.31174769914E+03  0.56191455774E+03  0.83133787386E+03  0.10100000352E+00 0.  1.
       -3    1    3    3    0  502  0.52743535356E+03  0.31174769914E+03  0.71599982321E+02  0.61684783195E+03  0.10100000352E+00 0. -1.
</event>
<event>
 5   0  0.3274879E-04  0.1296033E+04  0.7818609E-02  0.9032717E-01
        1   -1    0    0  501    0  0.00000000000E+00  0.00000000000E+00  0.11373351869E+04  0.11373351869E+04  0.50400001928E-02 0.  1.
       -1   -1    0    0    0  501  0.00000000000E+00  0.00000000000E+00 -0.36921858931E+03  0.36921858935E+03  0.50400001928E-02 0. -1.
    10030    2    1    2    0    0  0.00000000000E+00  0.00000000000E+00  0.76811659755E+03  0.15065537762E+04  0.12960328596E+04 0.  0.
        4    1    3    3  502    0 -0.58168811392E+03  0.15867087062E+03  0.66008744151E+03  0.89401037489E+03  0.12699999809E+01 0.  1.
       -4    1    3    3    0  502  0.58168811392E+03 -0.15867087062E+03  0.10802915604E+03  0.61254340134E+03  0.12699999809E+01 0. -1.
</event>
<event>
 5   0  0.5384960E-04  0.1296018E+04  0.7818609E-02  0.9032729E-01
        2   -1    0    0  501    0  0.00000000000E+00  0.00000000000E+00  0.69227294425E+03  0.69227294426E+03  0.25500000920E-02 0. -1.
       -2   -1    0    0    0  501  0.00000000000E+00  0.00000000000E+00 -0.60657521007E+03  0.60657521008E+03  0.25500000920E-02 0.  1.
    10030    2    1    2    0    0  0.00000000000E+00  0.00000000000E+00  0.85697734181E+02  0.12988481543E+04  0.12960179113E+04 0.  0.
        3    1    3    3  502    0  0.13476932207E+03 -0.63224767125E+03  0.87843553936E+02  0.65239281736E+03  0.10100000352E+00 0.  1.
       -3    1    3    3    0  502 -0.13476932207E+03  0.63224767125E+03 -0.21458197552E+01  0.64645533698E+03  0.10100000352E+00 0. -1.
</event>
<event>
 5   0  0.3263679E-04  0.1304643E+04  0.7818609E-02  0.9025891E-01
       -1   -1    0    0    0  501  0.00000000000E+00  0.00000000000E+00  0.49885414663E+03  0.49885414666E+03  0.50400001928E-02 0. -1.
        1   -1    0    0  501    0  0.00000000000E+00  0.00000000000E+00 -0.85300176595E+03  0.85300176596E+03  0.50400001928E-02 0.  1.
    10030    2    1    2    0    0  0.00000000000E+00  0.00000000000E+00 -0.35414761931E+03  0.13518559126E+04  0.13046431973E+04 0.  0.
        2    1    3    3  502    0  0.40665206158E+03  0.34536376254E+03  0.21185090556E+03  0.57404079459E+03  0.25500000920E-02 0. -1.
       -2    1    3    3    0  502 -0.40665206158E+03 -0.34536376254E+03 -0.56599852487E+03  0.77781511803E+03  0.25500000920E-02 0.  1.
</event>
<event>
 5   0  0.5957913E-04  0.1297396E+04  0.7818609E-02  0.9031633E-01
       -2   -1    0    0    0  501  0.00000000000E+00  0.00000000000E+00  0.23679644495E+03  0.23679644497E+03  0.25500000920E-02 0.  1.
        2   -1    0    0  501    0  0.00000000000E+00  0.00000000000E+00 -0.17770921591E+04  0.17770921591E+04  0.25500000920E-02 0. -1.
    10030    2    1    2    0    0  0.00000000000E+00  0.00000000000E+00 -0.15402957141E+04  0.20138886041E+04  0.12973960161E+04 0.  0.
        1    1    3    3  502    0  0.16818280422E+03  0.37061854728E+03 -0.15542522695E+04  0.16066560554E+04  0.50400001928E-02 0. -1.
       -1    1    3    3    0  502 -0.16818280422E+03 -0.37061854728E+03  0.13956555319E+02  0.40723254866E+03  0.50400001928E-02 0.  1.
</event>
<event>
 5   0  0.6052864E-04  0.1306298E+04  0.7818609E-02  0.9024586E-01
       -2   -1    0    0    0  501  0.00000000000E+00  0.00000000000E+00  0.82592832493E+03  0.82592832494E+03  0.25500000920E-02 0.  1.
        2   -1    0    0  501    0  0.00000000000E+00  0.00000000000E+00 -0.51651388727E+03  0.51651388727E+03  0.25500000920E-02 0. -1.
    10030    2    1    2    0    0  0.00000000000E+00  0.00000000000E+00  0.30941443767E+03  0.13424422122E+04  0.13062977451E+04 0.  0.
        2    1    3    3  502    0 -0.13544750165E+03 -0.40934940041E+03 -0.34946961929E+03  0.55501528999E+03  0.25500000920E-02 0. -1.
       -2    1    3    3    0  502  0.13544750165E+03  0.40934940041E+03  0.65888405696E+03  0.78742692222E+03  0.25500000920E-02 0.  1.
</event>
<event>
 5   0  0.3337520E-04  0.1298321E+04  0.7818609E-02  0.9030897E-01
       -1   -1    0    0    0  501  0.00000000000E+00  0.00000000000E+00  0.47412099938E+03  0.47412099940E+03  0.50400001928E-02 0. -1.
        1   -1    0    0  501    0  0.00000000000E+00  0.00000000000E+00 -0.88882277388E+03  0.88882277390E+03  0.50400001928E-02 0.  1.
    10030    2    1    2    0    0  0.00000000000E+00  0.00000000000E+00 -0.41470177451E+03  0.13629437733E+04  0.12983212882E+04 0.  0.
        5    1    3    3  502    0 -0.62971609389E+03  0.12073890405E+02 -0.37233351193E+03  0.73167101339E+03  0.46999998093E+01 0.  1.
       -5    1    3    3    0  502  0.62971609389E+03 -0.12073890405E+02 -0.42368262577E+02  0.63127275991E+03  0.46999998093E+01 0. -1.
</event>
<event>
 5   0  0.3274879E-04  0.1287130E+04  0.7818609E-02  0.9039834E-01
        1   -1    0    0  501    0  0.00000000000E+00  0.00000000000E+00  0.11806568782E+04  0.11806568782E+04  0.50400001928E-02 0. -1.
       -1   -1    0    0    0  501  0.00000000000E+00  0.00000000000E+00 -0.35080148563E+03  0.35080148567E+03  0.50400001928E-02 0.  1.
    10030    2    1    2    0    0  0.00000000000E+00  0.00000000000E+00  0.82985539259E+03  0.15314583639E+04  0.12871304315E+04 0.  0.
        4    1    3    3  502    0 -0.10261555474E+03 -0.16880598788E+03  0.11436878605E+04  0.11606243789E+04  0.12699999809E+01 0. -1.
       -4    1    3    3    0  502  0.10261555474E+03  0.16880598788E+03 -0.31383246793E+03  0.37083398503E+03  0.12699999809E+01 0.  1.
</event>
<event>
 5   0  0.2255875E-04  0.1309632E+04  0.7818609E-02  0.9021962E-01
       -3   -1    0    0    0  501  0.00000000000E+00  0.00000000000E+00  0.14523382018E+04  0.14523382053E+04  0.10100000352E+00 0. -1.
        3   -1    0    0  501    0  0.00000000000E+00  0.00000000000E+00 -0.29523685956E+03  0.29523687684E+03  0.10100000352E+00 0.  1.
    10030    2    1    2    0    0  0.00000000000E+00  0.00000000000E+00  0.11571013423E+04  0.17475750822E+04  0.13096316855E+04 0.  0.
        4    1    3    3  502    0 -0.64268636737E+03 -0.68138101448E+01  0.41140394783E+03  0.76311664639E+03  0.12699999809E+01 0.  1.
       -4    1    3    3    0  502  0.64268636737E+03  0.68138101448E+01  0.74569739443E+03  0.98445843577E+03  0.12699999809E+01 0. -1.
</event>
<event>
 5   0  0.5787604E-04  0.1298747E+04  0.7818609E-02  0.9030559E-01
        2   -1    0    0  501    0  0.00000000000E+00  0.00000000000E+00  0.67873062532E+03  0.67873062532E+03  0.25500000920E-02 0. -1.
       -2   -1    0    0    0  501  0.00000000000E+00  0.00000000000E+00 -0.62128631768E+03  0.62128631769E+03  0.25500000920E-02 0.  1.
    10030    2    1    2    0    0  0.00000000000E+00  0.00000000000E+00  0.57444307634E+02  0.13000169430E+04  0.12987471669E+04 0.  0.
        4    1    3    3  502    0 -0.51041600761E+03  0.26343464161E+03 -0.27449665313E+03  0.63661003503E+03  0.12699999809E+01 0.  1.
       -4    1    3    3    0  502  0.51041600761E+03 -0.26343464161E+03  0.33194096076E+03  0.66340690798E+03  0.12699999809E+01 0. -1.
</event>
<event>
 5   0  0.6007125E-04  0.1290019E+04  0.7818609E-02  0.9037518E-01
       -2   -1    0    0    0  501  0.00000000000E+00  0.00000000000E+00  0.47343558100E+03  0.47343558100E+03  0.25500000920E-02 0.  1.
        2   -1    0    0  501    0  0.00000000000E+00  0.00000000000E+00 -0.87876216907E+03  0.87876216907E+03  0.25500000920E-02 0. -1.
    10030    2    1    2    0    0  0.00000000000E+00  0.00000000000E+00 -0.40532658807E+03  0.13521977501E+04  0.12900190356E+04 0.  0.
        5    1    3    3  502    0 -0.31197442528E+03 -0.30596348811E+02 -0.79352733406E+03  0.85321269241E+03  0.46999998093E+01 0. -1.
       -5    1    3    3    0  502  0.31197442528E+03  0.30596348811E+02  0.38820074599E+03  0.49898505767E+03  0.46999998093E+01 0.  1.
</event>
<event>
 5   0  0.3274879E-04  0.1276925E+04  0.7818609E-02  0.9048067E-01
       -1   -1    0    0    0  501  0.00000000000E+00  0.00000000000E+00  0.28969381747E+03  0.28969381751E+03  0.50400001928E-02 0. -1.
        1   -1    0    0  501    0  0.00000000000E+00  0.00000000000E+00 -0.14071210289E+04  0.14071210289E+04  0.50400001928E-02 0.  1.
    10030    2    1    2    0    0  0.00000000000E+00  0.00000000000E+00 -0.11174272114E+04  0.16968148464E+04  0.12769248412E+04 0.  0.
        4    1    3    3  502    0  0.48087672894E+03 -0.25814239930E+03 -0.11848650816E+03  0.55849851590E+03  0.12699999809E+01 0. -1.
       -4    1    3    3    0  502 -0.48087672894E+03  0.25814239930E+03 -0.99894070322E+03  0.11383163305E+04  0.12699999809E+01 0.  1.
</event>
<event>
 5   0  0.5787604E-04  0.1296745E+04  0.7818609E-02  0.9032151E-01
        2   -1    0    0  501    0  0.00000000000E+00  0.00000000000E+00  0.12534686001E+04  0.12534686001E+04  0.25500000920E-02 0.  1.
       -2   -1    0    0    0  501  0.00000000000E+00  0.00000000000E+00 -0.33537881003E+03  0.33537881004E+03  0.25500000920E-02 0. -1.
    10030    2    1    2    0    0  0.00000000000E+00  0.00000000000E+00  0.91808979009E+03  0.15888474102E+04  0.12967448593E+04 0.  0.
        4    1    3    3  502    0  0.39480860854E+03  0.46109949150E+03  0.17991551921E+03  0.63313330776E+03  0.12699999809E+01 0. -1.
       -4    1    3    3    0  502 -0.39480860854E+03 -0.46109949150E+03  0.73817427088E+03  0.95571410240E+03  0.12699999809E+01 0.  1.
</event>
<event>
 5   0  0.2255875E-04  0.1302581E+04  0.7818609E-02  0.9027521E-01
       -3   -1    0    0    0  501  0.00000000000E+00  0.00000000000E+00  0.11443980375E+04  0.11443980420E+04  0.10100000352E+00 0.  1.
        3   -1    0    0  501    0  0.00000000000E+00  0.00000000000E+00 -0.37065723539E+03  0.37065724916E+03  0.10100000352E+00 0. -1.
    10030    2    1    2    0    0  0.00000000000E+00  0.00000000000E+00  0.77374080210E+03  0.15150552911E+04  0.13025811707E+04 0.  0.
        4    1    3    3  502    0 -0.47842101086E+03 -0.29014395501E+03 -0.82945431375E+00  0.55952880101E+03  0.12699999809E+01 0. -1.
       -4    1    3    3    0  502  0.47842101086E+03  0.29014395501E+03  0.77457025641E+03  0.95552649010E+03  0.12699999809E+01 0.  1.
</event>
<event>
 5   0  0.3335747E-04  0.1302799E+04  0.7818609E-02  0.9027349E-01
        1   -1    0    0  501    0  0.00000000000E+00  0.00000000000E+00  0.69919309521E+03  0.69919309523E+03  0.50400001928E-02 0.  1.
       -1   -1    0    0    0  501  0.00000000000E+00  0.00000000000E+00 -0.60687276651E+03  0.60687276653E+03  0.50400001928E-02 0. -1.
    10030    2    1    2    0    0  0.00000000000E+00  0.00000000000E+00  0.92320328704E+02  0.13060658618E+04  0.13027989070E+04 0.  0.
        3    1    3    3  502    0 -0.19857100458E+03 -0.57900787961E+03 -0.17720040434E+03  0.63724450725E+03  0.10100000352E+00 0.  1.
       -3    1    3    3    0  502  0.19857100458E+03  0.57900787961E+03  0.26952073305E+03  0.66882135452E+03  0.10100000352E+00 0. -1.
</event>
<event>
 5   0  0.3263679E-04  0.1303601E+04  0.7818609E-02  0.9026715E-01
        1   -1    0    0  501    0  0.00000000000E+00  0.00000000000E+00  0.10180806671E+04  0.10180806671E+04  0.50400001928E-02 0. -1.
       -1   -1    0    0    0  501  0.00000000000E+00  0.00000000000E+00 -0.41729854137E+03  0.41729854140E+03  0.50400001928E-02 0.  1.
    10030    2    1    2    0    0  0.00000000000E+00  0.00000000000E+00  0.60078212569E+03  0.14353792085E+04  0.13036005176E+04 0.  0.
        2    1    3    3  502    0 -0.57872984694E+03 -0.21679798375E+03  0.72293049173E+02  0.62221851987E+03  0.25500000920E-02 0.  1.
       -2    1    3    3    0  502  0.57872984694E+03  0.21679798375E+03  0.52848907651E+03  0.81316068861E+03  0.25500000920E-02 0. -1.
</event>
<event>
 5   0  0.3263679E-04  0.1299061E+04  0.7818609E-02  0.9030311E-01
       -1   -1    0    0    0  501  0.00000000000E+00  0.00000000000E+00  0.61559412402E+03  0.61559412404E+03  0.50400001928E-02 0. -1.
        1   -1    0    0  501    0  0.00000000000E+00  0.00000000000E+00 -0.68533719778E+03  0.68533719780E+03  0.50400001928E-02 0.  1.
    10030    2    1    2    0    0  0.00000000000E+00  0.00000000000E+00 -0.69743073768E+02  0.13009313218E+04  0.12990605097E+04 0.  0.
        2    1    3    3  502    0  0.23039290501E+03 -0.49826303582E+03  0.31282093031E+03  0.63182582884E+03  0.25500000920E-02 0. -1.
       -2    1    3    3    0  502 -0.23039290501E+03  0.49826303582E+03 -0.38256400408E+03  0.66910549300E+03  0.25500000920E-02 0.  1.
</event>
<event>
 5   0  0.3403833E-04  0.1300019E+04  0.7818609E-02  0.9029550E-01
       -1   -1    0    0    0  501  0.00000000000E+00  0.00000000000E+00  0.28364580496E+03  0.28364580501E+03  0.50400001928E-02 0. -1.
        1   -1    0    0  501    0  0.00000000000E+00  0.00000000000E+00 -0.14895775031E+04  0.14895775031E+04  0.50400001928E-02 0.  1.
    10030    2    1    2    0    0  0.00000000000E+00  0.00000000000E+00 -0.12059316981E+04  0.17732233081E+04  0.13000190921E+04 0.  0.
        1    1    3    3  502    0 -0.41560416654E+03  0.20216999803E+02  0.78182607102E+02  0.42337698380E+03  0.50400001928E-02 0. -1.
       -1    1    3    3    0  502  0.41560416654E+03 -0.20216999803E+02 -0.12841143052E+04  0.13498463243E+04  0.50400001928E-02 0.  1.
</event>
<event>
 5   0  0.3337520E-04  0.1301592E+04  0.7818609E-02  0.9028304E-01
        1   -1    0    0  501    0  0.00000000000E+00  0.00000000000E+00  0.37761703767E+03  0.37761703770E+03  0.50400001928E-02 0. -1.
       -1   -1    0    0    0  501  0.00000000000E+00  0.00000000000E+00 -0.11215998514E+04  0.11215998514E+04  0.50400001928E-02 0.  1.
    10030    2    1    2    0    0  0.00000000000E+00  0.00000000000E+00 -0.74398281370E+03  0.14992168891E+04  0.13015916616E+04 0.  0.
        5    1    3    3  502    0 -0.49724339792E+03  0.80716340219E+02  0.10256819048E+03  0.51410937362E+03  0.46999998093E+01 0. -1.
       -5    1    3    3    0  502  0.49724339792E+03 -0.80716340219E+02 -0.84655100418E+03  0.98510751546E+03  0.46999998093E+01 0.  1.
</event>
<event>
 5   0  0.3263679E-04  0.1294887E+04  0.7818609E-02  0.9033630E-01
        1   -1    0    0  501    0  0.00000000000E+00  0.00000000000E+00  0.13727572262E+04  0.13727572262E+04  0.50400001928E-02 0.  1.
       -1   -1    0    0    0  501  0.00000000000E+00  0.00000000000E+00 -0.30535845799E+03  0.30535845803E+03  0.50400001928E-02 0. -1.
    10030    2    1    2    0    0  0.00000000000E+00  0.00000000000E+00  0.10673987682E+04  0.16781156842E+04  0.12948869137E+04 0.  0.
        2    1    3    3  502    0  0.12140021830E+03  0.58782582435E+03  0.21916426246E+03  0.63899153885E+03  0.25500000920E-02 0.  1.
       -2    1    3    3    0  502 -0.12140021830E+03 -0.58782582435E+03  0.84823450573E+03  0.10391241454E+04  0.25500000920E-02 0. -1.
</event>
<event>
 5   0  0.5787604E-04  0.1300418E+04  0.7818609E-02  0.9029234E-01
       -2   -1    0    0    0  501  0.00000000000E+00  0.00000000000E+00  0.21346770564E+03  0.21346770566E+03  0.25500000920E-02 0.  1.
        2   -1    0    0  501    0  0.00000000000E+00  0.00000000000E+00 -0.19804957002E+04  0.19804957002E+04  0.25500000920E-02 0. -1.
    10030    2    1    2    0    0  0.00000000000E+00  0.00000000000E+00 -0.17670279946E+04  0.21939634059E+04  0.13004181992E+04 0.  0.
        4    1    3    3  502    0  0.16723701652E+03  0.18680434209E+03 -0.18956549369E+04  0.19121645678E+04  0.12699999809E+01 0. -1.
       -4    1    3    3    0  502 -0.16723701652E+03 -0.18680434209E+03  0.12862694232E+03  0.28179883802E+03  0.12699999809E+01 0.  1.
</event>
<event>
 5   0  0.5787604E-04  0.1302228E+04  0.7818609E-02  0.9027800E-01
        2   -1    0    0  501    0  0.00000000000E+00  0.00000000000E+00  0.10271378806E+04  0.10271378806E+04  0.25500000920E-02 0.  1.
       -2   -1    0    0    0  501  0.00000000000E+00  0.00000000000E+00 -0.41274822194E+03  0.41274822194E+03  0.25500000920E-02 0. -1.
    10030    2    1    2    0    0  0.00000000000E+00  0.00000000000E+00  0.61438965862E+03  0.14398861025E+04  0.13022278355E+04 0.  0.
        4    1    3    3  502    0  0.99566199482E+02 -0.13793358050E+03 -0.38774059821E+03  0.42341880580E+03  0.12699999809E+01 0. -1.
       -4    1    3    3    0  502 -0.99566199482E+02  0.13793358050E+03  0.10021302568E+04  0.10164672967E+04  0.12699999809E+01 0.  1.
</event>
<event>
 5   0  0.5957913E-04  0.1299257E+04  0.7818609E-02  0.9030154E-01
       -2   -1    0    0    0  501  0.00000000000E+00  0.00000000000E+00  0.15736957003E+03  0.15736957005E+03  0.25500000920E-02 0.  1.
        2   -1    0    0  501    0  0.00000000000E+00  0.00000000000E+00 -0.26816966696E+04  0.26816966696E+04  0.25500000920E-02 0. -1.
    10030    2    1    2    0    0  0.00000000000E+00  0.00000000000E+00 -0.25243270995E+04  0.28390662396E+04  0.12992574062E+04 0.  0.
        1    1    3    3  502    0 -0.37714347504E+03  0.10705888441E+03 -0.23940575331E+04  0.24259452338E+04  0.50400001928E-02 0. -1.
       -1    1    3    3    0  502  0.37714347504E+03 -0.10705888441E+03 -0.13026956642E+03  0.41312100582E+03  0.50400001928E-02 0.  1.
</event>
<event>
 5   0  0.3274879E-04  0.1291514E+04  0.7818609E-02  0.9036322E-01
        1   -1    0    0  501    0  0.00000000000E+00  0.00000000000E+00  0.68383613880E+03  0.68383613882E+03  0.50400001928E-02 0. -1.
       -1   -1    0    0    0  501  0.00000000000E+00  0.00000000000E+00 -0.60979858900E+03  0.60979858902E+03  0.50400001928E-02 0.  1.
    10030    2    1    2    0    0  0.00000000000E+00  0.00000000000E+00  0.74037549804E+02  0.12936347278E+04  0.12915143245E+04 0.  0.
        4    1    3    3  502    0 -0.15190632017E+03  0.35903778650E+03  0.55266202341E+03  0.67632875680E+03  0.12699999809E+01 0. -1.
       -4    1    3    3    0  502  0.15190632017E+03 -0.35903778650E+03 -0.47862447361E+03  0.61730597104E+03  0.12699999809E+01 0.  1.
</event>
<event>
 5   0  0.3274879E-04  0.1269091E+04  0.7818609E-02  0.9054442E-01
       -1   -1    0    0    0  501  0.00000000000E+00  0.00000000000E+00  0.33436719746E+03  0.33436719749E+03  0.50400001928E-02 0.  1.
        1   -1    0    0  501    0  0.00000000000E+00  0.00000000000E+00 -0.12042092266E+04  0.12042092266E+04  0.50400001928E-02 0. -1.
    10030    2    1    2    0    0  0.00000000000E+00  0.00000000000E+00 -0.86984202911E+03  0.15385764241E+04  0.12690911146E+04 0.  0.
        4    1    3    3  502    0 -0.35665766503E+03  0.11719139790E+03  0.18528320613E+03  0.41865259242E+03  0.12699999809E+01 0.  1.
       -4    1    3    3    0  502  0.35665766503E+03 -0.11719139790E+03 -0.10551252352E+04  0.11199238317E+04  0.12699999809E+01 0. -1.
</event>
<event>
 5   0  0.6007125E-04  0.1291832E+04  0.7818609E-02  0.9036067E-01
        2   -1    0    0  501    0  0.00000000000E+00  0.00000000000E+00  0.13721489236E+04  0.13721489236E+04  0.25500000920E-02 0.  1.
       -2   -1    0    0    0  501  0.00000000000E+00  0.00000000000E+00 -0.30405421935E+03  0.30405421936E+03  0.25500000920E-02 0. -1.
    10030    2    1    2    0    0  0.00000000000E+00  0.00000000000E+00  0.10680947042E+04  0.16762031429E+04  0.12918322953E+04 0.  0.
        5    1    3    3  502    0  0.51712808729E+03  0.41257721220E+02  0.34769612011E+02  0.51995641562E+03  0.46999998093E+01 0. -1.
       -5    1    3    3    0  502 -0.51712808729E+03 -0.41257721220E+02  0.10333250922E+04  0.11562467273E+04  0.46999998093E+01 0.  1.
</event>
<event>
 5   0  0.3337520E-04  0.1291776E+04  0.7818609E-02  0.9036112E-01
        1   -1    0    0  501    0  0.00000000000E+00  0.00000000000E+00  0.24701649907E+04  0.24701649907E+04  0.50400001928E-02 0. -1.
       -1   -1    0    0    0  501  0.00000000000E+00  0.00000000000E+00 -0.16888403031E+03  0.16888403038E+03  0.50400001928E-02 0.  1.
    10030    2    1    2    0    0  0.00000000000E+00  0.00000000000E+00  0.23012809604E+04  0.26390490211E+04  0.12917761714E+04 0.  0.
        5    1    3    3  502    0 -0.49832811200E+03 -0.29000166404E+03  0.55601071670E+03  0.80100054896E+03  0.46999998093E+01 0. -1.
       -5    1    3    3    0  502  0.49832811200E+03  0.29000166404E+03  0.17452702437E+04  0.18380484721E+04  0.46999998093E+01 0.  1.
</event>
<event>
 5   0  0.3337520E-04  0.1266587E+04  0.7818609E-02  0.9056490E-01
       -1   -1    0    0    0  501  0.00000000000E+00  0.00000000000E+00  0.30787353047E+03  0.30787353051E+03  0.50400001928E-02 0. -1.
        1   -1    0    0  501    0  0.00000000000E+00  0.00000000000E+00 -0.13026795501E+04  0.13026795501E+04  0.50400001928E-02 0.  1.
    10030    2    1    2    0    0  0.00000000000E+00  0.00000000000E+00 -0.99480601961E+03  0.16105530806E+04  0.12665868343E+04 0.  0.
        5    1    3    3  502    0  0.18952874259E+03 -0.10545730422E+03  0.25914988403E+03  0.33796914012E+03  0.46999998093E+01 0. -1.
       -5    1    3    3    0  502 -0.18952874259E+03  0.10545730422E+03 -0.12539559036E+04  0.12725839405E+04  0.46999998093E+01 0.  1.
</event>
<event>
 5   0  0.6052864E-04  0.1299215E+04  0.7818609E-02  0.9030188E-01
       -2   -1    0    0    0  501  0.00000000000E+00  0.00000000000E+00  0.80418220853E+03  0.80418220854E+03  0.25500000920E-02 0. -1.
        2   -1    0    0  501    0  0.00000000000E+00  0.00000000000E+00 -0.52474432380E+03  0.52474432381E+03  0.25500000920E-02 0.  1.
    10030    2    1    2    0    0  0.00000000000E+00  0.00000000000E+00  0.27943788473E+03  0.13289265323E+04  0.12992152235E+04 0.  0.
        2    1    3    3  502    0  0.35597902916E+03  0.40967142481E+03  0.50486772965E+03  0.74124433890E+03  0.25500000920E-02 0. -1.
       -2    1    3    3    0  502 -0.35597902916E+03 -0.40967142481E+03 -0.22542984492E+03  0.58768219345E+03  0.25500000920E-02 0.  1.
</event>
<event>
 5   0  0.3335747E-04  0.1298768E+04  0.7818609E-02  0.9030543E-01
       -1   -1    0    0    0  501  0.00000000000E+00  0.00000000000E+00  0.37861830486E+03  0.37861830489E+03  0.50400001928E-02 0.  1.
        1   -1    0    0  501    0  0.00000000000E+00  0.00000000000E+00 -0.11137854870E+04  0.11137854870E+04  0.50400001928E-02 0. -1.
    10030    2    1    2    0    0  0.00000000000E+00  0.00000000000E+00 -0.73516718216E+03  0.14924037919E+04  0.12987679902E+04 0.  0.
        3    1    3    3  502    0 -0.22805519026E+03 -0.22030641948E+03 -0.10187806528E+04  0.10669855281E+04  0.10100000352E+00 0. -1.
       -3    1    3    3    0  502  0.22805519026E+03  0.22030641948E+03  0.28361347069E+03  0.42541826386E+03  0.10100000352E+00 0.  1.
</event>
<event>
 5   0  0.5384960E-04  0.1294015E+04  0.7818609E-02  0.9034325E-01
       -2   -1    0    0    0  501  0.00000000000E+00  0.00000000000E+00  0.50627950243E+03  0.50627950244E+03  0.25500000920E-02 0.  1.
        2   -1    0    0  501    0  0.00000000000E+00  0.00000000000E+00 -0.82685347327E+03  0.82685347327E+03  0.25500000920E-02 0. -1.
    10030    2    1    2    0    0  0.00000000000E+00  0.00000000000E+00 -0.32057397083E+03  0.13331329757E+04  0.12940154018E+04 0.  0.
        3    1    3    3  502    0  0.31870988739E+03  0.34610483590E+03 -0.61784627906E+03  0.77659422127E+03  0.10100000352E+00 0. -1.
       -3    1    3    3    0  502 -0.31870988739E+03 -0.34610483590E+03  0.29727230823E+03  0.55653875444E+03  0.10100000352E+00 0.  1.
</event>
<event>
 5   0  0.2255875E-04  0.1301658E+04  0.7818609E-02  0.9028251E-01
       -3   -1    0    0    0  501  0.00000000000E+00  0.00000000000E+00  0.11858910388E+04  0.11858910431E+04  0.10100000352E+00 0. -1.
        3   -1    0    0  501    0  0.00000000000E+00  0.00000000000E+00 -0.35718149980E+03  0.35718151408E+03  0.10100000352E+00 0.  1.
    10030    2    1    2    0    0  0.00000000000E+00  0.00000000000E+00  0.82870953900E+03  0.15430725572E+04  0.13016579492E+04 0.  0.
        4    1    3    3  502    0  0.57028502823E+03  0.28483866405E+03  0.56991163722E+03  0.85507833858E+03  0.12699999809E+01 0.  1.
       -4    1    3    3    0  502 -0.57028502823E+03 -0.28483866405E+03  0.25879790177E+03  0.68799421860E+03  0.12699999809E+01 0. -1.
</event>
<event>
 5   0  0.5787604E-04  0.1291638E+04  0.7818609E-02  0.9036222E-01
       -2   -1    0    0    0  501  0.00000000000E+00  0.00000000000E+00  0.27424776772E+03  0.27424776774E+03  0.25500000920E-02 0.  1.
        2   -1    0    0  501    0  0.00000000000E+00  0.00000000000E+00 -0.15208232614E+04  0.15208232614E+04  0.25500000920E-02 0. -1.
    10030    2    1    2    0    0  0.00000000000E+00  0.00000000000E+00 -0.12465754937E+04  0.17950710291E+04  0.12916383156E+04 0.  0.
        4    1    3    3  502    0 -0.10207028416E+01  0.43300353325E+03 -0.12891969216E+04  0.13599718443E+04  0.12699999809E+01 0.  1.
       -4    1    3    3    0  502  0.10207028416E+01 -0.43300353325E+03  0.42621427941E+02  0.43509918485E+03  0.12699999809E+01 0. -1.
</event>
<event>
 5   0  0.5787604E-04  0.1299301E+04  0.7818609E-02  0.9030120E-01
       -2   -1    0    0    0  501  0.00000000000E+00  0.00000000000E+00  0.17094180163E+04  0.17094180163E+04  0.25500000920E-02 0.  1.
        2   -1    0    0  501    0  0.00000000000E+00  0.00000000000E+00 -0.24689434384E+03  0.24689434385E+03  0.25500000920E-02 0. -1.
    10030    2    1    2    0    0  0.00000000000E+00  0.00000000000E+00  0.14625236725E+04  0.19563123602E+04  0.12993007958E+04 0.  0.
        4    1    3    3  502    0 -0.22652889725E+03  0.39766887792E+03  0.14254832722E+04  0.14971506437E+04  0.12699999809E+01 0.  1.
       -4    1    3    3    0  502  0.22652889725E+03 -0.39766887792E+03  0.37040400327E+02  0.45916171651E+03  0.12699999809E+01 0. -1.
</event>
<event>
 5   0  0.3263679E-04  0.1292616E+04  0.7818609E-02  0.9035441E-01
       -1   -1    0    0    0  501  0.00000000000E+00  0.00000000000E+00  0.29375796265E+03  0.29375796270E+03  0.50400001928E-02 0.  1.
        1   -1    0    0  501    0  0.00000000000E+00  0.00000000000E+00 -0.14219674581E+04  0.14219674581E+04  0.50400001928E-02 0. -1.
    10030    2    1    2    0    0  0.00000000000E+00  0.00000000000E+00 -0.11282094954E+04  0.17157254208E+04  0.12926163599E+04 0.  0.
        2    1    3    3  502    0  0.52143682012E+03 -0.25274026999E+03 -0.18415443006E+03  0.60801879540E+03  0.25500000920E-02 0.  1.
       -2    1    3    3    0  502 -0.52143682012E+03  0.25274026999E+03 -0.94405506537E+03  0.11077066254E+04  0.25500000920E-02 0. -1.
</event>
<event>
 5   0  0.5957913E-04  0.1306730E+04  0.7818609E-02  0.9024245E-01
       -2   -1    0    0    0  501  0.00000000000E+00  0.00000000000E+00  0.70219028486E+03  0.70219028487E+03  0.25500000920E-02 0. -1.
        2   -1    0    0  501    0  0.00000000000E+00  0.00000000000E+00 -0.60793499483E+03  0.60793499484E+03  0.25500000920E-02 0.  1.
    10030    2    1    2    0    0  0.00000000000E+00  0.00000000000E+00  0.94255290028E+02  0.13101252797E+04  0.13067303428E+04 0.  0.
        1    1    3    3  502    0  0.52999752635E+03 -0.26196377415E+03 -0.23173820102E+03  0.63499999271E+03  0.50400001928E-02 0. -1.
       -1    1    3    3    0  502 -0.52999752635E+03  0.26196377415E+03  0.32599349105E+03  0.67512528699E+03  0.50400001928E-02 0.  1.
</event>
<event>
 5   0  0.3403833E-04  0.1301739E+04  0.7818609E-02  0.9028187E-01
        1   -1    0    0  501    0  0.00000000000E+00  0.00000000000E+00  0.52554006410E+03  0.52554006413E+03  0.50400001928E-02 0. -1.
       -1   -1    0    0    0  501  0.00000000000E+00  0.00000000000E+00 -0.80608706245E+03  0.80608706247E+03  0.50400001928E-02 0.  1.
    10030    2    1    2    0    0  0.00000000000E+00  0.00000000000E+00 -0.28054699835E+03  0.13316271266E+04  0.13017389085E+04 0.  0.
        1    1    3    3  502    0  0.13861408551E+03  0.55917653264E+03 -0.45011190156E+03  0.73109027029E+03  0.50400001928E-02 0.  1.
       -1    1    3    3    0  502 -0.13861408551E+03 -0.55917653264E+03  0.16956490320E+03  0.60053685631E+03  0.50400001928E-02 0. -1.
</event>
<event>
 5   0  0.3337520E-04  0.1297093E+04  0.7818609E-02  0.9031873E-01
       -1   -1    0    0    0  501  0.00000000000E+00  0.00000000000E+00  0.31018831165E+03  0.31018831169E+03  0.50400001928E-02 0.  1.
        1   -1    0    0  501    0  0.00000000000E+00  0.00000000000E+00 -0.13559920371E+04  0.13559920372E+04  0.50400001928E-02 0. -1.
    10030    2    1    2    0    0  0.00000000000E+00  0.00000000000E+00 -0.10458037255E+04  0.16661803488E+04  0.12970934903E+04 0.  0.
        5    1    3    3  502    0  0.54784121403E+03  0.21825074344E+03 -0.86955741017E+03  0.10506738611E+04  0.46999998093E+01 0. -1.
       -5    1    3    3    0  502 -0.54784121403E+03 -0.21825074344E+03 -0.17624631532E+03  0.61550648775E+03  0.46999998093E+01 0.  1.
</event>
<event>
 5   0  0.5957913E-04  0.1301973E+04  0.7818609E-02  0.9028002E-01
        2   -1    0    0  501    0  0.00000000000E+00  0.00000000000E+00  0.23540839464E+04  0.23540839464E+04  0.25500000920E-02 0. -1.
       -2   -1    0    0    0  501  0.00000000000E+00  0.00000000000E+00 -0.18002064087E+03  0.18002064089E+03  0.25500000920E-02 0.  1.
    10030    2    1    2    0    0  0.00000000000E+00  0.00000000000E+00  0.21740633056E+04  0.25341045873E+04  0.13019734263E+04 0.  0.
        1    1    3    3  502    0 -0.26711192760E+03 -0.58861475839E+03  0.12373879849E+04  0.13960462532E+04  0.50400001928E-02 0. -1.
       -1    1    3    3    0  502  0.26711192760E+03  0.58861475839E+03  0.93667532061E+03  0.11380583341E+04  0.50400001928E-02 0.  1.
</event>
<event>
 5   0  0.3337520E-04  0.1296723E+04  0.7818609E-02  0.9032168E-01
       -1   -1    0    0    0  501  0.00000000000E+00  0.00000000000E+00  0.32206968420E+03  0.32206968424E+03  0.50400001928E-02 0.  1.
        1   -1    0    0  501    0  0.00000000000E+00  0.00000000000E+00 -0.13052217535E+04  0.13052217535E+04  0.50400001928E-02 0. -1.
    10030    2    1    2    0    0  0.00000000000E+00  0.00000000000E+00 -0.98315206927E+03  0.16272914377E+04  0.12967225732E+04 0.  0.
        5    1    3    3  502    0 -0.65851534068E+02  0.28135239300E+03 -0.12199250834E+04  0.12536885151E+04  0.46999998093E+01 0. -1.
       -5    1    3    3    0  502  0.65851534068E+02 -0.28135239300E+03  0.23677301417E+03  0.37360292266E+03  0.46999998093E+01 0.  1.
</event>
<event>
 5   0  0.3335747E-04  0.1308497E+04  0.7818609E-02  0.9022854E-01
       -1   -1    0    0    0  501  0.00000000000E+00  0.00000000000E+00  0.61292856542E+03  0.61292856544E+03  0.50400001928E-02 0.  1.
        1   -1    0    0  501    0  0.00000000000E+00  0.00000000000E+00 -0.69835350964E+03  0.69835350966E+03  0.50400001928E-02 0. -1.
    10030    2    1    2    0    0  0.00000000000E+00  0.00000000000E+00 -0.85424944219E+02  0.13112820751E+04  0.13084965645E+04 0.  0.
        3    1    3    3  502    0  0.38961450090E+03 -0.48927236404E+03  0.14966989283E+03  0.64310807221E+03  0.10100000352E+00 0.  1.
       -3    1    3    3    0  502 -0.38961450090E+03  0.48927236404E+03 -0.23509483705E+03  0.66817400288E+03  0.10100000352E+00 0. -1.
</event>
<event>
 5   0  0.3274879E-04  0.1299059E+04  0.7818609E-02  0.9030311E-01
       -1   -1    0    0    0  501  0.00000000000E+00  0.00000000000E+00  0.84548676964E+03  0.84548676966E+03  0.50400001928E-02 0.  1.
        1   -1    0    0  501    0  0.00000000000E+00  0.00000000000E+00 -0.49898934389E+03  0.49898934392E+03  0.50400001928E-02 0. -1.
    10030    2    1    2    0    0  0.00000000000E+00  0.00000000000E+00  0.34649742575E+03  0.13444761136E+04  0.12990594882E+04 0.  0.
        4    1    3    3  502    0  0.36602531525E+03 -0.22145018748E+03  0.67908174011E+03  0.80260098405E+03  0.12699999809E+01 0.  1.
       -4    1    3    3    0  502 -0.36602531525E+03  0.22145018748E+03 -0.33258431436E+03  0.54187512953E+03  0.12699999809E+01 0. -1.
</event>
<event>
 5   0  0.6007125E-04  0.1302656E+04  0.7818609E-02  0.9027461E-01
        2   -1    0    0  501    0  0.00000000000E+00  0.00000000000E+00  0.69350059023E+03  0.69350059024E+03  0.25500000920E-02 0.  1.
       -2   -1    0    0    0  501  0.00000000000E+00  0.00000000000E+00 -0.61172025752E+03  0.61172025753E+03  0.25500000920E-02 0. -1.
    10030    2    1    2    0    0  0.00000000000E+00  0.00000000000E+00  0.81780332713E+02  0.13052208478E+04  0.13026563010E+04 0.  0.
        5    1    3    3  502    0 -0.33625163385E+03 -0.28673972012E+03 -0.43850913108E+03  0.62257302897E+03  0.46999998093E+01 0. -1.
       -5    1    3    3    0  502  0.33625163385E+03  0.28673972012E+03  0.52028946380E+03  0.68264781879E+03  0.46999998093E+01 0.  1.
</event>
<event>
 5   0  0.5957913E-04  0.1298131E+04  0.7818609E-02  0.9031049E-01
       -2   -1    0    0    0  501  0.00000000000E+00  0.00000000000E+00  0.10944142866E+04  0.10944142866E+04  0.25500000920E-02 0. -1.
        2   -1    0    0  501    0  0.00000000000E+00  0.00000000000E+00 -0.38494204094E+03  0.38494204094E+03  0.25500000920E-02 0.  1.
    10030    2    1    2    0    0  0.00000000000E+00  0.00000000000E+00  0.70947224569E+03  0.14793563276E+04  0.12981310706E+04 0.  0.
        1    1    3    3  502    0 -0.16927193217E+03 -0.31734996011E+03  0.97046245192E+03  0.10349692531E+04  0.50400001928E-02 0. -1.
       -1    1    3    3    0  502  0.16927193217E+03  0.31734996011E+03 -0.26099020623E+03  0.44438707450E+03  0.50400001928E-02 0.  1.
</event>
<event>
 5   0  0.3263679E-04  0.1299911E+04  0.7818609E-02  0.9029636E-01
       -1   -1    0    0    0  501  0.00000000000E+00  0.00000000000E+00  0.33063299073E+03  0.33063299077E+03  0.50400001928E-02 0. -1.
        1   -1    0    0  501    0  0.00000000000E+00  0.00000000000E+00 -0.12776762935E+04  0.12776762935E+04  0.50400001928E-02 0.  1.
    10030    2    1    2    0    0  0.00000000000E+00  0.00000000000E+00 -0.94704330277E+03  0.16083092843E+04  0.12999106648E+04 0.  0.
        2    1    3    3  502    0 -0.21770086258E+03  0.51545318148E+03 -0.64376000808E+02  0.56323167290E+03  0.25500000920E-02 0. -1.
       -2    1    3    3    0  502  0.21770086258E+03 -0.51545318148E+03 -0.88266730196E+03  0.10450776114E+04  0.25500000920E-02 0.  1.
</event>
<event>
 5   0  0.3337520E-04  0.1297652E+04  0.7818609E-02  0.9031429E-01
       -1   -1    0    0    0  501  0.00000000000E+00  0.00000000000E+00  0.34508045583E+03  0.34508045586E+03  0.50400001928E-02 0. -1.
        1   -1    0    0  501    0  0.00000000000E+00  0.00000000000E+00 -0.12199336606E+04  0.12199336606E+04  0.50400001928E-02 0.  1.
    10030    2    1    2    0    0  0.00000000000E+00  0.00000000000E+00 -0.87485320477E+03  0.15650141165E+04  0.12976521317E+04 0.  0.
        5    1    3    3  502    0  0.80688115404E+02 -0.12749751441E+03  0.32360642621E+03  0.35708457994E+03  0.46999998093E+01 0. -1.
       -5    1    3    3    0  502 -0.80688115404E+02  0.12749751441E+03 -0.11984596310E+04  0.12079295365E+04  0.46999998093E+01 0.  1.
</event>
<event>
 5   0  0.5384960E-04  0.1302536E+04  0.7818609E-02  0.9027557E-01
        2   -1    0    0  501    0  0.00000000000E+00  0.00000000000E+00  0.13893600521E+04  0.13893600521E+04  0.25500000920E-02 0. -1.
       -2   -1    0    0    0  501  0.00000000000E+00  0.00000000000E+00 -0.30528443755E+03  0.30528443756E+03  0.25500000920E-02 0.  1.
    10030    2    1    2    0    0  0.00000000000E+00  0.00000000000E+00  0.10840756145E+04  0.16946444897E+04  0.13025359912E+04 0.  0.
        3    1    3    3  502    0  0.60492753751E+03 -0.14848196304E+03  0.29461612994E+03  0.68904491378E+03  0.10100000352E+00 0. -1.
       -3    1    3    3    0  502 -0.60492753751E+03  0.14848196304E+03  0.78945948460E+03  0.10055995759E+04  0.10100000352E+00 0.  1.
</event>
<event>
 5   0  0.5957913E-04  0.1298116E+04  0.7818609E-02  0.9031060E-01
        2   -1    0    0  501    0  0.00000000000E+00  0.00000000000E+00  0.14337557301E+04  0.14337557301E+04  0.25500000920E-02 0. -1.
       -2   -1    0    0    0  501  0.00000000000E+00  0.00000000000E+00 -0.29382718475E+03  0.29382718476E+03  0.25500000920E-02 0.  1.
    10030    2    1    2    0    0  0.00000000000E+00  0.00000000000E+00  0.11399285453E+04  0.17275829148E+04  0.12981161886E+04 0.  0.
        1    1    3    3  502    0  0.50815400915E+03 -0.99590223070E+02  0.10907587794E+04  0.12074325755E+04  0.50400001928E-02 0. -1.
       -1    1    3    3    0  502 -0.50815400915E+03  0.99590223070E+02  0.49169765863E+02  0.52015033927E+03  0.50400001928E-02 0.  1.
</event>
<event>
 5   0  0.2255875E-04  0.1301523E+04  0.7818609E-02  0.9028358E-01
       -3   -1    0    0    0  501  0.00000000000E+00  0.00000000000E+00  0.57205745380E+03  0.57205746272E+03  0.10100000352E+00 0.  1.
        3   -1    0    0  501    0  0.00000000000E+00  0.00000000000E+00 -0.74029359887E+03  0.74029360576E+03  0.10100000352E+00 0. -1.
    10030    2    1    2    0    0  0.00000000000E+00  0.00000000000E+00 -0.16823614507E+03  0.13123510685E+04  0.13015229258E+04 0.  0.
        3    1    3    3  502    0  0.63159334391E+03 -0.12645040502E+03 -0.17757474623E+03  0.66815616266E+03  0.10100000352E+00 0.  1.
       -3    1    3    3    0  502 -0.63159334391E+03  0.12645040502E+03  0.93386011563E+01  0.64419490582E+03  0.10100000352E+00 0. -1.
</event>
<event>
 5   0  0.3337520E-04  0.1294434E+04  0.7818609E-02  0.9033991E-01
        1   -1    0    0  501    0  0.00000000000E+00  0.00000000000E+00  0.50109659662E+03  0.50109659664E+03  0.50400001928E-02 0. -1.
       -1   -1    0    0    0  501  0.00000000000E+00  0.00000000000E+00 -0.83594636553E+03  0.83594636554E+03  0.50400001928E-02 0.  1.
    10030    2    1    2    0    0  0.00000000000E+00  0.00000000000E+00 -0.33484976891E+03  0.13370429622E+04  0.12944340520E+04 0.  0.
        5    1    3    3  502    0 -0.29269074471E+02 -0.11508412968E+03  0.48973016562E+03  0.50394321182E+03  0.46999998093E+01 0. -1.
       -5    1    3    3    0  502  0.29269074471E+02  0.11508412968E+03 -0.82457993453E+03  0.83309975036E+03  0.46999998093E+01 0.  1.
</event>
<event>
 5   0  0.3263679E-04  0.1300179E+04  0.7818609E-02  0.9029423E-01
       -1   -1    0    0    0  501  0.00000000000E+00  0.00000000000E+00  0.28190999114E+03  0.28190999119E+03  0.50400001928E-02 0. -1.
        1   -1    0    0  501    0  0.00000000000E+00  0.00000000000E+00 -0.14991181407E+04  0.14991181407E+04  0.50400001928E-02 0.  1.
    10030    2    1    2    0    0  0.00000000000E+00  0.00000000000E+00 -0.12172081496E+04  0.17810281319E+04  0.13001790366E+04 0.  0.
        2    1    3    3  502    0  0.26568779898E+03  0.22783929200E+02 -0.14207513179E+04  0.14455598989E+04  0.25500000920E-02 0.  1.
       -2    1    3    3    0  502 -0.26568779898E+03 -0.22783929200E+02  0.20354316835E+03  0.33546823299E+03  0.25500000920E-02 0. -1.
</event>
<event>
 5   0  0.3337520E-04  0.1295033E+04  0.7818609E-02  0.9033514E-01
       -1   -1    0    0    0  501  0.00000000000E+00  0.00000000000E+00  0.35603764791E+03  0.35603764794E+03  0.50400001928E-02 0.  1.
        1   -1    0    0  501    0  0.00000000000E+00  0.00000000000E+00 -0.11776208577E+04  0.11776208577E+04  0.50400001928E-02 0. -1.
    10030    2    1    2    0    0  0.00000000000E+00  0.00000000000E+00 -0.82158320980E+03  0.15336585057E+04  0.12950326024E+04 0.  0.
        5    1    3    3  502    0 -0.72108893056E+02  0.35491882470E+02 -0.11716707056E+04  0.11744333521E+04  0.46999998093E+01 0. -1.
       -5    1    3    3    0  502  0.72108893056E+02 -0.35491882470E+02  0.35008749584E+03  0.35922515352E+03  0.46999998093E+01 0.  1.
</event>
<event>
 5   0  0.3263679E-04  0.1307182E+04  0.7818609E-02  0.9023889E-01
       -1   -1    0    0    0  501  0.00000000000E+00  0.00000000000E+00  0.39579683762E+03  0.39579683765E+03  0.50400001928E-02 0. -1.
        1   -1    0    0  501    0  0.00000000000E+00  0.00000000000E+00 -0.10792933971E+04  0.10792933971E+04  0.50400001928E-02 0.  1.
    10030    2    1    2    0    0  0.00000000000E+00  0.00000000000E+00 -0.68349655943E+03  0.14750902347E+04  0.13071815688E+04 0.  0.
        2    1    3    3  502    0  0.64974218506E+03  0.60037834412E+02 -0.38414357892E+03  0.75718936722E+03  0.25500000920E-02 0. -1.
       -2    1    3    3    0  502 -0.64974218506E+03 -0.60037834412E+02 -0.29935298051E+03  0.71790086750E+03  0.25500000920E-02 0.  1.
</event>
<event>
 5   0  0.3337520E-04  0.1292258E+04  0.7818609E-02  0.9035727E-01
        1   -1    0    0  501    0  0.00000000000E+00  0.00000000000E+00  0.36595494165E+03  0.36595494169E+03  0.50400001928E-02 0. -1.
       -1   -1    0    0    0  501  0.00000000000E+00  0.00000000000E+00 -0.11408035380E+04  0.11408035380E+04  0.50400001928E-02 0.  1.
    10030    2    1    2    0    0  0.00000000000E+00  0.00000000000E+00 -0.77484859638E+03  0.15067584797E+04  0.12922580117E+04 0.  0.
        5    1    3    3  502    0  0.57219558959E+03  0.18297146797E+03 -0.66475874733E+03  0.89599812108E+03  0.46999998093E+01 0.  1.
       -5    1    3    3    0  502 -0.57219558959E+03 -0.18297146797E+03 -0.11008984905E+03  0.61076035865E+03  0.46999998093E+01 0. -1.
</event>
<event>
 5   0  0.2255875E-04  0.1300539E+04  0.7818609E-02  0.9029138E-01
        4   -1    0    0  501    0  0.00000000000E+00  0.00000000000E+00  0.84713123617E+03  0.84713218814E+03  0.12699999809E+01 0. -1.
       -4   -1    0    0    0  501  0.00000000000E+00  0.00000000000E+00 -0.49915359449E+03  0.49915521012E+03  0.12699999809E+01 0.  1.
    10030    2    1    2    0    0  0.00000000000E+00  0.00000000000E+00  0.34797764168E+03  0.13462873983E+04  0.13005388574E+04 0.  0.
        1    1    3    3  502    0  0.40085295653E+03 -0.92158953501E+02  0.69536645394E+03  0.80790523625E+03  0.50400001928E-02 0. -1.
       -1    1    3    3    0  502 -0.40085295653E+03  0.92158953501E+02 -0.34738881226E+03  0.53838216201E+03  0.50400001928E-02 0.  1.
</event>
<event>
 5   0  0.5384960E-04  0.1295763E+04  0.7818609E-02  0.9032932E-01
       -2   -1    0    0    0  501  0.00000000000E+00  0.00000000000E+00  0.46859529644E+03  0.46859529644E+03  0.25500000920E-02 0.  1.
        2   -1    0    0  501    0  0.00000000000E+00  0.00000000000E+00 -0.89576335251E+03  0.89576335252E+03  0.25500000920E-02 0. -1.
    10030    2    1    2    0    0  0.00000000000E+00  0.00000000000E+00 -0.42716805608E+03  0.13643586490E+04  0.12957630859E+04 0.  0.
        3    1    3    3  502    0  0.13136289577E+03 -0.33334644156E+03  0.35478271510E+03  0.50422896151E+03  0.10100000352E+00 0.  1.
       -3    1    3    3    0  502 -0.13136289577E+03  0.33334644156E+03 -0.78195077118E+03  0.86012968745E+03  0.10100000352E+00 0. -1.
</event>
<event>
 5   0  0.6052864E-04  0.1306908E+04  0.7818609E-02  0.9024105E-01
       -2   -1    0    0    0  501  0.00000000000E+00  0.00000000000E+00  0.15981651595E+03  0.15981651597E+03  0.25500000920E-02 0.  1.
        2   -1    0    0  501    0  0.00000000000E+00  0.00000000000E+00 -0.26718269993E+04  0.26718269993E+04  0.25500000920E-02 0. -1.
    10030    2    1    2    0    0  0.00000000000E+00  0.00000000000E+00 -0.25120104834E+04  0.28316435153E+04  0.13069079268E+04 0.  0.
        2    1    3    3  502    0  0.31167643663E+03 -0.20621806720E+01 -0.11618041783E+02  0.31189971568E+03  0.25500000920E-02 0.  1.
       -2    1    3    3    0  502 -0.31167643663E+03  0.20621806720E+01 -0.25003924416E+04  0.25197437996E+04  0.25500000920E-02 0. -1.
</event>
<event>
 5   0  0.5957913E-04  0.1301292E+04  0.7818609E-02  0.9028541E-01
       -2   -1    0    0    0  501  0.00000000000E+00  0.00000000000E+00  0.21441729620E+03  0.21441729621E+03  0.25500000920E-02 0.  1.
        2   -1    0    0  501    0  0.00000000000E+00  0.00000000000E+00 -0.19743757032E+04  0.19743757032E+04  0.25500000920E-02 0. -1.
    10030    2    1    2    0    0  0.00000000000E+00  0.00000000000E+00 -0.17599584070E+04  0.21887929994E+04  0.13012921270E+04 0.  0.
        1    1    3    3  502    0  0.18586754892E+03 -0.56788777857E+03 -0.13130679604E+04  0.14426332671E+04  0.50400001928E-02 0. -1.
       -1    1    3    3    0  502 -0.18586754892E+03  0.56788777857E+03 -0.44689044661E+03  0.74615973228E+03  0.50400001928E-02 0.  1.
</event>
<event>
 5   0  0.3263679E-04  0.1261006E+04  0.7818609E-02  0.9061073E-01
        1   -1    0    0  501    0  0.00000000000E+00  0.00000000000E+00  0.47580060608E+03  0.47580060610E+03  0.50400001928E-02 0. -1.
       -1   -1    0    0    0  501  0.00000000000E+00  0.00000000000E+00 -0.83550508054E+03  0.83550508055E+03  0.50400001928E-02 0.  1.
    10030    2    1    2    0    0  0.00000000000E+00  0.00000000000E+00 -0.35970447446E+03  0.13113056867E+04  0.12610056681E+04 0.  0.
        2    1    3    3  502    0  0.38489314319E+03  0.45090190269E+03  0.43369448927E+02  0.59442086659E+03  0.25500000920E-02 0. -1.
       -2    1    3    3    0  502 -0.38489314319E+03 -0.45090190269E+03 -0.40307392339E+03  0.71688482007E+03  0.25500000920E-02 0.  1.
</event>
<event>
 5   0  0.5787604E-04  0.1300820E+04  0.7818609E-02  0.9028916E-01
        2   -1    0    0  501    0  0.00000000000E+00  0.00000000000E+00  0.13282646637E+04  0.13282646637E+04  0.25500000920E-02 0. -1.
       -2   -1    0    0    0  501  0.00000000000E+00  0.00000000000E+00 -0.31848536493E+03  0.31848536494E+03  0.25500000920E-02 0.  1.
    10030    2    1    2    0    0  0.00000000000E+00  0.00000000000E+00  0.10097792988E+04  0.16467500287E+04  0.13008195204E+04 0.  0.
        4    1    3    3  502    0  0.50852418308E+03  0.36150882839E+03  0.73744175511E+03  0.96597486141E+03  0.12699999809E+01 0. -1.
       -4    1    3    3    0  502 -0.50852418308E+03 -0.36150882839E+03  0.27233754370E+03  0.68077516728E+03  0.12699999809E+01 0.  1.
</event>
<event>
 5   0  0.3274879E-04  0.1279627E+04  0.7818609E-02  0.9045879E-01
        1   -1    0    0  501    0  0.00000000000E+00  0.00000000000E+00  0.89637822621E+03  0.89637822622E+03  0.50400001928E-02 0. -1.
       -1   -1    0    0    0  501  0.00000000000E+00  0.00000000000E+00 -0.45668385954E+03  0.45668385957E+03  0.50400001928E-02 0.  1.
    10030    2    1    2    0    0  0.00000000000E+00  0.00000000000E+00  0.43969436666E+03  0.13530620858E+04  0.12796272394E+04 0.  0.
        4    1    3    3  502    0  0.38977079962E+03 -0.49549100708E+03  0.33532650954E+03  0.71405748735E+03  0.12699999809E+01 0. -1.
       -4    1    3    3    0  502 -0.38977079962E+03  0.49549100708E+03  0.10436785712E+03  0.63900459845E+03  0.12699999809E+01 0.  1.
</event>
<event>
 5   0  0.3263679E-04  0.1294045E+04  0.7818609E-02  0.9034301E-01
        1   -1    0    0  501    0  0.00000000000E+00  0.00000000000E+00  0.10433369920E+04  0.10433369920E+04  0.50400001928E-02 0.  1.
       -1   -1    0    0    0  501  0.00000000000E+00  0.00000000000E+00 -0.40124936547E+03  0.40124936550E+03  0.50400001928E-02 0. -1.
    10030    2    1    2    0    0  0.00000000000E+00  0.00000000000E+00  0.64208762650E+03  0.14445863575E+04  0.12940452945E+04 0.  0.
        2    1    3    3  502    0  0.42536054408E+03 -0.32257881537E+03  0.72915443460E+03  0.90368958945E+03  0.25500000920E-02 0.  1.
       -2    1    3    3    0  502 -0.42536054408E+03  0.32257881537E+03 -0.87066808100E+02  0.54089676803E+03  0.25500000920E-02 0. -1.
</event>
<event>
 5   0  0.5384960E-04  0.1297603E+04  0.7818609E-02  0.9031468E-01
       -2   -1    0    0    0  501  0.00000000000E+00  0.00000000000E+00  0.48808018582E+03  0.48808018583E+03  0.25500000920E-02 0. -1.
        2   -1    0    0  501    0  0.00000000000E+00  0.00000000000E+00 -0.86244680975E+03  0.86244680975E+03  0.25500000920E-02 0.  1.
    10030    2    1    2    0    0  0.00000000000E+00  0.00000000000E+00 -0.37436662392E+03  0.13505269956E+04  0.12976027114E+04 0.  0.
        3    1    3    3  502    0 -0.47809761427E+03 -0.41204049199E+03 -0.30758674976E+02  0.63190252579E+03  0.10100000352E+00 0.  1.
       -3    1    3    3    0  502  0.47809761427E+03  0.41204049199E+03 -0.34360794895E+03  0.71862446980E+03  0.10100000352E+00 0. -1.
</event>
<event>
 5   0  0.3337520E-04  0.1301397E+04  0.7818609E-02  0.9028458E-01
       -1   -1    0    0    0  501  0.00000000000E+00  0.00000000000E+00  0.36263862918E+03  0.36263862922E+03  0.50400001928E-02 0. -1.
        1   -1    0    0  501    0  0.00000000000E+00  0.00000000000E+00 -0.11675765818E+04  0.11675765818E+04  0.50400001928E-02 0.  1.
    10030    2    1    2    0    0  0.00000000000E+00  0.00000000000E+00 -0.80493795264E+03  0.15302152110E+04  0.13013967437E+04 0.  0.
        5    1    3    3  502    0  0.91809878448E+02 -0.53190256477E+03  0.24789257087E+02  0.54035727945E+03  0.46999998093E+01 0. -1.
       -5    1    3    3    0  502 -0.91809878448E+02  0.53190256477E+03 -0.82972720972E+03  0.98985793159E+03  0.46999998093E+01 0.  1.
</event>
<event>
 5   0  0.5384960E-04  0.1306244E+04  0.7818609E-02  0.9024628E-01
       -2   -1    0    0    0  501  0.00000000000E+00  0.00000000000E+00  0.76740218256E+03  0.76740218256E+03  0.25500000920E-02 0.  1.
        2   -1    0    0  501    0  0.00000000000E+00  0.00000000000E+00 -0.55586005686E+03  0.55586005686E+03  0.25500000920E-02 0. -1.
    10030    2    1    2    0    0  0.00000000000E+00  0.00000000000E+00  0.21154212570E+03  0.13232622394E+04  0.13062438070E+04 0.  0.
        3    1    3    3  502    0 -0.19042633152E+03  0.15679145548E+03 -0.50685785487E+03  0.56369374974E+03  0.10100000352E+00 0. -1.
       -3    1    3    3    0  502  0.19042633152E+03 -0.15679145548E+03  0.71839998057E+03  0.75956848969E+03  0.10100000352E+00 0.  1.
</event>
<event>
 5   0  0.2255875E-04  0.1307754E+04  0.7818609E-02  0.9023439E-01
        3   -1    0    0  501    0  0.00000000000E+00  0.00000000000E+00  0.23619121004E+03  0.23619123163E+03  0.10100000352E+00 0. -1.
       -3   -1    0    0    0  501  0.00000000000E+00  0.00000000000E+00 -0.18102066751E+04  0.18102066779E+04  0.10100000352E+00 0.  1.
    10030    2    1    2    0    0  0.00000000000E+00  0.00000000000E+00 -0.15740154651E+04  0.20463979096E+04  0.13077536924E+04 0.  0.
        5    1    3    3  502    0 -0.19818897846E+03  0.34216138511E+02  0.18656029670E+03  0.27436554015E+03  0.46999998093E+01 0. -1.
       -5    1    3    3    0  502  0.19818897846E+03 -0.34216138511E+02 -0.17605757618E+04  0.17720323694E+04  0.46999998093E+01 0.  1.
</event>
<event>
 5   0  0.3274879E-04  0.1301528E+04  0.7818609E-02  0.9028354E-01
       -1   -1    0    0    0  501  0.00000000000E+00  0.00000000000E+00  0.33767584934E+03  0.33767584938E+03  0.50400001928E-02 0.  1.
        1   -1    0    0  501    0  0.00000000000E+00  0.00000000000E+00 -0.12541426812E+04  0.12541426812E+04  0.50400001928E-02 0. -1.
    10030    2    1    2    0    0  0.00000000000E+00  0.00000000000E+00 -0.91646683184E+03  0.15918185306E+04  0.13015278639E+04 0.  0.
        4    1    3    3  502    0 -0.16926198811E+02  0.42326754463E+03  0.14596508670E+03  0.44805058864E+03  0.12699999809E+01 0.  1.
       -4    1    3    3    0  502  0.16926198811E+02 -0.42326754463E+03 -0.10624319185E+04  0.11437679419E+04  0.12699999809E+01 0. -1.
</event>
<event>
 5   0  0.3337520E-04  0.1298902E+04  0.7818609E-02  0.9030436E-01
        1   -1    0    0  501    0  0.00000000000E+00  0.00000000000E+00  0.44407231046E+03  0.44407231049E+03  0.50400001928E-02 0. -1.
       -1   -1    0    0    0  501  0.00000000000E+00  0.00000000000E+00 -0.94981582933E+03  0.94981582934E+03  0.50400001928E-02 0.  1.
    10030    2    1    2    0    0  0.00000000000E+00  0.00000000000E+00 -0.50574351887E+03  0.13938881398E+04  0.12989024750E+04 0.  0.
        5    1    3    3  502    0  0.31504335510E+03  0.39558509757E+03  0.18438651619E+03  0.53829393677E+03  0.46999998093E+01 0. -1.
       -5    1    3    3    0  502 -0.31504335510E+03 -0.39558509757E+03 -0.69013003506E+03  0.85559420306E+03  0.46999998093E+01 0.  1.
</event>
<event>
 5   0  0.5384960E-04  0.1298544E+04  0.7818609E-02  0.9030720E-01
        2   -1    0    0  501    0  0.00000000000E+00  0.00000000000E+00  0.12131985559E+04  0.12131985559E+04  0.25500000920E-02 0. -1.
       -2   -1    0    0    0  501  0.00000000000E+00  0.00000000000E+00 -0.34747347596E+03  0.34747347597E+03  0.25500000920E-02 0.  1.
    10030    2    1    2    0    0  0.00000000000E+00  0.00000000000E+00  0.86572507993E+03  0.15606720319E+04  0.12985442915E+04 0.  0.
        3    1    3    3  502    0 -0.25554317523E+03 -0.20976176673E+02 -0.28404834174E+03  0.38265622306E+03  0.10100000352E+00 0.  1.
       -3    1    3    3    0  502  0.25554317523E+03  0.20976176673E+02  0.11497734217E+04  0.11780158088E+04  0.10100000352E+00 0. -1.
</event>
<event>
 5   0  0.3403833E-04  0.1301007E+04  0.7818609E-02  0.9028767E-01
        1   -1    0    0  501    0  0.00000000000E+00  0.00000000000E+00  0.10943944395E+04  0.10943944395E+04  0.50400001928E-02 0.  1.
       -1   -1    0    0    0  501  0.00000000000E+00  0.00000000000E+00 -0.38665628577E+03  0.38665628580E+03  0.50400001928E-02 0. -1.
    10030    2    1    2    0    0  0.00000000000E+00  0.00000000000E+00  0.70773815375E+03  0.14810507253E+04  0.13010065168E+04 0.  0.
        1    1    3    3  502    0 -0.67324371727E+02 -0.58871587440E+03  0.48332040847E+02  0.59452076330E+03  0.50400001928E-02 0. -1.
       -1    1    3    3    0  502  0.67324371727E+02  0.58871587440E+03  0.65940611290E+03  0.88652996202E+03  0.50400001928E-02 0.  1.
</event>
<event>
 5   0  0.6007125E-04  0.1294841E+04  0.7818609E-02  0.9033667E-01
        2   -1    0    0  501    0  0.00000000000E+00  0.00000000000E+00  0.97564450547E+03  0.97564450548E+03  0.25500000920E-02 0.  1.
       -2   -1    0    0    0  501  0.00000000000E+00  0.00000000000E+00 -0.42961658625E+03  0.42961658625E+03  0.25500000920E-02 0. -1.
    10030    2    1    2    0    0  0.00000000000E+00  0.00000000000E+00  0.54602791923E+03  0.14052610917E+04  0.12948406262E+04 0.  0.
        5    1    3    3  502    0 -0.45258897969E+03 -0.40528131079E+03  0.30238511720E+02  0.60829777494E+03  0.46999998093E+01 0. -1.
       -5    1    3    3    0  502  0.45258897969E+03  0.40528131079E+03  0.51578940751E+03  0.79696331679E+03  0.46999998093E+01 0.  1.
</event>
<event>
 5   0  0.3263679E-04  0.1339418E+04  0.7818609E-02  0.8998878E-01
       -1   -1    0    0    0  501  0.00000000000E+00  0.00000000000E+00  0.72166179541E+03  0.72166179543E+03  0.50400001928E-02 0. -1.
        1   -1    0    0  501    0  0.00000000000E+00  0.00000000000E+00 -0.62149616654E+03  0.62149616656E+03  0.50400001928E-02 0.  1.
    10030    2    1    2    0    0  0.00000000000E+00  0.00000000000E+00  0.10016562887E+03  0.13431579620E+04  0.13394178428E+04 0.  0.
        2    1    3    3  502    0  0.46884013920E+02  0.28456815097E+03  0.65619832899E+03  0.71677987575E+03  0.25500000920E-02 0. -1.
       -2    1    3    3    0  502 -0.46884013920E+02 -0.28456815097E+03 -0.55603270012E+03  0.62637808624E+03  0.25500000920E-02 0.  1.
</event>
<event>
 5   0  0.3335747E-04  0.1298351E+04  0.7818609E-02  0.9030874E-01
       -1   -1    0    0    0  501  0.00000000000E+00  0.00000000000E+00  0.66048362514E+03  0.66048362516E+03  0.50400001928E-02 0.  1.
        1   -1    0    0  501    0  0.00000000000E+00  0.00000000000E+00 -0.63806079556E+03  0.63806079558E+03  0.50400001928E-02 0. -1.
    10030    2    1    2    0    0  0.00000000000E+00  0.00000000000E+00  0.22422829582E+02  0.12985444207E+04  0.12983508114E+04 0.  0.
        3    1    3    3  502    0  0.15951154782E+02  0.55942178198E+03  0.34023087611E+03  0.65495360809E+03  0.10100000352E+00 0.  1.
       -3    1    3    3    0  502 -0.15951154782E+02 -0.55942178198E+03 -0.31780804653E+03  0.64359081265E+03  0.10100000352E+00 0. -1.
</event>
<event>
 5   0  0.2255875E-04  0.1297146E+04  0.7818609E-02  0.9031832E-01
        3   -1    0    0  501    0  0.00000000000E+00  0.00000000000E+00  0.10968185079E+04  0.10968185125E+04  0.10100000352E+00 0. -1.
       -3   -1    0    0    0  501  0.00000000000E+00  0.00000000000E+00 -0.38351547636E+03  0.38351548966E+03  0.10100000352E+00 0.  1.
    10030    2    1    2    0    0  0.00000000000E+00  0.00000000000E+00  0.71330303150E+03  0.14803340022E+04  0.12971459221E+04 0.  0.
        5    1    3    3  502    0 -0.36793198656E+03 -0.18751764915E+03 -0.21406085923E+03  0.46516766540E+03  0.46999998093E+01 0.  1.
       -5    1    3    3    0  502  0.36793198656E+03  0.18751764915E+03  0.92736389073E+03  0.10151663368E+04  0.46999998093E+01 0. -1.
</event>
<event>
 5   0  0.3337520E-04  0.1289199E+04  0.7818609E-02  0.9038174E-01
       -1   -1    0    0    0  501  0.00000000000E+00  0.00000000000E+00  0.48236681872E+03  0.48236681874E+03  0.50400001928E-02 0.  1.
        1   -1    0    0  501    0  0.00000000000E+00  0.00000000000E+00 -0.86139594661E+03  0.86139594663E+03  0.50400001928E-02 0. -1.
    10030    2    1    2    0    0  0.00000000000E+00  0.00000000000E+00 -0.37902912790E+03  0.13437627654E+04  0.12891994763E+04 0.  0.
        5    1    3    3  502    0  0.11183429584E+03  0.32338828047E+03 -0.75889399945E+03  0.83248368277E+03  0.46999998093E+01 0. -1.
       -5    1    3    3    0  502 -0.11183429584E+03 -0.32338828047E+03  0.37986487156E+03  0.51127908260E+03  0.46999998093E+01 0.  1.
</event>
<event>
 5   0  0.6052864E-04  0.1299842E+04  0.7818609E-02  0.9029691E-01
        2   -1    0    0  501    0  0.00000000000E+00  0.00000000000E+00  0.82796549702E+03  0.82796549702E+03  0.25500000920E-02 0.  1.
       -2   -1    0    0    0  501  0.00000000000E+00  0.00000000000E+00 -0.51016281283E+03  0.51016281284E+03  0.25500000920E-02 0. -1.
    10030    2    1    2    0    0  0.00000000000E+00  0.00000000000E+00  0.31780268419E+03  0.13381283099E+04  0.12998418471E+04 0.  0.
        2    1    3    3  502    0  0.39622618294E+03 -0.17099993193E+03  0.65917930483E+03  0.78787912822E+03  0.25500000920E-02 0.  1.
       -2    1    3    3    0  502 -0.39622618294E+03  0.17099993193E+03 -0.34137662064E+03  0.55024918164E+03  0.25500000920E-02 0. -1.
</event>
<event>
 5   0  0.5957913E-04  0.1296433E+04  0.7818609E-02  0.9032399E-01
       -2   -1    0    0    0  501  0.00000000000E+00  0.00000000000E+00  0.27277105874E+03  0.27277105875E+03  0.25500000920E-02 0.  1.
        2   -1    0    0  501    0  0.00000000000E+00  0.00000000000E+00 -0.15404299654E+04  0.15404299654E+04  0.25500000920E-02 0. -1.
    10030    2    1    2    0    0  0.00000000000E+00  0.00000000000E+00 -0.12676589066E+04  0.18132010241E+04  0.12964331260E+04 0.  0.
        1    1    3    3  502    0  0.25809751544E+03  0.30039097053E+03  0.83883302179E+02  0.40482770541E+03  0.50400001928E-02 0.  1.
       -1    1    3    3    0  502 -0.25809751544E+03 -0.30039097053E+03 -0.13515422088E+04  0.14083733187E+04  0.50400001928E-02 0. -1.
</event>
<event>
 5   0  0.3274879E-04  0.1307477E+04  0.7818609E-02  0.9023657E-01
       -1   -1    0    0    0  501  0.00000000000E+00  0.00000000000E+00  0.37023094786E+03  0.37023094790E+03  0.50400001928E-02 0. -1.
        1   -1    0    0  501    0  0.00000000000E+00  0.00000000000E+00 -0.11543449087E+04  0.11543449088E+04  0.50400001928E-02 0.  1.
    10030    2    1    2    0    0  0.00000000000E+00  0.00000000000E+00 -0.78411396089E+03  0.15245758567E+04  0.13074772805E+04 0.  0.
        4    1    3    3  502    0 -0.56960264706E+02 -0.41176867666E+03  0.19627504818E+03  0.45969927374E+03  0.12699999809E+01 0. -1.
       -4    1    3    3    0  502  0.56960264706E+02  0.41176867666E+03 -0.98038900907E+03  0.10648765829E+04  0.12699999809E+01 0.  1.
</event>
<event>
 5   0  0.3335747E-04  0.1304573E+04  0.7818609E-02  0.9025947E-01
        1   -1    0    0  501    0  0.00000000000E+00  0.00000000000E+00  0.77685156560E+03  0.77685156561E+03  0.50400001928E-02 0.  1.
       -1   -1    0    0    0  501  0.00000000000E+00  0.00000000000E+00 -0.54769467712E+03  0.54769467715E+03  0.50400001928E-02 0. -1.
    10030    2    1    2    0    0  0.00000000000E+00  0.00000000000E+00  0.22915688848E+03  0.13245462428E+04  0.13045726770E+04 0.  0.
        3    1    3    3  502    0  0.55588647703E+03  0.10830061176E+03  0.44316693830E+03  0.71912150799E+03  0.10100000352E+00 0.  1.
       -3    1    3    3    0  502 -0.55588647703E+03 -0.10830061176E+03 -0.21401004982E+03  0.60542473477E+03  0.10100000352E+00 0. -1.
</event>
<event>
 5   0  0.3335747E-04  0.1297948E+04  0.7818609E-02  0.9031194E-01
        1   -1    0    0  501    0  0.00000000000E+00  0.00000000000E+00  0.73638392608E+03  0.73638392610E+03  0.50400001928E-02 0. -1.
       -1   -1    0    0    0  501  0.00000000000E+00  0.00000000000E+00 -0.57193958267E+03  0.57193958269E+03  0.50400001928E-02 0.  1.
    10030    2    1    2    0    0  0.00000000000E+00  0.00000000000E+00  0.16444434341E+03  0.13083235088E+04  0.12979477885E+04 0.  0.
        3    1    3    3  502    0  0.60398649052E+03 -0.21241851655E+03  0.18911610731E+03  0.66759734806E+03  0.10100000352E+00 0. -1.
       -3    1    3    3    0  502 -0.60398649052E+03  0.21241851655E+03 -0.24671763893E+02  0.64072616072E+03  0.10100000352E+00 0.  1.
</event>
<event>
 5   0  0.3263679E-04  0.1306251E+04  0.7818609E-02  0.9024622E-01
        1   -1    0    0  501    0  0.00000000000E+00  0.00000000000E+00  0.74581516581E+03  0.74581516583E+03  0.50400001928E-02 0. -1.
       -1   -1    0    0    0  501  0.00000000000E+00  0.00000000000E+00 -0.57195556361E+03  0.57195556363E+03  0.50400001928E-02 0.  1.
    10030    2    1    2    0    0  0.00000000000E+00  0.00000000000E+00  0.17385960220E+03  0.13177707295E+04  0.13062513289E+04 0.  0.
        2    1    3    3  502    0  0.19152215004E+03 -0.57921370678E+03  0.32223312075E+03  0.68993002268E+03  0.25500000920E-02 0. -1.
       -2    1    3    3    0  502 -0.19152215004E+03  0.57921370678E+03 -0.14837351855E+03  0.62784070678E+03  0.25500000920E-02 0.  1.
</event>
<event>
 5   0  0.5957913E-04  0.1303440E+04  0.7818609E-02  0.9026842E-01
       -2   -1    0    0    0  501  0.00000000000E+00  0.00000000000E+00  0.28876086410E+03  0.28876086411E+03  0.25500000920E-02 0.  1.
        2   -1    0    0  501    0  0.00000000000E+00  0.00000000000E+00 -0.14709016797E+04  0.14709016797E+04  0.25500000920E-02 0. -1.
    10030    2    1    2    0    0  0.00000000000E+00  0.00000000000E+00 -0.11821408156E+04  0.17596625438E+04  0.13034398184E+04 0.  0.
        1    1    3    3  502    0  0.33170853513E+03  0.39300225494E+03 -0.50630254727E+02  0.51676372491E+03  0.50400001928E-02 0.  1.
       -1    1    3    3    0  502 -0.33170853513E+03 -0.39300225494E+03 -0.11315105609E+04  0.12428988189E+04  0.50400001928E-02 0. -1.
</event>
<event>
 5   0  0.5384960E-04  0.1304471E+04  0.7818609E-02  0.9026027E-01
       -2   -1    0    0    0  501  0.00000000000E+00  0.00000000000E+00  0.27195983290E+03  0.27195983291E+03  0.25500000920E-02 0. -1.
        2   -1    0    0  501    0  0.00000000000E+00  0.00000000000E+00 -0.15642433329E+04  0.15642433329E+04  0.25500000920E-02 0.  1.
    10030    2    1    2    0    0  0.00000000000E+00  0.00000000000E+00 -0.12922835000E+04  0.18362031658E+04  0.13044713189E+04 0.  0.
        3    1    3    3  502    0 -0.43231381636E+03 -0.70836180115E+02  0.34044894657E+02  0.43939966463E+03  0.10100000352E+00 0. -1.
       -3    1    3    3    0  502  0.43231381636E+03  0.70836180115E+02 -0.13263283946E+04  0.13968035012E+04  0.10100000352E+00 0.  1.
</event>
<event>
 5   0  0.3335747E-04  0.1300863E+04  0.7818609E-02  0.9028881E-01
        1   -1    0    0  501    0  0.00000000000E+00  0.00000000000E+00  0.76774039251E+03  0.76774039253E+03  0.50400001928E-02 0. -1.
       -1   -1    0    0    0  501  0.00000000000E+00  0.00000000000E+00 -0.55104713019E+03  0.55104713021E+03  0.50400001928E-02 0.  1.
    10030    2    1    2    0    0  0.00000000000E+00  0.00000000000E+00  0.21669326232E+03  0.13187875227E+04  0.13008630059E+04 0.  0.
        3    1    3    3  502    0 -0.42462215285E+02  0.16495142019E+02 -0.54942795975E+03  0.55131318014E+03  0.10100000352E+00 0.  1.
       -3    1    3    3    0  502  0.42462215285E+02 -0.16495142019E+02  0.76612122208E+03  0.76747434260E+03  0.10100000352E+00 0. -1.
</event>
<event>
 5   0  0.5787604E-04  0.1293115E+04  0.7818609E-02  0.9035043E-01
        2   -1    0    0  501    0  0.00000000000E+00  0.00000000000E+00  0.46945319497E+03  0.46945319498E+03  0.25500000920E-02 0. -1.
       -2   -1    0    0    0  501  0.00000000000E+00  0.00000000000E+00 -0.89047509504E+03  0.89047509504E+03  0.25500000920E-02 0.  1.
    10030    2    1    2    0    0  0.00000000000E+00  0.00000000000E+00 -0.42102190007E+03  0.13599282900E+04  0.12931146560E+04 0.  0.
        4    1    3    3  502    0  0.25798610684E+03  0.16153093034E+03 -0.81041003684E+03  0.86568765354E+03  0.12699999809E+01 0.  1.
       -4    1    3    3    0  502 -0.25798610684E+03 -0.16153093034E+03  0.38938813677E+03  0.49424063647E+03  0.12699999809E+01 0. -1.
</event>
<event>
 5   0  0.3335747E-04  0.1297908E+04  0.7818609E-02  0.9031225E-01
        1   -1    0    0  501    0  0.00000000000E+00  0.00000000000E+00  0.43077658966E+03  0.43077658969E+03  0.50400001928E-02 0.  1.
       -1   -1    0    0    0  501  0.00000000000E+00  0.00000000000E+00 -0.97763332826E+03  0.97763332827E+03  0.50400001928E-02 0. -1.
    10030    2    1    2    0    0  0.00000000000E+00  0.00000000000E+00 -0.54685673860E+03  0.14084099180E+04  0.12979083960E+04 0.  0.
        3    1    3    3  502    0 -0.19975464452E+03 -0.53918816679E+03 -0.59990123761E+03  0.83096769029E+03  0.10100000352E+00 0. -1.
       -3    1    3    3    0  502  0.19975464452E+03  0.53918816679E+03  0.53044499009E+02  0.57744222767E+03  0.10100000352E+00 0.  1.
</event>
<event>
 5   0  0.3335747E-04  0.1327798E+04  0.7818609E-02  0.9007807E-01
        1   -1    0    0  501    0  0.00000000000E+00  0.00000000000E+00  0.88314801369E+03  0.88314801370E+03  0.50400001928E-02 0.  1.
       -1   -1    0    0    0  501  0.00000000000E+00  0.00000000000E+00 -0.49908046720E+03  0.49908046723E+03  0.50400001928E-02 0. -1.
    10030    2    1    2    0    0  0.00000000000E+00  0.00000000000E+00  0.38406754648E+03  0.13822284809E+04  0.13277980619E+04 0.  0.
        3    1    3    3  502    0 -0.58940152253E+03 -0.21217431949E+03 -0.36865926017E+02  0.62751191487E+03  0.10100000352E+00 0.  1.
       -3    1    3    3    0  502  0.58940152253E+03  0.21217431949E+03  0.42093347250E+03  0.75471656605E+03  0.10100000352E+00 0. -1.
</event>
<event>
 5   0  0.5384960E-04  0.1267157E+04  0.7818609E-02  0.9056023E-01
       -2   -1    0    0    0  501  0.00000000000E+00  0.00000000000E+00  0.42812846322E+03  0.42812846323E+03  0.25500000920E-02 0.  1.
        2   -1    0    0  501    0  0.00000000000E+00  0.00000000000E+00 -0.93761926669E+03  0.93761926669E+03  0.25500000920E-02 0. -1.
    10030    2    1    2    0    0  0.00000000000E+00  0.00000000000E+00 -0.50949080346E+03  0.13657477299E+04  0.12671566529E+04 0.  0.
        3    1    3    3  502    0 -0.59509487101E+03 -0.17956269493E+03 -0.38692849670E+03  0.73218463428E+03  0.10100000352E+00 0. -1.
       -3    1    3    3    0  502  0.59509487101E+03  0.17956269493E+03 -0.12256230676E+03  0.63356309564E+03  0.10100000352E+00 0.  1.
</event>
<event>
 5   0  0.3274879E-04  0.1300287E+04  0.7818609E-02  0.9029338E-01
       -1   -1    0    0    0  501  0.00000000000E+00  0.00000000000E+00  0.45884076601E+03  0.45884076604E+03  0.50400001928E-02 0. -1.
        1   -1    0    0  501    0  0.00000000000E+00  0.00000000000E+00 -0.92120518896E+03  0.92120518898E+03  0.50400001928E-02 0.  1.
    10030    2    1    2    0    0  0.00000000000E+00  0.00000000000E+00 -0.46236442295E+03  0.13800459550E+04  0.13002868831E+04 0.  0.
        4    1    3    3  502    0 -0.14261041948E+03  0.30319952792E+02  0.44126487595E+03  0.46472931361E+03  0.12699999809E+01 0. -1.
       -4    1    3    3    0  502  0.14261041948E+03 -0.30319952792E+02 -0.90362929891E+03  0.91531664140E+03  0.12699999809E+01 0.  1.
</event>
<event>
 5   0  0.3335747E-04  0.1315841E+04  0.7818609E-02  0.9017097E-01
       -1   -1    0    0    0  501  0.00000000000E+00  0.00000000000E+00  0.38456742705E+03  0.38456742708E+03  0.50400001928E-02 0.  1.
        1   -1    0    0  501    0  0.00000000000E+00  0.00000000000E+00 -0.11255743884E+04  0.11255743884E+04  0.50400001928E-02 0. -1.
    10030    2    1    2    0    0  0.00000000000E+00  0.00000000000E+00 -0.74100696132E+03  0.15101418155E+04  0.13158407905E+04 0.  0.
        3    1    3    3  502    0 -0.40203143566E+03 -0.33737949603E+02 -0.96694795117E+03  0.10477384573E+04  0.10100000352E+00 0. -1.
       -3    1    3    3    0  502  0.40203143566E+03  0.33737949603E+02  0.22594098985E+03  0.46240335812E+03  0.10100000352E+00 0.  1.
</event>
<event>
 5   0  0.6052864E-04  0.1302964E+04  0.7818609E-02  0.9027218E-01
        2   -1    0    0  501    0  0.00000000000E+00  0.00000000000E+00  0.87627922883E+03  0.87627922884E+03  0.25500000920E-02 0. -1.
       -2   -1    0    0    0  501  0.00000000000E+00  0.00000000000E+00 -0.48435364412E+03  0.48435364412E+03  0.25500000920E-02 0.  1.
    10030    2    1    2    0    0  0.00000000000E+00  0.00000000000E+00  0.39192558472E+03  0.13606328730E+04  0.13029643706E+04 0.  0.
        2    1    3    3  502    0  0.46231700761E+02  0.46570329845E+03  0.66924637102E+03  0.81664413147E+03  0.25500000920E-02 0. -1.
       -2    1    3    3    0  502 -0.46231700761E+02 -0.46570329845E+03 -0.27732078630E+03  0.54398874149E+03  0.25500000920E-02 0.  1.
</event>
<event>
 5   0  0.3274879E-04  0.1311889E+04  0.7818609E-02  0.9020190E-01
       -1   -1    0    0    0  501  0.00000000000E+00  0.00000000000E+00  0.84487675017E+03  0.84487675019E+03  0.50400001928E-02 0. -1.
        1   -1    0    0  501    0  0.00000000000E+00  0.00000000000E+00 -0.50926170424E+03  0.50926170427E+03  0.50400001928E-02 0.  1.
    10030    2    1    2    0    0  0.00000000000E+00  0.00000000000E+00  0.33561504593E+03  0.13541384545E+04  0.13118892845E+04 0.  0.
        4    1    3    3  502    0  0.28824140143E+03 -0.25356188757E+02  0.77543847670E+03  0.82766689306E+03  0.12699999809E+01 0. -1.
       -4    1    3    3    0  502 -0.28824140143E+03  0.25356188757E+02 -0.43982343077E+03  0.52647156140E+03  0.12699999809E+01 0.  1.
</event>
<event>
 5   0  0.5957913E-04  0.1302055E+04  0.7818609E-02  0.9027937E-01
        2   -1    0    0  501    0  0.00000000000E+00  0.00000000000E+00  0.13176770442E+04  0.13176770442E+04  0.25500000920E-02 0. -1.
       -2   -1    0    0    0  501  0.00000000000E+00  0.00000000000E+00 -0.32165469863E+03  0.32165469864E+03  0.25500000920E-02 0.  1.
    10030    2    1    2    0    0  0.00000000000E+00  0.00000000000E+00  0.99602234557E+03  0.16393317428E+04  0.13020553176E+04 0.  0.
        1    1    3    3  502    0 -0.29636753164E+03  0.50459514913E+03  0.13882879256E+03  0.60143446194E+03  0.50400001928E-02 0.  1.
       -1    1    3    3    0  502  0.29636753164E+03 -0.50459514913E+03  0.85719355300E+03  0.10378972809E+04  0.50400001928E-02 0. -1.
</event>
<event>
 5   0  0.2255875E-04  0.1274690E+04  0.7818609E-02  0.9049880E-01
        4   -1    0    0  501    0  0.00000000000E+00  0.00000000000E+00  0.18492267658E+04  0.18492272019E+04  0.12699999809E+01 0.  1.
       -4   -1    0    0    0  501  0.00000000000E+00  0.00000000000E+00 -0.21966179502E+03  0.21966546631E+03  0.12699999809E+01 0. -1.
    10030    2    1    2    0    0  0.00000000000E+00  0.00000000000E+00  0.16295649708E+04  0.20688926682E+04  0.12746901108E+04 0.  0.
        1    1    3    3  502    0  0.23663677639E+03  0.55228240100E+03  0.11598331663E+04  0.13062257799E+04  0.50400001928E-02 0.  1.
       -1    1    3    3    0  502 -0.23663677639E+03 -0.55228240100E+03  0.46973180453E+03  0.76266688836E+03  0.50400001928E-02 0. -1.
</event>
<event>
 5   0  0.3274879E-04  0.1296428E+04  0.7818609E-02  0.9032403E-01
        1   -1    0    0  501    0  0.00000000000E+00  0.00000000000E+00  0.46793138584E+03  0.46793138587E+03  0.50400001928E-02 0.  1.
       -1   -1    0    0    0  501  0.00000000000E+00  0.00000000000E+00 -0.89795459877E+03  0.89795459879E+03  0.50400001928E-02 0. -1.
    10030    2    1    2    0    0  0.00000000000E+00  0.00000000000E+00 -0.43002321293E+03  0.13658859847E+04  0.12964276144E+04 0.  0.
        4    1    3    3  502    0  0.26490034420E+03  0.44939992573E+02 -0.83652163717E+03  0.87861359974E+03  0.12699999809E+01 0. -1.
       -4    1    3    3    0  502 -0.26490034420E+03 -0.44939992573E+02  0.40649842424E+03  0.48727238491E+03  0.12699999809E+01 0.  1.
</event>
<event>
 5   0  0.5384960E-04  0.1298981E+04  0.7818609E-02  0.9030374E-01
       -2   -1    0    0    0  501  0.00000000000E+00  0.00000000000E+00  0.59389935445E+03  0.59389935445E+03  0.25500000920E-02 0. -1.
        2   -1    0    0  501    0  0.00000000000E+00  0.00000000000E+00 -0.71028526837E+03  0.71028526837E+03  0.25500000920E-02 0.  1.
    10030    2    1    2    0    0  0.00000000000E+00  0.00000000000E+00 -0.11638591392E+03  0.13041846228E+04  0.12989810813E+04 0.  0.
        3    1    3    3  502    0 -0.56453791880E+03  0.25204811925E+03  0.14161842696E+03  0.63426107025E+03  0.10100000352E+00 0. -1.
       -3    1    3    3    0  502  0.56453791880E+03 -0.25204811925E+03 -0.25800434088E+03  0.66992355258E+03  0.10100000352E+00 0.  1.
</event>
<event>
 5   0  0.3335747E-04  0.1299235E+04  0.7818609E-02  0.9030172E-01
        1   -1    0    0  501    0  0.00000000000E+00  0.00000000000E+00  0.43639226975E+03  0.43639226978E+03  0.50400001928E-02 0.  1.
       -1   -1    0    0    0  501  0.00000000000E+00  0.00000000000E+00 -0.96702684201E+03  0.96702684203E+03  0.50400001928E-02 0. -1.
    10030    2    1    2    0    0  0.00000000000E+00  0.00000000000E+00 -0.53063457227E+03  0.14034191118E+04  0.12992352189E+04 0.  0.
        3    1    3    3  502    0  0.16193980498E+03 -0.18606180538E+03 -0.91447338679E+03  0.94715631297E+03  0.10100000352E+00 0. -1.
       -3    1    3    3    0  502 -0.16193980498E+03  0.18606180538E+03  0.38383881452E+03  0.45626279883E+03  0.10100000352E+00 0.  1.
</event>
<event>
 5   0  0.6052864E-04  0.1292772E+04  0.7818609E-02  0.9035317E-01
       -2   -1    0    0    0  501  0.00000000000E+00  0.00000000000E+00  0.69696684603E+03  0.69696684603E+03  0.25500000920E-02 0. -1.
        2   -1    0    0  501    0  0.00000000000E+00  0.00000000000E+00 -0.59947613791E+03  0.59947613792E+03  0.25500000920E-02 0.  1.
    10030    2    1    2    0    0  0.00000000000E+00  0.00000000000E+00  0.97490708116E+02  0.12964429839E+04  0.12927722044E+04 0.  0.
        2    1    3    3  502    0  0.41145304638E+03 -0.48848042065E+03  0.14856825003E+03  0.65572803483E+03  0.25500000920E-02 0. -1.
       -2    1    3    3    0  502 -0.41145304638E+03  0.48848042065E+03 -0.51077541912E+02  0.64071494912E+03  0.25500000920E-02 0.  1.
</event>
<event>
 5   0  0.5384960E-04  0.1301742E+04  0.7818609E-02  0.9028185E-01
       -2   -1    0    0    0  501  0.00000000000E+00  0.00000000000E+00  0.32959183775E+03  0.32959183776E+03  0.25500000920E-02 0. -1.
        2   -1    0    0  501    0  0.00000000000E+00  0.00000000000E+00 -0.12853267745E+04  0.12853267745E+04  0.25500000920E-02 0.  1.
    10030    2    1    2    0    0  0.00000000000E+00  0.00000000000E+00 -0.95573493675E+03  0.16149186123E+04  0.13017422383E+04 0.  0.
        3    1    3    3  502    0  0.45029539657E+03 -0.25925909413E+03  0.84218449744E+01  0.51966543057E+03  0.10100000352E+00 0. -1.
       -3    1    3    3    0  502 -0.45029539657E+03  0.25925909413E+03 -0.96415678173E+03  0.10952531817E+04  0.10100000352E+00 0.  1.
</event>
<event>
 5   0  0.6052864E-04  0.1302053E+04  0.7818609E-02  0.9027939E-01
        2   -1    0    0  501    0  0.00000000000E+00  0.00000000000E+00  0.31713901005E+03  0.31713901006E+03  0.25500000920E-02 0.  1.
       -2   -1    0    0    0  501  0.00000000000E+00  0.00000000000E+00 -0.13364337175E+04  0.13364337175E+04  0.25500000920E-02 0. -1.
    10030    2    1    2    0    0  0.00000000000E+00  0.00000000000E+00 -0.10192947074E+04  0.16535727275E+04  0.13020526351E+04 0.  0.
        2    1    3    3  502    0  0.14085130160E+03 -0.36976215528E+03  0.14690837297E+03  0.42207251829E+03  0.25500000920E-02 0.  1.
       -2    1    3    3    0  502 -0.14085130160E+03  0.36976215528E+03 -0.11662030804E+04  0.12315002092E+04  0.25500000920E-02 0. -1.
</event>
<event>
 5   0  0.6052864E-04  0.1293544E+04  0.7818609E-02  0.9034701E-01
       -2   -1    0    0    0  501  0.00000000000E+00  0.00000000000E+00  0.85441316703E+03  0.85441316703E+03  0.25500000920E-02 0.  1.
        2   -1    0    0  501    0  0.00000000000E+00  0.00000000000E+00 -0.48959186634E+03  0.48959186634E+03  0.25500000920E-02 0. -1.
    10030    2    1    2    0    0  0.00000000000E+00  0.00000000000E+00  0.36482130069E+03  0.13440050334E+04  0.12935435626E+04 0.  0.
        2    1    3    3  502    0 -0.48330823533E+02  0.27098710597E+03  0.79051474524E+03  0.83706836194E+03  0.25500000920E-02 0.  1.
       -2    1    3    3    0  502  0.48330823533E+02 -0.27098710597E+03 -0.42569344455E+03  0.50693667144E+03  0.25500000920E-02 0. -1.
</event>
<event>
 5   0  0.3337520E-04  0.1298219E+04  0.7818609E-02  0.9030979E-01
       -1   -1    0    0    0  501  0.00000000000E+00  0.00000000000E+00  0.28295479694E+03  0.28295479698E+03  0.50400001928E-02 0. -1.
        1   -1    0    0  501    0  0.00000000000E+00  0.00000000000E+00 -0.14890822284E+04  0.14890822284E+04  0.50400001928E-02 0.  1.
    10030    2    1    2    0    0  0.00000000000E+00  0.00000000000E+00 -0.12061274315E+04  0.17720370254E+04  0.12982187175E+04 0.  0.
        5    1    3    3  502    0 -0.38986595460E+03 -0.48891902575E+02  0.10216124798E+03  0.40601094971E+03  0.46999998093E+01 0. -1.
       -5    1    3    3    0  502  0.38986595460E+03  0.48891902575E+02 -0.13082886795E+04  0.13660260757E+04  0.46999998093E+01 0.  1.
</event>
<event>
 5   0  0.3274879E-04  0.1301425E+04  0.7818609E-02  0.9028436E-01
        1   -1    0    0  501    0  0.00000000000E+00  0.00000000000E+00  0.47957368321E+03  0.47957368323E+03  0.50400001928E-02 0.  1.
       -1   -1    0    0    0  501  0.00000000000E+00  0.00000000000E+00 -0.88292349646E+03  0.88292349647E+03  0.50400001928E-02 0. -1.
    10030    2    1    2    0    0  0.00000000000E+00  0.00000000000E+00 -0.40334981325E+03  0.13624971797E+04  0.13014251776E+04 0.  0.
        4    1    3    3  502    0 -0.23436250477E+03 -0.51626101842E+03  0.13264421345E+03  0.58227770268E+03  0.12699999809E+01 0. -1.
       -4    1    3    3    0  502  0.23436250477E+03  0.51626101842E+03 -0.53599402670E+03  0.78021947703E+03  0.12699999809E+01 0.  1.
</event>
<event>
 5   0  0.6052864E-04  0.1300620E+04  0.7818609E-02  0.9029073E-01
       -2   -1    0    0    0  501  0.00000000000E+00  0.00000000000E+00  0.14276693235E+04  0.14276693235E+04  0.25500000920E-02 0.  1.
        2   -1    0    0  501    0  0.00000000000E+00  0.00000000000E+00 -0.29621932977E+03  0.29621932978E+03  0.25500000920E-02 0. -1.
    10030    2    1    2    0    0  0.00000000000E+00  0.00000000000E+00  0.11314499937E+04  0.17238886532E+04  0.13006202369E+04 0.  0.
        2    1    3    3  502    0  0.21382895784E+02  0.38575327400E+03  0.12590691202E+04  0.13170109590E+04  0.25500000920E-02 0.  1.
       -2    1    3    3    0  502 -0.21382895784E+02 -0.38575327400E+03 -0.12761912650E+03  0.40687769426E+03  0.25500000920E-02 0. -1.
</event>
<event>
 5   0  0.6052864E-04  0.1298021E+04  0.7818609E-02  0.9031136E-01
        2   -1    0    0  501    0  0.00000000000E+00  0.00000000000E+00  0.90714441657E+03  0.90714441657E+03  0.25500000920E-02 0. -1.
       -2   -1    0    0    0  501  0.00000000000E+00  0.00000000000E+00 -0.46433044332E+03  0.46433044333E+03  0.25500000920E-02 0.  1.
    10030    2    1    2    0    0  0.00000000000E+00  0.00000000000E+00  0.44281397325E+03  0.13714748599E+04  0.12980212157E+04 0.  0.
        2    1    3    3  502    0  0.36834617713E+03  0.23174002891E+03  0.73014377769E+03  0.84999546076E+03  0.25500000920E-02 0. -1.
       -2    1    3    3    0  502 -0.36834617713E+03 -0.23174002891E+03 -0.28732980444E+03  0.52147939914E+03  0.25500000920E-02 0.  1.
</event>
<event>
 5   0  0.2255875E-04  0.1300242E+04  0.7818609E-02  0.9029373E-01
       -3   -1    0    0    0  501  0.00000000000E+00  0.00000000000E+00  0.40353809072E+03  0.40353810336E+03  0.10100000352E+00 0.  1.
        3   -1    0    0  501    0  0.00000000000E+00  0.00000000000E+00 -0.10473790938E+04  0.10473790987E+04  0.10100000352E+00 0. -1.
    10030    2    1    2    0    0  0.00000000000E+00  0.00000000000E+00 -0.64384100307E+03  0.14509172020E+04  0.13002420890E+04 0.  0.
        2    1    3    3  502    0 -0.23126980779E+02  0.30684580682E+03 -0.96096964239E+03  0.10090351134E+04  0.25500000920E-02 0. -1.
       -2    1    3    3    0  502  0.23126980779E+02 -0.30684580682E+03  0.31712863931E+03  0.44188208867E+03  0.25500000920E-02 0.  1.
</event>
<event>
 5   0  0.5384960E-04  0.1318994E+04  0.7818609E-02  0.9014637E-01
       -2   -1    0    0    0  501  0.00000000000E+00  0.00000000000E+00  0.27179655478E+03  0.27179655479E+03  0.25500000920E-02 0. -1.
        2   -1    0    0  501    0  0.00000000000E+00  0.00000000000E+00 -0.16002273088E+04  0.16002273088E+04  0.25500000920E-02 0.  1.
    10030    2    1    2    0    0  0.00000000000E+00  0.00000000000E+00 -0.13284307540E+04  0.18720238635E+04  0.13189939642E+04 0.  0.
        3    1    3    3  502    0  0.39314346878E+03  0.16424929637E+03 -0.13786607024E+04  0.14429986005E+04  0.10100000352E+00 0.  1.
       -3    1    3    3    0  502 -0.39314346878E+03 -0.16424929637E+03  0.50229948464E+02  0.42902526304E+03  0.10100000352E+00 0. -1.
</event>
<event>
 5   0  0.2255875E-04  0.1303193E+04  0.7818609E-02  0.9027037E-01
        4   -1    0    0  501    0  0.00000000000E+00  0.00000000000E+00  0.96694372173E+03  0.96694455575E+03  0.12699999809E+01 0. -1.
       -4   -1    0    0    0  501  0.00000000000E+00  0.00000000000E+00 -0.43909065971E+03  0.43909249634E+03  0.12699999809E+01 0.  1.
    10030    2    1    2    0    0  0.00000000000E+00  0.00000000000E+00  0.52785306202E+03  0.14060370521E+04  0.13031927474E+04 0.  0.
        2    1    3    3  502    0  0.53644928053E+03  0.29212580427E+03  0.50868268905E+03  0.79490464475E+03  0.25500000920E-02 0. -1.
       -2    1    3    3    0  502 -0.53644928053E+03 -0.29212580427E+03  0.19170372975E+02  0.61113240734E+03  0.25500000920E-02 0.  1.
</event>
<event>
 5   0  0.3274879E-04  0.1296413E+04  0.7818609E-02  0.9032414E-01
        1   -1    0    0  501    0  0.00000000000E+00  0.00000000000E+00  0.95739816230E+03  0.95739816231E+03  0.50400001928E-02 0. -1.
       -1   -1    0    0    0  501  0.00000000000E+00  0.00000000000E+00 -0.43886845308E+03  0.43886845311E+03  0.50400001928E-02 0.  1.
    10030    2    1    2    0    0  0.00000000000E+00  0.00000000000E+00  0.51852970921E+03  0.13962666154E+04  0.12964132836E+04 0.  0.
        4    1    3    3  502    0 -0.10614570999E+02 -0.53725139844E+03 -0.13117409914E+03  0.55313650344E+03  0.12699999809E+01 0.  1.
       -4    1    3    3    0  502  0.10614570999E+02  0.53725139844E+03  0.64970380835E+03  0.84313011198E+03  0.12699999809E+01 0. -1.
</event>
<event>
 5   0  0.6052864E-04  0.1297092E+04  0.7818609E-02  0.9031875E-01
        2   -1    0    0  501    0  0.00000000000E+00  0.00000000000E+00  0.37842936247E+03  0.37842936247E+03  0.25500000920E-02 0. -1.
       -2   -1    0    0    0  501  0.00000000000E+00  0.00000000000E+00 -0.11114666796E+04  0.11114666796E+04  0.25500000920E-02 0.  1.
    10030    2    1    2    0    0  0.00000000000E+00  0.00000000000E+00 -0.73303731710E+03  0.14898960420E+04  0.12970915572E+04 0.  0.
        2    1    3    3  502    0  0.18032918347E+03 -0.27462437498E+03 -0.10088092226E+04  0.10609586275E+04  0.25500000920E-02 0.  1.
       -2    1    3    3    0  502 -0.18032918347E+03  0.27462437498E+03  0.27577190546E+03  0.42893741454E+03  0.25500000920E-02 0. -1.
</event>
<event>
 5   0  0.5384960E-04  0.1302739E+04  0.7818609E-02  0.9027396E-01
        2   -1    0    0  501    0  0.00000000000E+00  0.00000000000E+00  0.47758867263E+03  0.47758867264E+03  0.25500000920E-02 0. -1.
       -2   -1    0    0    0  501  0.00000000000E+00  0.00000000000E+00 -0.88838420133E+03  0.88838420134E+03  0.25500000920E-02 0.  1.
    10030    2    1    2    0    0  0.00000000000E+00  0.00000000000E+00 -0.41079552870E+03  0.13659728740E+04  0.13027390092E+04 0.  0.
        3    1    3    3  502    0 -0.36847360966E+03 -0.50904199736E+03 -0.25654584540E+02  0.62893141438E+03  0.10100000352E+00 0. -1.
       -3    1    3    3    0  502  0.36847360966E+03  0.50904199736E+03 -0.38514094416E+03  0.73704145959E+03  0.10100000352E+00 0.  1.
</event>
<event>
 5   0  0.2255875E-04  0.1297808E+04  0.7818609E-02  0.9031306E-01
       -4   -1    0    0    0  501  0.00000000000E+00  0.00000000000E+00  0.41663640004E+03  0.41663833565E+03  0.12699999809E+01 0.  1.
        4   -1    0    0  501    0  0.00000000000E+00  0.00000000000E+00 -0.10106514095E+04  0.10106522074E+04  0.12699999809E+01 0. -1.
    10030    2    1    2    0    0  0.00000000000E+00  0.00000000000E+00 -0.59401500946E+03  0.14272905431E+04  0.12978075601E+04 0.  0.
        2    1    3    3  502    0 -0.46445460045E+03  0.15184790061E+03  0.17255750408E+03  0.51821998516E+03  0.25500000920E-02 0.  1.
       -2    1    3    3    0  502  0.46445460045E+03 -0.15184790061E+03 -0.76657251354E+03  0.90907055794E+03  0.25500000920E-02 0. -1.
</event>
<event>
 5   0  0.3337520E-04  0.1280974E+04  0.7818609E-02  0.9044791E-01
       -1   -1    0    0    0  501  0.00000000000E+00  0.00000000000E+00  0.41218805798E+03  0.41218805801E+03  0.50400001928E-02 0.  1.
        1   -1    0    0  501    0  0.00000000000E+00  0.00000000000E+00 -0.99523403867E+03  0.99523403869E+03  0.50400001928E-02 0. -1.
    10030    2    1    2    0    0  0.00000000000E+00  0.00000000000E+00 -0.58304598069E+03  0.14074220967E+04  0.12809739820E+04 0.  0.
        5    1    3    3  502    0  0.11808789468E+03 -0.17682652144E+03  0.37225679047E+03  0.42873019209E+03  0.46999998093E+01 0.  1.
       -5    1    3    3    0  502 -0.11808789468E+03  0.17682652144E+03 -0.95530277117E+03  0.97869190461E+03  0.46999998093E+01 0. -1.
</event>
<event>
 5   0  0.5787604E-04  0.1302934E+04  0.7818609E-02  0.9027242E-01
       -2   -1    0    0    0  501  0.00000000000E+00  0.00000000000E+00  0.28237153561E+03  0.28237153562E+03  0.25500000920E-02 0. -1.
        2   -1    0    0  501    0  0.00000000000E+00  0.00000000000E+00 -0.15030173818E+04  0.15030173818E+04  0.25500000920E-02 0.  1.
    10030    2    1    2    0    0  0.00000000000E+00  0.00000000000E+00 -0.12206458462E+04  0.17853889175E+04  0.13029341137E+04 0.  0.
        4    1    3    3  502    0 -0.63381326692E+03 -0.54074873997E+02 -0.80296528798E+03  0.10244013939E+04  0.12699999809E+01 0.  1.
       -4    1    3    3    0  502  0.63381326692E+03  0.54074873997E+02 -0.41768055825E+03  0.76098752352E+03  0.12699999809E+01 0. -1.
</event>
<event>
 5   0  0.3335747E-04  0.1289242E+04  0.7818609E-02  0.9038140E-01
       -1   -1    0    0    0  501  0.00000000000E+00  0.00000000000E+00  0.45041549800E+03  0.45041549803E+03  0.50400001928E-02 0.  1.
        1   -1    0    0  501    0  0.00000000000E+00  0.00000000000E+00 -0.92256139733E+03  0.92256139734E+03  0.50400001928E-02 0. -1.
    10030    2    1    2    0    0  0.00000000000E+00  0.00000000000E+00 -0.47214589932E+03  0.13729768954E+04  0.12892415619E+04 0.  0.
        3    1    3    3  502    0  0.26153171791E+03  0.40582267296E+03  0.21880510521E+03  0.53006279404E+03  0.10100000352E+00 0.  1.
       -3    1    3    3    0  502 -0.26153171791E+03 -0.40582267296E+03 -0.69095100453E+03  0.84291410133E+03  0.10100000352E+00 0. -1.
</event>
<event>
 5   0  0.3263679E-04  0.1301601E+04  0.7818609E-02  0.9028296E-01
        1   -1    0    0  501    0  0.00000000000E+00  0.00000000000E+00  0.63051465222E+03  0.63051465224E+03  0.50400001928E-02 0.  1.
       -1   -1    0    0    0  501  0.00000000000E+00  0.00000000000E+00 -0.67173929556E+03  0.67173929558E+03  0.50400001928E-02 0. -1.
    10030    2    1    2    0    0  0.00000000000E+00  0.00000000000E+00 -0.41224643343E+02  0.13022539478E+04  0.13016012728E+04 0.  0.
        2    1    3    3  502    0 -0.42872270253E+03  0.31437059530E+03  0.35495497215E+03  0.63923787366E+03  0.25500000920E-02 0.  1.
       -2    1    3    3    0  502  0.42872270253E+03 -0.31437059530E+03 -0.39617961550E+03  0.66301607416E+03  0.25500000920E-02 0. -1.
</event>
<event>
 5   0  0.6052864E-04  0.1301931E+04  0.7818609E-02  0.9028035E-01
       -2   -1    0    0    0  501  0.00000000000E+00  0.00000000000E+00  0.54524340670E+03  0.54524340671E+03  0.25500000920E-02 0. -1.
        2   -1    0    0  501    0  0.00000000000E+00  0.00000000000E+00 -0.77718689216E+03  0.77718689216E+03  0.25500000920E-02 0.  1.
    10030    2    1    2    0    0  0.00000000000E+00  0.00000000000E+00 -0.23194348546E+03  0.13224302989E+04  0.13019309179E+04 0.  0.
        2    1    3    3  502    0  0.38394354725E+03  0.27416267142E+03  0.33961945129E+03  0.58130817092E+03  0.25500000920E-02 0. -1.
       -2    1    3    3    0  502 -0.38394354725E+03 -0.27416267142E+03 -0.57156293675E+03  0.74112212796E+03  0.25500000920E-02 0.  1.
</event>
<event>
 5   0  0.5384960E-04  0.1301688E+04  0.7818609E-02  0.9028228E-01
       -2   -1    0    0    0  501  0.00000000000E+00  0.00000000000E+00  0.25620807302E+03  0.25620807303E+03  0.25500000920E-02 0. -1.
        2   -1    0    0  501    0  0.00000000000E+00  0.00000000000E+00 -0.16533344491E+04  0.16533344491E+04  0.25500000920E-02 0.  1.
    10030    2    1    2    0    0  0.00000000000E+00  0.00000000000E+00 -0.13971263761E+04  0.19095425222E+04  0.13016875712E+04 0.  0.
        3    1    3    3  502    0  0.62771024144E+03  0.13606652817E+03 -0.54426301698E+03  0.84187676601E+03  0.10100000352E+00 0.  1.
       -3    1    3    3    0  502 -0.62771024144E+03 -0.13606652817E+03 -0.85286335914E+03  0.10676657562E+04  0.10100000352E+00 0. -1.
</event>
<event>
 5   0  0.3274879E-04  0.1311522E+04  0.7818609E-02  0.9020478E-01
       -1   -1    0    0    0  501  0.00000000000E+00  0.00000000000E+00  0.53008080385E+03  0.53008080387E+03  0.50400001928E-02 0.  1.
        1   -1    0    0  501    0  0.00000000000E+00  0.00000000000E+00 -0.81123893081E+03  0.81123893083E+03  0.50400001928E-02 0. -1.
    10030    2    1    2    0    0  0.00000000000E+00  0.00000000000E+00 -0.28115812697E+03  0.13413197347E+04  0.13115215356E+04 0.  0.
        4    1    3    3  502    0  0.15758296723E+03 -0.62268135955E+03 -0.27570246077E+03  0.69898349542E+03  0.12699999809E+01 0. -1.
       -4    1    3    3    0  502 -0.15758296723E+03  0.62268135955E+03 -0.54556662020E+01  0.64233623928E+03  0.12699999809E+01 0.  1.
</event>
<event>
 5   0  0.5384960E-04  0.1290987E+04  0.7818609E-02  0.9036743E-01
       -2   -1    0    0    0  501  0.00000000000E+00  0.00000000000E+00  0.50160386949E+03  0.50160386949E+03  0.25500000920E-02 0. -1.
        2   -1    0    0  501    0  0.00000000000E+00  0.00000000000E+00 -0.83065911434E+03  0.83065911434E+03  0.25500000920E-02 0.  1.
    10030    2    1    2    0    0  0.00000000000E+00  0.00000000000E+00 -0.32905524485E+03  0.13322629838E+04  0.12909869496E+04 0.  0.
        3    1    3    3  502    0 -0.38733436463E+03 -0.25066702708E+02 -0.69677492799E+03  0.79759109830E+03  0.10100000352E+00 0.  1.
       -3    1    3    3    0  502  0.38733436463E+03  0.25066702708E+02  0.36771968314E+03  0.53467188554E+03  0.10100000352E+00 0. -1.
</event>
<event>
 5   0  0.3335747E-04  0.1273863E+04  0.7818609E-02  0.9050553E-01
       -1   -1    0    0    0  501  0.00000000000E+00  0.00000000000E+00  0.56550023065E+03  0.56550023067E+03  0.50400001928E-02 0. -1.
        1   -1    0    0  501    0  0.00000000000E+00  0.00000000000E+00 -0.71738546880E+03  0.71738546882E+03  0.50400001928E-02 0.  1.
    10030    2    1    2    0    0  0.00000000000E+00  0.00000000000E+00 -0.15188523816E+03  0.12828856995E+04  0.12738628625E+04 0.  0.
        3    1    3    3  502    0 -0.20199621367E+03 -0.24829170615E+03  0.47862135610E+03  0.57578611862E+03  0.10100000352E+00 0. -1.
       -3    1    3    3    0  502  0.20199621367E+03  0.24829170615E+03 -0.63050659425E+03  0.70709958088E+03  0.10100000352E+00 0.  1.
</event>
<event>
 5   0  0.6052864E-04  0.1258803E+04  0.7818609E-02  0.9062889E-01
       -2   -1    0    0    0  501  0.00000000000E+00  0.00000000000E+00  0.39431055840E+03  0.39431055841E+03  0.25500000920E-02 0.  1.
        2   -1    0    0  501    0  0.00000000000E+00  0.00000000000E+00 -0.10046548151E+04  0.10046548151E+04  0.25500000920E-02 0. -1.
    10030    2    1    2    0    0  0.00000000000E+00  0.00000000000E+00 -0.61034425666E+03  0.13989653735E+04  0.12588026075E+04 0.  0.
        2    1    3    3  502    0  0.17492224641E+03 -0.17842828981E+03 -0.94717201762E+03  0.97957607049E+03  0.25500000920E-02 0. -1.
       -2    1    3    3    0  502 -0.17492224641E+03  0.17842828981E+03  0.33682776097E+03  0.41938930298E+03  0.25500000920E-02 0.  1.
</event>
<event>
 5   0  0.5384960E-04  0.1274633E+04  0.7818609E-02  0.9049927E-01
       -2   -1    0    0    0  501  0.00000000000E+00  0.00000000000E+00  0.24835635190E+03  0.24835635191E+03  0.25500000920E-02 0. -1.
        2   -1    0    0  501    0  0.00000000000E+00  0.00000000000E+00 -0.16354424217E+04  0.16354424217E+04  0.25500000920E-02 0.  1.
    10030    2    1    2    0    0  0.00000000000E+00  0.00000000000E+00 -0.13870860698E+04  0.18837987736E+04  0.12746333020E+04 0.  0.
        3    1    3    3  502    0  0.51148666082E+03  0.21828684710E+03 -0.23347529107E+03  0.60314050897E+03  0.10100000352E+00 0. -1.
       -3    1    3    3    0  502 -0.51148666082E+03 -0.21828684710E+03 -0.11536107787E+04  0.12806582647E+04  0.10100000352E+00 0.  1.
</event>
<event>
 5   0  0.5957913E-04  0.1295826E+04  0.7818609E-02  0.9032882E-01
       -2   -1    0    0    0  501  0.00000000000E+00  0.00000000000E+00  0.31148866594E+03  0.31148866595E+03  0.25500000920E-02 0. -1.
        2   -1    0    0  501    0  0.00000000000E+00  0.00000000000E+00 -0.13476939445E+04  0.13476939446E+04  0.25500000920E-02 0.  1.
    10030    2    1    2    0    0  0.00000000000E+00  0.00000000000E+00 -0.10362052786E+04  0.16591826105E+04  0.12958262058E+04 0.  0.
        1    1    3    3  502    0  0.16666572515E+03 -0.62610884247E+03 -0.51646176549E+03  0.82856653432E+03  0.50400001928E-02 0. -1.
       -1    1    3    3    0  502 -0.16666572515E+03  0.62610884247E+03 -0.51974351312E+03  0.83061607618E+03  0.50400001928E-02 0.  1.
</event>
<event>
 5   0  0.3274879E-04  0.1292888E+04  0.7818609E-02  0.9035224E-01
        1   -1    0    0  501    0  0.00000000000E+00  0.00000000000E+00  0.46762366875E+03  0.46762366877E+03  0.50400001928E-02 0. -1.
       -1   -1    0    0    0  501  0.00000000000E+00  0.00000000000E+00 -0.89364569554E+03  0.89364569555E+03  0.50400001928E-02 0.  1.
    10030    2    1    2    0    0  0.00000000000E+00  0.00000000000E+00 -0.42602202679E+03  0.13612693643E+04  0.12928880520E+04 0.  0.
        4    1    3    3  502    0  0.26208925727E+03 -0.20338778803E+03 -0.79718101474E+03  0.86345616811E+03  0.12699999809E+01 0.  1.
       -4    1    3    3    0  502 -0.26208925727E+03  0.20338778803E+03  0.37115898794E+03  0.49781319622E+03  0.12699999809E+01 0. -1.
</event>
<event>
 5   0  0.5384960E-04  0.1299682E+04  0.7818609E-02  0.9029818E-01
       -2   -1    0    0    0  501  0.00000000000E+00  0.00000000000E+00  0.71379023200E+03  0.71379023201E+03  0.25500000920E-02 0.  1.
        2   -1    0    0  501    0  0.00000000000E+00  0.00000000000E+00 -0.59162077732E+03  0.59162077733E+03  0.25500000920E-02 0. -1.
    10030    2    1    2    0    0  0.00000000000E+00  0.00000000000E+00  0.12216945468E+03  0.13054110093E+04  0.12996817024E+04 0.  0.
        3    1    3    3  502    0 -0.48452417514E+03 -0.26596507831E+03 -0.28217025992E+03  0.62058131213E+03  0.10100000352E+00 0.  1.
       -3    1    3    3    0  502  0.48452417514E+03  0.26596507831E+03  0.40433971460E+03  0.68482969721E+03  0.10100000352E+00 0. -1.
</event>
<event>
 5   0  0.3274879E-04  0.1288182E+04  0.7818609E-02  0.9038990E-01
        1   -1    0    0  501    0  0.00000000000E+00  0.00000000000E+00  0.11213588976E+04  0.11213588976E+04  0.50400001928E-02 0.  1.
       -1   -1    0    0    0  501  0.00000000000E+00  0.00000000000E+00 -0.36995596566E+03  0.36995596569E+03  0.50400001928E-02 0. -1.
    10030    2    1    2    0    0  0.00000000000E+00  0.00000000000E+00  0.75140293190E+03  0.14913148633E+04  0.12881823067E+04 0.  0.
        4    1    3    3  502    0  0.34284421180E+03 -0.54004823140E+03  0.46277905850E+03  0.78953170658E+03  0.12699999809E+01 0. -1.
       -4    1    3    3    0  502 -0.34284421180E+03  0.54004823140E+03  0.28862387340E+03  0.70178315669E+03  0.12699999809E+01 0.  1.
</event>
<event>
 5   0  0.6007125E-04  0.1312969E+04  0.7818609E-02  0.9019343E-01
        2   -1    0    0  501    0  0.00000000000E+00  0.00000000000E+00  0.12797839814E+04  0.12797839814E+04  0.25500000920E-02 0.  1.
       -2   -1    0    0    0  501  0.00000000000E+00  0.00000000000E+00 -0.33675357409E+03  0.33675357410E+03  0.25500000920E-02 0. -1.
    10030    2    1    2    0    0  0.00000000000E+00  0.00000000000E+00  0.94303040731E+03  0.16165375555E+04  0.13129688950E+04 0.  0.
        5    1    3    3  502    0  0.32062865888E+03  0.54718915349E+03  0.68020777170E+03  0.93001258554E+03  0.46999998093E+01 0. -1.
       -5    1    3    3    0  502 -0.32062865888E+03 -0.54718915349E+03  0.26282263561E+03  0.68652496996E+03  0.46999998093E+01 0.  1.
</event>
<event>
 5   0  0.3274879E-04  0.1306515E+04  0.7818609E-02  0.9024414E-01
       -1   -1    0    0    0  501  0.00000000000E+00  0.00000000000E+00  0.66454586945E+03  0.66454586947E+03  0.50400001928E-02 0.  1.
        1   -1    0    0  501    0  0.00000000000E+00  0.00000000000E+00 -0.64216131273E+03  0.64216131275E+03  0.50400001928E-02 0. -1.
    10030    2    1    2    0    0  0.00000000000E+00  0.00000000000E+00  0.22384556719E+02  0.13067071822E+04  0.13065154387E+04 0.  0.
        4    1    3    3  502    0 -0.32696604201E+03 -0.55813848344E+03 -0.80027881497E+02  0.65179094351E+03  0.12699999809E+01 0. -1.
       -4    1    3    3    0  502  0.32696604201E+03  0.55813848344E+03  0.10241243822E+03  0.65491623871E+03  0.12699999809E+01 0.  1.
</event>
<event>
 5   0  0.3335747E-04  0.1303155E+04  0.7818609E-02  0.9027067E-01
        1   -1    0    0  501    0  0.00000000000E+00  0.00000000000E+00  0.10615629787E+04  0.10615629787E+04  0.50400001928E-02 0. -1.
       -1   -1    0    0    0  501  0.00000000000E+00  0.00000000000E+00 -0.39993223970E+03  0.39993223974E+03  0.50400001928E-02 0.  1.
    10030    2    1    2    0    0  0.00000000000E+00  0.00000000000E+00  0.66163073896E+03  0.14614952184E+04  0.13031550325E+04 0.  0.
        3    1    3    3  502    0  0.35314651211E+03  0.20211724978E+03 -0.23992989210E+03  0.47236660021E+03  0.10100000352E+00 0.  1.
       -3    1    3    3    0  502 -0.35314651211E+03 -0.20211724978E+03  0.90156063106E+03  0.98912861820E+03  0.10100000352E+00 0. -1.
</event>
<event>
 5   0  0.5957913E-04  0.1296345E+04  0.7818609E-02  0.9032468E-01
        2   -1    0    0  501    0  0.00000000000E+00  0.00000000000E+00  0.13271979146E+04  0.13271979146E+04  0.25500000920E-02 0.  1.
       -2   -1    0    0    0  501  0.00000000000E+00  0.00000000000E+00 -0.31655244362E+03  0.31655244363E+03  0.25500000920E-02 0. -1.
    10030    2    1    2    0    0  0.00000000000E+00  0.00000000000E+00  0.10106454709E+04  0.16437503582E+04  0.12963452365E+04 0.  0.
        1    1    3    3  502    0  0.19735290145E+03  0.61650237529E+03  0.54746110291E+03  0.84778358422E+03  0.50400001928E-02 0. -1.
       -1    1    3    3    0  502 -0.19735290145E+03 -0.61650237529E+03  0.46318436803E+03  0.79596677396E+03  0.50400001928E-02 0.  1.
</event>
<event>
 5   0  0.5787604E-04  0.1303721E+04  0.7818609E-02  0.9026620E-01
       -2   -1    0    0    0  501  0.00000000000E+00  0.00000000000E+00  0.29195029825E+03  0.29195029826E+03  0.25500000920E-02 0.  1.
        2   -1    0    0  501    0  0.00000000000E+00  0.00000000000E+00 -0.14554594574E+04  0.14554594574E+04  0.25500000920E-02 0. -1.
    10030    2    1    2    0    0  0.00000000000E+00  0.00000000000E+00 -0.11635091592E+04  0.17474097557E+04  0.13037205570E+04 0.  0.
        4    1    3    3  502    0  0.62325774701E+03 -0.11846808975E+03 -0.38099503336E+03  0.74002955065E+03  0.12699999809E+01 0.  1.
       -4    1    3    3    0  502 -0.62325774701E+03  0.11846808975E+03 -0.78251412580E+03  0.10073802050E+04  0.12699999809E+01 0. -1.
</event>
<event>
 5   0  0.5384960E-04  0.1298530E+04  0.7818609E-02  0.9030731E-01
        2   -1    0    0  501    0  0.00000000000E+00  0.00000000000E+00  0.14037995719E+04  0.14037995719E+04  0.25500000920E-02 0. -1.
       -2   -1    0    0    0  501  0.00000000000E+00  0.00000000000E+00 -0.30028878422E+03  0.30028878423E+03  0.25500000920E-02 0.  1.
    10030    2    1    2    0    0  0.00000000000E+00  0.00000000000E+00  0.11035107877E+04  0.17040883561E+04  0.12985303489E+04 0.  0.
        3    1    3    3  502    0  0.27503778398E+03 -0.39397831654E+03 -0.21295526102E+02  0.48095551369E+03  0.10100000352E+00 0.  1.
       -3    1    3    3    0  502 -0.27503778398E+03  0.39397831654E+03  0.11248063138E+04  0.12231328424E+04  0.10100000352E+00 0. -1.
</event>
<event>
 5   0  0.3263679E-04  0.1298890E+04  0.7818609E-02  0.9030446E-01
        1   -1    0    0  501    0  0.00000000000E+00  0.00000000000E+00  0.97807835931E+03  0.97807835932E+03  0.50400001928E-02 0.  1.
       -1   -1    0    0    0  501  0.00000000000E+00  0.00000000000E+00 -0.43123183083E+03  0.43123183086E+03  0.50400001928E-02 0. -1.
    10030    2    1    2    0    0  0.00000000000E+00  0.00000000000E+00  0.54684652848E+03  0.14093101902E+04  0.12988895590E+04 0.  0.
        2    1    3    3  502    0  0.26092651648E+03  0.21398712828E+03  0.87548774654E+03  0.93827071382E+03  0.25500000920E-02 0.  1.
       -2    1    3    3    0  502 -0.26092651648E+03 -0.21398712828E+03 -0.32864121806E+03  0.47103947636E+03  0.25500000920E-02 0. -1.
</event>
<event>
 5   0  0.3263679E-04  0.1300838E+04  0.7818609E-02  0.9028901E-01
        1   -1    0    0  501    0  0.00000000000E+00  0.00000000000E+00  0.10887937630E+04  0.10887937630E+04  0.50400001928E-02 0.  1.
       -1   -1    0    0    0  501  0.00000000000E+00  0.00000000000E+00 -0.38854468175E+03  0.38854468178E+03  0.50400001928E-02 0. -1.
    10030    2    1    2    0    0  0.00000000000E+00  0.00000000000E+00  0.70024908128E+03  0.14773384448E+04  0.13008382316E+04 0.  0.
        2    1    3    3  502    0  0.54099193651E+03  0.18716116793E+03 -0.54830225529E+00  0.57245251226E+03  0.25500000920E-02 0. -1.
       -2    1    3    3    0  502 -0.54099193651E+03 -0.18716116793E+03  0.70079738354E+03  0.90488593255E+03  0.25500000920E-02 0.  1.
</event>
<event>
 5   0  0.6007125E-04  0.1300474E+04  0.7818609E-02  0.9029189E-01
       -2   -1    0    0    0  501  0.00000000000E+00  0.00000000000E+00  0.38995504221E+03  0.38995504221E+03  0.25500000920E-02 0. -1.
        2   -1    0    0  501    0  0.00000000000E+00  0.00000000000E+00 -0.10842482029E+04  0.10842482029E+04  0.25500000920E-02 0.  1.
    10030    2    1    2    0    0  0.00000000000E+00  0.00000000000E+00 -0.69429316073E+03  0.14742032452E+04  0.13004738425E+04 0.  0.
        5    1    3    3  502    0  0.59346781018E+03  0.10740488823E+03 -0.62260204630E+03  0.86683057733E+03  0.46999998093E+01 0.  1.
       -5    1    3    3    0  502 -0.59346781018E+03 -0.10740488823E+03 -0.71691114429E+02  0.60737266782E+03  0.46999998093E+01 0. -1.
</event>
<event>
 5   0  0.3403833E-04  0.1303389E+04  0.7818609E-02  0.9026882E-01
        1   -1    0    0  501    0  0.00000000000E+00  0.00000000000E+00  0.47280822010E+03  0.47280822013E+03  0.50400001928E-02 0.  1.
       -1   -1    0    0    0  501  0.00000000000E+00  0.00000000000E+00 -0.89826262984E+03  0.89826262985E+03  0.50400001928E-02 0. -1.
    10030    2    1    2    0    0  0.00000000000E+00  0.00000000000E+00 -0.42545440974E+03  0.13710708500E+04  0.13033893589E+04 0.  0.
        1    1    3    3  502    0  0.28919335292E+03  0.57742402865E+03 -0.12069317840E+03  0.65697651980E+03  0.50400001928E-02 0. -1.
       -1    1    3    3    0  502 -0.28919335292E+03 -0.57742402865E+03 -0.30476123133E+03  0.71409433017E+03  0.50400001928E-02 0.  1.
</event>
<event>
 5   0  0.5384960E-04  0.1288719E+04  0.7818609E-02  0.9038560E-01
       -2   -1    0    0    0  501  0.00000000000E+00  0.00000000000E+00  0.68039020873E+03  0.68039020874E+03  0.25500000920E-02 0.  1.
        2   -1    0    0  501    0  0.00000000000E+00  0.00000000000E+00 -0.61023643781E+03  0.61023643782E+03  0.25500000920E-02 0. -1.
    10030    2    1    2    0    0  0.00000000000E+00  0.00000000000E+00  0.70153770923E+02  0.12906266466E+04  0.12887185842E+04 0.  0.
        3    1    3    3  502    0 -0.49584787544E+03 -0.26361974206E+02  0.44634146822E+03  0.66766817036E+03  0.10100000352E+00 0.  1.
       -3    1    3    3    0  502  0.49584787544E+03  0.26361974206E+02 -0.37618769729E+03  0.62295847619E+03  0.10100000352E+00 0. -1.
</event>
<event>
 5   0  0.2255875E-04  0.1304929E+04  0.7818609E-02  0.9025666E-01
       -4   -1    0    0    0  501  0.00000000000E+00  0.00000000000E+00  0.63160917654E+03  0.63161045336E+03  0.12699999809E+01 0. -1.
        4   -1    0    0  501    0  0.00000000000E+00  0.00000000000E+00 -0.67400573766E+03  0.67400693416E+03  0.12699999809E+01 0.  1.
    10030    2    1    2    0    0  0.00000000000E+00  0.00000000000E+00 -0.42396561115E+02  0.13056173875E+04  0.13049288464E+04 0.  0.
        3    1    3    3  502    0 -0.30867752089E+03 -0.37467092234E+03  0.41497864734E+03  0.63864497171E+03  0.10100000352E+00 0. -1.
       -3    1    3    3    0  502  0.30867752089E+03  0.37467092234E+03 -0.45737520845E+03  0.66697241581E+03  0.10100000352E+00 0.  1.
</event>
<event>
 5   0  0.3274879E-04  0.1301748E+04  0.7818609E-02  0.9028180E-01
       -1   -1    0    0    0  501  0.00000000000E+00  0.00000000000E+00  0.16461139098E+04  0.16461139098E+04  0.50400001928E-02 0.  1.
        1   -1    0    0  501    0  0.00000000000E+00  0.00000000000E+00 -0.25735566086E+03  0.25735566090E+03  0.50400001928E-02 0. -1.
    10030    2    1    2    0    0  0.00000000000E+00  0.00000000000E+00  0.13887582490E+04  0.19034695707E+04  0.13017476455E+04 0.  0.
        4    1    3    3  502    0 -0.36858409450E+03 -0.36840488896E+03  0.12418228259E+03  0.53572310865E+03  0.12699999809E+01 0. -1.
       -4    1    3    3    0  502  0.36858409450E+03  0.36840488896E+03  0.12645759664E+04  0.13677464621E+04  0.12699999809E+01 0.  1.
</event>
<event>
 5   0  0.3337520E-04  0.1291477E+04  0.7818609E-02  0.9036351E-01
        1   -1    0    0  501    0  0.00000000000E+00  0.00000000000E+00  0.57484763986E+03  0.57484763988E+03  0.50400001928E-02 0.  1.
       -1   -1    0    0    0  501  0.00000000000E+00  0.00000000000E+00 -0.72537213530E+03  0.72537213532E+03  0.50400001928E-02 0. -1.
    10030    2    1    2    0    0  0.00000000000E+00  0.00000000000E+00 -0.15052449544E+03  0.13002197752E+04  0.12914773866E+04 0.  0.
        5    1    3    3  502    0 -0.91289486110E+02  0.37944943804E+03  0.44265252475E+03  0.59015167031E+03  0.46999998093E+01 0.  1.
       -5    1    3    3    0  502  0.91289486110E+02 -0.37944943804E+03 -0.59317702019E+03  0.71006810489E+03  0.46999998093E+01 0. -1.
</event>
<event>
 5   0  0.5787604E-04  0.1316558E+04  0.7818609E-02  0.9016536E-01
        2   -1    0    0  501    0  0.00000000000E+00  0.00000000000E+00  0.83387119612E+03  0.83387119612E+03  0.25500000920E-02 0.  1.
       -2   -1    0    0    0  501  0.00000000000E+00  0.00000000000E+00 -0.51966244624E+03  0.51966244625E+03  0.25500000920E-02 0. -1.
    10030    2    1    2    0    0  0.00000000000E+00  0.00000000000E+00  0.31420874987E+03  0.13535336424E+04  0.13165584615E+04 0.  0.
        4    1    3    3  502    0  0.40658912451E+03  0.51182820015E+03  0.77157251145E+02  0.65820792835E+03  0.12699999809E+01 0. -1.
       -4    1    3    3    0  502 -0.40658912451E+03 -0.51182820015E+03  0.23705149873E+03  0.69532571402E+03  0.12699999809E+01 0.  1.
</event>
<event>
 5   0  0.3337520E-04  0.1303506E+04  0.7818609E-02  0.9026789E-01
        1   -1    0    0  501    0  0.00000000000E+00  0.00000000000E+00  0.11723556093E+04  0.11723556093E+04  0.50400001928E-02 0. -1.
       -1   -1    0    0    0  501  0.00000000000E+00  0.00000000000E+00 -0.36233220072E+03  0.36233220075E+03  0.50400001928E-02 0.  1.
    10030    2    1    2    0    0  0.00000000000E+00  0.00000000000E+00  0.81002340858E+03  0.15346878101E+04  0.13035063298E+04 0.  0.
        5    1    3    3  502    0  0.57701661126E+03 -0.26801836193E+03  0.23860001166E+03  0.67951016737E+03  0.46999998093E+01 0.  1.
       -5    1    3    3    0  502 -0.57701661126E+03  0.26801836193E+03  0.57142339692E+03  0.85517764269E+03  0.46999998093E+01 0. -1.
</event>
<event>
 5   0  0.6052864E-04  0.1301114E+04  0.7818609E-02  0.9028683E-01
       -2   -1    0    0    0  501  0.00000000000E+00  0.00000000000E+00  0.34738687719E+03  0.34738687720E+03  0.25500000920E-02 0. -1.
        2   -1    0    0  501    0  0.00000000000E+00  0.00000000000E+00 -0.12183077763E+04  0.12183077763E+04  0.25500000920E-02 0.  1.
    10030    2    1    2    0    0  0.00000000000E+00  0.00000000000E+00 -0.87092089915E+03  0.15656946536E+04  0.13011135752E+04 0.  0.
        2    1    3    3  502    0  0.44181346064E+03  0.44999994732E+03 -0.62771434058E+03  0.88978895249E+03  0.25500000920E-02 0.  1.
       -2    1    3    3    0  502 -0.44181346064E+03 -0.44999994732E+03 -0.24320655857E+03  0.67590570106E+03  0.25500000920E-02 0. -1.
</event>
<event>
 5   0  0.3263679E-04  0.1300504E+04  0.7818609E-02  0.9029166E-01
        1   -1    0    0  501    0  0.00000000000E+00  0.00000000000E+00  0.11861324876E+04  0.11861324876E+04  0.50400001928E-02 0. -1.
       -1   -1    0    0    0  501  0.00000000000E+00  0.00000000000E+00 -0.35647581970E+03  0.35647581973E+03  0.50400001928E-02 0.  1.
    10030    2    1    2    0    0  0.00000000000E+00  0.00000000000E+00  0.82965666789E+03  0.15426083073E+04  0.13005038267E+04 0.  0.
        2    1    3    3  502    0  0.54728179263E+03  0.43111767784E+02  0.14520180371E+01  0.54897913752E+03  0.25500000920E-02 0.  1.
       -2    1    3    3    0  502 -0.54728179263E+03 -0.43111767784E+02  0.82820464985E+03  0.99362916982E+03  0.25500000920E-02 0. -1.
</event>
<event>
 5   0  0.3274879E-04  0.1293939E+04  0.7818609E-02  0.9034386E-01
       -1   -1    0    0    0  501  0.00000000000E+00  0.00000000000E+00  0.66458395052E+03  0.66458395054E+03  0.50400001928E-02 0. -1.
        1   -1    0    0  501    0  0.00000000000E+00  0.00000000000E+00 -0.62982147675E+03  0.62982147677E+03  0.50400001928E-02 0.  1.
    10030    2    1    2    0    0  0.00000000000E+00  0.00000000000E+00  0.34762473775E+02  0.12944054273E+04  0.12939385537E+04 0.  0.
        4    1    3    3  502    0  0.30534480076E+03 -0.29884038760E+03  0.50338222733E+03  0.66025472683E+03  0.12699999809E+01 0. -1.
       -4    1    3    3    0  502 -0.30534480076E+03  0.29884038760E+03 -0.46861975355E+03  0.63415070049E+03  0.12699999809E+01 0.  1.
</event>
<event>
 5   0  0.6052864E-04  0.1302047E+04  0.7818609E-02  0.9027944E-01
        2   -1    0    0  501    0  0.00000000000E+00  0.00000000000E+00  0.24677859393E+03  0.24677859394E+03  0.25500000920E-02 0.  1.
       -2   -1    0    0    0  501  0.00000000000E+00  0.00000000000E+00 -0.17174562928E+04  0.17174562928E+04  0.25500000920E-02 0. -1.
    10030    2    1    2    0    0  0.00000000000E+00  0.00000000000E+00 -0.14706776988E+04  0.19642348867E+04  0.13020467719E+04 0.  0.
        2    1    3    3  502    0 -0.64519247323E+03 -0.19751716360E+02 -0.60761689113E+03  0.88648843433E+03  0.25500000920E-02 0. -1.
       -2    1    3    3    0  502  0.64519247323E+03  0.19751716360E+02 -0.86306080770E+03  0.10777464524E+04  0.25500000920E-02 0.  1.
</event>
<event>
 5   0  0.5957913E-04  0.1299441E+04  0.7818609E-02  0.9030009E-01
       -2   -1    0    0    0  501  0.00000000000E+00  0.00000000000E+00  0.37423118864E+03  0.37423118865E+03  0.25500000920E-02 0. -1.
        2   -1    0    0  501    0  0.00000000000E+00  0.00000000000E+00 -0.11280106345E+04  0.11280106345E+04  0.25500000920E-02 0.  1.
    10030    2    1    2    0    0  0.00000000000E+00  0.00000000000E+00 -0.75377944581E+03  0.15022418231E+04  0.12994410499E+04 0.  0.
        1    1    3    3  502    0 -0.19823804117E+03 -0.15613275583E+03  0.31526665306E+03  0.40381780665E+03  0.50400001928E-02 0. -1.
       -1    1    3    3    0  502  0.19823804117E+03  0.15613275583E+03 -0.10690460989E+04  0.10984240165E+04  0.50400001928E-02 0.  1.
</event>
<event>
 5   0  0.3263679E-04  0.1296047E+04  0.7818609E-02  0.9032706E-01
        1   -1    0    0  501    0  0.00000000000E+00  0.00000000000E+00  0.60989128071E+03  0.60989128073E+03  0.50400001928E-02 0. -1.
       -1   -1    0    0    0  501  0.00000000000E+00  0.00000000000E+00 -0.68854024550E+03  0.68854024552E+03  0.50400001928E-02 0.  1.
    10030    2    1    2    0    0  0.00000000000E+00  0.00000000000E+00 -0.78648964796E+02  0.12984315263E+04  0.12960473636E+04 0.  0.
        2    1    3    3  502    0  0.60745320589E+03  0.20923499225E+03 -0.12407331691E+03  0.65434919370E+03  0.25500000920E-02 0. -1.
       -2    1    3    3    0  502 -0.60745320589E+03 -0.20923499225E+03  0.45424352114E+02  0.64408233255E+03  0.25500000920E-02 0.  1.
</event>
<event>
 5   0  0.3403833E-04  0.1301662E+04  0.7818609E-02  0.9028248E-01
       -1   -1    0    0    0  501  0.00000000000E+00  0.00000000000E+00  0.42582875073E+03  0.42582875076E+03  0.50400001928E-02 0. -1.
        1   -1    0    0  501    0  0.00000000000E+00  0.00000000000E+00 -0.99472200182E+03  0.99472200183E+03  0.50400001928E-02 0.  1.
    10030    2    1    2    0    0  0.00000000000E+00  0.00000000000E+00 -0.56889325109E+03  0.14205507526E+04  0.13016623639E+04 0.  0.
        1    1    3    3  502    0 -0.51926692283E+03 -0.75475835710E+02  0.13574811688E+03  0.54199842268E+03  0.50400001928E-02 0. -1.
       -1    1    3    3    0  502  0.51926692283E+03  0.75475835710E+02 -0.70464136797E+03  0.87855232992E+03  0.50400001928E-02 0.  1.
</event>
<event>
 5   0  0.3274879E-04  0.1295655E+04  0.7818609E-02  0.9033018E-01
        1   -1    0    0  501    0  0.00000000000E+00  0.00000000000E+00  0.21966385076E+04  0.21966385076E+04  0.50400001928E-02 0. -1.
       -1   -1    0    0    0  501  0.00000000000E+00  0.00000000000E+00 -0.19105590225E+03  0.19105590231E+03  0.50400001928E-02 0.  1.
    10030    2    1    2    0    0  0.00000000000E+00  0.00000000000E+00  0.20055826054E+04  0.23876944099E+04  0.12956554358E+04 0.  0.
        4    1    3    3  502    0 -0.26541204632E+03 -0.32591666432E+03  0.19112491699E+04  0.19569211095E+04  0.12699999809E+01 0. -1.
       -4    1    3    3    0  502  0.26541204632E+03  0.32591666432E+03  0.94333435442E+02  0.43077330042E+03  0.12699999809E+01 0.  1.
</event>
<event>
 5   0  0.5787604E-04  0.1301786E+04  0.7818609E-02  0.9028150E-01
        2   -1    0    0  501    0  0.00000000000E+00  0.00000000000E+00  0.73982271421E+03  0.73982271421E+03  0.25500000920E-02 0. -1.
       -2   -1    0    0    0  501  0.00000000000E+00  0.00000000000E+00 -0.57265321402E+03  0.57265321403E+03  0.25500000920E-02 0.  1.
    10030    2    1    2    0    0  0.00000000000E+00  0.00000000000E+00  0.16716950019E+03  0.13124759282E+04  0.13017862422E+04 0.  0.
        4    1    3    3  502    0  0.12185073796E+03  0.33721003116E+03  0.63127848297E+03  0.72599748169E+03  0.12699999809E+01 0. -1.
       -4    1    3    3    0  502 -0.12185073796E+03 -0.33721003116E+03 -0.46410898279E+03  0.58647844655E+03  0.12699999809E+01 0.  1.
</event>
<event>
 5   0  0.3335747E-04  0.1301604E+04  0.7818609E-02  0.9028294E-01
       -1   -1    0    0    0  501  0.00000000000E+00  0.00000000000E+00  0.29405707541E+03  0.29405707545E+03  0.50400001928E-02 0. -1.
        1   -1    0    0  501    0  0.00000000000E+00  0.00000000000E+00 -0.14403428010E+04  0.14403428010E+04  0.50400001928E-02 0.  1.
    10030    2    1    2    0    0  0.00000000000E+00  0.00000000000E+00 -0.11462857256E+04  0.17343998765E+04  0.13016036135E+04 0.  0.
        3    1    3    3  502    0 -0.64582894161E+03  0.91209508316E+01 -0.46683588422E+03  0.79694037830E+03  0.10100000352E+00 0. -1.
       -3    1    3    3    0  502  0.64582894161E+03 -0.91209508316E+01 -0.67944984140E+03  0.93745949819E+03  0.10100000352E+00 0.  1.
</event>
<event>
 5   0  0.3403833E-04  0.1302629E+04  0.7818609E-02  0.9027483E-01
       -1   -1    0    0    0  501  0.00000000000E+00  0.00000000000E+00  0.72964365102E+03  0.72964365104E+03  0.50400001928E-02 0.  1.
        1   -1    0    0  501    0  0.00000000000E+00  0.00000000000E+00 -0.58139459073E+03  0.58139459076E+03  0.50400001928E-02 0. -1.
    10030    2    1    2    0    0  0.00000000000E+00  0.00000000000E+00  0.14824906029E+03  0.13110382418E+04  0.13026294514E+04 0.  0.
        1    1    3    3  502    0  0.59403502426E+03  0.32390117250E+02  0.34094745531E+03  0.68569081739E+03  0.50400001928E-02 0.  1.
       -1    1    3    3    0  502 -0.59403502426E+03 -0.32390117250E+02 -0.19269839503E+03  0.62534742441E+03  0.50400001928E-02 0. -1.
</event>
<event>
 5   0  0.3403833E-04  0.1296104E+04  0.7818609E-02  0.9032660E-01
       -1   -1    0    0    0  501  0.00000000000E+00  0.00000000000E+00  0.43428501962E+03  0.43428501964E+03  0.50400001928E-02 0.  1.
        1   -1    0    0  501    0  0.00000000000E+00  0.00000000000E+00 -0.96704132189E+03  0.96704132190E+03  0.50400001928E-02 0. -1.
    10030    2    1    2    0    0  0.00000000000E+00  0.00000000000E+00 -0.53275630227E+03  0.14013263415E+04  0.12961042543E+04 0.  0.
        1    1    3    3  502    0  0.57816238248E+03  0.13171914801E+03 -0.54904068235E+03  0.80812582273E+03  0.50400001928E-02 0. -1.
       -1    1    3    3    0  502 -0.57816238248E+03 -0.13171914801E+03  0.16284380078E+02  0.59320051881E+03  0.50400001928E-02 0.  1.
</event>
<event>
 5   0  0.5787604E-04  0.1299398E+04  0.7818609E-02  0.9030043E-01
        2   -1    0    0  501    0  0.00000000000E+00  0.00000000000E+00  0.26722853511E+04  0.26722853511E+04  0.25500000920E-02 0.  1.
       -2   -1    0    0    0  501  0.00000000000E+00  0.00000000000E+00 -0.15795802646E+03  0.15795802648E+03  0.25500000920E-02 0. -1.
    10030    2    1    2    0    0  0.00000000000E+00  0.00000000000E+00  0.25143273246E+04  0.28302433776E+04  0.12993981995E+04 0.  0.
        4    1    3    3  502    0  0.43073161618E+03 -0.48248997434E+03  0.13910959393E+04  0.15341042422E+04  0.12699999809E+01 0.  1.
       -4    1    3    3    0  502 -0.43073161618E+03  0.48248997434E+03  0.11232313853E+04  0.12961391354E+04  0.12699999809E+01 0. -1.
</event>
<event>
 5   0  0.5384960E-04  0.1300527E+04  0.7818609E-02  0.9029147E-01
       -2   -1    0    0    0  501  0.00000000000E+00  0.00000000000E+00  0.60702481168E+03  0.60702481169E+03  0.25500000920E-02 0. -1.
        2   -1    0    0  501    0  0.00000000000E+00  0.00000000000E+00 -0.69658234983E+03  0.69658234984E+03  0.25500000920E-02 0.  1.
    10030    2    1    2    0    0  0.00000000000E+00  0.00000000000E+00 -0.89557538151E+02  0.13036071615E+04  0.13005272311E+04 0.  0.
        3    1    3    3  502    0 -0.15059936724E+03 -0.28478262209E+03 -0.61097171415E+03  0.69070091715E+03  0.10100000352E+00 0.  1.
       -3    1    3    3    0  502  0.15059936724E+03  0.28478262209E+03  0.52141417600E+03  0.61290624437E+03  0.10100000352E+00 0. -1.
</event>
<event>
 5   0  0.6007125E-04  0.1257631E+04  0.7818609E-02  0.9063856E-01
       -2   -1    0    0    0  501  0.00000000000E+00  0.00000000000E+00  0.16729824163E+03  0.16729824165E+03  0.25500000920E-02 0.  1.
        2   -1    0    0  501    0  0.00000000000E+00  0.00000000000E+00 -0.23634985531E+04  0.23634985531E+04  0.25500000920E-02 0. -1.
    10030    2    1    2    0    0  0.00000000000E+00  0.00000000000E+00 -0.21962003115E+04  0.25307967947E+04  0.12576313483E+04 0.  0.
        5    1    3    3  502    0  0.81717378585E+02 -0.59066819387E+03 -0.69653425950E+03  0.91692350274E+03  0.46999998093E+01 0. -1.
       -5    1    3    3    0  502 -0.81717378585E+02  0.59066819387E+03 -0.14996660520E+04  0.16138732920E+04  0.46999998093E+01 0.  1.
</event>
<event>
 5   0  0.5384960E-04  0.1299371E+04  0.7818609E-02  0.9030064E-01
       -2   -1    0    0    0  501  0.00000000000E+00  0.00000000000E+00  0.13926496522E+04  0.13926496522E+04  0.25500000920E-02 0. -1.
        2   -1    0    0  501    0  0.00000000000E+00  0.00000000000E+00 -0.30308516644E+03  0.30308516646E+03  0.25500000920E-02 0.  1.
    10030    2    1    2    0    0  0.00000000000E+00  0.00000000000E+00  0.10895644858E+04  0.16957348187E+04  0.12993713121E+04 0.  0.
        3    1    3    3  502    0  0.20247324582E+03  0.56903158157E+03  0.85717323933E+03  0.10485887318E+04  0.10100000352E+00 0. -1.
       -3    1    3    3    0  502 -0.20247324582E+03 -0.56903158157E+03  0.23239124644E+03  0.64714608685E+03  0.10100000352E+00 0.  1.
</event>
<event>
 5   0  0.3335747E-04  0.1302408E+04  0.7818609E-02  0.9027658E-01
       -1   -1    0    0    0  501  0.00000000000E+00  0.00000000000E+00  0.63666855197E+03  0.63666855199E+03  0.50400001928E-02 0.  1.
        1   -1    0    0  501    0  0.00000000000E+00  0.00000000000E+00 -0.66607124332E+03  0.66607124334E+03  0.50400001928E-02 0. -1.
    10030    2    1    2    0    0  0.00000000000E+00  0.00000000000E+00 -0.29402691358E+02  0.13027397953E+04  0.13024079453E+04 0.  0.
        3    1    3    3  502    0  0.18028110289E+03  0.59583264776E+01  0.61118152914E+03  0.63724379124E+03  0.10100000352E+00 0.  1.
       -3    1    3    3    0  502 -0.18028110289E+03 -0.59583264776E+01 -0.64058422049E+03  0.66549600409E+03  0.10100000352E+00 0. -1.
</event>
<event>
 5   0  0.6007125E-04  0.1305757E+04  0.7818609E-02  0.9025012E-01
        2   -1    0    0  501    0  0.00000000000E+00  0.00000000000E+00  0.96043509882E+03  0.96043509882E+03  0.25500000920E-02 0. -1.
       -2   -1    0    0    0  501  0.00000000000E+00  0.00000000000E+00 -0.44380958685E+03  0.44380958686E+03  0.25500000920E-02 0.  1.
    10030    2    1    2    0    0  0.00000000000E+00  0.00000000000E+00  0.51662551196E+03  0.14042446857E+04  0.13057569520E+04 0.  0.
        5    1    3    3  502    0  0.27343495627E+03  0.27438775545E+01  0.89586340739E+03  0.93667899457E+03  0.46999998093E+01 0. -1.
       -5    1    3    3    0  502 -0.27343495627E+03 -0.27438775545E+01 -0.37923789543E+03  0.46756569111E+03  0.46999998093E+01 0.  1.
</event>
<event>
 5   0  0.6052864E-04  0.1298660E+04  0.7818609E-02  0.9030628E-01
        2   -1    0    0  501    0  0.00000000000E+00  0.00000000000E+00  0.19016449072E+04  0.19016449072E+04  0.25500000920E-02 0.  1.
       -2   -1    0    0    0  501  0.00000000000E+00  0.00000000000E+00 -0.22171838568E+03  0.22171838570E+03  0.25500000920E-02 0. -1.
    10030    2    1    2    0    0  0.00000000000E+00  0.00000000000E+00  0.16799265216E+04  0.21233632929E+04  0.12986602928E+04 0.  0.
        2    1    3    3  502    0 -0.15051478012E+03  0.60188463695E+03  0.52669247736E+03  0.81383338648E+03  0.25500000920E-02 0.  1.
       -2    1    3    3    0  502  0.15051478012E+03 -0.60188463695E+03  0.11532340442E+04  0.13095299065E+04  0.25500000920E-02 0. -1.
</event>
<event>
 5   0  0.6007125E-04  0.1294698E+04  0.7818609E-02  0.9033781E-01
       -2   -1    0    0    0  501  0.00000000000E+00  0.00000000000E+00  0.33418214686E+03  0.33418214687E+03  0.25500000920E-02 0. -1.
        2   -1    0    0  501    0  0.00000000000E+00  0.00000000000E+00 -0.12539882207E+04  0.12539882207E+04  0.25500000920E-02 0.  1.
    10030    2    1    2    0    0  0.00000000000E+00  0.00000000000E+00 -0.91980607381E+03  0.15881703675E+04  0.12946976106E+04 0.  0.
        5    1    3    3  502    0 -0.11764320639E+03 -0.61701559323E+03 -0.65186937489E+03  0.90526456808E+03  0.46999998093E+01 0. -1.
       -5    1    3    3    0  502  0.11764320639E+03  0.61701559323E+03 -0.26793669892E+03  0.68290579945E+03  0.46999998093E+01 0.  1.
</event>
<event>
 5   0  0.3403833E-04  0.1297525E+04  0.7818609E-02  0.9031530E-01
        1   -1    0    0  501    0  0.00000000000E+00  0.00000000000E+00  0.65673959819E+03  0.65673959821E+03  0.50400001928E-02 0. -1.
       -1   -1    0    0    0  501  0.00000000000E+00  0.00000000000E+00 -0.64088219539E+03  0.64088219541E+03  0.50400001928E-02 0.  1.
    10030    2    1    2    0    0  0.00000000000E+00  0.00000000000E+00  0.15857402807E+02  0.12976217936E+04  0.12975248984E+04 0.  0.
        1    1    3    3  502    0 -0.37845528579E+03 -0.44171703244E+03 -0.27940856572E+03  0.64529953255E+03  0.50400001928E-02 0.  1.
       -1    1    3    3    0  502  0.37845528579E+03  0.44171703244E+03  0.29526596853E+03  0.65232226107E+03  0.50400001928E-02 0. -1.
</event>
<event>
 5   0  0.6052864E-04  0.1299800E+04  0.7818609E-02  0.9029724E-01
       -2   -1    0    0    0  501  0.00000000000E+00  0.00000000000E+00  0.76527707587E+03  0.76527707588E+03  0.25500000920E-02 0. -1.
        2   -1    0    0  501    0  0.00000000000E+00  0.00000000000E+00 -0.55191775332E+03  0.55191775333E+03  0.25500000920E-02 0.  1.
    10030    2    1    2    0    0  0.00000000000E+00  0.00000000000E+00  0.21335932255E+03  0.13171948292E+04  0.12997999914E+04 0.  0.
        2    1    3    3  502    0 -0.35521393740E+03 -0.21793450284E+03 -0.39869015316E+03  0.57673757211E+03  0.25500000920E-02 0.  1.
       -2    1    3    3    0  502  0.35521393740E+03  0.21793450284E+03  0.61204947572E+03  0.74045725709E+03  0.25500000920E-02 0. -1.
</event>
<event>
 5   0  0.3337520E-04  0.1299605E+04  0.7818609E-02  0.9029878E-01
       -1   -1    0    0    0  501  0.00000000000E+00  0.00000000000E+00  0.23256163371E+03  0.23256163376E+03  0.50400001928E-02 0.  1.
        1   -1    0    0  501    0  0.00000000000E+00  0.00000000000E+00 -0.18156194990E+04  0.18156194990E+04  0.50400001928E-02 0. -1.
    10030    2    1    2    0    0  0.00000000000E+00  0.00000000000E+00 -0.15830578653E+04  0.20481811328E+04  0.12996052277E+04 0.  0.
        5    1    3    3  502    0 -0.49816723071E+03  0.32676800910E+03 -0.38275924571E+03  0.70814874970E+03  0.46999998093E+01 0.  1.
       -5    1    3    3    0  502  0.49816723071E+03 -0.32676800910E+03 -0.12002986196E+04  0.13400323831E+04  0.46999998093E+01 0. -1.
</event>
<event>
 5   0  0.3335747E-04  0.1237061E+04  0.7818609E-02  0.9081022E-01
        1   -1    0    0  501    0  0.00000000000E+00  0.00000000000E+00  0.55994659395E+03  0.55994659397E+03  0.50400001928E-02 0. -1.
       -1   -1    0    0    0  501  0.00000000000E+00  0.00000000000E+00 -0.68324340798E+03  0.68324340800E+03  0.50400001928E-02 0.  1.
    10030    2    1    2    0    0  0.00000000000E+00  0.00000000000E+00 -0.12329681403E+03  0.12431900020E+04  0.12370607409E+04 0.  0.
        3    1    3    3  502    0 -0.30606186083E+03  0.25277147271E+03 -0.53835354701E+03  0.66887355446E+03  0.10100000352E+00 0.  1.
       -3    1    3    3    0  502  0.30606186083E+03 -0.25277147271E+03  0.41505673299E+03  0.57431644750E+03  0.10100000352E+00 0. -1.
</event>
<event>
 5   0  0.5787604E-04  0.1299272E+04  0.7818609E-02  0.9030143E-01
        2   -1    0    0  501    0  0.00000000000E+00  0.00000000000E+00  0.11590964005E+04  0.11590964005E+04  0.25500000920E-02 0. -1.
       -2   -1    0    0    0  501  0.00000000000E+00  0.00000000000E+00 -0.36409985139E+03  0.36409985140E+03  0.25500000920E-02 0.  1.
    10030    2    1    2    0    0  0.00000000000E+00  0.00000000000E+00  0.79499654910E+03  0.15231962519E+04  0.12992718379E+04 0.  0.
        4    1    3    3  502    0  0.12335865097E+03 -0.54172599579E+03  0.28147662862E+01  0.55560232819E+03  0.12699999809E+01 0.  1.
       -4    1    3    3    0  502 -0.12335865097E+03  0.54172599579E+03  0.79218178282E+03  0.96759392371E+03  0.12699999809E+01 0. -1.
</event>
<event>
 5   0  0.3335747E-04  0.1299207E+04  0.7818609E-02  0.9030194E-01
       -1   -1    0    0    0  501  0.00000000000E+00  0.00000000000E+00  0.86495493558E+03  0.86495493559E+03  0.50400001928E-02 0.  1.
        1   -1    0    0  501    0  0.00000000000E+00  0.00000000000E+00 -0.48786925134E+03  0.48786925137E+03  0.50400001928E-02 0. -1.
    10030    2    1    2    0    0  0.00000000000E+00  0.00000000000E+00  0.37708568423E+03  0.13528241870E+04  0.12992073228E+04 0.  0.
        3    1    3    3  502    0 -0.54658120071E+03  0.31176412743E+03  0.35656191839E+03  0.72324566502E+03  0.10100000352E+00 0. -1.
       -3    1    3    3    0  502  0.54658120071E+03 -0.31176412743E+03  0.20523765840E+02  0.62957852194E+03  0.10100000352E+00 0.  1.
</event>
<event>
 5   0  0.3274879E-04  0.1307824E+04  0.7818609E-02  0.9023384E-01
       -1   -1    0    0    0  501  0.00000000000E+00  0.00000000000E+00  0.51346943069E+03  0.51346943071E+03  0.50400001928E-02 0. -1.
        1   -1    0    0  501    0  0.00000000000E+00  0.00000000000E+00 -0.83276761605E+03  0.83276761607E+03  0.50400001928E-02 0.  1.
    10030    2    1    2    0    0  0.00000000000E+00  0.00000000000E+00 -0.31929818537E+03  0.13462370468E+04  0.13078237094E+04 0.  0.
        4    1    3    3  502    0 -0.26463509649E+03  0.59794563359E+03 -0.15416476988E+03  0.67181776115E+03  0.12699999809E+01 0. -1.
       -4    1    3    3    0  502  0.26463509649E+03 -0.59794563359E+03 -0.16513341549E+03  0.67441928563E+03  0.12699999809E+01 0.  1.
</event>
<event>
 5   0  0.3335747E-04  0.1297028E+04  0.7818609E-02  0.9031925E-01
       -1   -1    0    0    0  501  0.00000000000E+00  0.00000000000E+00  0.47992666214E+03  0.47992666216E+03  0.50400001928E-02 0. -1.
        1   -1    0    0  501    0  0.00000000000E+00  0.00000000000E+00 -0.87632231761E+03  0.87632231762E+03  0.50400001928E-02 0.  1.
    10030    2    1    2    0    0  0.00000000000E+00  0.00000000000E+00 -0.39639565547E+03  0.13562489798E+04  0.12970280566E+04 0.  0.
        3    1    3    3  502    0 -0.33009589283E+03 -0.30650496033E+03  0.28964644131E+03  0.53554053099E+03  0.10100000352E+00 0. -1.
       -3    1    3    3    0  502  0.33009589283E+03  0.30650496033E+03 -0.68604209678E+03  0.82070844879E+03  0.10100000352E+00 0.  1.
</event>
<event>
 5   0  0.5384960E-04  0.1304499E+04  0.7818609E-02  0.9026005E-01
        2   -1    0    0  501    0  0.00000000000E+00  0.00000000000E+00  0.93708554006E+03  0.93708554006E+03  0.25500000920E-02 0. -1.
       -2   -1    0    0    0  501  0.00000000000E+00  0.00000000000E+00 -0.45399219809E+03  0.45399219810E+03  0.25500000920E-02 0.  1.
    10030    2    1    2    0    0  0.00000000000E+00  0.00000000000E+00  0.48309334197E+03  0.13910777382E+04  0.13044991746E+04 0.  0.
        3    1    3    3  502    0  0.34334907977E+03  0.50326655720E+03  0.48995278244E+03  0.78180531937E+03  0.10100000352E+00 0.  1.
       -3    1    3    3    0  502 -0.34334907977E+03 -0.50326655720E+03 -0.68594404733E+01  0.60927241879E+03  0.10100000352E+00 0. -1.
</event>
<event>
 5   0  0.3274879E-04  0.1303069E+04  0.7818609E-02  0.9027135E-01
        1   -1    0    0  501    0  0.00000000000E+00  0.00000000000E+00  0.11363761990E+04  0.11363761991E+04  0.50400001928E-02 0. -1.
       -1   -1    0    0    0  501  0.00000000000E+00  0.00000000000E+00 -0.37355335146E+03  0.37355335150E+03  0.50400001928E-02 0.  1.
    10030    2    1    2    0    0  0.00000000000E+00  0.00000000000E+00  0.76282284758E+03  0.15099295506E+04  0.13030688972E+04 0.  0.
        4    1    3    3  502    0  0.23240459172E+02 -0.47928111992E+03 -0.12928668055E+03  0.49695791525E+03  0.12699999809E+01 0.  1.
       -4    1    3    3    0  502 -0.23240459172E+02  0.47928111992E+03  0.89210952813E+03  0.10129716353E+04  0.12699999809E+01 0. -1.
</event>
<event>
 5   0  0.3337520E-04  0.1300524E+04  0.7818609E-02  0.9029150E-01
        1   -1    0    0  501    0  0.00000000000E+00  0.00000000000E+00  0.22383185908E+04  0.22383185908E+04  0.50400001928E-02 0. -1.
       -1   -1    0    0    0  501  0.00000000000E+00  0.00000000000E+00 -0.18890992344E+03  0.18890992351E+03  0.50400001928E-02 0.  1.
    10030    2    1    2    0    0  0.00000000000E+00  0.00000000000E+00  0.20494086674E+04  0.24272285143E+04  0.13005238848E+04 0.  0.
        5    1    3    3  502    0  0.32384578439E+03 -0.10686810829E+03 -0.85872410029E+01  0.34116376617E+03  0.46999998093E+01 0.  1.
       -5    1    3    3    0  502 -0.32384578439E+03  0.10686810829E+03  0.20579959084E+04  0.20860647481E+04  0.46999998093E+01 0. -1.
</event>
<event>
 5   0  0.6007125E-04  0.1299953E+04  0.7818609E-02  0.9029603E-01
       -2   -1    0    0    0  501  0.00000000000E+00  0.00000000000E+00  0.24231524425E+03  0.24231524427E+03  0.25500000920E-02 0. -1.
        2   -1    0    0  501    0  0.00000000000E+00  0.00000000000E+00 -0.17434696993E+04  0.17434696993E+04  0.25500000920E-02 0.  1.
    10030    2    1    2    0    0  0.00000000000E+00  0.00000000000E+00 -0.15011544550E+04  0.19857849435E+04  0.12999527469E+04 0.  0.
        5    1    3    3  502    0  0.41756528903E+03  0.33239871258E+03 -0.18393367344E+03  0.56453818378E+03  0.46999998093E+01 0.  1.
       -5    1    3    3    0  502 -0.41756528903E+03 -0.33239871258E+03 -0.13172207816E+04  0.14212467598E+04  0.46999998093E+01 0. -1.
</event>
<event>
 5   0  0.3337520E-04  0.1303062E+04  0.7818609E-02  0.9027140E-01
        1   -1    0    0  501    0  0.00000000000E+00  0.00000000000E+00  0.20483746195E+04  0.20483746195E+04  0.50400001928E-02 0. -1.
       -1   -1    0    0    0  501  0.00000000000E+00  0.00000000000E+00 -0.20723402561E+03  0.20723402567E+03  0.50400001928E-02 0.  1.
    10030    2    1    2    0    0  0.00000000000E+00  0.00000000000E+00  0.18411405939E+04  0.22556086452E+04  0.13030624213E+04 0.  0.
        5    1    3    3  502    0  0.54448796115E+03  0.23150314121E+03  0.13927574166E+04  0.15132270668E+04  0.46999998093E+01 0. -1.
       -5    1    3    3    0  502 -0.54448796115E+03 -0.23150314121E+03  0.44838317731E+03  0.74238157838E+03  0.46999998093E+01 0.  1.
</event>
<event>
 5   0  0.5787604E-04  0.1299492E+04  0.7818609E-02  0.9029968E-01
       -2   -1    0    0    0  501  0.00000000000E+00  0.00000000000E+00  0.50207731261E+03  0.50207731262E+03  0.25500000920E-02 0. -1.
        2   -1    0    0  501    0  0.00000000000E+00  0.00000000000E+00 -0.84084612468E+03  0.84084612468E+03  0.25500000920E-02 0.  1.
    10030    2    1    2    0    0  0.00000000000E+00  0.00000000000E+00 -0.33876881206E+03  0.13429234373E+04  0.12994918432E+04 0.  0.
        4    1    3    3  502    0  0.30937116672E+03  0.47267210440E+03 -0.50110918057E+03  0.75514333793E+03  0.12699999809E+01 0.  1.
       -4    1    3    3    0  502 -0.30937116672E+03 -0.47267210440E+03  0.16234036851E+03  0.58778009937E+03  0.12699999809E+01 0. -1.
</event>
<event>
 5   0  0.3263679E-04  0.1301879E+04  0.7818609E-02  0.9028076E-01
        1   -1    0    0  501    0  0.00000000000E+00  0.00000000000E+00  0.10764759969E+04  0.10764759969E+04  0.50400001928E-02 0.  1.
       -1   -1    0    0    0  501  0.00000000000E+00  0.00000000000E+00 -0.39361998328E+03  0.39361998331E+03  0.50400001928E-02 0. -1.
    10030    2    1    2    0    0  0.00000000000E+00  0.00000000000E+00  0.68285601364E+03  0.14700959802E+04  0.13018793553E+04 0.  0.
        2    1    3    3  502    0 -0.93223991349E+02 -0.13626586062E+03 -0.36958325909E+03  0.40478498334E+03  0.25500000920E-02 0. -1.
       -2    1    3    3    0  502  0.93223991349E+02  0.13626586062E+03  0.10524392727E+04  0.10653109969E+04  0.25500000920E-02 0.  1.
</event>
<event>
 5   0  0.3263679E-04  0.1298382E+04  0.7818609E-02  0.9030849E-01
        1   -1    0    0  501    0  0.00000000000E+00  0.00000000000E+00  0.10276212903E+04  0.10276212903E+04  0.50400001928E-02 0. -1.
       -1   -1    0    0    0  501  0.00000000000E+00  0.00000000000E+00 -0.41012069519E+03  0.41012069522E+03  0.50400001928E-02 0.  1.
    10030    2    1    2    0    0  0.00000000000E+00  0.00000000000E+00  0.61750059510E+03  0.14377419855E+04  0.12983816973E+04 0.  0.
        2    1    3    3  502    0 -0.25908259520E+03 -0.44263476781E+03 -0.13196221057E+03  0.52958790945E+03  0.25500000920E-02 0.  1.
       -2    1    3    3    0  502  0.25908259520E+03  0.44263476781E+03  0.74946280566E+03  0.90815407607E+03  0.25500000920E-02 0. -1.
</event>
<event>
 5   0  0.3403833E-04  0.1301401E+04  0.7818609E-02  0.9028455E-01
        1   -1    0    0  501    0  0.00000000000E+00  0.00000000000E+00  0.81596934895E+03  0.81596934896E+03  0.50400001928E-02 0. -1.
       -1   -1    0    0    0  501  0.00000000000E+00  0.00000000000E+00 -0.51890584217E+03  0.51890584220E+03  0.50400001928E-02 0.  1.
    10030    2    1    2    0    0  0.00000000000E+00  0.00000000000E+00  0.29706350677E+03  0.13348751912E+04  0.13014011868E+04 0.  0.
        1    1    3    3  502    0  0.29825858317E+02 -0.63471871753E+03  0.47336821537E+01  0.63543673169E+03  0.50400001928E-02 0.  1.
       -1    1    3    3    0  502 -0.29825858317E+02  0.63471871753E+03  0.29232982462E+03  0.69943845948E+03  0.50400001928E-02 0. -1.
</event>
<event>
 5   0  0.5384960E-04  0.1294072E+04  0.7818609E-02  0.9034280E-01
       -2   -1    0    0    0  501  0.00000000000E+00  0.00000000000E+00  0.51634140536E+03  0.51634140537E+03  0.25500000920E-02 0.  1.
        2   -1    0    0  501    0  0.00000000000E+00  0.00000000000E+00 -0.81081128793E+03  0.81081128794E+03  0.25500000920E-02 0. -1.
    10030    2    1    2    0    0  0.00000000000E+00  0.00000000000E+00 -0.29446988257E+03  0.13271526933E+04  0.12940717753E+04 0.  0.
        3    1    3    3  502    0 -0.58554745278E+03  0.15238723551E+03 -0.38237259681E+03  0.71574890988E+03  0.10100000352E+00 0. -1.
       -3    1    3    3    0  502  0.58554745278E+03 -0.15238723551E+03  0.87902714232E+02  0.61140378342E+03  0.10100000352E+00 0.  1.
</event>
<event>
 5   0  0.3263679E-04  0.1300064E+04  0.7818609E-02  0.9029514E-01
       -1   -1    0    0    0  501  0.00000000000E+00  0.00000000000E+00  0.38902537895E+03  0.38902537899E+03  0.50400001928E-02 0. -1.
        1   -1    0    0  501    0  0.00000000000E+00  0.00000000000E+00 -0.10861543936E+04  0.10861543936E+04  0.50400001928E-02 0.  1.
    10030    2    1    2    0    0  0.00000000000E+00  0.00000000000E+00 -0.69712901464E+03  0.14751797726E+04  0.13000640363E+04 0.  0.
        2    1    3    3  502    0  0.31105159099E+03 -0.55411463307E+03 -0.50392077728E+03  0.81100694733E+03  0.25500000920E-02 0. -1.
       -2    1    3    3    0  502 -0.31105159099E+03  0.55411463307E+03 -0.19320823736E+03  0.66417282527E+03  0.25500000920E-02 0.  1.
</event>
<event>
 5   0  0.2255875E-04  0.1295969E+04  0.7818609E-02  0.9032768E-01
        3   -1    0    0  501    0  0.00000000000E+00  0.00000000000E+00  0.39415922787E+03  0.39415924081E+03  0.10100000352E+00 0. -1.
       -3   -1    0    0    0  501  0.00000000000E+00  0.00000000000E+00 -0.10652646126E+04  0.10652646174E+04  0.10100000352E+00 0.  1.
    10030    2    1    2    0    0  0.00000000000E+00  0.00000000000E+00 -0.67110538470E+03  0.14594238582E+04  0.12959689658E+04 0.  0.
        3    1    3    3  502    0  0.62010385524E+03  0.14170987937E+03 -0.47472559476E+03  0.79370957013E+03  0.10100000352E+00 0. -1.
       -3    1    3    3    0  502 -0.62010385524E+03 -0.14170987937E+03 -0.19637978994E+03  0.66571428804E+03  0.10100000352E+00 0.  1.
</event>
<event>
 5   0  0.3263679E-04  0.1300586E+04  0.7818609E-02  0.9029100E-01
        1   -1    0    0  501    0  0.00000000000E+00  0.00000000000E+00  0.74919273619E+03  0.74919273621E+03  0.50400001928E-02 0. -1.
       -1   -1    0    0    0  501  0.00000000000E+00  0.00000000000E+00 -0.56444902252E+03  0.56444902254E+03  0.50400001928E-02 0.  1.
    10030    2    1    2    0    0  0.00000000000E+00  0.00000000000E+00  0.18474371367E+03  0.13136417588E+04  0.13005861873E+04 0.  0.
        2    1    3    3  502    0 -0.41173099200E+03  0.14609220708E+03  0.57888721648E+03  0.72524185770E+03  0.25500000920E-02 0. -1.
       -2    1    3    3    0  502  0.41173099200E+03 -0.14609220708E+03 -0.39414350282E+03  0.58839990105E+03  0.25500000920E-02 0.  1.
</event>
<event>
 5   0  0.6007125E-04  0.1300114E+04  0.7818609E-02  0.9029475E-01
       -2   -1    0    0    0  501  0.00000000000E+00  0.00000000000E+00  0.42126288193E+03  0.42126288194E+03  0.25500000920E-02 0.  1.
        2   -1    0    0  501    0  0.00000000000E+00  0.00000000000E+00 -0.10031119795E+04  0.10031119795E+04  0.25500000920E-02 0. -1.
    10030    2    1    2    0    0  0.00000000000E+00  0.00000000000E+00 -0.58184909760E+03  0.14243748615E+04  0.13001136003E+04 0.  0.
        5    1    3    3  502    0 -0.40548142177E+03 -0.24967998129E+03 -0.77570537604E+03  0.91021766456E+03  0.46999998093E+01 0. -1.
       -5    1    3    3    0  502  0.40548142177E+03  0.24967998129E+03  0.19385627844E+03  0.51415719692E+03  0.46999998093E+01 0.  1.
</event>
<event>
 5   0  0.5787604E-04  0.1294571E+04  0.7818609E-02  0.9033882E-01
       -2   -1    0    0    0  501  0.00000000000E+00  0.00000000000E+00  0.40054971142E+03  0.40054971143E+03  0.25500000920E-02 0.  1.
        2   -1    0    0  501    0  0.00000000000E+00  0.00000000000E+00 -0.10460083747E+04  0.10460083747E+04  0.25500000920E-02 0. -1.
    10030    2    1    2    0    0  0.00000000000E+00  0.00000000000E+00 -0.64545866323E+03  0.14465580861E+04  0.12945707437E+04 0.  0.
        4    1    3    3  502    0 -0.21253902019E+03 -0.60621287644E+03 -0.41148982592E+03  0.76288424836E+03  0.12699999809E+01 0.  1.
       -4    1    3    3    0  502  0.21253902019E+03  0.60621287644E+03 -0.23396883732E+03  0.68367383773E+03  0.12699999809E+01 0. -1.
</event>
<event>
 5   0  0.3263679E-04  0.1299736E+04  0.7818609E-02  0.9029775E-01
       -1   -1    0    0    0  501  0.00000000000E+00  0.00000000000E+00  0.55547278645E+03  0.55547278647E+03  0.50400001928E-02 0.  1.
        1   -1    0    0  501    0  0.00000000000E+00  0.00000000000E+00 -0.76030422091E+03  0.76030422093E+03  0.50400001928E-02 0. -1.
    10030    2    1    2    0    0  0.00000000000E+00  0.00000000000E+00 -0.20483143447E+03  0.13157770074E+04  0.12997358257E+04 0.  0.
        2    1    3    3  502    0 -0.22431243907E+02 -0.59242819648E+03  0.16705359531E+03  0.61593930902E+03  0.25500000920E-02 0.  1.
       -2    1    3    3    0  502  0.22431243907E+02  0.59242819648E+03 -0.37188502978E+03  0.69983769838E+03  0.25500000920E-02 0. -1.
</event>
<event>
 5   0  0.3403833E-04  0.1298255E+04  0.7818609E-02  0.9030950E-01
       -1   -1    0    0    0  501  0.00000000000E+00  0.00000000000E+00  0.74050116669E+03  0.74050116671E+03  0.50400001928E-02 0.  1.
        1   -1    0    0  501    0  0.00000000000E+00  0.00000000000E+00 -0.56902919205E+03  0.56902919207E+03  0.50400001928E-02 0. -1.
    10030    2    1    2    0    0  0.00000000000E+00  0.00000000000E+00  0.17147197464E+03  0.13095303588E+04  0.12982554150E+04 0.  0.
        1    1    3    3  502    0  0.45410470721E+03  0.15745902039E+03 -0.35435853172E+03  0.59713850758E+03  0.50400001928E-02 0. -1.
       -1    1    3    3    0  502 -0.45410470721E+03 -0.15745902039E+03  0.52583050636E+03  0.71239185120E+03  0.50400001928E-02 0.  1.
</event>
<event>
 5   0  0.3335747E-04  0.1307413E+04  0.7818609E-02  0.9023708E-01
        1   -1    0    0  501    0  0.00000000000E+00  0.00000000000E+00  0.58962826142E+03  0.58962826144E+03  0.50400001928E-02 0.  1.
       -1   -1    0    0    0  501  0.00000000000E+00  0.00000000000E+00 -0.72474796637E+03  0.72474796639E+03  0.50400001928E-02 0. -1.
    10030    2    1    2    0    0  0.00000000000E+00  0.00000000000E+00 -0.13511970495E+03  0.13143762278E+04  0.13074125338E+04 0.  0.
        3    1    3    3  502    0 -0.57143761978E+03  0.23937147670E+02  0.25069847190E+03  0.62447071537E+03  0.10100000352E+00 0.  1.
       -3    1    3    3    0  502  0.57143761978E+03 -0.23937147670E+02 -0.38581817685E+03  0.68990551246E+03  0.10100000352E+00 0. -1.
</event>
<event>
 5   0  0.6052864E-04  0.1348374E+04  0.7818609E-02  0.8992060E-01
        2   -1    0    0  501    0  0.00000000000E+00  0.00000000000E+00  0.67088711345E+03  0.67088711345E+03  0.25500000920E-02 0. -1.
       -2   -1    0    0    0  501  0.00000000000E+00  0.00000000000E+00 -0.67750309140E+03  0.67750309140E+03  0.25500000920E-02 0.  1.
    10030    2    1    2    0    0  0.00000000000E+00  0.00000000000E+00 -0.66159779516E+01  0.13483902049E+04  0.13483739739E+04 0.  0.
        2    1    3    3  502    0  0.41687522731E+03  0.47523322306E+03 -0.23761087743E+03  0.67534472717E+03  0.25500000920E-02 0.  1.
       -2    1    3    3    0  502 -0.41687522731E+03 -0.47523322306E+03  0.23099489948E+03  0.67304547768E+03  0.25500000920E-02 0. -1.
</event>
<event>
 5   0  0.3403833E-04  0.1302569E+04  0.7818609E-02  0.9027530E-01
        1   -1    0    0  501    0  0.00000000000E+00  0.00000000000E+00  0.62983941334E+03  0.62983941336E+03  0.50400001928E-02 0. -1.
       -1   -1    0    0    0  501  0.00000000000E+00  0.00000000000E+00 -0.67346014078E+03  0.67346014080E+03  0.50400001928E-02 0.  1.
    10030    2    1    2    0    0  0.00000000000E+00  0.00000000000E+00 -0.43620727438E+02  0.13032995542E+04  0.13025693686E+04 0.  0.
        1    1    3    3  502    0  0.27837884400E+03  0.54162821365E+03 -0.25284202604E+03  0.65938228120E+03  0.50400001928E-02 0.  1.
       -1    1    3    3    0  502 -0.27837884400E+03 -0.54162821365E+03  0.20922129860E+03  0.64391727296E+03  0.50400001928E-02 0. -1.
</event>
<event>
 5   0  0.6007125E-04  0.1300543E+04  0.7818609E-02  0.9029134E-01
        2   -1    0    0  501    0  0.00000000000E+00  0.00000000000E+00  0.86809406210E+03  0.86809406211E+03  0.25500000920E-02 0.  1.
       -2   -1    0    0    0  501  0.00000000000E+00  0.00000000000E+00 -0.48710537088E+03  0.48710537088E+03  0.25500000920E-02 0. -1.
    10030    2    1    2    0    0  0.00000000000E+00  0.00000000000E+00  0.38098869123E+03  0.13551994330E+04  0.13005433943E+04 0.  0.
        5    1    3    3  502    0 -0.75641742016E+02 -0.99858961687E+02  0.85538315838E+03  0.86452063191E+03  0.46999998093E+01 0.  1.
       -5    1    3    3    0  502  0.75641742016E+02  0.99858961687E+02 -0.47439446715E+03  0.49067880108E+03  0.46999998093E+01 0. -1.
</event>
<event>
 5   0  0.3403833E-04  0.1289418E+04  0.7818609E-02  0.9037999E-01
        1   -1    0    0  501    0  0.00000000000E+00  0.00000000000E+00  0.50156929194E+03  0.50156929196E+03  0.50400001928E-02 0. -1.
       -1   -1    0    0    0  501  0.00000000000E+00  0.00000000000E+00 -0.82869902660E+03  0.82869902662E+03  0.50400001928E-02 0.  1.
    10030    2    1    2    0    0  0.00000000000E+00  0.00000000000E+00 -0.32712973467E+03  0.13302683186E+04  0.12894184488E+04 0.  0.
        1    1    3    3  502    0 -0.74657830590E+02  0.52744701716E+03 -0.53821680405E+03  0.75726578938E+03  0.50400001928E-02 0.  1.
       -1    1    3    3    0  502  0.74657830590E+02 -0.52744701716E+03  0.21108706938E+03  0.57300252920E+03  0.50400001928E-02 0. -1.
</event>
<event>
 5   0  0.6052864E-04  0.1301230E+04  0.7818609E-02  0.9028590E-01
        2   -1    0    0  501    0  0.00000000000E+00  0.00000000000E+00  0.21847450676E+04  0.21847450676E+04  0.25500000920E-02 0.  1.
       -2   -1    0    0    0  501  0.00000000000E+00  0.00000000000E+00 -0.19375260599E+03  0.19375260601E+03  0.25500000920E-02 0. -1.
    10030    2    1    2    0    0  0.00000000000E+00  0.00000000000E+00  0.19909924616E+04  0.23784976736E+04  0.13012302645E+04 0.  0.
        2    1    3    3  502    0  0.27698512891E+02 -0.49014383861E+03  0.21506936100E+03  0.53596923437E+03  0.25500000920E-02 0. -1.
       -2    1    3    3    0  502 -0.27698512891E+02  0.49014383861E+03  0.17759231006E+04  0.18425284392E+04  0.25500000920E-02 0.  1.
</event>
<event>
 5   0  0.2255875E-04  0.1291162E+04  0.7818609E-02  0.9036603E-01
        3   -1    0    0  501    0  0.00000000000E+00  0.00000000000E+00  0.39721727640E+03  0.39721728924E+03  0.10100000352E+00 0.  1.
       -3   -1    0    0    0  501  0.00000000000E+00  0.00000000000E+00 -0.10492367560E+04  0.10492367609E+04  0.10100000352E+00 0. -1.
    10030    2    1    2    0    0  0.00000000000E+00  0.00000000000E+00 -0.65201947964E+03  0.14464540501E+04  0.12911622351E+04 0.  0.
        2    1    3    3  502    0 -0.24742789536E+03  0.56872103351E+03 -0.52675689663E+03  0.81371801351E+03  0.25500000920E-02 0.  1.
       -2    1    3    3    0  502  0.24742789536E+03 -0.56872103351E+03 -0.12526258301E+03  0.63273603664E+03  0.25500000920E-02 0. -1.
</event>
<event>
 5   0  0.5384960E-04  0.1298592E+04  0.7818609E-02  0.9030683E-01
        2   -1    0    0  501    0  0.00000000000E+00  0.00000000000E+00  0.15422215505E+04  0.15422215505E+04  0.25500000920E-02 0.  1.
       -2   -1    0    0    0  501  0.00000000000E+00  0.00000000000E+00 -0.27336229183E+03  0.27336229184E+03  0.25500000920E-02 0. -1.
    10030    2    1    2    0    0  0.00000000000E+00  0.00000000000E+00  0.12688592587E+04  0.18155838423E+04  0.12985918798E+04 0.  0.
        3    1    3    3  502    0  0.49918030900E+03  0.37146911692E+03  0.89379800293E+03  0.10890570077E+04  0.10100000352E+00 0. -1.
       -3    1    3    3    0  502 -0.49918030900E+03 -0.37146911692E+03  0.37506125573E+03  0.72652683465E+03  0.10100000352E+00 0.  1.
</event>
<event>
 5   0  0.3403833E-04  0.1300120E+04  0.7818609E-02  0.9029470E-01
       -1   -1    0    0    0  501  0.00000000000E+00  0.00000000000E+00  0.59520541599E+03  0.59520541602E+03  0.50400001928E-02 0.  1.
        1   -1    0    0  501    0  0.00000000000E+00  0.00000000000E+00 -0.70997050763E+03  0.70997050764E+03  0.50400001928E-02 0. -1.
    10030    2    1    2    0    0  0.00000000000E+00  0.00000000000E+00 -0.11476509163E+03  0.13051759237E+04  0.13001204427E+04 0.  0.
        1    1    3    3  502    0  0.46476793391E+03  0.23734177585E+03  0.33173003923E+03  0.61837300225E+03  0.50400001928E-02 0.  1.
       -1    1    3    3    0  502 -0.46476793391E+03 -0.23734177585E+03 -0.44649513086E+03  0.68680292141E+03  0.50400001928E-02 0. -1.
</event>
<event>
 5   0  0.3263679E-04  0.1289753E+04  0.7818609E-02  0.9037731E-01
        1   -1    0    0  501    0  0.00000000000E+00  0.00000000000E+00  0.10577368734E+04  0.10577368734E+04  0.50400001928E-02 0.  1.
       -1   -1    0    0    0  501  0.00000000000E+00  0.00000000000E+00 -0.39316551597E+03  0.39316551600E+03  0.50400001928E-02 0. -1.
    10030    2    1    2    0    0  0.00000000000E+00  0.00000000000E+00  0.66457135743E+03  0.14509023894E+04  0.12897529432E+04 0.  0.
        2    1    3    3  502    0 -0.98632843941E+01  0.23091683282E+03  0.10095422092E+04  0.10356617885E+04  0.25500000920E-02 0.  1.
       -2    1    3    3    0  502  0.98632843941E+01 -0.23091683282E+03 -0.34497085176E+03  0.41524060089E+03  0.25500000920E-02 0. -1.
</event>
<event>
 5   0  0.5384960E-04  0.1304403E+04  0.7818609E-02  0.9026081E-01
        2   -1    0    0  501    0  0.00000000000E+00  0.00000000000E+00  0.69289021109E+03  0.69289021110E+03  0.25500000920E-02 0.  1.
       -2   -1    0    0    0  501  0.00000000000E+00  0.00000000000E+00 -0.61390249675E+03  0.61390249676E+03  0.25500000920E-02 0. -1.
    10030    2    1    2    0    0  0.00000000000E+00  0.00000000000E+00  0.78987714341E+02  0.13067927079E+04  0.13044033587E+04 0.  0.
        3    1    3    3  502    0  0.15210713576E+03 -0.46762506192E+03 -0.38972674026E+03  0.62745256519E+03  0.10100000352E+00 0. -1.
       -3    1    3    3    0  502 -0.15210713576E+03  0.46762506192E+03  0.46871445460E+03  0.67934014267E+03  0.10100000352E+00 0.  1.
</event>
<event>
 5   0  0.3335747E-04  0.1302207E+04  0.7818609E-02  0.9027817E-01
        1   -1    0    0  501    0  0.00000000000E+00  0.00000000000E+00  0.17255401228E+04  0.17255401228E+04  0.50400001928E-02 0.  1.
       -1   -1    0    0    0  501  0.00000000000E+00  0.00000000000E+00 -0.24568307451E+03  0.24568307456E+03  0.50400001928E-02 0. -1.
    10030    2    1    2    0    0  0.00000000000E+00  0.00000000000E+00  0.14798570483E+04  0.19712231974E+04  0.13022073608E+04 0.  0.
        3    1    3    3  502    0  0.57138808572E+03 -0.13994324814E+03  0.31751883698E+03  0.66849583338E+03  0.10100000352E+00 0.  1.
       -3    1    3    3    0  502 -0.57138808572E+03  0.13994324814E+03  0.11623382113E+04  0.13027273640E+04  0.10100000352E+00 0. -1.
</event>
<event>
 5   0  0.5957913E-04  0.1299277E+04  0.7818609E-02  0.9030139E-01
        2   -1    0    0  501    0  0.00000000000E+00  0.00000000000E+00  0.15965330943E+04  0.15965330943E+04  0.25500000920E-02 0.  1.
       -2   -1    0    0    0  501  0.00000000000E+00  0.00000000000E+00 -0.26434144130E+03  0.26434144131E+03  0.25500000920E-02 0. -1.
    10030    2    1    2    0    0  0.00000000000E+00  0.00000000000E+00  0.13321916530E+04  0.18608745357E+04  0.12992765052E+04 0.  0.
        1    1    3    3  502    0 -0.77773714747E+02 -0.47632842119E+03  0.12889013853E+04  0.13763009470E+04  0.50400001928E-02 0.  1.
       -1    1    3    3    0  502  0.77773714747E+02  0.47632842119E+03  0.43290267715E+02  0.48457358867E+03  0.50400001928E-02 0. -1.
</event>
<event>
 5   0  0.3403833E-04  0.1300355E+04  0.7818609E-02  0.9029284E-01
       -1   -1    0    0    0  501  0.00000000000E+00  0.00000000000E+00  0.11487550038E+04  0.11487550038E+04  0.50400001928E-02 0.  1.
        1   -1    0    0  501    0  0.00000000000E+00  0.00000000000E+00 -0.36799022290E+03  0.36799022293E+03  0.50400001928E-02 0. -1.
    10030    2    1    2    0    0  0.00000000000E+00  0.00000000000E+00  0.78076478087E+03  0.15167452267E+04  0.13003547361E+04 0.  0.
        1    1    3    3  502    0 -0.53663371933E+03 -0.28493752752E+03  0.12042623211E+03  0.61940908996E+03  0.50400001928E-02 0. -1.
       -1    1    3    3    0  502  0.53663371933E+03  0.28493752752E+03  0.66033854875E+03  0.89733613675E+03  0.50400001928E-02 0.  1.
</event>
<event>
 5   0  0.6052864E-04  0.1324096E+04  0.7818609E-02  0.9010672E-01
       -2   -1    0    0    0  501  0.00000000000E+00  0.00000000000E+00  0.89489567602E+03  0.89489567603E+03  0.25500000920E-02 0. -1.
        2   -1    0    0  501    0  0.00000000000E+00  0.00000000000E+00 -0.48978643608E+03  0.48978643609E+03  0.25500000920E-02 0.  1.
    10030    2    1    2    0    0  0.00000000000E+00  0.00000000000E+00  0.40510923994E+03  0.13846821121E+04  0.13240963165E+04 0.  0.
        2    1    3    3  502    0  0.59081619035E+03  0.23074050074E+03  0.40098068958E+03  0.75039353868E+03  0.25500000920E-02 0. -1.
       -2    1    3    3    0  502 -0.59081619035E+03 -0.23074050074E+03  0.41285503594E+01  0.63428857344E+03  0.25500000920E-02 0.  1.
</event>
<event>
 5   0  0.3335747E-04  0.1322797E+04  0.7818609E-02  0.9011680E-01
        1   -1    0    0  501    0  0.00000000000E+00  0.00000000000E+00  0.60294268383E+03  0.60294268385E+03  0.50400001928E-02 0.  1.
       -1   -1    0    0    0  501  0.00000000000E+00  0.00000000000E+00 -0.72552153955E+03  0.72552153957E+03  0.50400001928E-02 0. -1.
    10030    2    1    2    0    0  0.00000000000E+00  0.00000000000E+00 -0.12257885572E+03  0.13284642234E+04  0.13227968918E+04 0.  0.
        3    1    3    3  502    0 -0.10225205769E+03  0.67446020035E+02  0.59145171136E+03  0.60400296853E+03  0.10100000352E+00 0.  1.
       -3    1    3    3    0  502  0.10225205769E+03 -0.67446020035E+02 -0.71403056707E+03  0.72446125489E+03  0.10100000352E+00 0. -1.
</event>
<event>
 5   0  0.5787604E-04  0.1293339E+04  0.7818609E-02  0.9034864E-01
        2   -1    0    0  501    0  0.00000000000E+00  0.00000000000E+00  0.14330594487E+04  0.14330594487E+04  0.25500000920E-02 0.  1.
       -2   -1    0    0    0  501  0.00000000000E+00  0.00000000000E+00 -0.29181021736E+03  0.29181021737E+03  0.25500000920E-02 0. -1.
    10030    2    1    2    0    0  0.00000000000E+00  0.00000000000E+00  0.11412492314E+04  0.17248696661E+04  0.12933389180E+04 0.  0.
        4    1    3    3  502    0  0.34818905187E+03  0.54371562580E+03  0.61903246062E+03  0.89446358103E+03  0.12699999809E+01 0. -1.
       -4    1    3    3    0  502 -0.34818905187E+03 -0.54371562580E+03  0.52221677075E+03  0.83040608507E+03  0.12699999809E+01 0.  1.
</event>
<event>
 5   0  0.5957913E-04  0.1283827E+04  0.7818609E-02  0.9042489E-01
        2   -1    0    0  501    0  0.00000000000E+00  0.00000000000E+00  0.13320042145E+04  0.13320042145E+04  0.25500000920E-02 0. -1.
       -2   -1    0    0    0  501  0.00000000000E+00  0.00000000000E+00 -0.30934825097E+03  0.30934825098E+03  0.25500000920E-02 0.  1.
    10030    2    1    2    0    0  0.00000000000E+00  0.00000000000E+00  0.10226559635E+04  0.16413524655E+04  0.12838273623E+04 0.  0.
        1    1    3    3  502    0 -0.59920199461E+02  0.41785514851E+03  0.11295906566E+04  0.12058890525E+04  0.50400001928E-02 0. -1.
       -1    1    3    3    0  502  0.59920199461E+02 -0.41785514851E+03 -0.10693469307E+03  0.43546341298E+03  0.50400001928E-02 0.  1.
</event>
<event>
 5   0  0.3335747E-04  0.1291191E+04  0.7818609E-02  0.9036580E-01
       -1   -1    0    0    0  501  0.00000000000E+00  0.00000000000E+00  0.14203822518E+04  0.14203822518E+04  0.50400001928E-02 0. -1.
        1   -1    0    0  501    0  0.00000000000E+00  0.00000000000E+00 -0.29343739943E+03  0.29343739948E+03  0.50400001928E-02 0.  1.
    10030    2    1    2    0    0  0.00000000000E+00  0.00000000000E+00  0.11269448524E+04  0.17138196513E+04  0.12911905734E+04 0.  0.
        3    1    3    3  502    0 -0.18652411092E+03  0.39669182534E+02 -0.25520199842E+03  0.31857959476E+03  0.10100000352E+00 0.  1.
       -3    1    3    3    0  502  0.18652411092E+03 -0.39669182534E+02  0.13821468508E+04  0.13952400565E+04  0.10100000352E+00 0. -1.
</event>
<event>
 5   0  0.3337520E-04  0.1297814E+04  0.7818609E-02  0.9031300E-01
       -1   -1    0    0    0  501  0.00000000000E+00  0.00000000000E+00  0.40485998568E+03  0.40485998571E+03  0.50400001928E-02 0.  1.
        1   -1    0    0  501    0  0.00000000000E+00  0.00000000000E+00 -0.10400643466E+04  0.10400643466E+04  0.50400001928E-02 0. -1.
    10030    2    1    2    0    0  0.00000000000E+00  0.00000000000E+00 -0.63520436087E+03  0.14449243323E+04  0.12978142186E+04 0.  0.
        5    1    3    3  502    0 -0.40107346665E+02 -0.15684245870E+03  0.38199613097E+03  0.41491118348E+03  0.46999998093E+01 0.  1.
       -5    1    3    3    0  502  0.40107346665E+02  0.15684245870E+03 -0.10172004918E+04  0.10300131488E+04  0.46999998093E+01 0. -1.
</event>
<event>
 5   0  0.3335747E-04  0.1303609E+04  0.7818609E-02  0.9026708E-01
       -1   -1    0    0    0  501  0.00000000000E+00  0.00000000000E+00  0.39355241170E+03  0.39355241173E+03  0.50400001928E-02 0. -1.
        1   -1    0    0  501    0  0.00000000000E+00  0.00000000000E+00 -0.10795236558E+04  0.10795236558E+04  0.50400001928E-02 0.  1.
    10030    2    1    2    0    0  0.00000000000E+00  0.00000000000E+00 -0.68597124411E+03  0.14730760675E+04  0.13036090492E+04 0.  0.
        3    1    3    3  502    0 -0.34895024582E+03 -0.34128402003E+03  0.14515283021E+03  0.50922530446E+03  0.10100000352E+00 0. -1.
       -3    1    3    3    0  502  0.34895024582E+03  0.34128402003E+03 -0.83112407432E+03  0.96385076308E+03  0.10100000352E+00 0.  1.
</event>
<event>
 5   0  0.3337520E-04  0.1286115E+04  0.7818609E-02  0.9040649E-01
        1   -1    0    0  501    0  0.00000000000E+00  0.00000000000E+00  0.99927212614E+03  0.99927212615E+03  0.50400001928E-02 0.  1.
       -1   -1    0    0    0  501  0.00000000000E+00  0.00000000000E+00 -0.41382406045E+03  0.41382406048E+03  0.50400001928E-02 0. -1.
    10030    2    1    2    0    0  0.00000000000E+00  0.00000000000E+00  0.58544806569E+03  0.14130961866E+04  0.12861148452E+04 0.  0.
        5    1    3    3  502    0  0.41549493225E+03 -0.14907985974E+03 -0.22103172075E+03  0.49369824274E+03  0.46999998093E+01 0. -1.
       -5    1    3    3    0  502 -0.41549493225E+03  0.14907985974E+03  0.80647978644E+03  0.91939794390E+03  0.46999998093E+01 0.  1.
</event>
<event>
 5   0  0.6052864E-04  0.1300409E+04  0.7818609E-02  0.9029241E-01
        2   -1    0    0  501    0  0.00000000000E+00  0.00000000000E+00  0.47261812982E+03  0.47261812983E+03  0.25500000920E-02 0.  1.
       -2   -1    0    0    0  501  0.00000000000E+00  0.00000000000E+00 -0.89451855922E+03  0.89451855923E+03  0.25500000920E-02 0. -1.
    10030    2    1    2    0    0  0.00000000000E+00  0.00000000000E+00 -0.42190042941E+03  0.13671366891E+04  0.13004086874E+04 0.  0.
        2    1    3    3  502    0  0.35363623752E+03  0.17285289717E+03 -0.75502782792E+03  0.85147151067E+03  0.25500000920E-02 0. -1.
       -2    1    3    3    0  502 -0.35363623752E+03 -0.17285289717E+03  0.33312739851E+03  0.51566517838E+03  0.25500000920E-02 0.  1.
</event>
<event>
 5   0  0.3335747E-04  0.1349861E+04  0.7818609E-02  0.8990933E-01
       -1   -1    0    0    0  501  0.00000000000E+00  0.00000000000E+00  0.49704906784E+03  0.49704906786E+03  0.50400001928E-02 0.  1.
        1   -1    0    0  501    0  0.00000000000E+00  0.00000000000E+00 -0.91647133851E+03  0.91647133853E+03  0.50400001928E-02 0. -1.
    10030    2    1    2    0    0  0.00000000000E+00  0.00000000000E+00 -0.41942227067E+03  0.14135204064E+04  0.13498610662E+04 0.  0.
        3    1    3    3  502    0  0.39236306252E+03  0.38423271718E+03  0.20115425364E+03  0.58484749956E+03  0.10100000352E+00 0.  1.
       -3    1    3    3    0  502 -0.39236306252E+03 -0.38423271718E+03 -0.62057652431E+03  0.82867290683E+03  0.10100000352E+00 0. -1.
</event>
<event>
 5   0  0.5957913E-04  0.1307261E+04  0.7818609E-02  0.9023827E-01
        2   -1    0    0  501    0  0.00000000000E+00  0.00000000000E+00  0.12656569301E+04  0.12656569301E+04  0.25500000920E-02 0. -1.
       -2   -1    0    0    0  501  0.00000000000E+00  0.00000000000E+00 -0.33755835019E+03  0.33755835020E+03  0.25500000920E-02 0.  1.
    10030    2    1    2    0    0  0.00000000000E+00  0.00000000000E+00  0.92809857989E+03  0.16032152803E+04  0.13072613591E+04 0.  0.
        1    1    3    3  502    0  0.51814679779E+02 -0.50402627445E+03  0.97045549864E+03  0.10947653270E+04  0.50400001928E-02 0. -1.
       -1    1    3    3    0  502 -0.51814679779E+02  0.50402627445E+03 -0.42356918755E+02  0.50844995326E+03  0.50400001928E-02 0.  1.
</event>
<event>
 5   0  0.5787604E-04  0.1316688E+04  0.7818609E-02  0.9016435E-01
       -2   -1    0    0    0  501  0.00000000000E+00  0.00000000000E+00  0.46449431867E+03  0.46449431868E+03  0.25500000920E-02 0. -1.
        2   -1    0    0  501    0  0.00000000000E+00  0.00000000000E+00 -0.93309325541E+03  0.93309325542E+03  0.25500000920E-02 0.  1.
    10030    2    1    2    0    0  0.00000000000E+00  0.00000000000E+00 -0.46859893674E+03  0.13975875741E+04  0.13166875346E+04 0.  0.
        4    1    3    3  502    0 -0.60453871802E+03  0.25920351965E+03 -0.20501103491E+03  0.68897363049E+03  0.12699999809E+01 0. -1.
       -4    1    3    3    0  502  0.60453871802E+03 -0.25920351965E+03 -0.26358790183E+03  0.70861394360E+03  0.12699999809E+01 0.  1.
</event>
<event>
 5   0  0.3335747E-04  0.1305901E+04  0.7818609E-02  0.9024899E-01
       -1   -1    0    0    0  501  0.00000000000E+00  0.00000000000E+00  0.41667049701E+03  0.41667049704E+03  0.50400001928E-02 0. -1.
        1   -1    0    0  501    0  0.00000000000E+00  0.00000000000E+00 -0.10232166349E+04  0.10232166349E+04  0.50400001928E-02 0.  1.
    10030    2    1    2    0    0  0.00000000000E+00  0.00000000000E+00 -0.60654613791E+03  0.14398871320E+04  0.13059007372E+04 0.  0.
        3    1    3    3  502    0 -0.63482998015E+03 -0.13354362977E+03 -0.22149332001E+03  0.68549420549E+03  0.10100000352E+00 0. -1.
       -3    1    3    3    0  502  0.63482998015E+03  0.13354362977E+03 -0.38505281790E+03  0.75439292648E+03  0.10100000352E+00 0.  1.
</event>
<event>
 5   0  0.5384960E-04  0.1296485E+04  0.7818609E-02  0.9032357E-01
        2   -1    0    0  501    0  0.00000000000E+00  0.00000000000E+00  0.69262135057E+03  0.69262135057E+03  0.25500000920E-02 0.  1.
       -2   -1    0    0    0  501  0.00000000000E+00  0.00000000000E+00 -0.60670746752E+03  0.60670746753E+03  0.25500000920E-02 0. -1.
    10030    2    1    2    0    0  0.00000000000E+00  0.00000000000E+00  0.85913883045E+02  0.12993288181E+04  0.12964853189E+04 0.  0.
        3    1    3    3  502    0 -0.49548067283E+03  0.39300233684E+03  0.18562998679E+03  0.65909819914E+03  0.10100000352E+00 0.  1.
       -3    1    3    3    0  502  0.49548067283E+03 -0.39300233684E+03 -0.99716103746E+02  0.64023061896E+03  0.10100000352E+00 0. -1.
</event>
<event>
 5   0  0.5384960E-04  0.1300353E+04  0.7818609E-02  0.9029286E-01
        2   -1    0    0  501    0  0.00000000000E+00  0.00000000000E+00  0.13160188300E+04  0.13160188300E+04  0.25500000920E-02 0. -1.
       -2   -1    0    0    0  501  0.00000000000E+00  0.00000000000E+00 -0.32121821178E+03  0.32121821179E+03  0.25500000920E-02 0.  1.
    10030    2    1    2    0    0  0.00000000000E+00  0.00000000000E+00  0.99480061827E+03  0.16372370418E+04  0.13003525911E+04 0.  0.
        3    1    3    3  502    0  0.52374965437E+03 -0.11082815960E+03  0.32851296044E+02  0.53635417335E+03  0.10100000352E+00 0.  1.
       -3    1    3    3    0  502 -0.52374965437E+03  0.11082815960E+03  0.96194932222E+03  0.11008828685E+04  0.10100000352E+00 0. -1.
</event>
<event>
 5   0  0.3263679E-04  0.1293447E+04  0.7818609E-02  0.9034778E-01
        1   -1    0    0  501    0  0.00000000000E+00  0.00000000000E+00  0.55111883738E+03  0.55111883740E+03  0.50400001928E-02 0. -1.
       -1   -1    0    0    0  501  0.00000000000E+00  0.00000000000E+00 -0.75891332690E+03  0.75891332692E+03  0.50400001928E-02 0.  1.
    10030    2    1    2    0    0  0.00000000000E+00  0.00000000000E+00 -0.20779448952E+03  0.13100321643E+04  0.12934472242E+04 0.  0.
        2    1    3    3  502    0  0.37244132670E+03  0.78660217691E+02 -0.63343135846E+03  0.73900964647E+03  0.25500000920E-02 0.  1.
       -2    1    3    3    0  502 -0.37244132670E+03 -0.78660217691E+02  0.42563686894E+03  0.57102251785E+03  0.25500000920E-02 0. -1.
</event>
<event>
 5   0  0.3337520E-04  0.1318888E+04  0.7818609E-02  0.9014720E-01
       -1   -1    0    0    0  501  0.00000000000E+00  0.00000000000E+00  0.14690600439E+04  0.14690600439E+04  0.50400001928E-02 0. -1.
        1   -1    0    0  501    0  0.00000000000E+00  0.00000000000E+00 -0.29601653866E+03  0.29601653871E+03  0.50400001928E-02 0.  1.
    10030    2    1    2    0    0  0.00000000000E+00  0.00000000000E+00  0.11730435052E+04  0.17650765826E+04  0.13188875150E+04 0.  0.
        5    1    3    3  502    0  0.18452950826E+03 -0.31493801095E+03  0.13215032813E+04  0.13709960257E+04  0.46999998093E+01 0. -1.
       -5    1    3    3    0  502 -0.18452950826E+03  0.31493801095E+03 -0.14845977609E+03  0.39408055683E+03  0.46999998093E+01 0.  1.
</event>
<event>
 5   0  0.3403833E-04  0.1291397E+04  0.7818609E-02  0.9036415E-01
       -1   -1    0    0    0  501  0.00000000000E+00  0.00000000000E+00  0.48590948266E+03  0.48590948269E+03  0.50400001928E-02 0. -1.
        1   -1    0    0  501    0  0.00000000000E+00  0.00000000000E+00 -0.85803398225E+03  0.85803398227E+03  0.50400001928E-02 0.  1.
    10030    2    1    2    0    0  0.00000000000E+00  0.00000000000E+00 -0.37212449959E+03  0.13439434650E+04  0.12913974577E+04 0.  0.
        1    1    3    3  502    0  0.48859842328E+03  0.13148861874E+03  0.23139448628E+03  0.55638213882E+03  0.50400001928E-02 0. -1.
       -1    1    3    3    0  502 -0.48859842328E+03 -0.13148861874E+03 -0.60351898587E+03  0.78756132613E+03  0.50400001928E-02 0.  1.
</event>
<event>
 5   0  0.6007125E-04  0.1300619E+04  0.7818609E-02  0.9029074E-01
        2   -1    0    0  501    0  0.00000000000E+00  0.00000000000E+00  0.88487787084E+03  0.88487787085E+03  0.25500000920E-02 0.  1.
       -2   -1    0    0    0  501  0.00000000000E+00  0.00000000000E+00 -0.47792198663E+03  0.47792198663E+03  0.25500000920E-02 0. -1.
    10030    2    1    2    0    0  0.00000000000E+00  0.00000000000E+00  0.40695588422E+03  0.13627998575E+04  0.13006192217E+04 0.  0.
        5    1    3    3  502    0  0.17295043161E+03  0.32268193932E+03 -0.35965942906E+03  0.51323725573E+03  0.46999998093E+01 0. -1.
       -5    1    3    3    0  502 -0.17295043161E+03 -0.32268193932E+03  0.76661531327E+03  0.84956260175E+03  0.46999998093E+01 0.  1.
</event>
<event>
 5   0  0.5384960E-04  0.1298037E+04  0.7818609E-02  0.9031123E-01
       -2   -1    0    0    0  501  0.00000000000E+00  0.00000000000E+00  0.28940158422E+03  0.28940158424E+03  0.25500000920E-02 0. -1.
        2   -1    0    0  501    0  0.00000000000E+00  0.00000000000E+00 -0.14555030827E+04  0.14555030827E+04  0.25500000920E-02 0.  1.
    10030    2    1    2    0    0  0.00000000000E+00  0.00000000000E+00 -0.11661014985E+04  0.17449046669E+04  0.12980368223E+04 0.  0.
        3    1    3    3  502    0  0.19849974010E+03 -0.16320779768E+03  0.21809693976E+03  0.33705373070E+03  0.10100000352E+00 0. -1.
       -3    1    3    3    0  502 -0.19849974010E+03  0.16320779768E+03 -0.13841984382E+04  0.14078509362E+04  0.10100000352E+00 0.  1.
</event>
<event>
 5   0  0.5787604E-04  0.1302513E+04  0.7818609E-02  0.9027575E-01
       -2   -1    0    0    0  501  0.00000000000E+00  0.00000000000E+00  0.66249696926E+03  0.66249696927E+03  0.25500000920E-02 0.  1.
        2   -1    0    0  501    0  0.00000000000E+00  0.00000000000E+00 -0.64020640650E+03  0.64020640650E+03  0.25500000920E-02 0. -1.
    10030    2    1    2    0    0  0.00000000000E+00  0.00000000000E+00  0.22290562770E+02  0.13027033758E+04  0.13025126549E+04 0.  0.
        4    1    3    3  502    0 -0.23943579852E+03  0.19978034592E+03  0.58297326279E+03  0.66113623880E+03  0.12699999809E+01 0.  1.
       -4    1    3    3    0  502  0.23943579852E+03 -0.19978034592E+03 -0.56068270002E+03  0.64156713697E+03  0.12699999809E+01 0. -1.
</event>
<event>
 5   0  0.5384960E-04  0.1297175E+04  0.7818609E-02  0.9031808E-01
       -2   -1    0    0    0  501  0.00000000000E+00  0.00000000000E+00  0.65156224291E+03  0.65156224291E+03  0.25500000920E-02 0. -1.
        2   -1    0    0  501    0  0.00000000000E+00  0.00000000000E+00 -0.64562670952E+03  0.64562670952E+03  0.25500000920E-02 0.  1.
    10030    2    1    2    0    0  0.00000000000E+00  0.00000000000E+00  0.59355333888E+01  0.12971889524E+04  0.12971753728E+04 0.  0.
        3    1    3    3  502    0 -0.11324255866E+03 -0.26933542895E+03  0.58202523074E+03  0.65124406316E+03  0.10100000352E+00 0. -1.
       -3    1    3    3    0  502  0.11324255866E+03  0.26933542895E+03 -0.57608969735E+03  0.64594488927E+03  0.10100000352E+00 0.  1.
</event>
<event>
 5   0  0.3337520E-04  0.1295817E+04  0.7818609E-02  0.9032889E-01
        1   -1    0    0  501    0  0.00000000000E+00  0.00000000000E+00  0.19560330101E+04  0.19560330101E+04  0.50400001928E-02 0. -1.
       -1   -1    0    0    0  501  0.00000000000E+00  0.00000000000E+00 -0.21461057750E+03  0.21461057756E+03  0.50400001928E-02 0.  1.
    10030    2    1    2    0    0  0.00000000000E+00  0.00000000000E+00  0.17414224326E+04  0.21706435877E+04  0.12958169222E+04 0.  0.
        5    1    3    3  502    0 -0.23443620732E+03 -0.10617493922E+03  0.18667079296E+04  0.18843709925E+04  0.46999998093E+01 0. -1.
       -5    1    3    3    0  502  0.23443620732E+03  0.10617493922E+03 -0.12528549694E+03  0.28627259520E+03  0.46999998093E+01 0.  1.
</event>
<event>
 5   0  0.3274879E-04  0.1295314E+04  0.7818609E-02  0.9033289E-01
        1   -1    0    0  501    0  0.00000000000E+00  0.00000000000E+00  0.91984156449E+03  0.91984156450E+03  0.50400001928E-02 0.  1.
       -1   -1    0    0    0  501  0.00000000000E+00  0.00000000000E+00 -0.45601304191E+03  0.45601304193E+03  0.50400001928E-02 0. -1.
    10030    2    1    2    0    0  0.00000000000E+00  0.00000000000E+00  0.46382852258E+03  0.13758546064E+04  0.12953142475E+04 0.  0.
        4    1    3    3  502    0  0.12978341084E+03  0.51615502596E+03  0.62391184552E+03  0.82007764781E+03  0.12699999809E+01 0.  1.
       -4    1    3    3    0  502 -0.12978341084E+03 -0.51615502596E+03 -0.16008332294E+03  0.55577695863E+03  0.12699999809E+01 0. -1.
</event>
<event>
 5   0  0.3337520E-04  0.1301306E+04  0.7818609E-02  0.9028530E-01
        1   -1    0    0  501    0  0.00000000000E+00  0.00000000000E+00  0.43800064963E+03  0.43800064966E+03  0.50400001928E-02 0. -1.
       -1   -1    0    0    0  501  0.00000000000E+00  0.00000000000E+00 -0.96654908086E+03  0.96654908087E+03  0.50400001928E-02 0.  1.
    10030    2    1    2    0    0  0.00000000000E+00  0.00000000000E+00 -0.52854843123E+03  0.14045497305E+04  0.13013056910E+04 0.  0.
        5    1    3    3  502    0 -0.46340384112E+02 -0.66602302321E+02  0.43250041994E+03  0.44007045018E+03  0.46999998093E+01 0. -1.
       -5    1    3    3    0  502  0.46340384112E+02  0.66602302321E+02 -0.96104885117E+03  0.96447928034E+03  0.46999998093E+01 0.  1.
</event>
<event>
 5   0  0.3274879E-04  0.1296393E+04  0.7818609E-02  0.9032431E-01
       -1   -1    0    0    0  501  0.00000000000E+00  0.00000000000E+00  0.53329339300E+03  0.53329339302E+03  0.50400001928E-02 0.  1.
        1   -1    0    0  501    0  0.00000000000E+00  0.00000000000E+00 -0.78785641614E+03  0.78785641616E+03  0.50400001928E-02 0. -1.
    10030    2    1    2    0    0  0.00000000000E+00  0.00000000000E+00 -0.25456302314E+03  0.13211498092E+04  0.12963928747E+04 0.  0.
        4    1    3    3  502    0 -0.29883177392E+02  0.58118808113E+03  0.16362451366E+03  0.60452227776E+03  0.12699999809E+01 0.  1.
       -4    1    3    3    0  502  0.29883177392E+02 -0.58118808113E+03 -0.41818753680E+03  0.71662753141E+03  0.12699999809E+01 0. -1.
</event>
<event>
 5   0  0.5384960E-04  0.1301900E+04  0.7818609E-02  0.9028059E-01
        2   -1    0    0  501    0  0.00000000000E+00  0.00000000000E+00  0.25303708004E+03  0.25303708005E+03  0.25500000920E-02 0.  1.
       -2   -1    0    0    0  501  0.00000000000E+00  0.00000000000E+00 -0.16746012977E+04  0.16746012977E+04  0.25500000920E-02 0. -1.
    10030    2    1    2    0    0  0.00000000000E+00  0.00000000000E+00 -0.14215642177E+04  0.19276383777E+04  0.13019004918E+04 0.  0.
        3    1    3    3  502    0 -0.26348580947E+01 -0.92554895163E+02 -0.16648011028E+04  0.16673740052E+04  0.10100000352E+00 0. -1.
       -3    1    3    3    0  502  0.26348580947E+01  0.92554895163E+02  0.24323688517E+03  0.26026437252E+03  0.10100000352E+00 0.  1.
</event>
<event>
 5   0  0.3335747E-04  0.1325325E+04  0.7818609E-02  0.9009719E-01
       -1   -1    0    0    0  501  0.00000000000E+00  0.00000000000E+00  0.40630003051E+03  0.40630003054E+03  0.50400001928E-02 0.  1.
        1   -1    0    0  501    0  0.00000000000E+00  0.00000000000E+00 -0.10807823135E+04  0.10807823135E+04  0.50400001928E-02 0. -1.
    10030    2    1    2    0    0  0.00000000000E+00  0.00000000000E+00 -0.67448228300E+03  0.14870823441E+04  0.13253254498E+04 0.  0.
        3    1    3    3  502    0 -0.30925927700E+03 -0.55629541864E+03 -0.13029659020E+03  0.64967923226E+03  0.10100000352E+00 0. -1.
       -3    1    3    3    0  502  0.30925927700E+03  0.55629541864E+03 -0.54418569280E+03  0.83740311180E+03  0.10100000352E+00 0.  1.
</event>
<event>
 5   0  0.6007125E-04  0.1299964E+04  0.7818609E-02  0.9029594E-01
        2   -1    0    0  501    0  0.00000000000E+00  0.00000000000E+00  0.13890012258E+04  0.13890012258E+04  0.25500000920E-02 0. -1.
       -2   -1    0    0    0  501  0.00000000000E+00  0.00000000000E+00 -0.30415844866E+03  0.30415844867E+03  0.25500000920E-02 0.  1.
    10030    2    1    2    0    0  0.00000000000E+00  0.00000000000E+00  0.10848427772E+04  0.16931596745E+04  0.12999637811E+04 0.  0.
        5    1    3    3  502    0  0.47226996165E+03  0.26633376168E+03  0.75560562311E+02  0.54745235214E+03  0.46999998093E+01 0.  1.
       -5    1    3    3    0  502 -0.47226996165E+03 -0.26633376168E+03  0.10092822149E+04  0.11457073224E+04  0.46999998093E+01 0. -1.
</event>
<event>
 5   0  0.5384960E-04  0.1298805E+04  0.7818609E-02  0.9030513E-01
       -2   -1    0    0    0  501  0.00000000000E+00  0.00000000000E+00  0.24520680413E+03  0.24520680415E+03  0.25500000920E-02 0.  1.
        2   -1    0    0  501    0  0.00000000000E+00  0.00000000000E+00 -0.17198699033E+04  0.17198699033E+04  0.25500000920E-02 0. -1.
    10030    2    1    2    0    0  0.00000000000E+00  0.00000000000E+00 -0.14746630992E+04  0.19650767075E+04  0.12988053011E+04 0.  0.
        3    1    3    3  502    0  0.53101309824E+03  0.37304555489E+03 -0.70070924679E+03  0.95505568176E+03  0.10100000352E+00 0.  1.
       -3    1    3    3    0  502 -0.53101309824E+03 -0.37304555489E+03 -0.77395385238E+03  0.10100210257E+04  0.10100000352E+00 0. -1.
</event>
<event>
 5   0  0.3335747E-04  0.1310320E+04  0.7818609E-02  0.9021421E-01
        1   -1    0    0  501    0  0.00000000000E+00  0.00000000000E+00  0.55583547183E+03  0.55583547185E+03  0.50400001928E-02 0. -1.
       -1   -1    0    0    0  501  0.00000000000E+00  0.00000000000E+00 -0.77223285794E+03  0.77223285796E+03  0.50400001928E-02 0.  1.
    10030    2    1    2    0    0  0.00000000000E+00  0.00000000000E+00 -0.21639738612E+03  0.13280683298E+04  0.13103196785E+04 0.  0.
        3    1    3    3  502    0 -0.32621960834E+03 -0.52410957226E+03  0.11414534914E+03  0.62780510314E+03  0.10100000352E+00 0. -1.
       -3    1    3    3    0  502  0.32621960834E+03  0.52410957226E+03 -0.33054273525E+03  0.70026322667E+03  0.10100000352E+00 0.  1.
</event>
<event>
 5   0  0.5787604E-04  0.1304585E+04  0.7818609E-02  0.9025937E-01
       -2   -1    0    0    0  501  0.00000000000E+00  0.00000000000E+00  0.49240854015E+03  0.49240854016E+03  0.25500000920E-02 0. -1.
        2   -1    0    0  501    0  0.00000000000E+00  0.00000000000E+00 -0.86409038495E+03  0.86409038496E+03  0.25500000920E-02 0.  1.
    10030    2    1    2    0    0  0.00000000000E+00  0.00000000000E+00 -0.37168184480E+03  0.13564989251E+04  0.13045849685E+04 0.  0.
        4    1    3    3  502    0 -0.45659275740E+03 -0.40944326744E+03  0.45178481114E+02  0.61494995196E+03  0.12699999809E+01 0. -1.
       -4    1    3    3    0  502  0.45659275740E+03  0.40944326744E+03 -0.41686032591E+03  0.74154897315E+03  0.12699999809E+01 0.  1.
</event>
<event>
 5   0  0.6007125E-04  0.1284281E+04  0.7818609E-02  0.9042124E-01
        2   -1    0    0  501    0  0.00000000000E+00  0.00000000000E+00  0.28105536092E+04  0.28105536092E+04  0.25500000920E-02 0.  1.
       -2   -1    0    0    0  501  0.00000000000E+00  0.00000000000E+00 -0.14671282878E+03  0.14671282880E+03  0.25500000920E-02 0. -1.
    10030    2    1    2    0    0  0.00000000000E+00  0.00000000000E+00  0.26638407805E+04  0.29572664380E+04  0.12842807644E+04 0.  0.
        5    1    3    3  502    0  0.32401755135E+02 -0.55658098392E+03  0.20654909967E+04  0.21394175405E+04  0.46999998093E+01 0.  1.
       -5    1    3    3    0  502 -0.32401755135E+02  0.55658098392E+03  0.59834978379E+03  0.81784889751E+03  0.46999998093E+01 0. -1.
</event>
<event>
 5   0  0.3263679E-04  0.1293660E+04  0.7818609E-02  0.9034608E-01
       -1   -1    0    0    0  501  0.00000000000E+00  0.00000000000E+00  0.48684134088E+03  0.48684134090E+03  0.50400001928E-02 0. -1.
        1   -1    0    0  501    0  0.00000000000E+00  0.00000000000E+00 -0.85939499954E+03  0.85939499956E+03  0.50400001928E-02 0.  1.
    10030    2    1    2    0    0  0.00000000000E+00  0.00000000000E+00 -0.37255365867E+03  0.13462363405E+04  0.12936599460E+04 0.  0.
        2    1    3    3  502    0  0.31325985397E+03 -0.32433075928E+03  0.29632381937E+03  0.53956462399E+03  0.25500000920E-02 0. -1.
       -2    1    3    3    0  502 -0.31325985397E+03  0.32433075928E+03 -0.66887747803E+03  0.80667171647E+03  0.25500000920E-02 0.  1.
</event>
<event>
 5   0  0.3274879E-04  0.1299353E+04  0.7818609E-02  0.9030079E-01
        1   -1    0    0  501    0  0.00000000000E+00  0.00000000000E+00  0.87014134640E+03  0.87014134641E+03  0.50400001928E-02 0.  1.
       -1   -1    0    0    0  501  0.00000000000E+00  0.00000000000E+00 -0.48506994291E+03  0.48506994294E+03  0.50400001928E-02 0. -1.
    10030    2    1    2    0    0  0.00000000000E+00  0.00000000000E+00  0.38507140348E+03  0.13552112894E+04  0.12993527824E+04 0.  0.
        4    1    3    3  502    0  0.98081922284E+02 -0.46634902899E+03 -0.26800801837E+03  0.54674618530E+03  0.12699999809E+01 0. -1.
       -4    1    3    3    0  502 -0.98081922284E+02  0.46634902899E+03  0.65307942186E+03  0.80846510406E+03  0.12699999809E+01 0.  1.
</event>
<event>
 5   0  0.3335747E-04  0.1302183E+04  0.7818609E-02  0.9027836E-01
       -1   -1    0    0    0  501  0.00000000000E+00  0.00000000000E+00  0.37863195444E+03  0.37863195448E+03  0.50400001928E-02 0.  1.
        1   -1    0    0  501    0  0.00000000000E+00  0.00000000000E+00 -0.11196100253E+04  0.11196100253E+04  0.50400001928E-02 0. -1.
    10030    2    1    2    0    0  0.00000000000E+00  0.00000000000E+00 -0.74097807081E+03  0.14982419797E+04  0.13021829858E+04 0.  0.
        3    1    3    3  502    0 -0.28969593097E+03  0.43233167606E+02  0.29854783485E+03  0.41823875848E+03  0.10100000352E+00 0.  1.
       -3    1    3    3    0  502  0.28969593097E+03 -0.43233167606E+02 -0.10395259057E+04  0.10800032213E+04  0.10100000352E+00 0. -1.
</event>
<event>
 5   0  0.3337520E-04  0.1302981E+04  0.7818609E-02  0.9027205E-01
       -1   -1    0    0    0  501  0.00000000000E+00  0.00000000000E+00  0.50404082344E+03  0.50404082346E+03  0.50400001928E-02 0.  1.
        1   -1    0    0  501    0  0.00000000000E+00  0.00000000000E+00 -0.84207378821E+03  0.84207378822E+03  0.50400001928E-02 0. -1.
    10030    2    1    2    0    0  0.00000000000E+00  0.00000000000E+00 -0.33803296477E+03  0.13461146117E+04  0.13029805304E+04 0.  0.
        5    1    3    3  502    0  0.24456867826E+03 -0.50884290091E+03 -0.50486677595E+03  0.75739519911E+03  0.46999998093E+01 0. -1.
       -5    1    3    3    0  502 -0.24456867826E+03  0.50884290091E+03  0.16683381117E+03  0.58871941257E+03  0.46999998093E+01 0.  1.
</event>
<event>
 5   0  0.5384960E-04  0.1305115E+04  0.7818609E-02  0.9025518E-01
        2   -1    0    0  501    0  0.00000000000E+00  0.00000000000E+00  0.26387900503E+04  0.26387900503E+04  0.25500000920E-02 0. -1.
       -2   -1    0    0    0  501  0.00000000000E+00  0.00000000000E+00 -0.16137380098E+03  0.16137380100E+03  0.25500000920E-02 0.  1.
    10030    2    1    2    0    0  0.00000000000E+00  0.00000000000E+00  0.24774162493E+04  0.28001638513E+04  0.13051154438E+04 0.  0.
        3    1    3    3  502    0  0.43633461710E+02  0.47514103074E+03  0.21938151456E+04  0.22451030670E+04  0.10100000352E+00 0. -1.
       -3    1    3    3    0  502 -0.43633461710E+02 -0.47514103074E+03  0.28360110374E+03  0.55506078435E+03  0.10100000352E+00 0.  1.
</event>
<event>
 5   0  0.3403833E-04  0.1310726E+04  0.7818609E-02  0.9021102E-01
        1   -1    0    0  501    0  0.00000000000E+00  0.00000000000E+00  0.74301440986E+03  0.74301440987E+03  0.50400001928E-02 0. -1.
       -1   -1    0    0    0  501  0.00000000000E+00  0.00000000000E+00 -0.57805168339E+03  0.57805168341E+03  0.50400001928E-02 0.  1.
    10030    2    1    2    0    0  0.00000000000E+00  0.00000000000E+00  0.16496272647E+03  0.13210660933E+04  0.13107261048E+04 0.  0.
        1    1    3    3  502    0  0.50533539187E+03 -0.85305772190E+02  0.49418855453E+03  0.71194329866E+03  0.50400001928E-02 0. -1.
       -1    1    3    3    0  502 -0.50533539187E+03  0.85305772190E+02 -0.32922582807E+03  0.60912279463E+03  0.50400001928E-02 0.  1.
</event>
<event>
 5   0  0.5957913E-04  0.1302519E+04  0.7818609E-02  0.9027570E-01
       -2   -1    0    0    0  501  0.00000000000E+00  0.00000000000E+00  0.39016753544E+03  0.39016753545E+03  0.25500000920E-02 0. -1.
        2   -1    0    0  501    0  0.00000000000E+00  0.00000000000E+00 -0.10870690737E+04  0.10870690737E+04  0.25500000920E-02 0.  1.
    10030    2    1    2    0    0  0.00000000000E+00  0.00000000000E+00 -0.69690153824E+03  0.14772366091E+04  0.13025191919E+04 0.  0.
        1    1    3    3  502    0  0.50467151571E+03 -0.31687822001E+03 -0.50463859379E+02  0.59803992025E+03  0.50400001928E-02 0.  1.
       -1    1    3    3    0  502 -0.50467151571E+03  0.31687822001E+03 -0.64643767886E+03  0.87919668890E+03  0.50400001928E-02 0. -1.
</event>
<event>
 5   0  0.3335747E-04  0.1295949E+04  0.7818609E-02  0.9032784E-01
        1   -1    0    0  501    0  0.00000000000E+00  0.00000000000E+00  0.86575860188E+03  0.86575860190E+03  0.50400001928E-02 0.  1.
       -1   -1    0    0    0  501  0.00000000000E+00  0.00000000000E+00 -0.48497464186E+03  0.48497464189E+03  0.50400001928E-02 0. -1.
    10030    2    1    2    0    0  0.00000000000E+00  0.00000000000E+00  0.38078396002E+03  0.13507332438E+04  0.12959490236E+04 0.  0.
        3    1    3    3  502    0  0.46277746634E+03 -0.14956538246E+03  0.63667269153E+03  0.80117720469E+03  0.10100000352E+00 0.  1.
       -3    1    3    3    0  502 -0.46277746634E+03  0.14956538246E+03 -0.25588873151E+03  0.54955603909E+03  0.10100000352E+00 0. -1.
</event>
<event>
 5   0  0.3263679E-04  0.1301092E+04  0.7818609E-02  0.9028699E-01
        1   -1    0    0  501    0  0.00000000000E+00  0.00000000000E+00  0.69382092450E+03  0.69382092452E+03  0.50400001928E-02 0.  1.
       -1   -1    0    0    0  501  0.00000000000E+00  0.00000000000E+00 -0.60997055420E+03  0.60997055422E+03  0.50400001928E-02 0. -1.
    10030    2    1    2    0    0  0.00000000000E+00  0.00000000000E+00  0.83850370303E+02  0.13037914787E+04  0.13010923624E+04 0.  0.
        2    1    3    3  502    0  0.10527591295E+03 -0.42730963118E+03  0.52201592524E+03  0.68277167850E+03  0.25500000920E-02 0.  1.
       -2    1    3    3    0  502 -0.10527591295E+03  0.42730963118E+03 -0.43816555493E+03  0.62101980024E+03  0.25500000920E-02 0. -1.
</event>
<event>
 5   0  0.3337520E-04  0.1297856E+04  0.7818609E-02  0.9031267E-01
       -1   -1    0    0    0  501  0.00000000000E+00  0.00000000000E+00  0.68862257626E+03  0.68862257628E+03  0.50400001928E-02 0. -1.
        1   -1    0    0  501    0  0.00000000000E+00  0.00000000000E+00 -0.61152196413E+03  0.61152196416E+03  0.50400001928E-02 0.  1.
    10030    2    1    2    0    0  0.00000000000E+00  0.00000000000E+00  0.77100612125E+02  0.13001445404E+04  0.12978564334E+04 0.  0.
        5    1    3    3  502    0  0.58388209145E+03 -0.14834885844E+03  0.28013944447E+03  0.66439888535E+03  0.46999998093E+01 0. -1.
       -5    1    3    3    0  502 -0.58388209145E+03  0.14834885844E+03 -0.20303883234E+03  0.63574565508E+03  0.46999998093E+01 0.  1.
</event>
<event>
 5   0  0.6007125E-04  0.1305261E+04  0.7818609E-02  0.9025403E-01
        2   -1    0    0  501    0  0.00000000000E+00  0.00000000000E+00  0.17655230632E+04  0.17655230632E+04  0.25500000920E-02 0. -1.
       -2   -1    0    0    0  501  0.00000000000E+00  0.00000000000E+00 -0.24124680410E+03  0.24124680412E+03  0.25500000920E-02 0.  1.
    10030    2    1    2    0    0  0.00000000000E+00  0.00000000000E+00  0.15242762591E+04  0.20067698674E+04  0.13052613479E+04 0.  0.
        5    1    3    3  502    0  0.24554520081E+03  0.42408411588E+03  0.14247846934E+04  0.15067094264E+04  0.46999998093E+01 0. -1.
       -5    1    3    3    0  502 -0.24554520081E+03 -0.42408411588E+03  0.99491565732E+02  0.50006044098E+03  0.46999998093E+01 0.  1.
</event>
<event>
 5   0  0.6007125E-04  0.1301505E+04  0.7818609E-02  0.9028372E-01
       -2   -1    0    0    0  501  0.00000000000E+00  0.00000000000E+00  0.33486474727E+03  0.33486474728E+03  0.25500000920E-02 0.  1.
        2   -1    0    0  501    0  0.00000000000E+00  0.00000000000E+00 -0.12646273445E+04  0.12646273445E+04  0.25500000920E-02 0. -1.
    10030    2    1    2    0    0  0.00000000000E+00  0.00000000000E+00 -0.92976259719E+03  0.15994920917E+04  0.13015054608E+04 0.  0.
        5    1    3    3  502    0 -0.23271951536E+03  0.31933329750E+03  0.17053127985E+03  0.43038951559E+03  0.46999998093E+01 0.  1.
       -5    1    3    3    0  502  0.23271951536E+03 -0.31933329750E+03 -0.11002938770E+04  0.11691025761E+04  0.46999998093E+01 0. -1.
</event>
<event>
 5   0  0.6007125E-04  0.1304844E+04  0.7818609E-02  0.9025732E-01
        2   -1    0    0  501    0  0.00000000000E+00  0.00000000000E+00  0.48662498451E+03  0.48662498452E+03  0.25500000920E-02 0. -1.
       -2   -1    0    0    0  501  0.00000000000E+00  0.00000000000E+00 -0.87470797862E+03  0.87470797862E+03  0.25500000920E-02 0.  1.
    10030    2    1    2    0    0  0.00000000000E+00  0.00000000000E+00 -0.38808299411E+03  0.13613329631E+04  0.13048444452E+04 0.  0.
        5    1    3    3  502    0 -0.57026065230E+03 -0.14279885157E+03  0.10112689977E+03  0.59652113410E+03  0.46999998093E+01 0.  1.
       -5    1    3    3    0  502  0.57026065230E+03  0.14279885157E+03 -0.48920989388E+03  0.76481182904E+03  0.46999998093E+01 0. -1.
</event>
<event>
 5   0  0.3274879E-04  0.1292120E+04  0.7818609E-02  0.9035838E-01
        1   -1    0    0  501    0  0.00000000000E+00  0.00000000000E+00  0.19292600633E+04  0.19292600633E+04  0.50400001928E-02 0. -1.
       -1   -1    0    0    0  501  0.00000000000E+00  0.00000000000E+00 -0.21634891721E+03  0.21634891727E+03  0.50400001928E-02 0.  1.
    10030    2    1    2    0    0  0.00000000000E+00  0.00000000000E+00  0.17129111461E+04  0.21456089806E+04  0.12921196938E+04 0.  0.
        4    1    3    3  502    0 -0.11410811942E+03 -0.59848688926E+03  0.49959717274E+03  0.78791253794E+03  0.12699999809E+01 0.  1.
       -4    1    3    3    0  502  0.11410811942E+03  0.59848688926E+03  0.12133139734E+04  0.13576964427E+04  0.12699999809E+01 0. -1.
</event>
<event>
 5   0  0.6052864E-04  0.1290311E+04  0.7818609E-02  0.9037284E-01
        2   -1    0    0  501    0  0.00000000000E+00  0.00000000000E+00  0.17065003764E+04  0.17065003764E+04  0.25500000920E-02 0.  1.
       -2   -1    0    0    0  501  0.00000000000E+00  0.00000000000E+00 -0.24390596223E+03  0.24390596225E+03  0.25500000920E-02 0. -1.
    10030    2    1    2    0    0  0.00000000000E+00  0.00000000000E+00  0.14625944142E+04  0.19504063387E+04  0.12903109957E+04 0.  0.
        2    1    3    3  502    0  0.15660498541E+03  0.56258598796E+03  0.31678969492E+03  0.66436723739E+03  0.25500000920E-02 0. -1.
       -2    1    3    3    0  502 -0.15660498541E+03 -0.56258598796E+03  0.11458047193E+04  0.12860391013E+04  0.25500000920E-02 0.  1.
</event>
<event>
 5   0  0.5384960E-04  0.1301567E+04  0.7818609E-02  0.9028324E-01
       -2   -1    0    0    0  501  0.00000000000E+00  0.00000000000E+00  0.20002187726E+03  0.20002187727E+03  0.25500000920E-02 0.  1.
        2   -1    0    0  501    0  0.00000000000E+00  0.00000000000E+00 -0.21173626787E+04  0.21173626787E+04  0.25500000920E-02 0. -1.
    10030    2    1    2    0    0  0.00000000000E+00  0.00000000000E+00 -0.19173408014E+04  0.23173845560E+04  0.13015665297E+04 0.  0.
        3    1    3    3  502    0  0.57856038875E+03 -0.25318974566E+03 -0.12383875334E+04  0.13901226075E+04  0.10100000352E+00 0. -1.
       -3    1    3    3    0  502 -0.57856038875E+03  0.25318974566E+03 -0.67895326803E+03  0.92726194848E+03  0.10100000352E+00 0.  1.
</event>
<event>
 5   0  0.3403833E-04  0.1296956E+04  0.7818609E-02  0.9031983E-01
        1   -1    0    0  501    0  0.00000000000E+00  0.00000000000E+00  0.66232470777E+03  0.66232470779E+03  0.50400001928E-02 0. -1.
       -1   -1    0    0    0  501  0.00000000000E+00  0.00000000000E+00 -0.63492034520E+03  0.63492034522E+03  0.50400001928E-02 0.  1.
    10030    2    1    2    0    0  0.00000000000E+00  0.00000000000E+00  0.27404362565E+02  0.12972450530E+04  0.12969555615E+04 0.  0.
        1    1    3    3  502    0 -0.24582582791E+02 -0.64715691719E+03 -0.19577655155E+02  0.64791948840E+03  0.50400001928E-02 0. -1.
       -1    1    3    3    0  502  0.24582582791E+02  0.64715691719E+03  0.46982017720E+02  0.64932556461E+03  0.50400001928E-02 0.  1.
</event>
<event>
 5   0  0.5384960E-04  0.1303067E+04  0.7818609E-02  0.9027136E-01
       -2   -1    0    0    0  501  0.00000000000E+00  0.00000000000E+00  0.65393197433E+03  0.65393197433E+03  0.25500000920E-02 0.  1.
        2   -1    0    0  501    0  0.00000000000E+00  0.00000000000E+00 -0.64914389163E+03  0.64914389164E+03  0.25500000920E-02 0. -1.
    10030    2    1    2    0    0  0.00000000000E+00  0.00000000000E+00  0.47880826953E+01  0.13030758660E+04  0.13030670692E+04 0.  0.
        3    1    3    3  502    0  0.54247829100E+03  0.35396101651E+03  0.72571712763E+02  0.65179579709E+03  0.10100000352E+00 0.  1.
       -3    1    3    3    0  502 -0.54247829100E+03 -0.35396101651E+03 -0.67783630067E+02  0.65128006888E+03  0.10100000352E+00 0. -1.
</event>
<event>
 5   0  0.3274879E-04  0.1296491E+04  0.7818609E-02  0.9032353E-01
        1   -1    0    0  501    0  0.00000000000E+00  0.00000000000E+00  0.59571235485E+03  0.59571235487E+03  0.50400001928E-02 0. -1.
       -1   -1    0    0    0  501  0.00000000000E+00  0.00000000000E+00 -0.70541086287E+03  0.70541086289E+03  0.50400001928E-02 0.  1.
    10030    2    1    2    0    0  0.00000000000E+00  0.00000000000E+00 -0.10969850803E+03  0.13011232178E+04  0.12964905958E+04 0.  0.
        4    1    3    3  502    0 -0.49861787277E+03 -0.36913482675E+03  0.13381196473E+03  0.63465546415E+03  0.12699999809E+01 0. -1.
       -4    1    3    3    0  502  0.49861787277E+03  0.36913482675E+03 -0.24351047275E+03  0.66646775361E+03  0.12699999809E+01 0.  1.
</event>
<event>
 5   0  0.6007125E-04  0.1300789E+04  0.7818609E-02  0.9028940E-01
       -2   -1    0    0    0  501  0.00000000000E+00  0.00000000000E+00  0.53415512683E+03  0.53415512683E+03  0.25500000920E-02 0.  1.
        2   -1    0    0  501    0  0.00000000000E+00  0.00000000000E+00 -0.79192866589E+03  0.79192866589E+03  0.25500000920E-02 0. -1.
    10030    2    1    2    0    0  0.00000000000E+00  0.00000000000E+00 -0.25777353906E+03  0.13260837927E+04  0.13007886177E+04 0.  0.
        5    1    3    3  502    0 -0.17463742540E+03 -0.20068220839E+02 -0.76723396950E+03  0.78712833629E+03  0.46999998093E+01 0. -1.
       -5    1    3    3    0  502  0.17463742540E+03  0.20068220839E+02  0.50946043044E+03  0.53895545644E+03  0.46999998093E+01 0.  1.
</event>
<event>
 5   0  0.3335747E-04  0.1303478E+04  0.7818609E-02  0.9026812E-01
       -1   -1    0    0    0  501  0.00000000000E+00  0.00000000000E+00  0.12843129329E+04  0.12843129329E+04  0.50400001928E-02 0.  1.
        1   -1    0    0  501    0  0.00000000000E+00  0.00000000000E+00 -0.33073222149E+03  0.33073222153E+03  0.50400001928E-02 0. -1.
    10030    2    1    2    0    0  0.00000000000E+00  0.00000000000E+00  0.95358071144E+03  0.16150451545E+04  0.13034779161E+04 0.  0.
        3    1    3    3  502    0  0.36511877968E+03  0.11199880674E+03 -0.17756194759E+03  0.42116945689E+03  0.10100000352E+00 0. -1.
       -3    1    3    3    0  502 -0.36511877968E+03 -0.11199880674E+03  0.11311426590E+04  0.11938756976E+04  0.10100000352E+00 0.  1.
</event>
<event>
 5   0  0.6052864E-04  0.1299498E+04  0.7818609E-02  0.9029963E-01
        2   -1    0    0  501    0  0.00000000000E+00  0.00000000000E+00  0.14106886725E+04  0.14106886725E+04  0.25500000920E-02 0.  1.
       -2   -1    0    0    0  501  0.00000000000E+00  0.00000000000E+00 -0.29926793758E+03  0.29926793759E+03  0.25500000920E-02 0. -1.
    10030    2    1    2    0    0  0.00000000000E+00  0.00000000000E+00  0.11114207349E+04  0.17099566101E+04  0.12994981948E+04 0.  0.
        2    1    3    3  502    0  0.21111885152E+03 -0.46230665600E+03  0.23030690356E+02  0.50875242147E+03  0.25500000920E-02 0. -1.
       -2    1    3    3    0  502 -0.21111885152E+03  0.46230665600E+03  0.10883900446E+04  0.12012041886E+04  0.25500000920E-02 0.  1.
</event>
<event>
 5   0  0.3337520E-04  0.1312708E+04  0.7818609E-02  0.9019548E-01
       -1   -1    0    0    0  501  0.00000000000E+00  0.00000000000E+00  0.60969703611E+03  0.60969703614E+03  0.50400001928E-02 0.  1.
        1   -1    0    0  501    0  0.00000000000E+00  0.00000000000E+00 -0.70658118157E+03  0.70658118159E+03  0.50400001928E-02 0. -1.
    10030    2    1    2    0    0  0.00000000000E+00  0.00000000000E+00 -0.96884145454E+02  0.13162782177E+04  0.13127078155E+04 0.  0.
        5    1    3    3  502    0  0.65598556925E+03 -0.62833152671E+01 -0.69036071407E+02  0.65965492211E+03  0.46999998093E+01 0. -1.
       -5    1    3    3    0  502 -0.65598556925E+03  0.62833152671E+01 -0.27848074047E+02  0.65662329561E+03  0.46999998093E+01 0.  1.
</event>
<event>
 5   0  0.3263679E-04  0.1295594E+04  0.7818609E-02  0.9033067E-01
       -1   -1    0    0    0  501  0.00000000000E+00  0.00000000000E+00  0.11522847176E+04  0.11522847176E+04  0.50400001928E-02 0. -1.
        1   -1    0    0  501    0  0.00000000000E+00  0.00000000000E+00 -0.36418160966E+03  0.36418160969E+03  0.50400001928E-02 0.  1.
    10030    2    1    2    0    0  0.00000000000E+00  0.00000000000E+00  0.78810310793E+03  0.15164663273E+04  0.12955939229E+04 0.  0.
        2    1    3    3  502    0  0.89870386529E+02 -0.37828104201E+03  0.10005223128E+04  0.10734142404E+04  0.25500000920E-02 0. -1.
       -2    1    3    3    0  502 -0.89870386529E+02  0.37828104201E+03 -0.21241920484E+03  0.44305208690E+03  0.25500000920E-02 0.  1.
</event>
<event>
 5   0  0.3337520E-04  0.1302432E+04  0.7818609E-02  0.9027639E-01
       -1   -1    0    0    0  501  0.00000000000E+00  0.00000000000E+00  0.58793385026E+03  0.58793385028E+03  0.50400001928E-02 0.  1.
        1   -1    0    0  501    0  0.00000000000E+00  0.00000000000E+00 -0.72130940629E+03  0.72130940631E+03  0.50400001928E-02 0. -1.
    10030    2    1    2    0    0  0.00000000000E+00  0.00000000000E+00 -0.13337555603E+03  0.13092432566E+04  0.13024319045E+04 0.  0.
        5    1    3    3  502    0  0.55044356651E+03  0.34496097399E+03 -0.11246639641E+03  0.65928519914E+03  0.46999998093E+01 0. -1.
       -5    1    3    3    0  502 -0.55044356651E+03 -0.34496097399E+03 -0.20909159617E+02  0.64995805745E+03  0.46999998093E+01 0.  1.
</event>
<event>
 5   0  0.5384960E-04  0.1304030E+04  0.7818609E-02  0.9026375E-01
        2   -1    0    0  501    0  0.00000000000E+00  0.00000000000E+00  0.57643153991E+03  0.57643153991E+03  0.25500000920E-02 0.  1.
       -2   -1    0    0    0  501  0.00000000000E+00  0.00000000000E+00 -0.73750940141E+03  0.73750940142E+03  0.25500000920E-02 0. -1.
    10030    2    1    2    0    0  0.00000000000E+00  0.00000000000E+00 -0.16107786151E+03  0.13139409413E+04  0.13040301836E+04 0.  0.
        3    1    3    3  502    0 -0.44826855685E+02 -0.19099145958E+03 -0.70706568077E+03  0.73377726304E+03  0.10100000352E+00 0. -1.
       -3    1    3    3    0  502  0.44826855685E+02  0.19099145958E+03  0.54598781927E+03  0.58016367829E+03  0.10100000352E+00 0.  1.
</event>
<event>
 5   0  0.3337520E-04  0.1296603E+04  0.7818609E-02  0.9032263E-01
       -1   -1    0    0    0  501  0.00000000000E+00  0.00000000000E+00  0.71630624520E+03  0.71630624522E+03  0.50400001928E-02 0.  1.
        1   -1    0    0  501    0  0.00000000000E+00  0.00000000000E+00 -0.58675323201E+03  0.58675323204E+03  0.50400001928E-02 0. -1.
    10030    2    1    2    0    0  0.00000000000E+00  0.00000000000E+00  0.12955301319E+03  0.13030594773E+04  0.12966032616E+04 0.  0.
        5    1    3    3  502    0  0.36887616491E+03  0.48148446486E+03  0.29477409995E+03  0.67439660063E+03  0.46999998093E+01 0.  1.
       -5    1    3    3    0  502 -0.36887616491E+03 -0.48148446486E+03 -0.16522108677E+03  0.62866287662E+03  0.46999998093E+01 0. -1.
</event>
<event>
 5   0  0.5957913E-04  0.1248478E+04  0.7818609E-02  0.9071451E-01
       -2   -1    0    0    0  501  0.00000000000E+00  0.00000000000E+00  0.39930940141E+03  0.39930940142E+03  0.25500000920E-02 0.  1.
        2   -1    0    0  501    0  0.00000000000E+00  0.00000000000E+00 -0.97587052732E+03  0.97587052733E+03  0.25500000920E-02 0. -1.
    10030    2    1    2    0    0  0.00000000000E+00  0.00000000000E+00 -0.57656112592E+03  0.13751799287E+04  0.12484779151E+04 0.  0.
        1    1    3    3  502    0  0.49548986489E+03 -0.16802996617E+03 -0.66331969017E+03  0.84482973855E+03  0.50400001928E-02 0. -1.
       -1    1    3    3    0  502 -0.49548986489E+03  0.16802996617E+03  0.86758564256E+02  0.53035019019E+03  0.50400001928E-02 0.  1.
</event>
<event>
 5   0  0.6007125E-04  0.1301380E+04  0.7818609E-02  0.9028472E-01
        2   -1    0    0  501    0  0.00000000000E+00  0.00000000000E+00  0.16684293307E+04  0.16684293307E+04  0.25500000920E-02 0. -1.
       -2   -1    0    0    0  501  0.00000000000E+00  0.00000000000E+00 -0.25377002593E+03  0.25377002594E+03  0.25500000920E-02 0.  1.
    10030    2    1    2    0    0  0.00000000000E+00  0.00000000000E+00  0.14146593047E+04  0.19221993566E+04  0.13013798131E+04 0.  0.
        5    1    3    3  502    0 -0.16827122583E+03 -0.13680317040E+03  0.16134531844E+04  0.16279691585E+04  0.46999998093E+01 0. -1.
       -5    1    3    3    0  502  0.16827122583E+03  0.13680317040E+03 -0.19879387967E+03  0.29423019808E+03  0.46999998093E+01 0.  1.
</event>
<event>
 5   0  0.6007125E-04  0.1303883E+04  0.7818609E-02  0.9026491E-01
        2   -1    0    0  501    0  0.00000000000E+00  0.00000000000E+00  0.13730350604E+04  0.13730350604E+04  0.25500000920E-02 0.  1.
       -2   -1    0    0    0  501  0.00000000000E+00  0.00000000000E+00 -0.30955363607E+03  0.30955363608E+03  0.25500000920E-02 0. -1.
    10030    2    1    2    0    0  0.00000000000E+00  0.00000000000E+00  0.10634814244E+04  0.16825886965E+04  0.13038834233E+04 0.  0.
        5    1    3    3  502    0 -0.75124601483E+02  0.20717780723E+03 -0.26000702196E+03  0.34086961000E+03  0.46999998093E+01 0. -1.
       -5    1    3    3    0  502  0.75124601483E+02 -0.20717780723E+03  0.13234884463E+04  0.13417190865E+04  0.46999998093E+01 0.  1.
</event>
<event>
 5   0  0.3335747E-04  0.1314447E+04  0.7818609E-02  0.9018187E-01
        1   -1    0    0  501    0  0.00000000000E+00  0.00000000000E+00  0.76384908854E+03  0.76384908856E+03  0.50400001928E-02 0. -1.
       -1   -1    0    0    0  501  0.00000000000E+00  0.00000000000E+00 -0.56548142687E+03  0.56548142689E+03  0.50400001928E-02 0.  1.
    10030    2    1    2    0    0  0.00000000000E+00  0.00000000000E+00  0.19836766167E+03  0.13293305154E+04  0.13144466098E+04 0.  0.
        3    1    3    3  502    0 -0.35549170688E+03  0.55059295589E+03  0.49479521101E+02  0.65724819509E+03  0.10100000352E+00 0. -1.
       -3    1    3    3    0  502  0.35549170688E+03 -0.55059295589E+03  0.14888814057E+03  0.67208232036E+03  0.10100000352E+00 0.  1.
</event>
<event>
 5   0  0.3337520E-04  0.1303049E+04  0.7818609E-02  0.9027151E-01
        1   -1    0    0  501    0  0.00000000000E+00  0.00000000000E+00  0.92425239233E+03  0.92425239234E+03  0.50400001928E-02 0.  1.
       -1   -1    0    0    0  501  0.00000000000E+00  0.00000000000E+00 -0.45927282680E+03  0.45927282683E+03  0.50400001928E-02 0. -1.
    10030    2    1    2    0    0  0.00000000000E+00  0.00000000000E+00  0.46497956553E+03  0.13835252192E+04  0.13030487465E+04 0.  0.
        5    1    3    3  502    0 -0.46974145506E+03 -0.42734671757E+03  0.38701023985E+03  0.74369433733E+03  0.46999998093E+01 0.  1.
       -5    1    3    3    0  502  0.46974145506E+03  0.42734671757E+03  0.77969325675E+02  0.63983088185E+03  0.46999998093E+01 0. -1.
</event>
<event>
 5   0  0.6007125E-04  0.1303514E+04  0.7818609E-02  0.9026783E-01
       -2   -1    0    0    0  501  0.00000000000E+00  0.00000000000E+00  0.17993332160E+03  0.17993332161E+03  0.25500000920E-02 0. -1.
        2   -1    0    0  501    0  0.00000000000E+00  0.00000000000E+00 -0.23608027915E+04  0.23608027915E+04  0.25500000920E-02 0.  1.
    10030    2    1    2    0    0  0.00000000000E+00  0.00000000000E+00 -0.21808694699E+04  0.25407361131E+04  0.13035138479E+04 0.  0.
        5    1    3    3  502    0  0.44093284251E+03 -0.27685890957E+03 -0.18545696884E+04  0.19262719036E+04  0.46999998093E+01 0.  1.
       -5    1    3    3    0  502 -0.44093284251E+03  0.27685890957E+03 -0.32629978155E+03  0.61446420957E+03  0.46999998093E+01 0. -1.
</event>
<event>
 5   0  0.3263679E-04  0.1298229E+04  0.7818609E-02  0.9030971E-01
        1   -1    0    0  501    0  0.00000000000E+00  0.00000000000E+00  0.13899644128E+04  0.13899644128E+04  0.50400001928E-02 0. -1.
       -1   -1    0    0    0  501  0.00000000000E+00  0.00000000000E+00 -0.30313702025E+03  0.30313702029E+03  0.50400001928E-02 0.  1.
    10030    2    1    2    0    0  0.00000000000E+00  0.00000000000E+00  0.10868273925E+04  0.16931014331E+04  0.12982290559E+04 0.  0.
        2    1    3    3  502    0  0.18221705099E+03  0.31665654902E+03  0.12431490452E+04  0.12957214099E+04  0.25500000920E-02 0. -1.
       -2    1    3    3    0  502 -0.18221705099E+03 -0.31665654902E+03 -0.15632165263E+03  0.39738002314E+03  0.25500000920E-02 0.  1.
</event>
<event>
 5   0  0.5957913E-04  0.1292088E+04  0.7818609E-02  0.9035863E-01
       -2   -1    0    0    0  501  0.00000000000E+00  0.00000000000E+00  0.57984771160E+03  0.57984771160E+03  0.25500000920E-02 0.  1.
        2   -1    0    0  501    0  0.00000000000E+00  0.00000000000E+00 -0.71979703858E+03  0.71979703859E+03  0.25500000920E-02 0. -1.
    10030    2    1    2    0    0  0.00000000000E+00  0.00000000000E+00 -0.13994932699E+03  0.12996447502E+04  0.12920877147E+04 0.  0.
        1    1    3    3  502    0 -0.52060235172E+03  0.35065120753E+03 -0.22380569154E+03  0.66638732397E+03  0.50400001928E-02 0.  1.
       -1    1    3    3    0  502  0.52060235172E+03 -0.35065120753E+03  0.83856364555E+02  0.63325742622E+03  0.50400001928E-02 0. -1.
</event>
<event>
 5   0  0.3337520E-04  0.1291411E+04  0.7818609E-02  0.9036404E-01
        1   -1    0    0  501    0  0.00000000000E+00  0.00000000000E+00  0.91702607959E+03  0.91702607960E+03  0.50400001928E-02 0.  1.
       -1   -1    0    0    0  501  0.00000000000E+00  0.00000000000E+00 -0.45466085918E+03  0.45466085921E+03  0.50400001928E-02 0. -1.
    10030    2    1    2    0    0  0.00000000000E+00  0.00000000000E+00  0.46236522040E+03  0.13716869388E+04  0.12914114221E+04 0.  0.
        5    1    3    3  502    0 -0.23768633597E+03 -0.44250356134E+03  0.66212372654E+03  0.83110415433E+03  0.46999998093E+01 0.  1.
       -5    1    3    3    0  502  0.23768633597E+03  0.44250356134E+03 -0.19975850614E+03  0.54058278448E+03  0.46999998093E+01 0. -1.
</event>
<event>
 5   0  0.3403833E-04  0.1294628E+04  0.7818609E-02  0.9033836E-01
        1   -1    0    0  501    0  0.00000000000E+00  0.00000000000E+00  0.14649131609E+04  0.14649131609E+04  0.50400001928E-02 0. -1.
       -1   -1    0    0    0  501  0.00000000000E+00  0.00000000000E+00 -0.28603411203E+03  0.28603411208E+03  0.50400001928E-02 0.  1.
    10030    2    1    2    0    0  0.00000000000E+00  0.00000000000E+00  0.11788790489E+04  0.17509472730E+04  0.12946275684E+04 0.  0.
        1    1    3    3  502    0  0.28896265945E+03  0.40466449667E+03  0.11499609513E+04  0.12528619090E+04  0.50400001928E-02 0.  1.
       -1    1    3    3    0  502 -0.28896265945E+03 -0.40466449667E+03  0.28918097533E+02  0.49808536398E+03  0.50400001928E-02 0. -1.
</event>
<event>
 5   0  0.3403833E-04  0.1288626E+04  0.7818609E-02  0.9038634E-01
       -1   -1    0    0    0  501  0.00000000000E+00  0.00000000000E+00  0.93909028179E+03  0.93909028180E+03  0.50400001928E-02 0.  1.
        1   -1    0    0  501    0  0.00000000000E+00  0.00000000000E+00 -0.44206523104E+03  0.44206523107E+03  0.50400001928E-02 0. -1.
    10030    2    1    2    0    0  0.00000000000E+00  0.00000000000E+00  0.49702505075E+03  0.13811555129E+04  0.12886258765E+04 0.  0.
        1    1    3    3  502    0 -0.24728901529E+03  0.38065844884E+03  0.73860572716E+03  0.86694355755E+03  0.50400001928E-02 0.  1.
       -1    1    3    3    0  502  0.24728901529E+03 -0.38065844884E+03 -0.24158067641E+03  0.51421195532E+03  0.50400001928E-02 0. -1.
</event>
<event>
 5   0  0.3274879E-04  0.1302858E+04  0.7818609E-02  0.9027302E-01
        1   -1    0    0  501    0  0.00000000000E+00  0.00000000000E+00  0.13811706114E+04  0.13811706114E+04  0.50400001928E-02 0.  1.
       -1   -1    0    0    0  501  0.00000000000E+00  0.00000000000E+00 -0.30724647751E+03  0.30724647755E+03  0.50400001928E-02 0. -1.
    10030    2    1    2    0    0  0.00000000000E+00  0.00000000000E+00  0.10739241339E+04  0.16884170889E+04  0.13028580970E+04 0.  0.
        4    1    3    3  502    0 -0.46087054553E+03 -0.23616857420E+03  0.10491114277E+04  0.11699631002E+04  0.12699999809E+01 0.  1.
       -4    1    3    3    0  502  0.46087054553E+03  0.23616857420E+03  0.24812706183E+02  0.51845398876E+03  0.12699999809E+01 0. -1.
</event>
<event>
 5   0  0.5787604E-04  0.1297729E+04  0.7818609E-02  0.9031368E-01
        2   -1    0    0  501    0  0.00000000000E+00  0.00000000000E+00  0.96564730035E+03  0.96564730035E+03  0.25500000920E-02 0.  1.
       -2   -1    0    0    0  501  0.00000000000E+00  0.00000000000E+00 -0.43600301926E+03  0.43600301926E+03  0.25500000920E-02 0. -1.
    10030    2    1    2    0    0  0.00000000000E+00  0.00000000000E+00  0.52964428110E+03  0.14016503196E+04  0.12977289987E+04 0.  0.
        4    1    3    3  502    0  0.17492527920E+03 -0.44263020288E+03  0.74116429807E+03  0.88082147989E+03  0.12699999809E+01 0.  1.
       -4    1    3    3    0  502 -0.17492527920E+03  0.44263020288E+03 -0.21152001698E+03  0.52082883972E+03  0.12699999809E+01 0. -1.
</event>
<event>
 5   0  0.5384960E-04  0.1299472E+04  0.7818609E-02  0.9029984E-01
       -2   -1    0    0    0  501  0.00000000000E+00  0.00000000000E+00  0.51958981393E+03  0.51958981394E+03  0.25500000920E-02 0. -1.
        2   -1    0    0  501    0  0.00000000000E+00  0.00000000000E+00 -0.81248091473E+03  0.81248091474E+03  0.25500000920E-02 0.  1.
    10030    2    1    2    0    0  0.00000000000E+00  0.00000000000E+00 -0.29289110080E+03  0.13320707287E+04  0.12994719040E+04 0.  0.
        3    1    3    3  502    0 -0.12942773328E+03  0.57619470641E+03  0.13128456447E+03  0.60496902806E+03  0.10100000352E+00 0.  1.
       -3    1    3    3    0  502  0.12942773328E+03 -0.57619470641E+03 -0.42417566527E+03  0.72710170062E+03  0.10100000352E+00 0. -1.
</event>
<event>
 5   0  0.3274879E-04  0.1298029E+04  0.7818609E-02  0.9031129E-01
        1   -1    0    0  501    0  0.00000000000E+00  0.00000000000E+00  0.14195667886E+04  0.14195667886E+04  0.50400001928E-02 0.  1.
       -1   -1    0    0    0  501  0.00000000000E+00  0.00000000000E+00 -0.29672440386E+03  0.29672440390E+03  0.50400001928E-02 0. -1.
    10030    2    1    2    0    0  0.00000000000E+00  0.00000000000E+00  0.11228423847E+04  0.17162911925E+04  0.12980294436E+04 0.  0.
        4    1    3    3  502    0 -0.40280680660E+03  0.46718311377E+03  0.82818745331E+03  0.10326710299E+04  0.12699999809E+01 0.  1.
       -4    1    3    3    0  502  0.40280680660E+03 -0.46718311377E+03  0.29465493141E+03  0.68362016262E+03  0.12699999809E+01 0. -1.
</event>
<event>
 5   0  0.6007125E-04  0.1307564E+04  0.7818609E-02  0.9023588E-01
       -2   -1    0    0    0  501  0.00000000000E+00  0.00000000000E+00  0.14429694050E+03  0.14429694052E+03  0.25500000920E-02 0. -1.
        2   -1    0    0  501    0  0.00000000000E+00  0.00000000000E+00 -0.29621627287E+04  0.29621627287E+04  0.25500000920E-02 0.  1.
    10030    2    1    2    0    0  0.00000000000E+00  0.00000000000E+00 -0.28178657882E+04  0.31064596692E+04  0.13075641767E+04 0.  0.
        5    1    3    3  502    0  0.57183997391E+03  0.20504761748E+02 -0.21601675622E+04  0.22346738885E+04  0.46999998093E+01 0.  1.
       -5    1    3    3    0  502 -0.57183997391E+03 -0.20504761748E+02 -0.65769822592E+03  0.87178578068E+03  0.46999998093E+01 0. -1.
</event>
<event>
 5   0  0.5384960E-04  0.1301727E+04  0.7818609E-02  0.9028197E-01
        2   -1    0    0  501    0  0.00000000000E+00  0.00000000000E+00  0.17022289018E+04  0.17022289018E+04  0.25500000920E-02 0. -1.
       -2   -1    0    0    0  501  0.00000000000E+00  0.00000000000E+00 -0.24886396043E+03  0.24886396044E+03  0.25500000920E-02 0.  1.
    10030    2    1    2    0    0  0.00000000000E+00  0.00000000000E+00  0.14533649414E+04  0.19510928622E+04  0.13017272004E+04 0.  0.
        3    1    3    3  502    0  0.35845824969E+02 -0.28231197518E+03 -0.15067383798E+03  0.32200557472E+03  0.10100000352E+00 0.  1.
       -3    1    3    3    0  502 -0.35845824969E+02  0.28231197518E+03  0.16040387793E+04  0.16290872875E+04  0.10100000352E+00 0. -1.
</event>
<event>
 5   0  0.5787604E-04  0.1300791E+04  0.7818609E-02  0.9028938E-01
       -2   -1    0    0    0  501  0.00000000000E+00  0.00000000000E+00  0.49754818075E+03  0.49754818075E+03  0.25500000920E-02 0.  1.
        2   -1    0    0  501    0  0.00000000000E+00  0.00000000000E+00 -0.85019811812E+03  0.85019811812E+03  0.25500000920E-02 0. -1.
    10030    2    1    2    0    0  0.00000000000E+00  0.00000000000E+00 -0.35264993737E+03  0.13477462989E+04  0.13007913391E+04 0.  0.
        4    1    3    3  502    0  0.20170676727E+03  0.61793915087E+03 -0.15366071388E+03  0.66794284338E+03  0.12699999809E+01 0. -1.
       -4    1    3    3    0  502 -0.20170676727E+03 -0.61793915087E+03 -0.19898922349E+03  0.67980345549E+03  0.12699999809E+01 0.  1.
</event>
<event>
 5   0  0.6052864E-04  0.1295204E+04  0.7818609E-02  0.9033377E-01
       -2   -1    0    0    0  501  0.00000000000E+00  0.00000000000E+00  0.55740047327E+03  0.55740047328E+03  0.25500000920E-02 0.  1.
        2   -1    0    0  501    0  0.00000000000E+00  0.00000000000E+00 -0.75239992634E+03  0.75239992634E+03  0.25500000920E-02 0. -1.
    10030    2    1    2    0    0  0.00000000000E+00  0.00000000000E+00 -0.19499945306E+03  0.13098003996E+04  0.12952035748E+04 0.  0.
        2    1    3    3  502    0 -0.52360469742E+03  0.30923167586E+03 -0.32272469334E+03  0.68843106860E+03  0.25500000920E-02 0. -1.
       -2    1    3    3    0  502  0.52360469742E+03 -0.30923167586E+03  0.12772524028E+03  0.62136933102E+03  0.25500000920E-02 0.  1.
</event>
<event>
 5   0  0.6052864E-04  0.1284874E+04  0.7818609E-02  0.9041647E-01
        2   -1    0    0  501    0  0.00000000000E+00  0.00000000000E+00  0.10949062075E+04  0.10949062075E+04  0.25500000920E-02 0. -1.
       -2   -1    0    0    0  501  0.00000000000E+00  0.00000000000E+00 -0.37695030093E+03  0.37695030094E+03  0.25500000920E-02 0.  1.
    10030    2    1    2    0    0  0.00000000000E+00  0.00000000000E+00  0.71795590656E+03  0.14718565084E+04  0.12848738839E+04 0.  0.
        2    1    3    3  502    0  0.97970655066E+02 -0.37791573844E+03  0.94342829760E+03  0.10210168987E+04  0.25500000920E-02 0. -1.
       -2    1    3    3    0  502 -0.97970655066E+02  0.37791573844E+03 -0.22547239104E+03  0.45083960978E+03  0.25500000920E-02 0.  1.
</event>
<event>
 5   0  0.6052864E-04  0.1298109E+04  0.7818609E-02  0.9031066E-01
        2   -1    0    0  501    0  0.00000000000E+00  0.00000000000E+00  0.14155891320E+04  0.14155891320E+04  0.25500000920E-02 0. -1.
       -2   -1    0    0    0  501  0.00000000000E+00  0.00000000000E+00 -0.29759448856E+03  0.29759448857E+03  0.25500000920E-02 0.  1.
    10030    2    1    2    0    0  0.00000000000E+00  0.00000000000E+00  0.11179946435E+04  0.17131836206E+04  0.12981086607E+04 0.  0.
        2    1    3    3  502    0 -0.45861215143E+03 -0.16777756981E+03 -0.52604159163E+01  0.48836675804E+03  0.25500000920E-02 0.  1.
       -2    1    3    3    0  502  0.45861215143E+03  0.16777756981E+03  0.11232550594E+04  0.12248168626E+04  0.25500000920E-02 0. -1.
</event>
<event>
 5   0  0.5384960E-04  0.1331010E+04  0.7818609E-02  0.9005329E-01
       -2   -1    0    0    0  501  0.00000000000E+00  0.00000000000E+00  0.59589130442E+03  0.59589130443E+03  0.25500000920E-02 0.  1.
        2   -1    0    0  501    0  0.00000000000E+00  0.00000000000E+00 -0.74325149441E+03  0.74325149441E+03  0.25500000920E-02 0. -1.
    10030    2    1    2    0    0  0.00000000000E+00  0.00000000000E+00 -0.14736018998E+03  0.13391427988E+04  0.13310102968E+04 0.  0.
        3    1    3    3  502    0 -0.24526130319E+03 -0.51558007951E+03 -0.41770671288E+03  0.70742832388E+03  0.10100000352E+00 0. -1.
       -3    1    3    3    0  502  0.24526130319E+03  0.51558007951E+03  0.27034652290E+03  0.63171447496E+03  0.10100000352E+00 0.  1.
</event>
<event>
 5   0  0.5787604E-04  0.1307939E+04  0.7818609E-02  0.9023293E-01
        2   -1    0    0  501    0  0.00000000000E+00  0.00000000000E+00  0.50899110777E+03  0.50899110778E+03  0.25500000920E-02 0.  1.
       -2   -1    0    0    0  501  0.00000000000E+00  0.00000000000E+00 -0.84024330443E+03  0.84024330444E+03  0.25500000920E-02 0. -1.
    10030    2    1    2    0    0  0.00000000000E+00  0.00000000000E+00 -0.33125219666E+03  0.13492344122E+04  0.13079394028E+04 0.  0.
        4    1    3    3  502    0 -0.50329004782E+03 -0.29040136968E+03 -0.47516823149E+03  0.75061327517E+03  0.12699999809E+01 0. -1.
       -4    1    3    3    0  502  0.50329004782E+03  0.29040136968E+03  0.14391603483E+03  0.59862113705E+03  0.12699999809E+01 0.  1.
</event>
<event>
 5   0  0.5957913E-04  0.1301489E+04  0.7818609E-02  0.9028385E-01
       -2   -1    0    0    0  501  0.00000000000E+00  0.00000000000E+00  0.13543665607E+04  0.13543665607E+04  0.25500000920E-02 0.  1.
        2   -1    0    0  501    0  0.00000000000E+00  0.00000000000E+00 -0.31266898440E+03  0.31266898441E+03  0.25500000920E-02 0. -1.
    10030    2    1    2    0    0  0.00000000000E+00  0.00000000000E+00  0.10416975763E+04  0.16670355451E+04  0.13014890196E+04 0.  0.
        1    1    3    3  502    0  0.38528495575E+03 -0.35448880200E+03  0.25827536869E+02  0.52418877283E+03  0.50400001928E-02 0. -1.
       -1    1    3    3    0  502 -0.38528495575E+03  0.35448880200E+03  0.10158700394E+04  0.11428467723E+04  0.50400001928E-02 0.  1.
</event>
<event>
 5   0  0.3403833E-04  0.1213071E+04  0.7818609E-02  0.9101492E-01
       -1   -1    0    0    0  501  0.00000000000E+00  0.00000000000E+00  0.31909294228E+03  0.31909294232E+03  0.50400001928E-02 0. -1.
        1   -1    0    0  501    0  0.00000000000E+00  0.00000000000E+00 -0.11529093377E+04  0.11529093377E+04  0.50400001928E-02 0.  1.
    10030    2    1    2    0    0  0.00000000000E+00  0.00000000000E+00 -0.83381639542E+03  0.14720022800E+04  0.12130708681E+04 0.  0.
        1    1    3    3  502    0  0.17685415615E+03 -0.49994527425E+03 -0.77413009581E+03  0.93834965501E+03  0.50400001928E-02 0.  1.
       -1    1    3    3    0  502 -0.17685415615E+03  0.49994527425E+03 -0.59686299614E+02  0.53365262501E+03  0.50400001928E-02 0. -1.
</event>
<event>
 5   0  0.3335747E-04  0.1298368E+04  0.7818609E-02  0.9030860E-01
        1   -1    0    0  501    0  0.00000000000E+00  0.00000000000E+00  0.98753023821E+03  0.98753023822E+03  0.50400001928E-02 0.  1.
       -1   -1    0    0    0  501  0.00000000000E+00  0.00000000000E+00 -0.42676159508E+03  0.42676159511E+03  0.50400001928E-02 0. -1.
    10030    2    1    2    0    0  0.00000000000E+00  0.00000000000E+00  0.56076864312E+03  0.14142918333E+04  0.12983681753E+04 0.  0.
        3    1    3    3  502    0  0.19166677371E+03 -0.15563429632E+03 -0.37362333558E+03  0.44783098757E+03  0.10100000352E+00 0. -1.
       -3    1    3    3    0  502 -0.19166677371E+03  0.15563429632E+03  0.93439197870E+03  0.96646084577E+03  0.10100000352E+00 0.  1.
</event>
<event>
 5   0  0.3274879E-04  0.1300952E+04  0.7818609E-02  0.9028810E-01
        1   -1    0    0  501    0  0.00000000000E+00  0.00000000000E+00  0.97536172923E+03  0.97536172924E+03  0.50400001928E-02 0.  1.
       -1   -1    0    0    0  501  0.00000000000E+00  0.00000000000E+00 -0.43380747430E+03  0.43380747433E+03  0.50400001928E-02 0. -1.
    10030    2    1    2    0    0  0.00000000000E+00  0.00000000000E+00  0.54155425493E+03  0.14091692036E+04  0.13009522794E+04 0.  0.
        4    1    3    3  502    0 -0.20168802280E+03 -0.26016916683E+03 -0.33691793808E+03  0.47104284711E+03  0.12699999809E+01 0. -1.
       -4    1    3    3    0  502  0.20168802280E+03  0.26016916683E+03  0.87847219300E+03  0.93812635646E+03  0.12699999809E+01 0.  1.
</event>
<event>
 5   0  0.5787604E-04  0.1299993E+04  0.7818609E-02  0.9029571E-01
       -2   -1    0    0    0  501  0.00000000000E+00  0.00000000000E+00  0.80818751578E+03  0.80818751579E+03  0.25500000920E-02 0.  1.
        2   -1    0    0  501    0  0.00000000000E+00  0.00000000000E+00 -0.52276880465E+03  0.52276880465E+03  0.25500000920E-02 0. -1.
    10030    2    1    2    0    0  0.00000000000E+00  0.00000000000E+00  0.28541871114E+03  0.13309563204E+04  0.12999926485E+04 0.  0.
        4    1    3    3  502    0  0.26998548327E+03 -0.38223977282E+03 -0.31913849643E+03  0.56643657889E+03  0.12699999809E+01 0. -1.
       -4    1    3    3    0  502 -0.26998548327E+03  0.38223977282E+03  0.60455720756E+03  0.76451974155E+03  0.12699999809E+01 0.  1.
</event>
<event>
 5   0  0.6052864E-04  0.1299697E+04  0.7818609E-02  0.9029806E-01
        2   -1    0    0  501    0  0.00000000000E+00  0.00000000000E+00  0.20799576303E+04  0.20799576303E+04  0.25500000920E-02 0.  1.
       -2   -1    0    0    0  501  0.00000000000E+00  0.00000000000E+00 -0.20303436604E+03  0.20303436606E+03  0.25500000920E-02 0. -1.
    10030    2    1    2    0    0  0.00000000000E+00  0.00000000000E+00  0.18769232643E+04  0.22829919964E+04  0.12996967014E+04 0.  0.
        2    1    3    3  502    0  0.13382856163E+03 -0.14149443753E+03  0.20274877897E+04  0.20368204382E+04  0.25500000920E-02 0.  1.
       -2    1    3    3    0  502 -0.13382856163E+03  0.14149443753E+03 -0.15056452543E+03  0.24617155824E+03  0.25500000920E-02 0. -1.
</event>
<event>
 5   0  0.6052864E-04  0.1299304E+04  0.7818609E-02  0.9030117E-01
        2   -1    0    0  501    0  0.00000000000E+00  0.00000000000E+00  0.13926491210E+04  0.13926491210E+04  0.25500000920E-02 0.  1.
       -2   -1    0    0    0  501  0.00000000000E+00  0.00000000000E+00 -0.30305387886E+03  0.30305387887E+03  0.25500000920E-02 0. -1.
    10030    2    1    2    0    0  0.00000000000E+00  0.00000000000E+00  0.10895952422E+04  0.16957029999E+04  0.12993039953E+04 0.  0.
        2    1    3    3  502    0  0.85486816595E+02  0.23233839493E+03  0.13286736007E+04  0.13515408476E+04  0.25500000920E-02 0.  1.
       -2    1    3    3    0  502 -0.85486816595E+02 -0.23233839493E+03 -0.23907835850E+03  0.34416215231E+03  0.25500000920E-02 0. -1.
</event>
<event>
 5   0  0.5957913E-04  0.1297816E+04  0.7818609E-02  0.9031299E-01
       -2   -1    0    0    0  501  0.00000000000E+00  0.00000000000E+00  0.28981158170E+03  0.28981158171E+03  0.25500000920E-02 0. -1.
        2   -1    0    0  501    0  0.00000000000E+00  0.00000000000E+00 -0.14529486677E+04  0.14529486677E+04  0.25500000920E-02 0.  1.
    10030    2    1    2    0    0  0.00000000000E+00  0.00000000000E+00 -0.11631370860E+04  0.17427602494E+04  0.12978156287E+04 0.  0.
        1    1    3    3  502    0  0.62524754372E+02  0.69375546251E+02 -0.14438765243E+04  0.14468938208E+04  0.50400001928E-02 0.  1.
       -1    1    3    3    0  502 -0.62524754372E+02 -0.69375546251E+02  0.28073943829E+03  0.29586642858E+03  0.50400001928E-02 0. -1.
</event>
<event>
 5   0  0.6007125E-04  0.1299192E+04  0.7818609E-02  0.9030206E-01
        2   -1    0    0  501    0  0.00000000000E+00  0.00000000000E+00  0.98310104316E+03  0.98310104316E+03  0.25500000920E-02 0. -1.
       -2   -1    0    0    0  501  0.00000000000E+00  0.00000000000E+00 -0.42922878587E+03  0.42922878588E+03  0.25500000920E-02 0.  1.
    10030    2    1    2    0    0  0.00000000000E+00  0.00000000000E+00  0.55387225729E+03  0.14123298290E+04  0.12991924679E+04 0.  0.
        5    1    3    3  502    0 -0.82443671506E+02 -0.28184769024E+03  0.90680480962E+03  0.95318001039E+03  0.46999998093E+01 0. -1.
       -5    1    3    3    0  502  0.82443671506E+02  0.28184769024E+03 -0.35293255233E+03  0.45914981864E+03  0.46999998093E+01 0.  1.
</event>
<event>
 5   0  0.3263679E-04  0.1303063E+04  0.7818609E-02  0.9027140E-01
        1   -1    0    0  501    0  0.00000000000E+00  0.00000000000E+00  0.17898679435E+04  0.17898679436E+04  0.50400001928E-02 0. -1.
       -1   -1    0    0    0  501  0.00000000000E+00  0.00000000000E+00 -0.23716453875E+03  0.23716453881E+03  0.50400001928E-02 0.  1.
    10030    2    1    2    0    0  0.00000000000E+00  0.00000000000E+00  0.15527034048E+04  0.20270324824E+04  0.13030628616E+04 0.  0.
        2    1    3    3  502    0 -0.18899538720E+02  0.24281774103E+03 -0.16368798923E+03  0.29344744972E+03  0.25500000920E-02 0.  1.
       -2    1    3    3    0  502  0.18899538720E+02 -0.24281774103E+03  0.17163913940E+04  0.17335850326E+04  0.25500000920E-02 0. -1.
</event>
<event>
 5   0  0.3335747E-04  0.1307866E+04  0.7818609E-02  0.9023351E-01
       -1   -1    0    0    0  501  0.00000000000E+00  0.00000000000E+00  0.35930810150E+03  0.35930810153E+03  0.50400001928E-02 0.  1.
        1   -1    0    0  501    0  0.00000000000E+00  0.00000000000E+00 -0.11901434698E+04  0.11901434698E+04  0.50400001928E-02 0. -1.
    10030    2    1    2    0    0  0.00000000000E+00  0.00000000000E+00 -0.83083536832E+03  0.15494515714E+04  0.13078657281E+04 0.  0.
        3    1    3    3  502    0  0.32898531445E+02 -0.25075299073E+03 -0.11298611554E+04  0.11578193367E+04  0.10100000352E+00 0. -1.
       -3    1    3    3    0  502 -0.32898531445E+02  0.25075299073E+03  0.29902578705E+03  0.39163223470E+03  0.10100000352E+00 0.  1.
</event>
<event>
 5   0  0.3403833E-04  0.1303764E+04  0.7818609E-02  0.9026585E-01
       -1   -1    0    0    0  501  0.00000000000E+00  0.00000000000E+00  0.32978365910E+03  0.32978365914E+03  0.50400001928E-02 0.  1.
        1   -1    0    0  501    0  0.00000000000E+00  0.00000000000E+00 -0.12885732892E+04  0.12885732892E+04  0.50400001928E-02 0. -1.
    10030    2    1    2    0    0  0.00000000000E+00  0.00000000000E+00 -0.95878963006E+03  0.16183569483E+04  0.13037644179E+04 0.  0.
        1    1    3    3  502    0 -0.15147804995E+03 -0.60022382538E+03 -0.73298445703E+03  0.95941672616E+03  0.50400001928E-02 0. -1.
       -1    1    3    3    0  502  0.15147804995E+03  0.60022382538E+03 -0.22580517303E+03  0.65894022215E+03  0.50400001928E-02 0.  1.
</event>
<event>
 5   0  0.3263679E-04  0.1299453E+04  0.7818609E-02  0.9029999E-01
       -1   -1    0    0    0  501  0.00000000000E+00  0.00000000000E+00  0.26404821382E+03  0.26404821387E+03  0.50400001928E-02 0. -1.
        1   -1    0    0  501    0  0.00000000000E+00  0.00000000000E+00 -0.15987404018E+04  0.15987404018E+04  0.50400001928E-02 0.  1.
    10030    2    1    2    0    0  0.00000000000E+00  0.00000000000E+00 -0.13346921880E+04  0.18627886157E+04  0.12994530350E+04 0.  0.
        2    1    3    3  502    0  0.34354786983E+03 -0.51949409405E+03 -0.93262544263E+03  0.11214675514E+04  0.25500000920E-02 0.  1.
       -2    1    3    3    0  502 -0.34354786983E+03  0.51949409405E+03 -0.40206674538E+03  0.74132106429E+03  0.25500000920E-02 0. -1.
</event>
<event>
 5   0  0.5384960E-04  0.1302156E+04  0.7818609E-02  0.9027858E-01
        2   -1    0    0  501    0  0.00000000000E+00  0.00000000000E+00  0.45905126356E+03  0.45905126357E+03  0.25500000920E-02 0. -1.
       -2   -1    0    0    0  501  0.00000000000E+00  0.00000000000E+00 -0.92343121189E+03  0.92343121189E+03  0.25500000920E-02 0.  1.
    10030    2    1    2    0    0  0.00000000000E+00  0.00000000000E+00 -0.46437994833E+03  0.13824824755E+04  0.13021555431E+04 0.  0.
        3    1    3    3  502    0 -0.43280245014E+03  0.85426486177E+02 -0.74056723473E+03  0.86200666166E+03  0.10100000352E+00 0.  1.
       -3    1    3    3    0  502  0.43280245014E+03 -0.85426486177E+02  0.27618728640E+03  0.52047581381E+03  0.10100000352E+00 0. -1.
</event>
<event>
 5   0  0.3263679E-04  0.1295434E+04  0.7818609E-02  0.9033194E-01
       -1   -1    0    0    0  501  0.00000000000E+00  0.00000000000E+00  0.90788969526E+03  0.90788969527E+03  0.50400001928E-02 0. -1.
        1   -1    0    0  501    0  0.00000000000E+00  0.00000000000E+00 -0.46210134210E+03  0.46210134213E+03  0.50400001928E-02 0.  1.
    10030    2    1    2    0    0  0.00000000000E+00  0.00000000000E+00  0.44578835316E+03  0.13699910374E+04  0.12954335902E+04 0.  0.
        2    1    3    3  502    0 -0.40251689526E+03  0.12858108521E+03  0.74204884857E+03  0.85392589849E+03  0.25500000920E-02 0. -1.
       -2    1    3    3    0  502  0.40251689526E+03 -0.12858108521E+03 -0.29626049541E+03  0.51606513891E+03  0.25500000920E-02 0.  1.
</event>
<event>
 5   0  0.6007125E-04  0.1310143E+04  0.7818609E-02  0.9021560E-01
       -2   -1    0    0    0  501  0.00000000000E+00  0.00000000000E+00  0.36328710534E+03  0.36328710535E+03  0.25500000920E-02 0.  1.
        2   -1    0    0  501    0  0.00000000000E+00  0.00000000000E+00 -0.11812112451E+04  0.11812112451E+04  0.25500000920E-02 0. -1.
    10030    2    1    2    0    0  0.00000000000E+00  0.00000000000E+00 -0.81792413978E+03  0.15444983505E+04  0.13101432197E+04 0.  0.
        5    1    3    3  502    0  0.42496076388E+03 -0.56270822313E+02 -0.99287981898E+03  0.10814760659E+04  0.46999998093E+01 0. -1.
       -5    1    3    3    0  502 -0.42496076388E+03  0.56270822313E+02  0.17495567920E+03  0.46302228452E+03  0.46999998093E+01 0.  1.
</event>
<event>
 5   0  0.5957913E-04  0.1301770E+04  0.7818609E-02  0.9028162E-01
        2   -1    0    0  501    0  0.00000000000E+00  0.00000000000E+00  0.17837138991E+04  0.17837138991E+04  0.25500000920E-02 0. -1.
       -2   -1    0    0    0  501  0.00000000000E+00  0.00000000000E+00 -0.23751088236E+03  0.23751088237E+03  0.25500000920E-02 0.  1.
    10030    2    1    2    0    0  0.00000000000E+00  0.00000000000E+00  0.15462030167E+04  0.20212247814E+04  0.13017702747E+04 0.  0.
        1    1    3    3  502    0 -0.32265393252E+02 -0.36068817871E+03 -0.66656050936E+02  0.36821195936E+03  0.50400001928E-02 0.  1.
       -1    1    3    3    0  502  0.32265393252E+02  0.36068817871E+03  0.16128590676E+04  0.16530128221E+04  0.50400001928E-02 0. -1.
</event>
<event>
 5   0  0.3337520E-04  0.1299894E+04  0.7818609E-02  0.9029650E-01
       -1   -1    0    0    0  501  0.00000000000E+00  0.00000000000E+00  0.51759496523E+03  0.51759496526E+03  0.50400001928E-02 0. -1.
        1   -1    0    0  501    0  0.00000000000E+00  0.00000000000E+00 -0.81614159124E+03  0.81614159126E+03  0.50400001928E-02 0.  1.
    10030    2    1    2    0    0  0.00000000000E+00  0.00000000000E+00 -0.29854662601E+03  0.13337365565E+04  0.12998935011E+04 0.  0.
        5    1    3    3  502    0  0.40198944611E+03 -0.42349940533E+02 -0.67146342494E+03  0.78375650127E+03  0.46999998093E+01 0.  1.
       -5    1    3    3    0  502 -0.40198944611E+03  0.42349940533E+02  0.37291679893E+03  0.54998005525E+03  0.46999998093E+01 0. -1.
</event>
<event>
 5   0  0.3335747E-04  0.1303656E+04  0.7818609E-02  0.9026671E-01
       -1   -1    0    0    0  501  0.00000000000E+00  0.00000000000E+00  0.63050030129E+03  0.63050030131E+03  0.50400001928E-02 0. -1.
        1   -1    0    0  501    0  0.00000000000E+00  0.00000000000E+00 -0.67387707312E+03  0.67387707314E+03  0.50400001928E-02 0.  1.
    10030    2    1    2    0    0  0.00000000000E+00  0.00000000000E+00 -0.43376771835E+02  0.13043773744E+04  0.13036559326E+04 0.  0.
        3    1    3    3  502    0  0.12322579079E+03 -0.31752960150E+03 -0.57775672292E+03  0.67068061284E+03  0.10100000352E+00 0.  1.
       -3    1    3    3    0  502 -0.12322579079E+03  0.31752960150E+03  0.53437995109E+03  0.63369676161E+03  0.10100000352E+00 0. -1.
</event>
<event>
 5   0  0.3274879E-04  0.1301633E+04  0.7818609E-02  0.9028271E-01
       -1   -1    0    0    0  501  0.00000000000E+00  0.00000000000E+00  0.31806058414E+03  0.31806058418E+03  0.50400001928E-02 0.  1.
        1   -1    0    0  501    0  0.00000000000E+00  0.00000000000E+00 -0.13317021449E+04  0.13317021449E+04  0.50400001928E-02 0. -1.
    10030    2    1    2    0    0  0.00000000000E+00  0.00000000000E+00 -0.10136415607E+04  0.16497627291E+04  0.13016327626E+04 0.  0.
        4    1    3    3  502    0  0.38667255480E+03 -0.32044807550E+03 -0.10314891082E+04  0.11472462800E+04  0.12699999809E+01 0. -1.
       -4    1    3    3    0  502 -0.38667255480E+03  0.32044807550E+03  0.17847547474E+02  0.50251644907E+03  0.12699999809E+01 0.  1.
</event>
<event>
 5   0  0.3337520E-04  0.1302413E+04  0.7818609E-02  0.9027654E-01
       -1   -1    0    0    0  501  0.00000000000E+00  0.00000000000E+00  0.84281366504E+03  0.84281366506E+03  0.50400001928E-02 0. -1.
        1   -1    0    0  501    0  0.00000000000E+00  0.00000000000E+00 -0.50315980757E+03  0.50315980759E+03  0.50400001928E-02 0.  1.
    10030    2    1    2    0    0  0.00000000000E+00  0.00000000000E+00  0.33965385747E+03  0.13459734727E+04  0.13024130858E+04 0.  0.
        5    1    3    3  502    0  0.20389051608E+03  0.34948496393E+03  0.69712419708E+03  0.80604920365E+03  0.46999998093E+01 0. -1.
       -5    1    3    3    0  502 -0.20389051608E+03 -0.34948496393E+03 -0.35747033960E+03  0.53992426900E+03  0.46999998093E+01 0.  1.
</event>
<event>
 5   0  0.6052864E-04  0.1295658E+04  0.7818609E-02  0.9033015E-01
        2   -1    0    0  501    0  0.00000000000E+00  0.00000000000E+00  0.21092463295E+04  0.21092463295E+04  0.25500000920E-02 0. -1.
       -2   -1    0    0    0  501  0.00000000000E+00  0.00000000000E+00 -0.19897281901E+03  0.19897281902E+03  0.25500000920E-02 0.  1.
    10030    2    1    2    0    0  0.00000000000E+00  0.00000000000E+00  0.19102735105E+04  0.23082191486E+04  0.12956584244E+04 0.  0.
        2    1    3    3  502    0  0.23112813011E+03  0.20344910366E+03 -0.60274440256E+02  0.31375907710E+03  0.25500000920E-02 0.  1.
       -2    1    3    3    0  502 -0.23112813011E+03 -0.20344910366E+03  0.19705479508E+04  0.19944600715E+04  0.25500000920E-02 0. -1.
</event>
<event>
 5   0  0.3263679E-04  0.1302646E+04  0.7818609E-02  0.9027469E-01
        1   -1    0    0  501    0  0.00000000000E+00  0.00000000000E+00  0.88189331464E+03  0.88189331465E+03  0.50400001928E-02 0. -1.
       -1   -1    0    0    0  501  0.00000000000E+00  0.00000000000E+00 -0.48103538229E+03  0.48103538232E+03  0.50400001928E-02 0.  1.
    10030    2    1    2    0    0  0.00000000000E+00  0.00000000000E+00  0.40085793235E+03  0.13629286970E+04  0.13026463646E+04 0.  0.
        2    1    3    3  502    0 -0.57553655029E+03  0.79768065590E+02 -0.10749764838E+03  0.59089847640E+03  0.25500000920E-02 0.  1.
       -2    1    3    3    0  502  0.57553655029E+03 -0.79768065590E+02  0.50835558073E+03  0.77203022057E+03  0.25500000920E-02 0. -1.
</event>
<event>
 5   0  0.5384960E-04  0.1314176E+04  0.7818609E-02  0.9018399E-01
       -2   -1    0    0    0  501  0.00000000000E+00  0.00000000000E+00  0.32940483688E+03  0.32940483688E+03  0.25500000920E-02 0. -1.
        2   -1    0    0  501    0  0.00000000000E+00  0.00000000000E+00 -0.13107409828E+04  0.13107409828E+04  0.25500000920E-02 0.  1.
    10030    2    1    2    0    0  0.00000000000E+00  0.00000000000E+00 -0.98133614595E+03  0.16401458197E+04  0.13141756650E+04 0.  0.
        3    1    3    3  502    0 -0.70339351109E+02 -0.56637537235E+03 -0.89706942192E+03  0.10632319806E+04  0.10100000352E+00 0.  1.
       -3    1    3    3    0  502  0.70339351109E+02  0.56637537235E+03 -0.84266724027E+02  0.57691383906E+03  0.10100000352E+00 0. -1.
</event>
<event>
 5   0  0.3403833E-04  0.1293990E+04  0.7818609E-02  0.9034345E-01
       -1   -1    0    0    0  501  0.00000000000E+00  0.00000000000E+00  0.32569662491E+03  0.32569662494E+03  0.50400001928E-02 0.  1.
        1   -1    0    0  501    0  0.00000000000E+00  0.00000000000E+00 -0.12852528193E+04  0.12852528193E+04  0.50400001928E-02 0. -1.
    10030    2    1    2    0    0  0.00000000000E+00  0.00000000000E+00 -0.95955619440E+03  0.16109494443E+04  0.12939899620E+04 0.  0.
        1    1    3    3  502    0 -0.64316210423E+03  0.68491998550E+02 -0.45994239951E+03  0.79365966073E+03  0.50400001928E-02 0. -1.
       -1    1    3    3    0  502  0.64316210423E+03 -0.68491998550E+02 -0.49961379489E+03  0.81728978352E+03  0.50400001928E-02 0.  1.
</event>
<event>
 5   0  0.5384960E-04  0.1297812E+04  0.7818609E-02  0.9031302E-01
       -2   -1    0    0    0  501  0.00000000000E+00  0.00000000000E+00  0.15391472261E+04  0.15391472261E+04  0.25500000920E-02 0.  1.
        2   -1    0    0  501    0  0.00000000000E+00  0.00000000000E+00 -0.27357943158E+03  0.27357943159E+03  0.25500000920E-02 0. -1.
    10030    2    1    2    0    0  0.00000000000E+00  0.00000000000E+00  0.12655677945E+04  0.18127266577E+04  0.12978120407E+04 0.  0.
        3    1    3    3  502    0  0.30471696445E+03  0.50024115602E+03  0.24272778110E+03  0.63404292325E+03  0.10100000352E+00 0. -1.
       -3    1    3    3    0  502 -0.30471696445E+03 -0.50024115602E+03  0.10228400134E+04  0.11786837344E+04  0.10100000352E+00 0.  1.
</event>
<event>
 5   0  0.6007125E-04  0.1306309E+04  0.7818609E-02  0.9024577E-01
        2   -1    0    0  501    0  0.00000000000E+00  0.00000000000E+00  0.16729019930E+04  0.16729019930E+04  0.25500000920E-02 0.  1.
       -2   -1    0    0    0  501  0.00000000000E+00  0.00000000000E+00 -0.25501245948E+03  0.25501245949E+03  0.25500000920E-02 0. -1.
    10030    2    1    2    0    0  0.00000000000E+00  0.00000000000E+00  0.14178895335E+04  0.19279144525E+04  0.13063090778E+04 0.  0.
        5    1    3    3  502    0 -0.28743636551E+03  0.10486155090E+02  0.15743750724E+04  0.16004401214E+04  0.46999998093E+01 0.  1.
       -5    1    3    3    0  502  0.28743636551E+03 -0.10486155090E+02 -0.15648553885E+03  0.32747433110E+03  0.46999998093E+01 0. -1.
</event>
<event>
 5   0  0.6007125E-04  0.1297626E+04  0.7818609E-02  0.9031450E-01
       -2   -1    0    0    0  501  0.00000000000E+00  0.00000000000E+00  0.50617260463E+03  0.50617260463E+03  0.25500000920E-02 0.  1.
        2   -1    0    0  501    0  0.00000000000E+00  0.00000000000E+00 -0.83164911362E+03  0.83164911362E+03  0.25500000920E-02 0. -1.
    10030    2    1    2    0    0  0.00000000000E+00  0.00000000000E+00 -0.32547650899E+03  0.13378217183E+04  0.12976255207E+04 0.  0.
        5    1    3    3  502    0  0.16683558040E+03  0.86741054140E+02 -0.80292232967E+03  0.82466022024E+03  0.46999998093E+01 0. -1.
       -5    1    3    3    0  502 -0.16683558040E+03 -0.86741054140E+02  0.47744582068E+03  0.51316149801E+03  0.46999998093E+01 0.  1.
</event>
<event>
 5   0  0.5384960E-04  0.1307220E+04  0.7818609E-02  0.9023859E-01
        2   -1    0    0  501    0  0.00000000000E+00  0.00000000000E+00  0.42661459600E+03  0.42661459601E+03  0.25500000920E-02 0.  1.
       -2   -1    0    0    0  501  0.00000000000E+00  0.00000000000E+00 -0.10013861395E+04  0.10013861395E+04  0.25500000920E-02 0. -1.
    10030    2    1    2    0    0  0.00000000000E+00  0.00000000000E+00 -0.57477154350E+03  0.14280007355E+04  0.13072198642E+04 0.  0.
        3    1    3    3  502    0 -0.56453750117E+03 -0.26892167888E+03 -0.79587983032E+02  0.63036157627E+03  0.10100000352E+00 0.  1.
       -3    1    3    3    0  502  0.56453750117E+03  0.26892167888E+03 -0.49518356047E+03  0.79763915924E+03  0.10100000352E+00 0. -1.
</event>
<event>
 5   0  0.3403833E-04  0.1302818E+04  0.7818609E-02  0.9027333E-01
        1   -1    0    0  501    0  0.00000000000E+00  0.00000000000E+00  0.14270338958E+04  0.14270338958E+04  0.50400001928E-02 0.  1.
       -1   -1    0    0    0  501  0.00000000000E+00  0.00000000000E+00 -0.29735379638E+03  0.29735379642E+03  0.50400001928E-02 0. -1.
    10030    2    1    2    0    0  0.00000000000E+00  0.00000000000E+00  0.11296800994E+04  0.17243876922E+04  0.13028184010E+04 0.  0.
        1    1    3    3  502    0 -0.64391310775E+03 -0.70725909735E+01  0.69492764203E+03  0.94741677184E+03  0.50400001928E-02 0.  1.
       -1    1    3    3    0  502  0.64391310775E+03  0.70725909735E+01  0.43475245735E+03  0.77697092035E+03  0.50400001928E-02 0. -1.
</event>
<event>
 5   0  0.3263679E-04  0.1295849E+04  0.7818609E-02  0.9032863E-01
        1   -1    0    0  501    0  0.00000000000E+00  0.00000000000E+00  0.62114839520E+03  0.62114839522E+03  0.50400001928E-02 0. -1.
       -1   -1    0    0    0  501  0.00000000000E+00  0.00000000000E+00 -0.67585506272E+03  0.67585506274E+03  0.50400001928E-02 0.  1.
    10030    2    1    2    0    0  0.00000000000E+00  0.00000000000E+00 -0.54706667523E+02  0.12970034580E+04  0.12958492005E+04 0.  0.
        2    1    3    3  502    0  0.48315787124E+03  0.42970720589E+03 -0.68820615937E+02  0.65025078894E+03  0.25500000920E-02 0. -1.
       -2    1    3    3    0  502 -0.48315787124E+03 -0.42970720589E+03  0.14113948414E+02  0.64675266902E+03  0.25500000920E-02 0.  1.
</event>
<event>
 5   0  0.3337520E-04  0.1301224E+04  0.7818609E-02  0.9028595E-01
       -1   -1    0    0    0  501  0.00000000000E+00  0.00000000000E+00  0.13639992411E+04  0.13639992411E+04  0.50400001928E-02 0. -1.
        1   -1    0    0  501    0  0.00000000000E+00  0.00000000000E+00 -0.31033432352E+03  0.31033432356E+03  0.50400001928E-02 0.  1.
    10030    2    1    2    0    0  0.00000000000E+00  0.00000000000E+00  0.10536649176E+04  0.16743335647E+04  0.13012237038E+04 0.  0.
        5    1    3    3  502    0 -0.58629270981E+02 -0.64696577915E+03  0.48094837824E+03  0.80829174395E+03  0.46999998093E+01 0.  1.
       -5    1    3    3    0  502  0.58629270981E+02  0.64696577915E+03  0.57271653938E+03  0.86604182075E+03  0.46999998093E+01 0. -1.
</event>
<event>
 5   0  0.6052864E-04  0.1295491E+04  0.7818609E-02  0.9033149E-01
       -2   -1    0    0    0  501  0.00000000000E+00  0.00000000000E+00  0.63813263229E+03  0.63813263230E+03  0.25500000920E-02 0. -1.
        2   -1    0    0  501    0  0.00000000000E+00  0.00000000000E+00 -0.65750281413E+03  0.65750281414E+03  0.25500000920E-02 0.  1.
    10030    2    1    2    0    0  0.00000000000E+00  0.00000000000E+00 -0.19370181837E+02  0.12956354464E+04  0.12954906430E+04 0.  0.
        2    1    3    3  502    0  0.27282036216E+03 -0.73078584099E+02  0.57330593744E+03  0.63910181300E+03  0.25500000920E-02 0. -1.
       -2    1    3    3    0  502 -0.27282036216E+03  0.73078584099E+02 -0.59267611928E+03  0.65653363344E+03  0.25500000920E-02 0.  1.
</event>
<event>
 5   0  0.3335747E-04  0.1297139E+04  0.7818609E-02  0.9031837E-01
       -1   -1    0    0    0  501  0.00000000000E+00  0.00000000000E+00  0.44209900594E+03  0.44209900597E+03  0.50400001928E-02 0. -1.
        1   -1    0    0  501    0  0.00000000000E+00  0.00000000000E+00 -0.95146591050E+03  0.95146591051E+03  0.50400001928E-02 0.  1.
    10030    2    1    2    0    0  0.00000000000E+00  0.00000000000E+00 -0.50936690456E+03  0.13935649165E+04  0.12971385944E+04 0.  0.
        3    1    3    3  502    0  0.33076119660E+03 -0.30662546922E+03 -0.75539856912E+03  0.87980063423E+03  0.10100000352E+00 0.  1.
       -3    1    3    3    0  502 -0.33076119660E+03  0.30662546922E+03  0.24603166456E+03  0.51376428226E+03  0.10100000352E+00 0. -1.
</event>
<event>
 5   0  0.3274879E-04  0.1300284E+04  0.7818609E-02  0.9029340E-01
        1   -1    0    0  501    0  0.00000000000E+00  0.00000000000E+00  0.93727919870E+03  0.93727919871E+03  0.50400001928E-02 0. -1.
       -1   -1    0    0    0  501  0.00000000000E+00  0.00000000000E+00 -0.45097003363E+03  0.45097003366E+03  0.50400001928E-02 0.  1.
    10030    2    1    2    0    0  0.00000000000E+00  0.00000000000E+00  0.48630916507E+03  0.13882492324E+04  0.13002843255E+04 0.  0.
        4    1    3    3  502    0 -0.63778629545E+03  0.12490653646E+03  0.22435006585E+03  0.68753732005E+03  0.12699999809E+01 0. -1.
       -4    1    3    3    0  502  0.63778629545E+03 -0.12490653646E+03  0.26195909922E+03  0.70071191233E+03  0.12699999809E+01 0.  1.
</event>
<event>
 5   0  0.5787604E-04  0.1294802E+04  0.7818609E-02  0.9033698E-01
       -2   -1    0    0    0  501  0.00000000000E+00  0.00000000000E+00  0.32501043552E+03  0.32501043553E+03  0.25500000920E-02 0.  1.
        2   -1    0    0  501    0  0.00000000000E+00  0.00000000000E+00 -0.12895824441E+04  0.12895824441E+04  0.25500000920E-02 0. -1.
    10030    2    1    2    0    0  0.00000000000E+00  0.00000000000E+00 -0.96457200861E+03  0.16145928797E+04  0.12948015320E+04 0.  0.
        4    1    3    3  502    0  0.57868005476E+03  0.27312142729E+03 -0.35972471626E+03  0.73407724676E+03  0.12699999809E+01 0.  1.
       -4    1    3    3    0  502 -0.57868005476E+03 -0.27312142729E+03 -0.60484729235E+03  0.88051563290E+03  0.12699999809E+01 0. -1.
</event>
<event>
 5   0  0.2255875E-04  0.1303039E+04  0.7818609E-02  0.9027158E-01
        3   -1    0    0  501    0  0.00000000000E+00  0.00000000000E+00  0.11100750574E+04  0.11100750620E+04  0.10100000352E+00 0. -1.
       -3   -1    0    0    0  501  0.00000000000E+00  0.00000000000E+00 -0.38238672003E+03  0.38238673337E+03  0.10100000352E+00 0.  1.
    10030    2    1    2    0    0  0.00000000000E+00  0.00000000000E+00  0.72768833741E+03  0.14924617954E+04  0.13030394830E+04 0.  0.
        5    1    3    3  502    0 -0.10819865307E+03 -0.41754256359E+03  0.92309324919E+03  0.10189072468E+04  0.46999998093E+01 0. -1.
       -5    1    3    3    0  502  0.10819865307E+03  0.41754256359E+03 -0.19540491178E+03  0.47355454858E+03  0.46999998093E+01 0.  1.
</event>
<event>
 5   0  0.3274879E-04  0.1295369E+04  0.7818609E-02  0.9033246E-01
        1   -1    0    0  501    0  0.00000000000E+00  0.00000000000E+00  0.46647101601E+03  0.46647101604E+03  0.50400001928E-02 0.  1.
       -1   -1    0    0    0  501  0.00000000000E+00  0.00000000000E+00 -0.89929523903E+03  0.89929523904E+03  0.50400001928E-02 0. -1.
    10030    2    1    2    0    0  0.00000000000E+00  0.00000000000E+00 -0.43282422301E+03  0.13657662551E+04  0.12953689264E+04 0.  0.
        4    1    3    3  502    0 -0.12423457042E+03 -0.46116711895E+03 -0.67766166221E+03  0.82905746569E+03  0.12699999809E+01 0. -1.
       -4    1    3    3    0  502  0.12423457042E+03  0.46116711895E+03  0.24483743919E+03  0.53670878940E+03  0.12699999809E+01 0.  1.
</event>
<event>
 5   0  0.3274879E-04  0.1310302E+04  0.7818609E-02  0.9021435E-01
        1   -1    0    0  501    0  0.00000000000E+00  0.00000000000E+00  0.18948096632E+04  0.18948096632E+04  0.50400001928E-02 0. -1.
       -1   -1    0    0    0  501  0.00000000000E+00  0.00000000000E+00 -0.22652558197E+03  0.22652558202E+03  0.50400001928E-02 0.  1.
    10030    2    1    2    0    0  0.00000000000E+00  0.00000000000E+00  0.16682840812E+04  0.21213352452E+04  0.13103020442E+04 0.  0.
        4    1    3    3  502    0  0.27385425383E+03  0.79854652883E+02 -0.12070289947E+03  0.30974783416E+03  0.12699999809E+01 0.  1.
       -4    1    3    3    0  502 -0.27385425383E+03 -0.79854652883E+02  0.17889869807E+04  0.18115874111E+04  0.12699999809E+01 0. -1.
</event>
<event>
 5   0  0.3403833E-04  0.1298887E+04  0.7818609E-02  0.9030448E-01
        1   -1    0    0  501    0  0.00000000000E+00  0.00000000000E+00  0.78667195438E+03  0.78667195440E+03  0.50400001928E-02 0. -1.
       -1   -1    0    0    0  501  0.00000000000E+00  0.00000000000E+00 -0.53615328185E+03  0.53615328188E+03  0.50400001928E-02 0.  1.
    10030    2    1    2    0    0  0.00000000000E+00  0.00000000000E+00  0.25051867253E+03  0.13228252363E+04  0.12988868313E+04 0.  0.
        1    1    3    3  502    0  0.34936029941E+03  0.49700508674E+03 -0.10855868188E+03  0.61713180317E+03  0.50400001928E-02 0.  1.
       -1    1    3    3    0  502 -0.34936029941E+03 -0.49700508674E+03  0.35907735440E+03  0.70569343310E+03  0.50400001928E-02 0. -1.
</event>
<event>
 5   0  0.5957913E-04  0.1302501E+04  0.7818609E-02  0.9027585E-01
        2   -1    0    0  501    0  0.00000000000E+00  0.00000000000E+00  0.10715120211E+04  0.10715120211E+04  0.25500000920E-02 0.  1.
       -2   -1    0    0    0  501  0.00000000000E+00  0.00000000000E+00 -0.39582093778E+03  0.39582093778E+03  0.25500000920E-02 0. -1.
    10030    2    1    2    0    0  0.00000000000E+00  0.00000000000E+00  0.67569108330E+03  0.14673329589E+04  0.13025005075E+04 0.  0.
        1    1    3    3  502    0  0.51880147903E+03 -0.38242094729E+03  0.44308092705E+03  0.78212624525E+03  0.50400001928E-02 0.  1.
       -1    1    3    3    0  502 -0.51880147903E+03  0.38242094729E+03  0.23261015625E+03  0.68520671362E+03  0.50400001928E-02 0. -1.
</event>
<event>
 5   0  0.3335747E-04  0.1284114E+04  0.7818609E-02  0.9042258E-01
       -1   -1    0    0    0  501  0.00000000000E+00  0.00000000000E+00  0.76413964589E+03  0.76413964591E+03  0.50400001928E-02 0. -1.
        1   -1    0    0  501    0  0.00000000000E+00  0.00000000000E+00 -0.53947925979E+03  0.53947925981E+03  0.50400001928E-02 0.  1.
    10030    2    1    2    0    0  0.00000000000E+00  0.00000000000E+00  0.22466038611E+03  0.13036189057E+04  0.12841144662E+04 0.  0.
        3    1    3    3  502    0  0.31585232150E+03  0.42505854480E+03 -0.25622680149E+03  0.58829383773E+03  0.10100000352E+00 0.  1.
       -3    1    3    3    0  502 -0.31585232150E+03 -0.42505854480E+03  0.48088718759E+03  0.71532506799E+03  0.10100000352E+00 0. -1.
</event>
<event>
 5   0  0.6052864E-04  0.1300428E+04  0.7818609E-02  0.9029225E-01
       -2   -1    0    0    0  501  0.00000000000E+00  0.00000000000E+00  0.35482964644E+03  0.35482964645E+03  0.25500000920E-02 0. -1.
        2   -1    0    0  501    0  0.00000000000E+00  0.00000000000E+00 -0.11914973000E+04  0.11914973000E+04  0.25500000920E-02 0.  1.
    10030    2    1    2    0    0  0.00000000000E+00  0.00000000000E+00 -0.83666765352E+03  0.15463269464E+04  0.13004284920E+04 0.  0.
        2    1    3    3  502    0  0.45197439457E+02 -0.24499100077E+03  0.29582868527E+03  0.38675316421E+03  0.25500000920E-02 0. -1.
       -2    1    3    3    0  502 -0.45197439457E+02  0.24499100077E+03 -0.11324963388E+04  0.11595737822E+04  0.25500000920E-02 0.  1.
</event>
<event>
 5   0  0.5384960E-04  0.1300889E+04  0.7818609E-02  0.9028860E-01
       -2   -1    0    0    0  501  0.00000000000E+00  0.00000000000E+00  0.48119124980E+03  0.48119124981E+03  0.25500000920E-02 0. -1.
        2   -1    0    0  501    0  0.00000000000E+00  0.00000000000E+00 -0.87923053020E+03  0.87923053021E+03  0.25500000920E-02 0.  1.
    10030    2    1    2    0    0  0.00000000000E+00  0.00000000000E+00 -0.39803928040E+03  0.13604217800E+04  0.13008889848E+04 0.  0.
        3    1    3    3  502    0 -0.25083005541E+03  0.20837947335E+03  0.38953258472E+03  0.50800921878E+03  0.10100000352E+00 0. -1.
       -3    1    3    3    0  502  0.25083005541E+03 -0.20837947335E+03 -0.78757186512E+03  0.85241256123E+03  0.10100000352E+00 0.  1.
</event>
<event>
 5   0  0.2255875E-04  0.1296540E+04  0.7818609E-02  0.9032313E-01
       -3   -1    0    0    0  501  0.00000000000E+00  0.00000000000E+00  0.89174033171E+03  0.89174033743E+03  0.10100000352E+00 0.  1.
        3   -1    0    0  501    0  0.00000000000E+00  0.00000000000E+00 -0.47127415005E+03  0.47127416087E+03  0.10100000352E+00 0. -1.
    10030    2    1    2    0    0  0.00000000000E+00  0.00000000000E+00  0.42046618166E+03  0.13630144983E+04  0.12965402858E+04 0.  0.
        4    1    3    3  502    0  0.26831534495E+03 -0.57243380942E+03  0.59424414860E+02  0.63498540494E+03  0.12699999809E+01 0. -1.
       -4    1    3    3    0  502 -0.26831534495E+03  0.57243380942E+03  0.36104176680E+03  0.72802909336E+03  0.12699999809E+01 0.  1.
</event>
<event>
 5   0  0.3337520E-04  0.1293605E+04  0.7818609E-02  0.9034651E-01
       -1   -1    0    0    0  501  0.00000000000E+00  0.00000000000E+00  0.61141463849E+03  0.61141463851E+03  0.50400001928E-02 0.  1.
        1   -1    0    0  501    0  0.00000000000E+00  0.00000000000E+00 -0.68423908182E+03  0.68423908184E+03  0.50400001928E-02 0. -1.
    10030    2    1    2    0    0  0.00000000000E+00  0.00000000000E+00 -0.72824443332E+02  0.12956537204E+04  0.12936054899E+04 0.  0.
        5    1    3    3  502    0 -0.48518859039E+03 -0.36182386794E+03  0.19199978084E+03  0.63498857116E+03  0.46999998093E+01 0.  1.
       -5    1    3    3    0  502  0.48518859039E+03  0.36182386794E+03 -0.26482422417E+03  0.66066514920E+03  0.46999998093E+01 0. -1.
</event>
<event>
 5   0  0.5787604E-04  0.1290631E+04  0.7818609E-02  0.9037028E-01
        2   -1    0    0  501    0  0.00000000000E+00  0.00000000000E+00  0.75192498034E+03  0.75192498034E+03  0.25500000920E-02 0.  1.
       -2   -1    0    0    0  501  0.00000000000E+00  0.00000000000E+00 -0.55382115776E+03  0.55382115777E+03  0.25500000920E-02 0. -1.
    10030    2    1    2    0    0  0.00000000000E+00  0.00000000000E+00  0.19810382257E+03  0.13057461381E+04  0.12906307964E+04 0.  0.
        4    1    3    3  502    0  0.37810317054E+03 -0.16706986498E+03 -0.40228768150E+03  0.57681135473E+03  0.12699999809E+01 0. -1.
       -4    1    3    3    0  502 -0.37810317054E+03  0.16706986498E+03  0.60039150407E+03  0.72893478338E+03  0.12699999809E+01 0.  1.
</event>
<event>
 5   0  0.5787604E-04  0.1279074E+04  0.7818609E-02  0.9046326E-01
        2   -1    0    0  501    0  0.00000000000E+00  0.00000000000E+00  0.22699372845E+03  0.22699372846E+03  0.25500000920E-02 0. -1.
       -2   -1    0    0    0  501  0.00000000000E+00  0.00000000000E+00 -0.18018458676E+04  0.18018458676E+04  0.25500000920E-02 0.  1.
    10030    2    1    2    0    0  0.00000000000E+00  0.00000000000E+00 -0.15748521392E+04  0.20288395961E+04  0.12790742146E+04 0.  0.
        4    1    3    3  502    0  0.66186767239E+02  0.41446603126E+03 -0.15528179652E+04  0.16085422050E+04  0.12699999809E+01 0.  1.
       -4    1    3    3    0  502 -0.66186767239E+02 -0.41446603126E+03 -0.22034173944E+02  0.42029739108E+03  0.12699999809E+01 0. -1.
</event>
<event>
 5   0  0.6052864E-04  0.1317962E+04  0.7818609E-02  0.9015441E-01
        2   -1    0    0  501    0  0.00000000000E+00  0.00000000000E+00  0.65112685313E+03  0.65112685314E+03  0.25500000920E-02 0.  1.
       -2   -1    0    0    0  501  0.00000000000E+00  0.00000000000E+00 -0.66692953027E+03  0.66692953027E+03  0.25500000920E-02 0. -1.
    10030    2    1    2    0    0  0.00000000000E+00  0.00000000000E+00 -0.15802677136E+02  0.13180563834E+04  0.13179616479E+04 0.  0.
        2    1    3    3  502    0 -0.57622177995E+03 -0.16344191571E+03  0.26691092953E+03  0.65573336335E+03  0.25500000920E-02 0.  1.
       -2    1    3    3    0  502  0.57622177995E+03  0.16344191571E+03 -0.28271360667E+03  0.66232302006E+03  0.25500000920E-02 0. -1.
</event>
<event>
 5   0  0.3335747E-04  0.1301542E+04  0.7818609E-02  0.9028343E-01
       -1   -1    0    0    0  501  0.00000000000E+00  0.00000000000E+00  0.18229030217E+03  0.18229030224E+03  0.50400001928E-02 0.  1.
        1   -1    0    0  501    0  0.00000000000E+00  0.00000000000E+00 -0.23232335582E+04  0.23232335583E+04  0.50400001928E-02 0. -1.
    10030    2    1    2    0    0  0.00000000000E+00  0.00000000000E+00 -0.21409432561E+04  0.25055238605E+04  0.13015420814E+04 0.  0.
        3    1    3    3  502    0  0.55280245624E+03 -0.33910229518E+03 -0.96641217240E+03  0.11638442419E+04  0.10100000352E+00 0. -1.
       -3    1    3    3    0  502 -0.55280245624E+03  0.33910229518E+03 -0.11745310837E+04  0.13416796186E+04  0.10100000352E+00 0.  1.
</event>
<event>
 5   0  0.5384960E-04  0.1294524E+04  0.7818609E-02  0.9033919E-01
       -2   -1    0    0    0  501  0.00000000000E+00  0.00000000000E+00  0.96324374482E+03  0.96324374482E+03  0.25500000920E-02 0.  1.
        2   -1    0    0  501    0  0.00000000000E+00  0.00000000000E+00 -0.43493487180E+03  0.43493487181E+03  0.25500000920E-02 0. -1.
    10030    2    1    2    0    0  0.00000000000E+00  0.00000000000E+00  0.52830887302E+03  0.13981786166E+04  0.12945243059E+04 0.  0.
        3    1    3    3  502    0 -0.32376074568E+03 -0.19621830405E+03  0.83119255558E+03  0.91334753404E+03  0.10100000352E+00 0.  1.
       -3    1    3    3    0  502  0.32376074568E+03  0.19621830405E+03 -0.30288368256E+03  0.48483108259E+03  0.10100000352E+00 0. -1.
</event>
<event>
 5   0  0.3337520E-04  0.1301129E+04  0.7818609E-02  0.9028670E-01
        1   -1    0    0  501    0  0.00000000000E+00  0.00000000000E+00  0.12258774026E+04  0.12258774026E+04  0.50400001928E-02 0. -1.
       -1   -1    0    0    0  501  0.00000000000E+00  0.00000000000E+00 -0.34525003724E+03  0.34525003728E+03  0.50400001928E-02 0.  1.
    10030    2    1    2    0    0  0.00000000000E+00  0.00000000000E+00  0.88062736534E+03  0.15711274399E+04  0.13011290773E+04 0.  0.
        5    1    3    3  502    0 -0.16403942979E+03 -0.86847153117E+02  0.11932049260E+04  0.12075642625E+04  0.46999998093E+01 0. -1.
       -5    1    3    3    0  502  0.16403942979E+03  0.86847153117E+02 -0.31257756067E+03  0.36356317740E+03  0.46999998093E+01 0.  1.
</event>
<event>
 5   0  0.3335747E-04  0.1298339E+04  0.7818609E-02  0.9030884E-01
       -1   -1    0    0    0  501  0.00000000000E+00  0.00000000000E+00  0.29992538010E+03  0.29992538014E+03  0.50400001928E-02 0.  1.
        1   -1    0    0  501    0  0.00000000000E+00  0.00000000000E+00 -0.14050853366E+04  0.14050853366E+04  0.50400001928E-02 0. -1.
    10030    2    1    2    0    0  0.00000000000E+00  0.00000000000E+00 -0.11051599565E+04  0.17050107168E+04  0.12983385594E+04 0.  0.
        3    1    3    3  502    0  0.17894592415E+03 -0.55317548118E+03 -0.17334207784E+03  0.60668957705E+03  0.10100000352E+00 0.  1.
       -3    1    3    3    0  502 -0.17894592415E+03  0.55317548118E+03 -0.93181787868E+03  0.10983211397E+04  0.10100000352E+00 0. -1.
</event>
<event>
 5   0  0.3337520E-04  0.1304118E+04  0.7818609E-02  0.9026306E-01
        1   -1    0    0  501    0  0.00000000000E+00  0.00000000000E+00  0.77266794972E+03  0.77266794974E+03  0.50400001928E-02 0.  1.
       -1   -1    0    0    0  501  0.00000000000E+00  0.00000000000E+00 -0.55027605149E+03  0.55027605151E+03  0.50400001928E-02 0. -1.
    10030    2    1    2    0    0  0.00000000000E+00  0.00000000000E+00  0.22239189823E+03  0.13229440013E+04  0.13041175844E+04 0.  0.
        5    1    3    3  502    0 -0.84911894529E+02  0.54377006575E+03  0.46590448381E+03  0.72109984903E+03  0.46999998093E+01 0.  1.
       -5    1    3    3    0  502  0.84911894529E+02 -0.54377006575E+03 -0.24351258557E+03  0.60184415223E+03  0.46999998093E+01 0. -1.
</event>
<event>
 5   0  0.5787604E-04  0.1296110E+04  0.7818609E-02  0.9032656E-01
       -2   -1    0    0    0  501  0.00000000000E+00  0.00000000000E+00  0.25629951650E+03  0.25629951651E+03  0.25500000920E-02 0. -1.
        2   -1    0    0  501    0  0.00000000000E+00  0.00000000000E+00 -0.16386108012E+04  0.16386108012E+04  0.25500000920E-02 0.  1.
    10030    2    1    2    0    0  0.00000000000E+00  0.00000000000E+00 -0.13823112847E+04  0.18949103177E+04  0.12961098041E+04 0.  0.
        4    1    3    3  502    0  0.79020888242E+02 -0.45203316290E+03 -0.22149215103E+02  0.45942407618E+03  0.12699999809E+01 0. -1.
       -4    1    3    3    0  502 -0.79020888242E+02  0.45203316290E+03 -0.13601620696E+04  0.14354862415E+04  0.12699999809E+01 0.  1.
</event>
<event>
 5   0  0.3274879E-04  0.1298859E+04  0.7818609E-02  0.9030470E-01
       -1   -1    0    0    0  501  0.00000000000E+00  0.00000000000E+00  0.13682345036E+04  0.13682345036E+04  0.50400001928E-02 0.  1.
        1   -1    0    0  501    0  0.00000000000E+00  0.00000000000E+00 -0.30825039561E+03  0.30825039565E+03  0.50400001928E-02 0. -1.
    10030    2    1    2    0    0  0.00000000000E+00  0.00000000000E+00  0.10599841080E+04  0.16764848993E+04  0.12988592334E+04 0.  0.
        4    1    3    3  502    0  0.27121218852E+03 -0.19545095452E+03  0.12486437717E+04  0.12926213709E+04  0.12699999809E+01 0.  1.
       -4    1    3    3    0  502 -0.27121218852E+03  0.19545095452E+03 -0.18865966373E+03  0.38386352841E+03  0.12699999809E+01 0. -1.
</event>
<event>
 5   0  0.3335747E-04  0.1309131E+04  0.7818609E-02  0.9022355E-01
       -1   -1    0    0    0  501  0.00000000000E+00  0.00000000000E+00  0.54825827409E+03  0.54825827412E+03  0.50400001928E-02 0.  1.
        1   -1    0    0  501    0  0.00000000000E+00  0.00000000000E+00 -0.78148569455E+03  0.78148569456E+03  0.50400001928E-02 0. -1.
    10030    2    1    2    0    0  0.00000000000E+00  0.00000000000E+00 -0.23322742045E+03  0.13297439687E+04  0.13091310067E+04 0.  0.
        3    1    3    3  502    0  0.59145839704E+03 -0.13064942313E+03 -0.36864079079E+03  0.70907570120E+03  0.10100000352E+00 0. -1.
       -3    1    3    3    0  502 -0.59145839704E+03  0.13064942313E+03  0.13541337033E+03  0.62066826748E+03  0.10100000352E+00 0.  1.
</event>
<event>
 5   0  0.6052864E-04  0.1299219E+04  0.7818609E-02  0.9030185E-01
        2   -1    0    0  501    0  0.00000000000E+00  0.00000000000E+00  0.10422914578E+04  0.10422914578E+04  0.25500000920E-02 0. -1.
       -2   -1    0    0    0  501  0.00000000000E+00  0.00000000000E+00 -0.40487009483E+03  0.40487009483E+03  0.25500000920E-02 0.  1.
    10030    2    1    2    0    0  0.00000000000E+00  0.00000000000E+00  0.63742136293E+03  0.14471615526E+04  0.12992192138E+04 0.  0.
        2    1    3    3  502    0 -0.15490711404E+03  0.57778606510E+03  0.36570000049E+02  0.59930819777E+03  0.25500000920E-02 0. -1.
       -2    1    3    3    0  502  0.15490711404E+03 -0.57778606510E+03  0.60085136288E+03  0.84785335483E+03  0.25500000920E-02 0.  1.
</event>
<event>
 5   0  0.3335747E-04  0.1304024E+04  0.7818609E-02  0.9026380E-01
        1   -1    0    0  501    0  0.00000000000E+00  0.00000000000E+00  0.79557853763E+03  0.79557853765E+03  0.50400001928E-02 0. -1.
       -1   -1    0    0    0  501  0.00000000000E+00  0.00000000000E+00 -0.53435275259E+03  0.53435275261E+03  0.50400001928E-02 0.  1.
    10030    2    1    2    0    0  0.00000000000E+00  0.00000000000E+00  0.26122578504E+03  0.13299312903E+04  0.13040238978E+04 0.  0.
        3    1    3    3  502    0 -0.46566958230E+02  0.25715536481E+03 -0.47860071021E+03  0.54530359733E+03  0.10100000352E+00 0.  1.
       -3    1    3    3    0  502  0.46566958230E+02 -0.25715536481E+03  0.73982649525E+03  0.78462769293E+03  0.10100000352E+00 0. -1.
</event>
<event>
 5   0  0.5787604E-04  0.1306200E+04  0.7818609E-02  0.9024663E-01
        2   -1    0    0  501    0  0.00000000000E+00  0.00000000000E+00  0.15340732048E+04  0.15340732048E+04  0.25500000920E-02 0.  1.
       -2   -1    0    0    0  501  0.00000000000E+00  0.00000000000E+00 -0.27804368195E+03  0.27804368196E+03  0.25500000920E-02 0. -1.
    10030    2    1    2    0    0  0.00000000000E+00  0.00000000000E+00  0.12560295229E+04  0.18121168868E+04  0.13061996207E+04 0.  0.
        4    1    3    3  502    0  0.29071011860E+03  0.27549536061E+03  0.13436993747E+04  0.14021197129E+04  0.12699999809E+01 0.  1.
       -4    1    3    3    0  502 -0.29071011860E+03 -0.27549536061E+03 -0.87669851843E+02  0.40999717389E+03  0.12699999809E+01 0. -1.
</event>
<event>
 5   0  0.5957913E-04  0.1299460E+04  0.7818609E-02  0.9029993E-01
        2   -1    0    0  501    0  0.00000000000E+00  0.00000000000E+00  0.12779983033E+04  0.12779983033E+04  0.25500000920E-02 0. -1.
       -2   -1    0    0    0  501  0.00000000000E+00  0.00000000000E+00 -0.33032067276E+03  0.33032067277E+03  0.25500000920E-02 0.  1.
    10030    2    1    2    0    0  0.00000000000E+00  0.00000000000E+00  0.94767763049E+03  0.16083189760E+04  0.12994602869E+04 0.  0.
        1    1    3    3  502    0 -0.39538792683E+03  0.14665615504E+03  0.10855965339E+04  0.11646284708E+04  0.50400001928E-02 0. -1.
       -1    1    3    3    0  502  0.39538792683E+03 -0.14665615504E+03 -0.13791890343E+03  0.44369050524E+03  0.50400001928E-02 0.  1.
</event>
<event>
 5   0  0.5957913E-04  0.1316920E+04  0.7818609E-02  0.9016254E-01
       -2   -1    0    0    0  501  0.00000000000E+00  0.00000000000E+00  0.40439830142E+03  0.40439830143E+03  0.25500000920E-02 0.  1.
        2   -1    0    0  501    0  0.00000000000E+00  0.00000000000E+00 -0.10721356392E+04  0.10721356392E+04  0.25500000920E-02 0. -1.
    10030    2    1    2    0    0  0.00000000000E+00  0.00000000000E+00 -0.66773733782E+03  0.14765339407E+04  0.13169203946E+04 0.  0.
        1    1    3    3  502    0  0.46363150024E+02  0.64542043138E+03 -0.19722565231E+03  0.67647249232E+03  0.50400001928E-02 0.  1.
       -1    1    3    3    0  502 -0.46363150024E+02 -0.64542043138E+03 -0.47051168551E+03  0.80006144835E+03  0.50400001928E-02 0. -1.
</event>
<event>
 5   0  0.5384960E-04  0.1298210E+04  0.7818609E-02  0.9030986E-01
        2   -1    0    0  501    0  0.00000000000E+00  0.00000000000E+00  0.13565721295E+04  0.13565721295E+04  0.25500000920E-02 0.  1.
       -2   -1    0    0    0  501  0.00000000000E+00  0.00000000000E+00 -0.31058961209E+03  0.31058961210E+03  0.25500000920E-02 0. -1.
    10030    2    1    2    0    0  0.00000000000E+00  0.00000000000E+00  0.10459825174E+04  0.16671617416E+04  0.12982098621E+04 0.  0.
        3    1    3    3  502    0  0.22603180489E+03  0.48780361546E+03  0.55897939316E+02  0.54052505391E+03  0.10100000352E+00 0. -1.
       -3    1    3    3    0  502 -0.22603180489E+03 -0.48780361546E+03  0.99008457810E+03  0.11266366877E+04  0.10100000352E+00 0.  1.
</event>
<event>
 5   0  0.6007125E-04  0.1292247E+04  0.7818609E-02  0.9035736E-01
        2   -1    0    0  501    0  0.00000000000E+00  0.00000000000E+00  0.54594040661E+03  0.54594040662E+03  0.25500000920E-02 0.  1.
       -2   -1    0    0    0  501  0.00000000000E+00  0.00000000000E+00 -0.76469056257E+03  0.76469056258E+03  0.25500000920E-02 0. -1.
    10030    2    1    2    0    0  0.00000000000E+00  0.00000000000E+00 -0.21875015596E+03  0.13106309692E+04  0.12922468443E+04 0.  0.
        5    1    3    3  502    0 -0.10690511411E+03  0.40780019751E+03  0.38720628413E+03  0.57243383983E+03  0.46999998093E+01 0.  1.
       -5    1    3    3    0  502  0.10690511411E+03 -0.40780019751E+03 -0.60595644009E+03  0.73819712936E+03  0.46999998093E+01 0. -1.
</event>
<event>
 5   0  0.3335747E-04  0.1299880E+04  0.7818609E-02  0.9029660E-01
       -1   -1    0    0    0  501  0.00000000000E+00  0.00000000000E+00  0.26641650214E+03  0.26641650219E+03  0.50400001928E-02 0.  1.
        1   -1    0    0  501    0  0.00000000000E+00  0.00000000000E+00 -0.15855704834E+04  0.15855704834E+04  0.50400001928E-02 0. -1.
    10030    2    1    2    0    0  0.00000000000E+00  0.00000000000E+00 -0.13191539813E+04  0.18519869856E+04  0.12998802132E+04 0.  0.
        3    1    3    3  502    0  0.52837590153E+03  0.28266653210E+03 -0.10181486202E+04  0.11814008992E+04  0.10100000352E+00 0. -1.
       -3    1    3    3    0  502 -0.52837590153E+03 -0.28266653210E+03 -0.30100536110E+03  0.67058608641E+03  0.10100000352E+00 0.  1.
</event>
<event>
 5   0  0.3274879E-04  0.1296675E+04  0.7818609E-02  0.9032206E-01
       -1   -1    0    0    0  501  0.00000000000E+00  0.00000000000E+00  0.48417602214E+03  0.48417602217E+03  0.50400001928E-02 0.  1.
        1   -1    0    0  501    0  0.00000000000E+00  0.00000000000E+00 -0.86815809948E+03  0.86815809950E+03  0.50400001928E-02 0. -1.
    10030    2    1    2    0    0  0.00000000000E+00  0.00000000000E+00 -0.38398207734E+03  0.13523341217E+04  0.12966747244E+04 0.  0.
        4    1    3    3  502    0  0.29620672447E+03  0.42623806884E+03  0.21317200295E+03  0.56112496887E+03  0.12699999809E+01 0.  1.
       -4    1    3    3    0  502 -0.29620672447E+03 -0.42623806884E+03 -0.59715408029E+03  0.79120915279E+03  0.12699999809E+01 0. -1.
</event>
<event>
 5   0  0.5787604E-04  0.1314380E+04  0.7818609E-02  0.9018239E-01
       -2   -1    0    0    0  501  0.00000000000E+00  0.00000000000E+00  0.56605017841E+03  0.56605017842E+03  0.25500000920E-02 0. -1.
        2   -1    0    0  501    0  0.00000000000E+00  0.00000000000E+00 -0.76300437275E+03  0.76300437276E+03  0.25500000920E-02 0.  1.
    10030    2    1    2    0    0  0.00000000000E+00  0.00000000000E+00 -0.19695419434E+03  0.13290545512E+04  0.13143800993E+04 0.  0.
        4    1    3    3  502    0  0.56343189598E+03 -0.48033037442E+02 -0.43708056980E+03  0.71470533193E+03  0.12699999809E+01 0.  1.
       -4    1    3    3    0  502 -0.56343189598E+03  0.48033037442E+02  0.24012637546E+03  0.61434921924E+03  0.12699999809E+01 0. -1.
</event>
<event>
 5   0  0.3335747E-04  0.1301300E+04  0.7818609E-02  0.9028535E-01
        1   -1    0    0  501    0  0.00000000000E+00  0.00000000000E+00  0.18278957141E+04  0.18278957141E+04  0.50400001928E-02 0. -1.
       -1   -1    0    0    0  501  0.00000000000E+00  0.00000000000E+00 -0.23160272831E+03  0.23160272837E+03  0.50400001928E-02 0.  1.
    10030    2    1    2    0    0  0.00000000000E+00  0.00000000000E+00  0.15962929858E+04  0.20594984424E+04  0.13013003258E+04 0.  0.
        3    1    3    3  502    0 -0.49043767190E+03  0.12830460481E+03  0.14436537529E+04  0.15300742956E+04  0.10100000352E+00 0. -1.
       -3    1    3    3    0  502  0.49043767190E+03 -0.12830460481E+03  0.15263923286E+03  0.52942414683E+03  0.10100000352E+00 0.  1.
</event>
<event>
 5   0  0.3263679E-04  0.1336069E+04  0.7818609E-02  0.9001441E-01
        1   -1    0    0  501    0  0.00000000000E+00  0.00000000000E+00  0.30539917200E+03  0.30539917204E+03  0.50400001928E-02 0. -1.
       -1   -1    0    0    0  501  0.00000000000E+00  0.00000000000E+00 -0.14612674270E+04  0.14612674270E+04  0.50400001928E-02 0.  1.
    10030    2    1    2    0    0  0.00000000000E+00  0.00000000000E+00 -0.11558682550E+04  0.17666665990E+04  0.13360686544E+04 0.  0.
        2    1    3    3  502    0 -0.22955214696E+02 -0.66576069031E+03 -0.64412281113E+03  0.92663824358E+03  0.25500000920E-02 0.  1.
       -2    1    3    3    0  502  0.22955214696E+02  0.66576069031E+03 -0.51174544388E+03  0.84002835547E+03  0.25500000920E-02 0. -1.
</event>
<event>
 5   0  0.3335747E-04  0.1296024E+04  0.7818609E-02  0.9032724E-01
        1   -1    0    0  501    0  0.00000000000E+00  0.00000000000E+00  0.17138159364E+04  0.17138159364E+04  0.50400001928E-02 0.  1.
       -1   -1    0    0    0  501  0.00000000000E+00  0.00000000000E+00 -0.24502012326E+03  0.24502012331E+03  0.50400001928E-02 0. -1.
    10030    2    1    2    0    0  0.00000000000E+00  0.00000000000E+00  0.14687958132E+04  0.19588360598E+04  0.12960237529E+04 0.  0.
        3    1    3    3  502    0  0.32008842799E+03 -0.13317985110E+03  0.15618584059E+04  0.15998734839E+04  0.10100000352E+00 0.  1.
       -3    1    3    3    0  502 -0.32008842799E+03  0.13317985110E+03 -0.93062592694E+02  0.35896257581E+03  0.10100000352E+00 0. -1.
</event>
<event>
 5   0  0.3335747E-04  0.1295540E+04  0.7818609E-02  0.9033109E-01
        1   -1    0    0  501    0  0.00000000000E+00  0.00000000000E+00  0.78508428363E+03  0.78508428364E+03  0.50400001928E-02 0.  1.
       -1   -1    0    0    0  501  0.00000000000E+00  0.00000000000E+00 -0.53447284567E+03  0.53447284570E+03  0.50400001928E-02 0. -1.
    10030    2    1    2    0    0  0.00000000000E+00  0.00000000000E+00  0.25061143795E+03  0.13195571293E+04  0.12955403987E+04 0.  0.
        3    1    3    3  502    0 -0.26447820359E+03 -0.23773302432E+03  0.67676716701E+03  0.76451260262E+03  0.10100000352E+00 0.  1.
       -3    1    3    3    0  502  0.26447820359E+03  0.23773302432E+03 -0.42615572906E+03  0.55504452672E+03  0.10100000352E+00 0. -1.
</event>
<event>
 5   0  0.3337520E-04  0.1291098E+04  0.7818609E-02  0.9036654E-01
        1   -1    0    0  501    0  0.00000000000E+00  0.00000000000E+00  0.55319288760E+03  0.55319288762E+03  0.50400001928E-02 0. -1.
       -1   -1    0    0    0  501  0.00000000000E+00  0.00000000000E+00 -0.75332451269E+03  0.75332451271E+03  0.50400001928E-02 0.  1.
    10030    2    1    2    0    0  0.00000000000E+00  0.00000000000E+00 -0.20013162509E+03  0.13065174003E+04  0.12910983890E+04 0.  0.
        5    1    3    3  502    0 -0.44988672619E+03 -0.45737196816E+03 -0.17250626178E+03  0.66435508880E+03  0.46999998093E+01 0. -1.
       -5    1    3    3    0  502  0.44988672619E+03  0.45737196816E+03 -0.27625363309E+02  0.64216231153E+03  0.46999998093E+01 0.  1.
</event>
<event>
 5   0  0.3263679E-04  0.1298039E+04  0.7818609E-02  0.9031122E-01
        1   -1    0    0  501    0  0.00000000000E+00  0.00000000000E+00  0.55767786439E+03  0.55767786441E+03  0.50400001928E-02 0. -1.
       -1   -1    0    0    0  501  0.00000000000E+00  0.00000000000E+00 -0.75532190508E+03  0.75532190510E+03  0.50400001928E-02 0.  1.
    10030    2    1    2    0    0  0.00000000000E+00  0.00000000000E+00 -0.19764404070E+03  0.13129997695E+04  0.12980389932E+04 0.  0.
        2    1    3    3  502    0  0.56834618826E+03  0.28849435241E+03 -0.22262518417E+03  0.67513580391E+03  0.25500000920E-02 0.  1.
       -2    1    3    3    0  502 -0.56834618826E+03 -0.28849435241E+03  0.24981143471E+02  0.63786396561E+03  0.25500000920E-02 0. -1.
</event>
<event>
 5   0  0.2255875E-04  0.1304899E+04  0.7818609E-02  0.9025690E-01
        3   -1    0    0  501    0  0.00000000000E+00  0.00000000000E+00  0.94484236142E+03  0.94484236682E+03  0.10100000352E+00 0. -1.
       -3   -1    0    0    0  501  0.00000000000E+00  0.00000000000E+00 -0.45054081598E+03  0.45054082730E+03  0.10100000352E+00 0.  1.
    10030    2    1    2    0    0  0.00000000000E+00  0.00000000000E+00  0.49430154544E+03  0.13953831941E+04  0.13048985557E+04 0.  0.
        4    1    3    3  502    0  0.26513326061E+03  0.85678402053E+01  0.88457151789E+03  0.92349197989E+03  0.12699999809E+01 0. -1.
       -4    1    3    3    0  502 -0.26513326061E+03 -0.85678402053E+01 -0.39026997245E+03  0.47189121423E+03  0.12699999809E+01 0.  1.
</event>
<event>
 5   0  0.2255875E-04  0.1301983E+04  0.7818609E-02  0.9027994E-01
       -4   -1    0    0    0  501  0.00000000000E+00  0.00000000000E+00  0.10715043972E+04  0.10715051498E+04  0.12699999809E+01 0.  1.
        4   -1    0    0  501    0  0.00000000000E+00  0.00000000000E+00 -0.39550749295E+03  0.39550953197E+03  0.12699999809E+01 0. -1.
    10030    2    1    2    0    0  0.00000000000E+00  0.00000000000E+00  0.67599690425E+03  0.14670146818E+04  0.13019832035E+04 0.  0.
        1    1    3    3  502    0 -0.25612364831E+03  0.37405573752E+03 -0.18841761320E+03  0.49093605997E+03  0.50400001928E-02 0. -1.
       -1    1    3    3    0  502  0.25612364831E+03 -0.37405573752E+03  0.86441451746E+03  0.97607862184E+03  0.50400001928E-02 0.  1.
</event>
<event>
 5   0  0.6007125E-04  0.1296990E+04  0.7818609E-02  0.9031955E-01
       -2   -1    0    0    0  501  0.00000000000E+00  0.00000000000E+00  0.57459775960E+03  0.57459775961E+03  0.25500000920E-02 0. -1.
        2   -1    0    0  501    0  0.00000000000E+00  0.00000000000E+00 -0.73189647512E+03  0.73189647512E+03  0.25500000920E-02 0.  1.
    10030    2    1    2    0    0  0.00000000000E+00  0.00000000000E+00 -0.15729871552E+03  0.13064942347E+04  0.12969904778E+04 0.  0.
        5    1    3    3  502    0 -0.30835473652E+02 -0.55605013046E+03 -0.41332081936E+03  0.69354074411E+03  0.46999998093E+01 0.  1.
       -5    1    3    3    0  502  0.30835473652E+02  0.55605013046E+03  0.25602210385E+03  0.61295349063E+03  0.46999998093E+01 0. -1.
</event>
<event>
 5   0  0.3403833E-04  0.1293011E+04  0.7818609E-02  0.9035126E-01
        1   -1    0    0  501    0  0.00000000000E+00  0.00000000000E+00  0.32584570541E+03  0.32584570544E+03  0.50400001928E-02 0.  1.
       -1   -1    0    0    0  501  0.00000000000E+00  0.00000000000E+00 -0.12827221547E+04  0.12827221547E+04  0.50400001928E-02 0. -1.
    10030    2    1    2    0    0  0.00000000000E+00  0.00000000000E+00 -0.95687644930E+03  0.16085678602E+04  0.12930112225E+04 0.  0.
        1    1    3    3  502    0  0.31709003878E+03  0.66213396602E+02  0.21760539117E+03  0.39023379259E+03  0.50400001928E-02 0.  1.
       -1    1    3    3    0  502 -0.31709003878E+03 -0.66213396602E+02 -0.11744818405E+04  0.12183340676E+04  0.50400001928E-02 0. -1.
</event>
<event>
 5   0  0.6007125E-04  0.1303366E+04  0.7818609E-02  0.9026900E-01
       -2   -1    0    0    0  501  0.00000000000E+00  0.00000000000E+00  0.10791263787E+04  0.10791263787E+04  0.25500000920E-02 0. -1.
        2   -1    0    0  501    0  0.00000000000E+00  0.00000000000E+00 -0.39355051794E+03  0.39355051795E+03  0.25500000920E-02 0.  1.
    10030    2    1    2    0    0  0.00000000000E+00  0.00000000000E+00  0.68557586073E+03  0.14726768966E+04  0.13033660196E+04 0.  0.
        5    1    3    3  502    0 -0.64671377195E+02  0.84477183277E+02  0.10692283224E+04  0.10745185326E+04  0.46999998093E+01 0. -1.
       -5    1    3    3    0  502  0.64671377195E+02 -0.84477183277E+02 -0.38365246164E+03  0.39815836403E+03  0.46999998093E+01 0.  1.
</event>
<event>
 5   0  0.3335747E-04  0.1293381E+04  0.7818609E-02  0.9034831E-01
        1   -1    0    0  501    0  0.00000000000E+00  0.00000000000E+00  0.16872052253E+04  0.16872052253E+04  0.50400001928E-02 0. -1.
       -1   -1    0    0    0  501  0.00000000000E+00  0.00000000000E+00 -0.24787047180E+03  0.24787047185E+03  0.50400001928E-02 0.  1.
    10030    2    1    2    0    0  0.00000000000E+00  0.00000000000E+00  0.14393347535E+04  0.19350756971E+04  0.12933806173E+04 0.  0.
        3    1    3    3  502    0 -0.53974489827E+03  0.60985180308E+02  0.12447341742E+04  0.13580894381E+04  0.10100000352E+00 0.  1.
       -3    1    3    3    0  502  0.53974489827E+03 -0.60985180308E+02  0.19460057933E+03  0.57698625902E+03  0.10100000352E+00 0. -1.
</event>
<event>
 5   0  0.5787604E-04  0.1295052E+04  0.7818609E-02  0.9033498E-01
        2   -1    0    0  501    0  0.00000000000E+00  0.00000000000E+00  0.13073708126E+04  0.13073708126E+04  0.25500000920E-02 0.  1.
       -2   -1    0    0    0  501  0.00000000000E+00  0.00000000000E+00 -0.32071221288E+03  0.32071221289E+03  0.25500000920E-02 0. -1.
    10030    2    1    2    0    0  0.00000000000E+00  0.00000000000E+00  0.98665859970E+03  0.16280830255E+04  0.12950517926E+04 0.  0.
        4    1    3    3  502    0  0.40821689734E+03 -0.26290291102E+03 -0.45240496340E+02  0.48765488955E+03  0.12699999809E+01 0. -1.
       -4    1    3    3    0  502 -0.40821689734E+03  0.26290291102E+03  0.10318990960E+04  0.11404281359E+04  0.12699999809E+01 0.  1.
</event>
<event>
 5   0  0.3274879E-04  0.1288962E+04  0.7818609E-02  0.9038365E-01
       -1   -1    0    0    0  501  0.00000000000E+00  0.00000000000E+00  0.42939736854E+03  0.42939736857E+03  0.50400001928E-02 0.  1.
        1   -1    0    0  501    0  0.00000000000E+00  0.00000000000E+00 -0.96729872409E+03  0.96729872410E+03  0.50400001928E-02 0. -1.
    10030    2    1    2    0    0  0.00000000000E+00  0.00000000000E+00 -0.53790135554E+03  0.13966960927E+04  0.12889616391E+04 0.  0.
        4    1    3    3  502    0 -0.94874173760E+02  0.49337726182E+03  0.16843513994E+03  0.52990021758E+03  0.12699999809E+01 0.  1.
       -4    1    3    3    0  502  0.94874173760E+02 -0.49337726182E+03 -0.70633649548E+03  0.86679587509E+03  0.12699999809E+01 0. -1.
</event>
<event>
 5   0  0.5787604E-04  0.1306802E+04  0.7818609E-02  0.9024189E-01
        2   -1    0    0  501    0  0.00000000000E+00  0.00000000000E+00  0.32739989716E+03  0.32739989717E+03  0.25500000920E-02 0.  1.
       -2   -1    0    0    0  501  0.00000000000E+00  0.00000000000E+00 -0.13040097615E+04  0.13040097615E+04  0.25500000920E-02 0. -1.
    10030    2    1    2    0    0  0.00000000000E+00  0.00000000000E+00 -0.97660986437E+03  0.16314096587E+04  0.13068016863E+04 0.  0.
        4    1    3    3  502    0  0.54857653921E+03 -0.21706490734E+03 -0.83891980930E+03  0.10255932199E+04  0.12699999809E+01 0.  1.
       -4    1    3    3    0  502 -0.54857653921E+03  0.21706490734E+03 -0.13769005507E+03  0.60581643881E+03  0.12699999809E+01 0. -1.
</event>
<event>
 5   0  0.6052864E-04  0.1293412E+04  0.7818609E-02  0.9034806E-01
       -2   -1    0    0    0  501  0.00000000000E+00  0.00000000000E+00  0.25378751657E+03  0.25378751658E+03  0.25500000920E-02 0.  1.
        2   -1    0    0  501    0  0.00000000000E+00  0.00000000000E+00 -0.16479483578E+04  0.16479483579E+04  0.25500000920E-02 0. -1.
    10030    2    1    2    0    0  0.00000000000E+00  0.00000000000E+00 -0.13941608413E+04  0.19017358744E+04  0.12934121094E+04 0.  0.
        2    1    3    3  502    0  0.53705443310E+03 -0.35787060223E+03 -0.75823407459E+03  0.99569962535E+03  0.25500000920E-02 0.  1.
       -2    1    3    3    0  502 -0.53705443310E+03  0.35787060223E+03 -0.63592676669E+03  0.90603624909E+03  0.25500000920E-02 0. -1.
</event>
<event>
 5   0  0.3403833E-04  0.1305606E+04  0.7818609E-02  0.9025131E-01
       -1   -1    0    0    0  501  0.00000000000E+00  0.00000000000E+00  0.12058208150E+04  0.12058208150E+04  0.50400001928E-02 0. -1.
        1   -1    0    0  501    0  0.00000000000E+00  0.00000000000E+00 -0.35341242530E+03  0.35341242534E+03  0.50400001928E-02 0.  1.
    10030    2    1    2    0    0  0.00000000000E+00  0.00000000000E+00  0.85240838968E+03  0.15592332403E+04  0.13056064625E+04 0.  0.
        1    1    3    3  502    0  0.22767653142E+03 -0.44166385035E+03  0.93182688789E+03  0.10560326267E+04  0.50400001928E-02 0. -1.
       -1    1    3    3    0  502 -0.22767653142E+03  0.44166385035E+03 -0.79418498212E+02  0.50320061362E+03  0.50400001928E-02 0.  1.
</event>
<event>
 5   0  0.3337520E-04  0.1303037E+04  0.7818609E-02  0.9027160E-01
        1   -1    0    0  501    0  0.00000000000E+00  0.00000000000E+00  0.79141369233E+03  0.79141369235E+03  0.50400001928E-02 0.  1.
       -1   -1    0    0    0  501  0.00000000000E+00  0.00000000000E+00 -0.53635220666E+03  0.53635220669E+03  0.50400001928E-02 0. -1.
    10030    2    1    2    0    0  0.00000000000E+00  0.00000000000E+00  0.25506148567E+03  0.13277658990E+04  0.13030371910E+04 0.  0.
        5    1    3    3  502    0  0.10972633707E+02  0.39924902323E+03 -0.39695503800E+03  0.56313015675E+03  0.46999998093E+01 0. -1.
       -5    1    3    3    0  502 -0.10972633707E+02 -0.39924902323E+03  0.65201652367E+03  0.76463574229E+03  0.46999998093E+01 0.  1.
</event>
<event>
 5   0  0.3403833E-04  0.1291942E+04  0.7818609E-02  0.9035979E-01
       -1   -1    0    0    0  501  0.00000000000E+00  0.00000000000E+00  0.80696083747E+03  0.80696083748E+03  0.50400001928E-02 0. -1.
        1   -1    0    0  501    0  0.00000000000E+00  0.00000000000E+00 -0.51709918460E+03  0.51709918462E+03  0.50400001928E-02 0.  1.
    10030    2    1    2    0    0  0.00000000000E+00  0.00000000000E+00  0.28986165287E+03  0.13240600221E+04  0.12919423998E+04 0.  0.
        1    1    3    3  502    0 -0.44340879474E+03  0.24990793814E+03 -0.26271802948E+03  0.57278800601E+03  0.50400001928E-02 0.  1.
       -1    1    3    3    0  502  0.44340879474E+03 -0.24990793814E+03  0.55257968234E+03  0.75127201609E+03  0.50400001928E-02 0. -1.
</event>
<event>
 5   0  0.6007125E-04  0.1294455E+04  0.7818609E-02  0.9033974E-01
       -2   -1    0    0    0  501  0.00000000000E+00  0.00000000000E+00  0.37080630520E+03  0.37080630521E+03  0.25500000920E-02 0.  1.
        2   -1    0    0  501    0  0.00000000000E+00  0.00000000000E+00 -0.11297087233E+04  0.11297087233E+04  0.25500000920E-02 0. -1.
    10030    2    1    2    0    0  0.00000000000E+00  0.00000000000E+00 -0.75890241806E+03  0.15005150285E+04  0.12944545069E+04 0.  0.
        5    1    3    3  502    0 -0.53696092777E+03 -0.35907426913E+03 -0.33279973787E+03  0.72666300596E+03  0.46999998093E+01 0.  1.
       -5    1    3    3    0  502  0.53696092777E+03  0.35907426913E+03 -0.42610268019E+03  0.77385202252E+03  0.46999998093E+01 0. -1.
</event>
<event>
 5   0  0.5384960E-04  0.1304029E+04  0.7818609E-02  0.9026376E-01
       -2   -1    0    0    0  501  0.00000000000E+00  0.00000000000E+00  0.27840577095E+03  0.27840577096E+03  0.25500000920E-02 0.  1.
        2   -1    0    0  501    0  0.00000000000E+00  0.00000000000E+00 -0.15269899598E+04  0.15269899598E+04  0.25500000920E-02 0. -1.
    10030    2    1    2    0    0  0.00000000000E+00  0.00000000000E+00 -0.12485841889E+04  0.18053957308E+04  0.13040288601E+04 0.  0.
        3    1    3    3  502    0 -0.24743852400E+03  0.37992622843E+03  0.24424399222E+02  0.45405541918E+03  0.10100000352E+00 0.  1.
       -3    1    3    3    0  502  0.24743852400E+03 -0.37992622843E+03 -0.12730085881E+04  0.13513403116E+04  0.10100000352E+00 0. -1.
</event>
<event>
 5   0  0.5384960E-04  0.1296121E+04  0.7818609E-02  0.9032647E-01
       -2   -1    0    0    0  501  0.00000000000E+00  0.00000000000E+00  0.77977430887E+03  0.77977430888E+03  0.25500000920E-02 0. -1.
        2   -1    0    0  501    0  0.00000000000E+00  0.00000000000E+00 -0.53859478361E+03  0.53859478361E+03  0.25500000920E-02 0.  1.
    10030    2    1    2    0    0  0.00000000000E+00  0.00000000000E+00  0.24117952527E+03  0.13183690925E+04  0.12961209437E+04 0.  0.
        3    1    3    3  502    0  0.60152729269E+02  0.42475946470E+03  0.61466764365E+03  0.74957006079E+03  0.10100000352E+00 0. -1.
       -3    1    3    3    0  502 -0.60152729269E+02 -0.42475946470E+03 -0.37348811838E+03  0.56879903170E+03  0.10100000352E+00 0.  1.
</event>
<event>
 5   0  0.3263679E-04  0.1296857E+04  0.7818609E-02  0.9032062E-01
       -1   -1    0    0    0  501  0.00000000000E+00  0.00000000000E+00  0.82457914194E+03  0.82457914195E+03  0.50400001928E-02 0. -1.
        1   -1    0    0  501    0  0.00000000000E+00  0.00000000000E+00 -0.50990767493E+03  0.50990767496E+03  0.50400001928E-02 0.  1.
    10030    2    1    2    0    0  0.00000000000E+00  0.00000000000E+00  0.31467146700E+03  0.13344868169E+04  0.12968565581E+04 0.  0.
        2    1    3    3  502    0  0.30005888614E+02 -0.34689494532E+02  0.82290781493E+03  0.82418504370E+03  0.25500000920E-02 0. -1.
       -2    1    3    3    0  502 -0.30005888614E+02  0.34689494532E+02 -0.50823634792E+03  0.51030177321E+03  0.25500000920E-02 0.  1.
</event>
<event>
 5   0  0.5787604E-04  0.1289458E+04  0.7818609E-02  0.9037967E-01
       -2   -1    0    0    0  501  0.00000000000E+00  0.00000000000E+00  0.34991632703E+03  0.34991632704E+03  0.25500000920E-02 0. -1.
        2   -1    0    0  501    0  0.00000000000E+00  0.00000000000E+00 -0.11879284284E+04  0.11879284284E+04  0.25500000920E-02 0.  1.
    10030    2    1    2    0    0  0.00000000000E+00  0.00000000000E+00 -0.83801210135E+03  0.15378447554E+04  0.12894581070E+04 0.  0.
        4    1    3    3  502    0 -0.34635709567E+02  0.50138722942E+03 -0.90063487672E+03  0.10313746071E+04  0.12699999809E+01 0.  1.
       -4    1    3    3    0  502  0.34635709567E+02 -0.50138722942E+03  0.62622775371E+02  0.50647014828E+03  0.12699999809E+01 0. -1.
</event>
<event>
 5   0  0.3403833E-04  0.1300600E+04  0.7818609E-02  0.9029090E-01
       -1   -1    0    0    0  501  0.00000000000E+00  0.00000000000E+00  0.30179449548E+03  0.30179449553E+03  0.50400001928E-02 0.  1.
        1   -1    0    0  501    0  0.00000000000E+00  0.00000000000E+00 -0.14012513411E+04  0.14012513411E+04  0.50400001928E-02 0. -1.
    10030    2    1    2    0    0  0.00000000000E+00  0.00000000000E+00 -0.10994568457E+04  0.17030458367E+04  0.13005997718E+04 0.  0.
        1    1    3    3  502    0  0.63855335705E+03 -0.49967892107E+01 -0.38874514688E+03  0.74759490832E+03  0.50400001928E-02 0. -1.
       -1    1    3    3    0  502 -0.63855335705E+03  0.49967892107E+01 -0.71071169878E+03  0.95545092836E+03  0.50400001928E-02 0.  1.
</event>
<event>
 5   0  0.5384960E-04  0.1295654E+04  0.7818609E-02  0.9033019E-01
        2   -1    0    0  501    0  0.00000000000E+00  0.00000000000E+00  0.13667541503E+04  0.13667541503E+04  0.25500000920E-02 0.  1.
       -2   -1    0    0    0  501  0.00000000000E+00  0.00000000000E+00 -0.30706296445E+03  0.30706296446E+03  0.25500000920E-02 0. -1.
    10030    2    1    2    0    0  0.00000000000E+00  0.00000000000E+00  0.10596911858E+04  0.16738171148E+04  0.12956536282E+04 0.  0.
        3    1    3    3  502    0 -0.58384383646E+03 -0.25054710531E+03  0.36627161792E+03  0.73335011123E+03  0.10100000352E+00 0.  1.
       -3    1    3    3    0  502  0.58384383646E+03  0.25054710531E+03  0.69341956793E+03  0.94046700353E+03  0.10100000352E+00 0. -1.
</event>
<event>
 5   0  0.3403833E-04  0.1294257E+04  0.7818609E-02  0.9034132E-01
        1   -1    0    0  501    0  0.00000000000E+00  0.00000000000E+00  0.27551006680E+03  0.27551006684E+03  0.50400001928E-02 0. -1.
       -1   -1    0    0    0  501  0.00000000000E+00  0.00000000000E+00 -0.15200005746E+04  0.15200005746E+04  0.50400001928E-02 0.  1.
    10030    2    1    2    0    0  0.00000000000E+00  0.00000000000E+00 -0.12444905078E+04  0.17955106414E+04  0.12942572540E+04 0.  0.
        1    1    3    3  502    0 -0.23623529965E+03 -0.68113929166E+02  0.20819473668E+03  0.32216715002E+03  0.50400001928E-02 0. -1.
       -1    1    3    3    0  502  0.23623529965E+03  0.68113929166E+02 -0.14526852445E+04  0.14733434914E+04  0.50400001928E-02 0.  1.
</event>
<event>
 5   0  0.6007125E-04  0.1300395E+04  0.7818609E-02  0.9029252E-01
        2   -1    0    0  501    0  0.00000000000E+00  0.00000000000E+00  0.45595586969E+03  0.45595586969E+03  0.25500000920E-02 0.  1.
       -2   -1    0    0    0  501  0.00000000000E+00  0.00000000000E+00 -0.92718726284E+03  0.92718726285E+03  0.25500000920E-02 0. -1.
    10030    2    1    2    0    0  0.00000000000E+00  0.00000000000E+00 -0.47123139316E+03  0.13831431325E+04  0.13003945167E+04 0.  0.
        5    1    3    3  502    0  0.75121569944E+02 -0.42234054576E+03 -0.75529573143E+03  0.86862449814E+03  0.46999998093E+01 0. -1.
       -5    1    3    3    0  502 -0.75121569944E+02  0.42234054576E+03  0.28406433827E+03  0.51451863439E+03  0.46999998093E+01 0.  1.
</event>
<event>
 5   0  0.2255875E-04  0.1302286E+04  0.7818609E-02  0.9027754E-01
        3   -1    0    0  501    0  0.00000000000E+00  0.00000000000E+00  0.49439761399E+03  0.49439762431E+03  0.10100000352E+00 0.  1.
       -3   -1    0    0    0  501  0.00000000000E+00  0.00000000000E+00 -0.85758340598E+03  0.85758341193E+03  0.10100000352E+00 0. -1.
    10030    2    1    2    0    0  0.00000000000E+00  0.00000000000E+00 -0.36318579199E+03  0.13519810362E+04  0.13022859912E+04 0.  0.
        2    1    3    3  502    0  0.17626157780E+02  0.38916892542E+03  0.36006800765E+03  0.53048289708E+03  0.25500000920E-02 0.  1.
       -2    1    3    3    0  502 -0.17626157780E+02 -0.38916892542E+03 -0.72325379964E+03  0.82149813916E+03  0.25500000920E-02 0. -1.
</event>
<event>
 5   0  0.3274879E-04  0.1297889E+04  0.7818609E-02  0.9031241E-01
       -1   -1    0    0    0  501  0.00000000000E+00  0.00000000000E+00  0.26917047724E+03  0.26917047729E+03  0.50400001928E-02 0.  1.
        1   -1    0    0  501    0  0.00000000000E+00  0.00000000000E+00 -0.15645444785E+04  0.15645444785E+04  0.50400001928E-02 0. -1.
    10030    2    1    2    0    0  0.00000000000E+00  0.00000000000E+00 -0.12953740012E+04  0.18337149557E+04  0.12978893389E+04 0.  0.
        4    1    3    3  502    0 -0.39634253462E+02 -0.49522743153E+03 -0.12375497061E+04  0.13335486384E+04  0.12699999809E+01 0. -1.
       -4    1    3    3    0  502  0.39634253462E+02  0.49522743153E+03 -0.57824295077E+02  0.50016631733E+03  0.12699999809E+01 0.  1.
</event>
<event>
 5   0  0.6052864E-04  0.1327636E+04  0.7818609E-02  0.9007932E-01
       -2   -1    0    0    0  501  0.00000000000E+00  0.00000000000E+00  0.78377455643E+03  0.78377455644E+03  0.25500000920E-02 0. -1.
        2   -1    0    0  501    0  0.00000000000E+00  0.00000000000E+00 -0.56222091525E+03  0.56222091526E+03  0.25500000920E-02 0.  1.
    10030    2    1    2    0    0  0.00000000000E+00  0.00000000000E+00  0.22155364118E+03  0.13459954717E+04  0.13276361677E+04 0.  0.
        2    1    3    3  502    0  0.64405732394E+03  0.13381056721E+03  0.20441657065E+02  0.65812838092E+03  0.25500000920E-02 0. -1.
       -2    1    3    3    0  502 -0.64405732394E+03 -0.13381056721E+03  0.20111198411E+03  0.68786709078E+03  0.25500000920E-02 0.  1.
</event>
<event>
 5   0  0.5384960E-04  0.1308191E+04  0.7818609E-02  0.9023095E-01
        2   -1    0    0  501    0  0.00000000000E+00  0.00000000000E+00  0.32806593440E+03  0.32806593441E+03  0.25500000920E-02 0. -1.
       -2   -1    0    0    0  501  0.00000000000E+00  0.00000000000E+00 -0.13041313150E+04  0.13041313150E+04  0.25500000920E-02 0.  1.
    10030    2    1    2    0    0  0.00000000000E+00  0.00000000000E+00 -0.97606538064E+03  0.16321972495E+04  0.13081912069E+04 0.  0.
        3    1    3    3  502    0  0.36939307823E+02 -0.16196252689E+03 -0.12773728472E+04  0.12881295640E+04  0.10100000352E+00 0.  1.
       -3    1    3    3    0  502 -0.36939307823E+02  0.16196252689E+03  0.30130746658E+03  0.34406768548E+03  0.10100000352E+00 0. -1.
</event>
<event>
 5   0  0.3335747E-04  0.1292591E+04  0.7818609E-02  0.9035461E-01
        1   -1    0    0  501    0  0.00000000000E+00  0.00000000000E+00  0.29407626091E+03  0.29407626095E+03  0.50400001928E-02 0. -1.
       -1   -1    0    0    0  501  0.00000000000E+00  0.00000000000E+00 -0.14203736875E+04  0.14203736876E+04  0.50400001928E-02 0.  1.
    10030    2    1    2    0    0  0.00000000000E+00  0.00000000000E+00 -0.11262974266E+04  0.17144499485E+04  0.12925914794E+04 0.  0.
        3    1    3    3  502    0 -0.21172501024E+03 -0.60120687088E+03 -0.70489621870E+03  0.95034513252E+03  0.10100000352E+00 0. -1.
       -3    1    3    3    0  502  0.21172501024E+03  0.60120687088E+03 -0.42140120794E+03  0.76410481598E+03  0.10100000352E+00 0.  1.
</event>
<event>
 5   0  0.6007125E-04  0.1301647E+04  0.7818609E-02  0.9028260E-01
       -2   -1    0    0    0  501  0.00000000000E+00  0.00000000000E+00  0.21079552922E+03  0.21079552923E+03  0.25500000920E-02 0. -1.
        2   -1    0    0  501    0  0.00000000000E+00  0.00000000000E+00 -0.20093931160E+04  0.20093931160E+04  0.25500000920E-02 0.  1.
    10030    2    1    2    0    0  0.00000000000E+00  0.00000000000E+00 -0.17985975868E+04  0.22201886453E+04  0.13016467805E+04 0.  0.
        5    1    3    3  502    0  0.24387151438E+03 -0.43460819734E+03 -0.16132246538E+04  0.16884529825E+04  0.46999998093E+01 0.  1.
       -5    1    3    3    0  502 -0.24387151438E+03  0.43460819734E+03 -0.18537293306E+03  0.53173566274E+03  0.46999998093E+01 0. -1.
</event>
<event>
 5   0  0.5787604E-04  0.1310141E+04  0.7818609E-02  0.9021562E-01
        2   -1    0    0  501    0  0.00000000000E+00  0.00000000000E+00  0.68369501441E+03  0.68369501441E+03  0.25500000920E-02 0. -1.
       -2   -1    0    0    0  501  0.00000000000E+00  0.00000000000E+00 -0.62764436464E+03  0.62764436465E+03  0.25500000920E-02 0.  1.
    10030    2    1    2    0    0  0.00000000000E+00  0.00000000000E+00  0.56050649763E+02  0.13113393791E+04  0.13101409435E+04 0.  0.
        4    1    3    3  502    0 -0.36329679283E+03 -0.21326256475E+02  0.57320359992E+03  0.67897227393E+03  0.12699999809E+01 0. -1.
       -4    1    3    3    0  502  0.36329679283E+03  0.21326256475E+02 -0.51715295016E+03  0.63236710513E+03  0.12699999809E+01 0.  1.
</event>
<event>
 5   0  0.6052864E-04  0.1309007E+04  0.7818609E-02  0.9022453E-01
        2   -1    0    0  501    0  0.00000000000E+00  0.00000000000E+00  0.59028366333E+03  0.59028366334E+03  0.25500000920E-02 0. -1.
       -2   -1    0    0    0  501  0.00000000000E+00  0.00000000000E+00 -0.72571002353E+03  0.72571002354E+03  0.25500000920E-02 0.  1.
    10030    2    1    2    0    0  0.00000000000E+00  0.00000000000E+00 -0.13542636020E+03  0.13159936869E+04  0.13090069079E+04 0.  0.
        2    1    3    3  502    0 -0.25104992239E+03  0.22173315886E+03 -0.63301606737E+03  0.71617106813E+03  0.25500000920E-02 0.  1.
       -2    1    3    3    0  502  0.25104992239E+03 -0.22173315886E+03  0.49758970717E+03  0.59982261874E+03  0.25500000920E-02 0. -1.
</event>
<event>
 5   0  0.2255875E-04  0.1282966E+04  0.7818609E-02  0.9043183E-01
       -4   -1    0    0    0  501  0.00000000000E+00  0.00000000000E+00  0.83606134871E+03  0.83606231329E+03  0.12699999809E+01 0.  1.
        4   -1    0    0  501    0  0.00000000000E+00  0.00000000000E+00 -0.49218742757E+03  0.49218906606E+03  0.12699999809E+01 0. -1.
    10030    2    1    2    0    0  0.00000000000E+00  0.00000000000E+00  0.34387392114E+03  0.13282513794E+04  0.12829662712E+04 0.  0.
        5    1    3    3  502    0 -0.18273431464E+03 -0.23587314008E+03  0.75982767560E+03  0.81632600998E+03  0.46999998093E+01 0.  1.
       -5    1    3    3    0  502  0.18273431464E+03  0.23587314008E+03 -0.41595375446E+03  0.51192536937E+03  0.46999998093E+01 0. -1.
</event>
<event>
 5   0  0.5787604E-04  0.1298120E+04  0.7818609E-02  0.9031057E-01
       -2   -1    0    0    0  501  0.00000000000E+00  0.00000000000E+00  0.23555336071E+03  0.23555336072E+03  0.25500000920E-02 0. -1.
        2   -1    0    0  501    0  0.00000000000E+00  0.00000000000E+00 -0.17884642313E+04  0.17884642313E+04  0.25500000920E-02 0.  1.
    10030    2    1    2    0    0  0.00000000000E+00  0.00000000000E+00 -0.15529108706E+04  0.20240175920E+04  0.12981198099E+04 0.  0.
        4    1    3    3  502    0  0.44102612011E+03  0.25622529311E+03 -0.15059638937E+03  0.53182358432E+03  0.12699999809E+01 0. -1.
       -4    1    3    3    0  502 -0.44102612011E+03 -0.25622529311E+03 -0.14023144812E+04  0.14921940077E+04  0.12699999809E+01 0.  1.
</event>
<event>
 5   0  0.6007125E-04  0.1303589E+04  0.7818609E-02  0.9026724E-01
       -2   -1    0    0    0  501  0.00000000000E+00  0.00000000000E+00  0.31684226346E+03  0.31684226347E+03  0.25500000920E-02 0. -1.
        2   -1    0    0  501    0  0.00000000000E+00  0.00000000000E+00 -0.13408450515E+04  0.13408450515E+04  0.25500000920E-02 0.  1.
    10030    2    1    2    0    0  0.00000000000E+00  0.00000000000E+00 -0.10240027880E+04  0.16576873149E+04  0.13035894769E+04 0.  0.
        5    1    3    3  502    0 -0.20240003341E+03  0.31098806899E+03  0.16940277821E+03  0.40792002138E+03  0.46999998093E+01 0. -1.
       -5    1    3    3    0  502  0.20240003341E+03 -0.31098806899E+03 -0.11934055662E+04  0.12497672936E+04  0.46999998093E+01 0.  1.
</event>
<event>
 5   0  0.5787604E-04  0.1303573E+04  0.7818609E-02  0.9026736E-01
       -2   -1    0    0    0  501  0.00000000000E+00  0.00000000000E+00  0.82453896193E+03  0.82453896193E+03  0.25500000920E-02 0.  1.
        2   -1    0    0  501    0  0.00000000000E+00  0.00000000000E+00 -0.51522838127E+03  0.51522838127E+03  0.25500000920E-02 0. -1.
    10030    2    1    2    0    0  0.00000000000E+00  0.00000000000E+00  0.30931058066E+03  0.13397673432E+04  0.13035733576E+04 0.  0.
        4    1    3    3  502    0  0.17611911773E+03  0.52287861712E+03  0.51128281252E+03  0.75221786681E+03  0.12699999809E+01 0.  1.
       -4    1    3    3    0  502 -0.17611911773E+03 -0.52287861712E+03 -0.20197223186E+03  0.58754947640E+03  0.12699999809E+01 0. -1.
</event>
<event>
 5   0  0.6052864E-04  0.1298526E+04  0.7818609E-02  0.9030735E-01
       -2   -1    0    0    0  501  0.00000000000E+00  0.00000000000E+00  0.37151877195E+03  0.37151877196E+03  0.25500000920E-02 0. -1.
        2   -1    0    0  501    0  0.00000000000E+00  0.00000000000E+00 -0.11346470805E+04  0.11346470805E+04  0.25500000920E-02 0.  1.
    10030    2    1    2    0    0  0.00000000000E+00  0.00000000000E+00 -0.76312830853E+03  0.15061658524E+04  0.12985263801E+04 0.  0.
        2    1    3    3  502    0  0.59639107282E+02  0.30188064984E+03 -0.10446944698E+04  0.10890708357E+04  0.25500000920E-02 0.  1.
       -2    1    3    3    0  502 -0.59639107282E+02 -0.30188064984E+03  0.28156616126E+03  0.41709501679E+03  0.25500000920E-02 0. -1.
</event>
<event>
 5   0  0.6007125E-04  0.1302555E+04  0.7818609E-02  0.9027542E-01
        2   -1    0    0  501    0  0.00000000000E+00  0.00000000000E+00  0.10413977567E+04  0.10413977567E+04  0.25500000920E-02 0.  1.
       -2   -1    0    0    0  501  0.00000000000E+00  0.00000000000E+00 -0.40730078320E+03  0.40730078321E+03  0.25500000920E-02 0. -1.
    10030    2    1    2    0    0  0.00000000000E+00  0.00000000000E+00  0.63409697352E+03  0.14486985399E+04  0.13025546007E+04 0.  0.
        5    1    3    3  502    0 -0.79866039045E-01  0.23353104640E+03 -0.35911231631E+03  0.42839292914E+03  0.46999998093E+01 0. -1.
       -5    1    3    3    0  502  0.79866039045E-01 -0.23353104640E+03  0.99320928983E+03  0.10203056108E+04  0.46999998093E+01 0.  1.
</event>
<event>
 5   0  0.3403833E-04  0.1299052E+04  0.7818609E-02  0.9030317E-01
       -1   -1    0    0    0  501  0.00000000000E+00  0.00000000000E+00  0.24298090569E+03  0.24298090575E+03  0.50400001928E-02 0.  1.
        1   -1    0    0  501    0  0.00000000000E+00  0.00000000000E+00 -0.17362843357E+04  0.17362843357E+04  0.50400001928E-02 0. -1.
    10030    2    1    2    0    0  0.00000000000E+00  0.00000000000E+00 -0.14933034300E+04  0.19792652414E+04  0.12990518704E+04 0.  0.
        1    1    3    3  502    0 -0.37542213156E+03  0.51955057759E+03 -0.90651861742E+03  0.11102479828E+04  0.50400001928E-02 0. -1.
       -1    1    3    3    0  502  0.37542213156E+03 -0.51955057759E+03 -0.58678481256E+03  0.86901725864E+03  0.50400001928E-02 0.  1.
</event>
<event>
 5   0  0.5384960E-04  0.1301731E+04  0.7818609E-02  0.9028194E-01
       -2   -1    0    0    0  501  0.00000000000E+00  0.00000000000E+00  0.31716036884E+03  0.31716036885E+03  0.25500000920E-02 0. -1.
        2   -1    0    0  501    0  0.00000000000E+00  0.00000000000E+00 -0.13356837407E+04  0.13356837407E+04  0.25500000920E-02 0.  1.
    10030    2    1    2    0    0  0.00000000000E+00  0.00000000000E+00 -0.10185233718E+04  0.16528441095E+04  0.13017310749E+04 0.  0.
        3    1    3    3  502    0  0.34578326736E+03  0.23805484112E+03  0.12227921682E+03  0.43725094904E+03  0.10100000352E+00 0. -1.
       -3    1    3    3    0  502 -0.34578326736E+03 -0.23805484112E+03 -0.11408025887E+04  0.12155931605E+04  0.10100000352E+00 0.  1.
</event>
<event>
 5   0  0.3403833E-04  0.1296984E+04  0.7818609E-02  0.9031960E-01
        1   -1    0    0  501    0  0.00000000000E+00  0.00000000000E+00  0.13253060337E+04  0.13253060337E+04  0.50400001928E-02 0.  1.
       -1   -1    0    0    0  501  0.00000000000E+00  0.00000000000E+00 -0.31731700805E+03  0.31731700809E+03  0.50400001928E-02 0. -1.
    10030    2    1    2    0    0  0.00000000000E+00  0.00000000000E+00  0.10079890257E+04  0.16426230418E+04  0.12969844184E+04 0.  0.
        1    1    3    3  502    0  0.15863616379E+03 -0.61342315242E+03  0.67897591231E+03  0.92868815321E+03  0.50400001928E-02 0.  1.
       -1    1    3    3    0  502 -0.15863616379E+03  0.61342315242E+03  0.32901311336E+03  0.71393488861E+03  0.50400001928E-02 0. -1.
</event>
<event>
 5   0  0.6052864E-04  0.1232645E+04  0.7818609E-02  0.9084752E-01
       -2   -1    0    0    0  501  0.00000000000E+00  0.00000000000E+00  0.36863264073E+03  0.36863264074E+03  0.25500000920E-02 0. -1.
        2   -1    0    0  501    0  0.00000000000E+00  0.00000000000E+00 -0.10304395685E+04  0.10304395685E+04  0.25500000920E-02 0.  1.
    10030    2    1    2    0    0  0.00000000000E+00  0.00000000000E+00 -0.66180692775E+03  0.13990722092E+04  0.12326453817E+04 0.  0.
        2    1    3    3  502    0  0.81636892671E+02  0.55295300813E+03 -0.62564079826E+03  0.83895650655E+03  0.25500000920E-02 0.  1.
       -2    1    3    3    0  502 -0.81636892671E+02 -0.55295300813E+03 -0.36166129494E+02  0.56011570266E+03  0.25500000920E-02 0. -1.
</event>
<event>
 5   0  0.6007125E-04  0.1299778E+04  0.7818609E-02  0.9029741E-01
       -2   -1    0    0    0  501  0.00000000000E+00  0.00000000000E+00  0.25440667250E+03  0.25440667251E+03  0.25500000920E-02 0. -1.
        2   -1    0    0  501    0  0.00000000000E+00  0.00000000000E+00 -0.16601599995E+04  0.16601599995E+04  0.25500000920E-02 0.  1.
    10030    2    1    2    0    0  0.00000000000E+00  0.00000000000E+00 -0.14057533270E+04  0.19145666720E+04  0.12997781061E+04 0.  0.
        5    1    3    3  502    0 -0.49588771758E+03 -0.29208239998E+03 -0.25824454903E+03  0.63081621248E+03  0.46999998093E+01 0. -1.
       -5    1    3    3    0  502  0.49588771758E+03  0.29208239998E+03 -0.11475087779E+04  0.12837504595E+04  0.46999998093E+01 0.  1.
</event>
<event>
 5   0  0.3403833E-04  0.1298929E+04  0.7818609E-02  0.9030415E-01
       -1   -1    0    0    0  501  0.00000000000E+00  0.00000000000E+00  0.61458636766E+03  0.61458636768E+03  0.50400001928E-02 0. -1.
        1   -1    0    0  501    0  0.00000000000E+00  0.00000000000E+00 -0.68632166820E+03  0.68632166822E+03  0.50400001928E-02 0.  1.
    10030    2    1    2    0    0  0.00000000000E+00  0.00000000000E+00 -0.71735300545E+02  0.13009080359E+04  0.12989286988E+04 0.  0.
        1    1    3    3  502    0 -0.20668343146E+03  0.60767848245E+03 -0.13507798667E+03  0.65592472234E+03  0.50400001928E-02 0.  1.
       -1    1    3    3    0  502  0.20668343146E+03 -0.60767848245E+03  0.63342686123E+02  0.64498331356E+03  0.50400001928E-02 0. -1.
</event>
<event>
 5   0  0.3274879E-04  0.1303131E+04  0.7818609E-02  0.9027086E-01
        1   -1    0    0  501    0  0.00000000000E+00  0.00000000000E+00  0.11825526884E+04  0.11825526885E+04  0.50400001928E-02 0. -1.
       -1   -1    0    0    0  501  0.00000000000E+00  0.00000000000E+00 -0.35900106497E+03  0.35900106500E+03  0.50400001928E-02 0.  1.
    10030    2    1    2    0    0  0.00000000000E+00  0.00000000000E+00  0.82355162348E+03  0.15415537535E+04  0.13031311132E+04 0.  0.
        4    1    3    3  502    0 -0.91250973499E+02  0.12355575804E+03  0.11608279312E+04  0.11709465677E+04  0.12699999809E+01 0. -1.
       -4    1    3    3    0  502  0.91250973499E+02 -0.12355575804E+03 -0.33727630774E+03  0.37060718581E+03  0.12699999809E+01 0.  1.
</event>
<event>
 5   0  0.3335747E-04  0.1295745E+04  0.7818609E-02  0.9032947E-01
       -1   -1    0    0    0  501  0.00000000000E+00  0.00000000000E+00  0.41156218076E+03  0.41156218079E+03  0.50400001928E-02 0. -1.
        1   -1    0    0  501    0  0.00000000000E+00  0.00000000000E+00 -0.10198666321E+04  0.10198666321E+04  0.50400001928E-02 0.  1.
    10030    2    1    2    0    0  0.00000000000E+00  0.00000000000E+00 -0.60830445134E+03  0.14314288129E+04  0.12957446280E+04 0.  0.
        3    1    3    3  502    0 -0.54782851071E+03  0.26807591296E+03 -0.62732762828E+02  0.61312003881E+03  0.10100000352E+00 0. -1.
       -3    1    3    3    0  502  0.54782851071E+03 -0.26807591296E+03 -0.54557168851E+03  0.81830877410E+03  0.10100000352E+00 0.  1.
</event>
<event>
 5   0  0.2255875E-04  0.1295677E+04  0.7818609E-02  0.9033000E-01
       -3   -1    0    0    0  501  0.00000000000E+00  0.00000000000E+00  0.12886724025E+04  0.12886724065E+04  0.10100000352E+00 0. -1.
        3   -1    0    0  501    0  0.00000000000E+00  0.00000000000E+00 -0.32568009123E+03  0.32568010689E+03  0.10100000352E+00 0.  1.
    10030    2    1    2    0    0  0.00000000000E+00  0.00000000000E+00  0.96299231128E+03  0.16143525134E+04  0.12956773695E+04 0.  0.
        2    1    3    3  502    0  0.30888715973E+03  0.52603108019E+03  0.20973283628E+03  0.64506421184E+03  0.25500000920E-02 0.  1.
       -2    1    3    3    0  502 -0.30888715973E+03 -0.52603108019E+03  0.75325947499E+03  0.96928830151E+03  0.25500000920E-02 0. -1.
</event>
<event>
 5   0  0.3337520E-04  0.1303475E+04  0.7818609E-02  0.9026814E-01
       -1   -1    0    0    0  501  0.00000000000E+00  0.00000000000E+00  0.21363297375E+03  0.21363297381E+03  0.50400001928E-02 0.  1.
        1   -1    0    0  501    0  0.00000000000E+00  0.00000000000E+00 -0.19882793643E+04  0.19882793643E+04  0.50400001928E-02 0. -1.
    10030    2    1    2    0    0  0.00000000000E+00  0.00000000000E+00 -0.17746463905E+04  0.22019123381E+04  0.13034754057E+04 0.  0.
        5    1    3    3  502    0 -0.36362240791E+03 -0.49678525327E+03 -0.12485375635E+04  0.13920793730E+04  0.46999998093E+01 0.  1.
       -5    1    3    3    0  502  0.36362240791E+03  0.49678525327E+03 -0.52610882702E+03  0.80983296504E+03  0.46999998093E+01 0. -1.
</event>
<event>
 5   0  0.3335747E-04  0.1297806E+04  0.7818609E-02  0.9031307E-01
       -1   -1    0    0    0  501  0.00000000000E+00  0.00000000000E+00  0.55987074871E+03  0.55987074873E+03  0.50400001928E-02 0. -1.
        1   -1    0    0  501    0  0.00000000000E+00  0.00000000000E+00 -0.75209336798E+03  0.75209336799E+03  0.50400001928E-02 0.  1.
    10030    2    1    2    0    0  0.00000000000E+00  0.00000000000E+00 -0.19222261927E+03  0.13119641167E+04  0.12978059594E+04 0.  0.
        3    1    3    3  502    0  0.58811218523E+03 -0.26513983505E+03 -0.25347714043E+02  0.64561411954E+03  0.10100000352E+00 0. -1.
       -3    1    3    3    0  502 -0.58811218523E+03  0.26513983505E+03 -0.16687490522E+03  0.66634999718E+03  0.10100000352E+00 0.  1.
</event>
<event>
 5   0  0.6007125E-04  0.1299142E+04  0.7818609E-02  0.9030246E-01
        2   -1    0    0  501    0  0.00000000000E+00  0.00000000000E+00  0.14559735857E+04  0.14559735857E+04  0.25500000920E-02 0. -1.
       -2   -1    0    0    0  501  0.00000000000E+00  0.00000000000E+00 -0.28980070811E+03  0.28980070812E+03  0.25500000920E-02 0.  1.
    10030    2    1    2    0    0  0.00000000000E+00  0.00000000000E+00  0.11661728776E+04  0.17457742938E+04  0.12991415260E+04 0.  0.
        5    1    3    3  502    0 -0.51731660412E+03  0.31350279057E+03  0.90114105198E+03  0.10853468359E+04  0.46999998093E+01 0.  1.
       -5    1    3    3    0  502  0.51731660412E+03 -0.31350279057E+03  0.26503182558E+03  0.66042745791E+03  0.46999998093E+01 0. -1.
</event>
<event>
 5   0  0.3337520E-04  0.1297095E+04  0.7818609E-02  0.9031872E-01
       -1   -1    0    0    0  501  0.00000000000E+00  0.00000000000E+00  0.26268714837E+03  0.26268714842E+03  0.50400001928E-02 0. -1.
        1   -1    0    0  501    0  0.00000000000E+00  0.00000000000E+00 -0.16011962933E+04  0.16011962933E+04  0.50400001928E-02 0.  1.
    10030    2    1    2    0    0  0.00000000000E+00  0.00000000000E+00 -0.13385091449E+04  0.18638834417E+04  0.12970947357E+04 0.  0.
        5    1    3    3  502    0 -0.26541152182E+03 -0.49093524384E+03 -0.19455270598E+03  0.59104444415E+03  0.46999998093E+01 0. -1.
       -5    1    3    3    0  502  0.26541152182E+03  0.49093524384E+03 -0.11439564389E+04  0.12728389976E+04  0.46999998093E+01 0.  1.
</event>
<event>
 5   0  0.6007125E-04  0.1289867E+04  0.7818609E-02  0.9037639E-01
       -2   -1    0    0    0  501  0.00000000000E+00  0.00000000000E+00  0.79345012293E+03  0.79345012294E+03  0.25500000920E-02 0.  1.
        2   -1    0    0  501    0  0.00000000000E+00  0.00000000000E+00 -0.52421601225E+03  0.52421601226E+03  0.25500000920E-02 0. -1.
    10030    2    1    2    0    0  0.00000000000E+00  0.00000000000E+00  0.26923411068E+03  0.13176661352E+04  0.12898670619E+04 0.  0.
        5    1    3    3  502    0  0.19141984062E+03 -0.40866409855E+03 -0.33603937152E+03  0.56266548680E+03  0.46999998093E+01 0. -1.
       -5    1    3    3    0  502 -0.19141984062E+03  0.40866409855E+03  0.60527348220E+03  0.75500064840E+03  0.46999998093E+01 0.  1.
</event>
<event>
 5   0  0.3274879E-04  0.1283461E+04  0.7818609E-02  0.9042784E-01
       -1   -1    0    0    0  501  0.00000000000E+00  0.00000000000E+00  0.65998975493E+03  0.65998975495E+03  0.50400001928E-02 0. -1.
        1   -1    0    0  501    0  0.00000000000E+00  0.00000000000E+00 -0.62397647802E+03  0.62397647804E+03  0.50400001928E-02 0.  1.
    10030    2    1    2    0    0  0.00000000000E+00  0.00000000000E+00  0.36013276917E+02  0.12839662330E+04  0.12834610751E+04 0.  0.
        4    1    3    3  502    0 -0.37253647560E+03  0.28803364665E+03 -0.41813475065E+03  0.62975002172E+03  0.12699999809E+01 0.  1.
       -4    1    3    3    0  502  0.37253647560E+03 -0.28803364665E+03  0.45414802756E+03  0.65421621127E+03  0.12699999809E+01 0. -1.
</event>
<event>
 5   0  0.3337520E-04  0.1279057E+04  0.7818609E-02  0.9046340E-01
        1   -1    0    0  501    0  0.00000000000E+00  0.00000000000E+00  0.35074634626E+03  0.35074634629E+03  0.50400001928E-02 0. -1.
       -1   -1    0    0    0  501  0.00000000000E+00  0.00000000000E+00 -0.11660749982E+04  0.11660749982E+04  0.50400001928E-02 0.  1.
    10030    2    1    2    0    0  0.00000000000E+00  0.00000000000E+00 -0.81532865195E+03  0.15168213445E+04  0.12790567542E+04 0.  0.
        5    1    3    3  502    0  0.57542576026E+03  0.27550952309E+03 -0.35524109151E+03  0.73023189877E+03  0.46999998093E+01 0. -1.
       -5    1    3    3    0  502 -0.57542576026E+03 -0.27550952309E+03 -0.46008756045E+03  0.78658944575E+03  0.46999998093E+01 0.  1.
</event>
<event>
 5   0  0.5384960E-04  0.1300756E+04  0.7818609E-02  0.9028966E-01
        2   -1    0    0  501    0  0.00000000000E+00  0.00000000000E+00  0.43337239920E+03  0.43337239920E+03  0.25500000920E-02 0. -1.
       -2   -1    0    0    0  501  0.00000000000E+00  0.00000000000E+00 -0.97604672617E+03  0.97604672617E+03  0.25500000920E-02 0.  1.
    10030    2    1    2    0    0  0.00000000000E+00  0.00000000000E+00 -0.54267432697E+03  0.14094191254E+04  0.13007562592E+04 0.  0.
        3    1    3    3  502    0 -0.48885016486E+03 -0.24891298234E+03  0.10721881475E+03  0.55895262849E+03  0.10100000352E+00 0. -1.
       -3    1    3    3    0  502  0.48885016486E+03  0.24891298234E+03 -0.64989314172E+03  0.85046649688E+03  0.10100000352E+00 0.  1.
</event>
<event>
 5   0  0.6007125E-04  0.1313458E+04  0.7818609E-02  0.9018961E-01
        2   -1    0    0  501    0  0.00000000000E+00  0.00000000000E+00  0.51097718559E+03  0.51097718560E+03  0.25500000920E-02 0.  1.
       -2   -1    0    0    0  501  0.00000000000E+00  0.00000000000E+00 -0.84405468440E+03  0.84405468441E+03  0.25500000920E-02 0. -1.
    10030    2    1    2    0    0  0.00000000000E+00  0.00000000000E+00 -0.33307749881E+03  0.13550318700E+04  0.13134575549E+04 0.  0.
        5    1    3    3  502    0 -0.46959776137E+03  0.31664648679E+03 -0.50945041637E+03  0.76180632172E+03  0.46999998093E+01 0. -1.
       -5    1    3    3    0  502  0.46959776137E+03 -0.31664648679E+03  0.17637291755E+03  0.59322554828E+03  0.46999998093E+01 0.  1.
</event>
<event>
 5   0  0.3337520E-04  0.1298765E+04  0.7818609E-02  0.9030545E-01
        1   -1    0    0  501    0  0.00000000000E+00  0.00000000000E+00  0.29771117982E+03  0.29771117986E+03  0.50400001928E-02 0. -1.
       -1   -1    0    0    0  501  0.00000000000E+00  0.00000000000E+00 -0.14164665714E+04  0.14164665714E+04  0.50400001928E-02 0.  1.
    10030    2    1    2    0    0  0.00000000000E+00  0.00000000000E+00 -0.11187553916E+04  0.17141777512E+04  0.12987654664E+04 0.  0.
        5    1    3    3  502    0  0.52871125852E+03  0.19024078911E+03 -0.12976914166E+03  0.57670553391E+03  0.46999998093E+01 0.  1.
       -5    1    3    3    0  502 -0.52871125852E+03 -0.19024078911E+03 -0.98898624990E+03  0.11374722173E+04  0.46999998093E+01 0. -1.
</event>
<event>
 5   0  0.5787604E-04  0.1302065E+04  0.7818609E-02  0.9027929E-01
        2   -1    0    0  501    0  0.00000000000E+00  0.00000000000E+00  0.56583156060E+03  0.56583156060E+03  0.25500000920E-02 0.  1.
       -2   -1    0    0    0  501  0.00000000000E+00  0.00000000000E+00 -0.74906314093E+03  0.74906314093E+03  0.25500000920E-02 0. -1.
    10030    2    1    2    0    0  0.00000000000E+00  0.00000000000E+00 -0.18323158033E+03  0.13148947015E+04  0.13020653840E+04 0.  0.
        4    1    3    3  502    0  0.32284472066E+03  0.73025193129E+00 -0.66252914269E+03  0.73700456222E+03  0.12699999809E+01 0. -1.
       -4    1    3    3    0  502 -0.32284472066E+03 -0.73025193129E+00  0.47929756236E+03  0.57789013931E+03  0.12699999809E+01 0.  1.
</event>
<event>
 5   0  0.3403833E-04  0.1304750E+04  0.7818609E-02  0.9025807E-01
       -1   -1    0    0    0  501  0.00000000000E+00  0.00000000000E+00  0.25596623900E+03  0.25596623905E+03  0.50400001928E-02 0. -1.
        1   -1    0    0  501    0  0.00000000000E+00  0.00000000000E+00 -0.16626927440E+04  0.16626927440E+04  0.50400001928E-02 0.  1.
    10030    2    1    2    0    0  0.00000000000E+00  0.00000000000E+00 -0.14067265050E+04  0.19186589830E+04  0.13047501038E+04 0.  0.
        1    1    3    3  502    0  0.17415161077E+02  0.59626224760E+03 -0.10917617902E+04  0.12440963638E+04  0.50400001928E-02 0. -1.
       -1    1    3    3    0  502 -0.17415161077E+02 -0.59626224760E+03 -0.31496471479E+03  0.67456261929E+03  0.50400001928E-02 0.  1.
</event>
<event>
 5   0  0.3263679E-04  0.1302285E+04  0.7818609E-02  0.9027755E-01
        1   -1    0    0  501    0  0.00000000000E+00  0.00000000000E+00  0.11791496040E+04  0.11791496040E+04  0.50400001928E-02 0. -1.
       -1   -1    0    0    0  501  0.00000000000E+00  0.00000000000E+00 -0.35956987319E+03  0.35956987322E+03  0.50400001928E-02 0.  1.
    10030    2    1    2    0    0  0.00000000000E+00  0.00000000000E+00  0.81957973080E+03  0.15387194772E+04  0.13022851817E+04 0.  0.
        2    1    3    3  502    0 -0.34209957501E+03  0.28287291068E+02  0.10635577660E+04  0.11175810537E+04  0.25500000920E-02 0. -1.
       -2    1    3    3    0  502  0.34209957501E+03 -0.28287291068E+02 -0.24397803520E+03  0.42113842347E+03  0.25500000920E-02 0.  1.
</event>
<event>
 5   0  0.3274879E-04  0.1300757E+04  0.7818609E-02  0.9028965E-01
       -1   -1    0    0    0  501  0.00000000000E+00  0.00000000000E+00  0.76324812149E+03  0.76324812151E+03  0.50400001928E-02 0.  1.
        1   -1    0    0  501    0  0.00000000000E+00  0.00000000000E+00 -0.55420008444E+03  0.55420008446E+03  0.50400001928E-02 0. -1.
    10030    2    1    2    0    0  0.00000000000E+00  0.00000000000E+00  0.20904803705E+03  0.13174482060E+04  0.13007569695E+04 0.  0.
        4    1    3    3  502    0 -0.41732109354E+03  0.48528853568E+02  0.60736077002E+03  0.73851246611E+03  0.12699999809E+01 0.  1.
       -4    1    3    3    0  502  0.41732109354E+03 -0.48528853568E+02 -0.39831273297E+03  0.57893573986E+03  0.12699999809E+01 0. -1.
</event>
<event>
 5   0  0.3274879E-04  0.1303455E+04  0.7818609E-02  0.9026830E-01
        1   -1    0    0  501    0  0.00000000000E+00  0.00000000000E+00  0.38899157047E+03  0.38899157051E+03  0.50400001928E-02 0.  1.
       -1   -1    0    0    0  501  0.00000000000E+00  0.00000000000E+00 -0.10919222708E+04  0.10919222709E+04  0.50400001928E-02 0. -1.
    10030    2    1    2    0    0  0.00000000000E+00  0.00000000000E+00 -0.70293070037E+03  0.14809138414E+04  0.13034547311E+04 0.  0.
        4    1    3    3  502    0  0.64740604900E+03  0.54424964759E+02 -0.40995506129E+03  0.76821965234E+03  0.12699999809E+01 0.  1.
       -4    1    3    3    0  502 -0.64740604900E+03 -0.54424964759E+02 -0.29297563908E+03  0.71269418902E+03  0.12699999809E+01 0. -1.
</event>
<event>
 5   0  0.3403833E-04  0.1298220E+04  0.7818609E-02  0.9030978E-01
       -1   -1    0    0    0  501  0.00000000000E+00  0.00000000000E+00  0.81953133039E+03  0.81953133041E+03  0.50400001928E-02 0.  1.
        1   -1    0    0  501    0  0.00000000000E+00  0.00000000000E+00 -0.51412774130E+03  0.51412774132E+03  0.50400001928E-02 0. -1.
    10030    2    1    2    0    0  0.00000000000E+00  0.00000000000E+00  0.30540358910E+03  0.13336590717E+04  0.12982199996E+04 0.  0.
        1    1    3    3  502    0  0.39518425871E+03 -0.42092964487E+02  0.67993839082E+03  0.78756500134E+03  0.50400001928E-02 0.  1.
       -1    1    3    3    0  502 -0.39518425871E+03  0.42092964487E+02 -0.37453480173E+03  0.54609407040E+03  0.50400001928E-02 0. -1.
</event>
<event>
 5   0  0.3337520E-04  0.1302176E+04  0.7818609E-02  0.9027841E-01
        1   -1    0    0  501    0  0.00000000000E+00  0.00000000000E+00  0.12604943924E+04  0.12604943924E+04  0.50400001928E-02 0.  1.
       -1   -1    0    0    0  501  0.00000000000E+00  0.00000000000E+00 -0.33630912197E+03  0.33630912201E+03  0.50400001928E-02 0. -1.
    10030    2    1    2    0    0  0.00000000000E+00  0.00000000000E+00  0.92418527046E+03  0.15968035144E+04  0.13021762744E+04 0.  0.
        5    1    3    3  502    0 -0.32749633000E+03  0.12399841722E+03 -0.21096999490E+03  0.40885190764E+03  0.46999998093E+01 0. -1.
       -5    1    3    3    0  502  0.32749633000E+03 -0.12399841722E+03  0.11351552654E+04  0.11879516068E+04  0.46999998093E+01 0.  1.
</event>
<event>
 5   0  0.5787604E-04  0.1298569E+04  0.7818609E-02  0.9030701E-01
       -2   -1    0    0    0  501  0.00000000000E+00  0.00000000000E+00  0.33454099919E+03  0.33454099920E+03  0.25500000920E-02 0.  1.
        2   -1    0    0  501    0  0.00000000000E+00  0.00000000000E+00 -0.12601449096E+04  0.12601449096E+04  0.25500000920E-02 0. -1.
    10030    2    1    2    0    0  0.00000000000E+00  0.00000000000E+00 -0.92560391044E+03  0.15946859088E+04  0.12985686539E+04 0.  0.
        4    1    3    3  502    0  0.35631426666E+03 -0.52836745372E+03 -0.61537741295E+03  0.88590236260E+03  0.12699999809E+01 0.  1.
       -4    1    3    3    0  502 -0.35631426666E+03  0.52836745372E+03 -0.31022649749E+03  0.70878354624E+03  0.12699999809E+01 0. -1.
</event>
<event>
 5   0  0.3337520E-04  0.1299873E+04  0.7818609E-02  0.9029666E-01
       -1   -1    0    0    0  501  0.00000000000E+00  0.00000000000E+00  0.32064196018E+03  0.32064196022E+03  0.50400001928E-02 0.  1.
        1   -1    0    0  501    0  0.00000000000E+00  0.00000000000E+00 -0.13174108544E+04  0.13174108544E+04  0.50400001928E-02 0. -1.
    10030    2    1    2    0    0  0.00000000000E+00  0.00000000000E+00 -0.99676889423E+03  0.16380528146E+04  0.12998726072E+04 0.  0.
        5    1    3    3  502    0  0.21982357151E+03  0.40968465407E+03 -0.10706587998E+04  0.11672601570E+04  0.46999998093E+01 0. -1.
       -5    1    3    3    0  502 -0.21982357151E+03 -0.40968465407E+03  0.73889905599E+02  0.47079265768E+03  0.46999998093E+01 0.  1.
</event>
<event>
 5   0  0.5787604E-04  0.1304445E+04  0.7818609E-02  0.9026048E-01
       -2   -1    0    0    0  501  0.00000000000E+00  0.00000000000E+00  0.10726937624E+04  0.10726937624E+04  0.25500000920E-02 0. -1.
        2   -1    0    0  501    0  0.00000000000E+00  0.00000000000E+00 -0.39656637681E+03  0.39656637682E+03  0.25500000920E-02 0.  1.
    10030    2    1    2    0    0  0.00000000000E+00  0.00000000000E+00  0.67612738561E+03  0.14692601392E+04  0.13044451369E+04 0.  0.
        4    1    3    3  502    0 -0.37011026265E+02  0.61224405680E+03  0.58784930925E+03  0.84957696793E+03  0.12699999809E+01 0. -1.
       -4    1    3    3    0  502  0.37011026265E+02 -0.61224405680E+03  0.88278076363E+02  0.61968317132E+03  0.12699999809E+01 0.  1.
</event>
<event>
 5   0  0.3403833E-04  0.1297724E+04  0.7818609E-02  0.9031372E-01
       -1   -1    0    0    0  501  0.00000000000E+00  0.00000000000E+00  0.46289723776E+03  0.46289723779E+03  0.50400001928E-02 0.  1.
        1   -1    0    0  501    0  0.00000000000E+00  0.00000000000E+00 -0.90953665744E+03  0.90953665745E+03  0.50400001928E-02 0. -1.
    10030    2    1    2    0    0  0.00000000000E+00  0.00000000000E+00 -0.44663941967E+03  0.13724338952E+04  0.12977241716E+04 0.  0.
        1    1    3    3  502    0 -0.40204312318E+03 -0.17791283063E+03  0.28136425473E+03  0.52197460864E+03  0.50400001928E-02 0.  1.
       -1    1    3    3    0  502  0.40204312318E+03  0.17791283063E+03 -0.72800367440E+03  0.85045928660E+03  0.50400001928E-02 0. -1.
</event>
<event>
 5   0  0.2255875E-04  0.1292681E+04  0.7818609E-02  0.9035390E-01
        3   -1    0    0  501    0  0.00000000000E+00  0.00000000000E+00  0.22393599834E+03  0.22393602112E+03  0.10100000352E+00 0. -1.
       -3   -1    0    0    0  501  0.00000000000E+00  0.00000000000E+00 -0.18655144922E+04  0.18655144949E+04  0.10100000352E+00 0.  1.
    10030    2    1    2    0    0  0.00000000000E+00  0.00000000000E+00 -0.16415784938E+04  0.20894505160E+04  0.12926807446E+04 0.  0.
        5    1    3    3  502    0  0.53438826272E+03 -0.23744650068E+03 -0.37582592182E+03  0.69513946049E+03  0.46999998093E+01 0. -1.
       -5    1    3    3    0  502 -0.53438826272E+03  0.23744650068E+03 -0.12657525720E+04  0.13943110555E+04  0.46999998093E+01 0.  1.
</event>
<event>
 5   0  0.5957913E-04  0.1288296E+04  0.7818609E-02  0.9038898E-01
       -2   -1    0    0    0  501  0.00000000000E+00  0.00000000000E+00  0.40082187662E+03  0.40082187663E+03  0.25500000920E-02 0.  1.
        2   -1    0    0  501    0  0.00000000000E+00  0.00000000000E+00 -0.10351896707E+04  0.10351896707E+04  0.25500000920E-02 0. -1.
    10030    2    1    2    0    0  0.00000000000E+00  0.00000000000E+00 -0.63436779403E+03  0.14360115473E+04  0.12882960319E+04 0.  0.
        1    1    3    3  502    0 -0.59845255367E+03  0.21736735325E+03 -0.42601396139E+03  0.76608218918E+03  0.50400001928E-02 0. -1.
       -1    1    3    3    0  502  0.59845255367E+03 -0.21736735325E+03 -0.20835383265E+03  0.66992935811E+03  0.50400001928E-02 0.  1.
</event>
<event>
 5   0  0.3403833E-04  0.1301058E+04  0.7818609E-02  0.9028726E-01
        1   -1    0    0  501    0  0.00000000000E+00  0.00000000000E+00  0.36874456530E+03  0.36874456534E+03  0.50400001928E-02 0. -1.
       -1   -1    0    0    0  501  0.00000000000E+00  0.00000000000E+00 -0.11476458503E+04  0.11476458504E+04  0.50400001928E-02 0.  1.
    10030    2    1    2    0    0  0.00000000000E+00  0.00000000000E+00 -0.77890128504E+03  0.15163904157E+04  0.13010582927E+04 0.  0.
        1    1    3    3  502    0  0.25008729456E+03 -0.38190844554E+03  0.15070854105E+03  0.48073982574E+03  0.50400001928E-02 0. -1.
       -1    1    3    3    0  502 -0.25008729456E+03  0.38190844554E+03 -0.92960982610E+03  0.10356505900E+04  0.50400001928E-02 0.  1.
</event>
<event>
 5   0  0.6052864E-04  0.1293650E+04  0.7818609E-02  0.9034616E-01
       -2   -1    0    0    0  501  0.00000000000E+00  0.00000000000E+00  0.10227447128E+04  0.10227447128E+04  0.25500000920E-02 0. -1.
        2   -1    0    0  501    0  0.00000000000E+00  0.00000000000E+00 -0.40907839619E+03  0.40907839620E+03  0.25500000920E-02 0.  1.
    10030    2    1    2    0    0  0.00000000000E+00  0.00000000000E+00  0.61366631657E+03  0.14318231090E+04  0.12936502878E+04 0.  0.
        2    1    3    3  502    0  0.38675243312E+03 -0.49733567556E+03  0.14468458989E+03  0.64641615796E+03  0.25500000920E-02 0. -1.
       -2    1    3    3    0  502 -0.38675243312E+03  0.49733567556E+03  0.46898172668E+03  0.78540695100E+03  0.25500000920E-02 0.  1.
</event>
<event>
 5   0  0.3403833E-04  0.1296819E+04  0.7818609E-02  0.9032092E-01
        1   -1    0    0  501    0  0.00000000000E+00  0.00000000000E+00  0.43309076216E+03  0.43309076219E+03  0.50400001928E-02 0.  1.
       -1   -1    0    0    0  501  0.00000000000E+00  0.00000000000E+00 -0.97077769982E+03  0.97077769984E+03  0.50400001928E-02 0. -1.
    10030    2    1    2    0    0  0.00000000000E+00  0.00000000000E+00 -0.53768693766E+03  0.14038684620E+04  0.12968189603E+04 0.  0.
        1    1    3    3  502    0 -0.21104523269E+03 -0.48126413299E+03  0.14235314337E+03  0.54444437126E+03  0.50400001928E-02 0.  1.
       -1    1    3    3    0  502  0.21104523269E+03  0.48126413299E+03 -0.68004008104E+03  0.85942409076E+03  0.50400001928E-02 0. -1.
</event>
<event>
 5   0  0.3335747E-04  0.1301807E+04  0.7818609E-02  0.9028133E-01
        1   -1    0    0  501    0  0.00000000000E+00  0.00000000000E+00  0.48689741930E+03  0.48689741932E+03  0.50400001928E-02 0. -1.
       -1   -1    0    0    0  501  0.00000000000E+00  0.00000000000E+00 -0.87015355700E+03  0.87015355702E+03  0.50400001928E-02 0.  1.
    10030    2    1    2    0    0  0.00000000000E+00  0.00000000000E+00 -0.38325613770E+03  0.13570509763E+04  0.13018072381E+04 0.  0.
        3    1    3    3  502    0 -0.42743565797E+03 -0.24362507835E+03 -0.63588337075E+03  0.80399135064E+03  0.10100000352E+00 0.  1.
       -3    1    3    3    0  502  0.42743565797E+03  0.24362507835E+03  0.25262723305E+03  0.55305962570E+03  0.10100000352E+00 0. -1.
</event>
<event>
 5   0  0.3403833E-04  0.1308093E+04  0.7818609E-02  0.9023172E-01
       -1   -1    0    0    0  501  0.00000000000E+00  0.00000000000E+00  0.11181506998E+04  0.11181506998E+04  0.50400001928E-02 0.  1.
        1   -1    0    0  501    0  0.00000000000E+00  0.00000000000E+00 -0.38257506501E+03  0.38257506504E+03  0.50400001928E-02 0. -1.
    10030    2    1    2    0    0  0.00000000000E+00  0.00000000000E+00  0.73557563481E+03  0.15007257649E+04  0.13080926217E+04 0.  0.
        1    1    3    3  502    0 -0.21512255502E+03  0.59786666111E+03  0.18985364136E+03  0.66314905060E+03  0.50400001928E-02 0. -1.
       -1    1    3    3    0  502  0.21512255502E+03 -0.59786666111E+03  0.54572199345E+03  0.83757671428E+03  0.50400001928E-02 0.  1.
</event>
<event>
 5   0  0.6007125E-04  0.1299011E+04  0.7818609E-02  0.9030350E-01
       -2   -1    0    0    0  501  0.00000000000E+00  0.00000000000E+00  0.42415424277E+03  0.42415424278E+03  0.25500000920E-02 0.  1.
        2   -1    0    0  501    0  0.00000000000E+00  0.00000000000E+00 -0.99458439208E+03  0.99458439208E+03  0.25500000920E-02 0. -1.
    10030    2    1    2    0    0  0.00000000000E+00  0.00000000000E+00 -0.57043014931E+03  0.14187386349E+04  0.12990106846E+04 0.  0.
        5    1    3    3  502    0 -0.15763159630E+03  0.32337441918E+03 -0.87581108524E+03  0.94682938388E+03  0.46999998093E+01 0. -1.
       -5    1    3    3    0  502  0.15763159630E+03 -0.32337441918E+03  0.30538093594E+03  0.47190925099E+03  0.46999998093E+01 0.  1.
</event>
<event>
 5   0  0.5384960E-04  0.1297756E+04  0.7818609E-02  0.9031347E-01
       -2   -1    0    0    0  501  0.00000000000E+00  0.00000000000E+00  0.52662100547E+03  0.52662100548E+03  0.25500000920E-02 0.  1.
        2   -1    0    0  501    0  0.00000000000E+00  0.00000000000E+00 -0.79951692018E+03  0.79951692019E+03  0.25500000920E-02 0. -1.
    10030    2    1    2    0    0  0.00000000000E+00  0.00000000000E+00 -0.27289591471E+03  0.13261379257E+04  0.12977556078E+04 0.  0.
        3    1    3    3  502    0  0.61624645909E+03 -0.92165218627E+02 -0.32148344185E+03  0.70114601863E+03  0.10100000352E+00 0. -1.
       -3    1    3    3    0  502 -0.61624645909E+03  0.92165218627E+02  0.48587527140E+02  0.62499190703E+03  0.10100000352E+00 0.  1.
</event>
<event>
 5   0  0.5957913E-04  0.1210305E+04  0.7818609E-02  0.9103885E-01
        2   -1    0    0  501    0  0.00000000000E+00  0.00000000000E+00  0.13541031461E+04  0.13541031461E+04  0.25500000920E-02 0.  1.
       -2   -1    0    0    0  501  0.00000000000E+00  0.00000000000E+00 -0.27044413098E+03  0.27044413100E+03  0.25500000920E-02 0. -1.
    10030    2    1    2    0    0  0.00000000000E+00  0.00000000000E+00  0.10836590151E+04  0.16245472771E+04  0.12103045048E+04 0.  0.
        1    1    3    3  502    0 -0.16971015319E+03  0.39975530729E+03 -0.23840758291E+02  0.43494163239E+03  0.50400001928E-02 0. -1.
       -1    1    3    3    0  502  0.16971015319E+03 -0.39975530729E+03  0.11074997734E+04  0.11896056447E+04  0.50400001928E-02 0.  1.
</event>
<event>
 5   0  0.3263679E-04  0.1296667E+04  0.7818609E-02  0.9032213E-01
       -1   -1    0    0    0  501  0.00000000000E+00  0.00000000000E+00  0.55631516497E+03  0.55631516500E+03  0.50400001928E-02 0. -1.
        1   -1    0    0  501    0  0.00000000000E+00  0.00000000000E+00 -0.75557178571E+03  0.75557178573E+03  0.50400001928E-02 0.  1.
    10030    2    1    2    0    0  0.00000000000E+00  0.00000000000E+00 -0.19925662074E+03  0.13118869507E+04  0.12966665611E+04 0.  0.
        2    1    3    3  502    0 -0.60525674905E+03  0.21499854942E+03 -0.18884464711E+03  0.66949414432E+03  0.25500000920E-02 0.  1.
       -2    1    3    3    0  502  0.60525674905E+03 -0.21499854942E+03 -0.10411973631E+02  0.64239280641E+03  0.25500000920E-02 0. -1.
</event>
<event>
 5   0  0.3403833E-04  0.1294211E+04  0.7818609E-02  0.9034169E-01
        1   -1    0    0  501    0  0.00000000000E+00  0.00000000000E+00  0.41391467806E+03  0.41391467809E+03  0.50400001928E-02 0.  1.
       -1   -1    0    0    0  501  0.00000000000E+00  0.00000000000E+00 -0.10116706390E+04  0.10116706390E+04  0.50400001928E-02 0. -1.
    10030    2    1    2    0    0  0.00000000000E+00  0.00000000000E+00 -0.59775596089E+03  0.14255853171E+04  0.12942106890E+04 0.  0.
        1    1    3    3  502    0 -0.24956822780E+03  0.49287132347E+02  0.35652644724E+03  0.43797788683E+03  0.50400001928E-02 0.  1.
       -1    1    3    3    0  502  0.24956822780E+03 -0.49287132347E+02 -0.95428240814E+03  0.98760743023E+03  0.50400001928E-02 0. -1.
</event>
<event>
 5   0  0.6007125E-04  0.1304034E+04  0.7818609E-02  0.9026372E-01
       -2   -1    0    0    0  501  0.00000000000E+00  0.00000000000E+00  0.60637111731E+03  0.60637111731E+03  0.25500000920E-02 0. -1.
        2   -1    0    0  501    0  0.00000000000E+00  0.00000000000E+00 -0.70109933496E+03  0.70109933496E+03  0.25500000920E-02 0.  1.
    10030    2    1    2    0    0  0.00000000000E+00  0.00000000000E+00 -0.94728217649E+02  0.13074704523E+04  0.13040343356E+04 0.  0.
        5    1    3    3  502    0  0.95040941616E+02 -0.61845593090E+03  0.13637754953E+03  0.64042286426E+03  0.46999998093E+01 0.  1.
       -5    1    3    3    0  502 -0.95040941616E+02  0.61845593090E+03 -0.23110576718E+03  0.66704758801E+03  0.46999998093E+01 0. -1.
</event>
<event>
 5   0  0.3335747E-04  0.1299491E+04  0.7818609E-02  0.9029969E-01
        1   -1    0    0  501    0  0.00000000000E+00  0.00000000000E+00  0.49361628506E+03  0.49361628508E+03  0.50400001928E-02 0.  1.
       -1   -1    0    0    0  501  0.00000000000E+00  0.00000000000E+00 -0.85525722330E+03  0.85525722332E+03  0.50400001928E-02 0. -1.
    10030    2    1    2    0    0  0.00000000000E+00  0.00000000000E+00 -0.36164093825E+03  0.13488735084E+04  0.12994905053E+04 0.  0.
        3    1    3    3  502    0 -0.31229408070E+03 -0.99633546418E+02 -0.76313342695E+03  0.83055829051E+03  0.10100000352E+00 0. -1.
       -3    1    3    3    0  502  0.31229408070E+03  0.99633546418E+02  0.40149248870E+03  0.51831521789E+03  0.10100000352E+00 0.  1.
</event>
<event>
 5   0  0.3274879E-04  0.1300087E+04  0.7818609E-02  0.9029496E-01
       -1   -1    0    0    0  501  0.00000000000E+00  0.00000000000E+00  0.19243854497E+04  0.19243854497E+04  0.50400001928E-02 0. -1.
        1   -1    0    0  501    0  0.00000000000E+00  0.00000000000E+00 -0.21957987061E+03  0.21957987066E+03  0.50400001928E-02 0.  1.
    10030    2    1    2    0    0  0.00000000000E+00  0.00000000000E+00  0.17048055790E+04  0.21439653203E+04  0.13000866250E+04 0.  0.
        4    1    3    3  502    0  0.23506551484E+03 -0.22718971221E+02 -0.14633139558E+03  0.27782447364E+03  0.12699999809E+01 0.  1.
       -4    1    3    3    0  502 -0.23506551484E+03  0.22718971221E+02  0.18511369746E+04  0.18661408467E+04  0.12699999809E+01 0. -1.
</event>
<event>
 5   0  0.5384960E-04  0.1296310E+04  0.7818609E-02  0.9032496E-01
        2   -1    0    0  501    0  0.00000000000E+00  0.00000000000E+00  0.80324328665E+03  0.80324328665E+03  0.25500000920E-02 0.  1.
       -2   -1    0    0    0  501  0.00000000000E+00  0.00000000000E+00 -0.52301093789E+03  0.52301093790E+03  0.25500000920E-02 0. -1.
    10030    2    1    2    0    0  0.00000000000E+00  0.00000000000E+00  0.28023234875E+03  0.13262542246E+04  0.12963101862E+04 0.  0.
        3    1    3    3  502    0  0.26184223879E+03  0.58966310303E+03  0.76708094367E+02  0.64972923209E+03  0.10100000352E+00 0. -1.
       -3    1    3    3    0  502 -0.26184223879E+03 -0.58966310303E+03  0.20352425439E+03  0.67652499246E+03  0.10100000352E+00 0.  1.
</event>
<event>
 5   0  0.3337520E-04  0.1300350E+04  0.7818609E-02  0.9029288E-01
        1   -1    0    0  501    0  0.00000000000E+00  0.00000000000E+00  0.18542628841E+04  0.18542628841E+04  0.50400001928E-02 0.  1.
       -1   -1    0    0    0  501  0.00000000000E+00  0.00000000000E+00 -0.22797602176E+03  0.22797602182E+03  0.50400001928E-02 0. -1.
    10030    2    1    2    0    0  0.00000000000E+00  0.00000000000E+00  0.16262868624E+04  0.20822389060E+04  0.13003499155E+04 0.  0.
        5    1    3    3  502    0 -0.61708489052E+02  0.62366382467E+03  0.53606506574E+03  0.82471349481E+03  0.46999998093E+01 0. -1.
       -5    1    3    3    0  502  0.61708489052E+02 -0.62366382467E+03  0.10902217966E+04  0.12575254112E+04  0.46999998093E+01 0.  1.
</event>
<event>
 5   0  0.6007125E-04  0.1300184E+04  0.7818609E-02  0.9029419E-01
        2   -1    0    0  501    0  0.00000000000E+00  0.00000000000E+00  0.70994000422E+03  0.70994000423E+03  0.25500000920E-02 0.  1.
       -2   -1    0    0    0  501  0.00000000000E+00  0.00000000000E+00 -0.59528916290E+03  0.59528916290E+03  0.25500000920E-02 0. -1.
    10030    2    1    2    0    0  0.00000000000E+00  0.00000000000E+00  0.11465084133E+03  0.13052291671E+04  0.13001839729E+04 0.  0.
        5    1    3    3  502    0 -0.44552585312E+03  0.32763447367E+03 -0.28570193631E+03  0.62248318897E+03  0.46999998093E+01 0.  1.
       -5    1    3    3    0  502  0.44552585312E+03 -0.32763447367E+03  0.40035277764E+03  0.68274597816E+03  0.46999998093E+01 0. -1.
</event>
<event>
 5   0  0.5787604E-04  0.1273909E+04  0.7818609E-02  0.9050515E-01
       -2   -1    0    0    0  501  0.00000000000E+00  0.00000000000E+00  0.35707873134E+03  0.35707873135E+03  0.25500000920E-02 0. -1.
        2   -1    0    0  501    0  0.00000000000E+00  0.00000000000E+00 -0.11361951939E+04  0.11361951939E+04  0.25500000920E-02 0.  1.
    10030    2    1    2    0    0  0.00000000000E+00  0.00000000000E+00 -0.77911646257E+03  0.14932739253E+04  0.12739091622E+04 0.  0.
        4    1    3    3  502    0 -0.45629803049E+03  0.38101076508E+03 -0.65771358384E+03  0.88654716006E+03  0.12699999809E+01 0.  1.
       -4    1    3    3    0  502  0.45629803049E+03 -0.38101076508E+03 -0.12140287873E+03  0.60672676520E+03  0.12699999809E+01 0. -1.
</event>
<event>
 5   0  0.5957913E-04  0.1314970E+04  0.7818609E-02  0.9017777E-01
        2   -1    0    0  501    0  0.00000000000E+00  0.00000000000E+00  0.58668558910E+03  0.58668558910E+03  0.25500000920E-02 0. -1.
       -2   -1    0    0    0  501  0.00000000000E+00  0.00000000000E+00 -0.73682822619E+03  0.73682822619E+03  0.25500000920E-02 0.  1.
    10030    2    1    2    0    0  0.00000000000E+00  0.00000000000E+00 -0.15014263709E+03  0.13235138153E+04  0.13149699646E+04 0.  0.
        1    1    3    3  502    0 -0.16395321656E+03  0.38004313699E+03  0.43910312138E+03  0.60342770440E+03  0.50400001928E-02 0. -1.
       -1    1    3    3    0  502  0.16395321656E+03 -0.38004313699E+03 -0.58924575847E+03  0.72008611089E+03  0.50400001928E-02 0.  1.
</event>
<event>
 5   0  0.5957913E-04  0.1302129E+04  0.7818609E-02  0.9027879E-01
       -2   -1    0    0    0  501  0.00000000000E+00  0.00000000000E+00  0.95346834828E+03  0.95346834828E+03  0.25500000920E-02 0. -1.
        2   -1    0    0  501    0  0.00000000000E+00  0.00000000000E+00 -0.44457161127E+03  0.44457161127E+03  0.25500000920E-02 0.  1.
    10030    2    1    2    0    0  0.00000000000E+00  0.00000000000E+00  0.50889673701E+03  0.13980399596E+04  0.13021289643E+04 0.  0.
        1    1    3    3  502    0 -0.21083515987E+03  0.59377654810E+03  0.78476971071E+02  0.63496510828E+03  0.50400001928E-02 0.  1.
       -1    1    3    3    0  502  0.21083515987E+03 -0.59377654810E+03  0.43041976594E+03  0.76307485128E+03  0.50400001928E-02 0. -1.
</event>
<event>
 5   0  0.3263679E-04  0.1295354E+04  0.7818609E-02  0.9033258E-01
       -1   -1    0    0    0  501  0.00000000000E+00  0.00000000000E+00  0.42167577046E+03  0.42167577049E+03  0.50400001928E-02 0. -1.
        1   -1    0    0  501    0  0.00000000000E+00  0.00000000000E+00 -0.99480580384E+03  0.99480580385E+03  0.50400001928E-02 0.  1.
    10030    2    1    2    0    0  0.00000000000E+00  0.00000000000E+00 -0.57313003338E+03  0.14164815743E+04  0.12953540116E+04 0.  0.
        2    1    3    3  502    0  0.32302243648E+03  0.13395181262E+03  0.30957197208E+03  0.46703467588E+03  0.25500000920E-02 0. -1.
       -2    1    3    3    0  502 -0.32302243648E+03 -0.13395181262E+03 -0.88270200546E+03  0.94944689847E+03  0.25500000920E-02 0.  1.
</event>
<event>
 5   0  0.5957913E-04  0.1295371E+04  0.7818609E-02  0.9033244E-01
       -2   -1    0    0    0  501  0.00000000000E+00  0.00000000000E+00  0.37942491729E+03  0.37942491729E+03  0.25500000920E-02 0.  1.
        2   -1    0    0  501    0  0.00000000000E+00  0.00000000000E+00 -0.11056115706E+04  0.11056115706E+04  0.25500000920E-02 0. -1.
    10030    2    1    2    0    0  0.00000000000E+00  0.00000000000E+00 -0.72618665335E+03  0.14850364879E+04  0.12953711109E+04 0.  0.
        1    1    3    3  502    0  0.50699643256E+03 -0.24437834074E+03  0.43517686399E+01  0.56283664946E+03  0.50400001928E-02 0.  1.
       -1    1    3    3    0  502 -0.50699643256E+03  0.24437834074E+03 -0.73053842199E+03  0.92219983848E+03  0.50400001928E-02 0. -1.
</event>
<event>
 5   0  0.3337520E-04  0.1294898E+04  0.7818609E-02  0.9033621E-01
       -1   -1    0    0    0  501  0.00000000000E+00  0.00000000000E+00  0.69168142975E+03  0.69168142977E+03  0.50400001928E-02 0.  1.
        1   -1    0    0  501    0  0.00000000000E+00  0.00000000000E+00 -0.60604519194E+03  0.60604519196E+03  0.50400001928E-02 0. -1.
    10030    2    1    2    0    0  0.00000000000E+00  0.00000000000E+00  0.85636237815E+02  0.12977266217E+04  0.12948979958E+04 0.  0.
        5    1    3    3  502    0 -0.15044115121E+03  0.37008607843E+03  0.55341301313E+03  0.68255717601E+03  0.46999998093E+01 0.  1.
       -5    1    3    3    0  502  0.15044115121E+03 -0.37008607843E+03 -0.46777677532E+03  0.61516944572E+03  0.46999998093E+01 0. -1.
</event>
<event>
 5   0  0.3335747E-04  0.1294928E+04  0.7818609E-02  0.9033597E-01
       -1   -1    0    0    0  501  0.00000000000E+00  0.00000000000E+00  0.80582351843E+03  0.80582351845E+03  0.50400001928E-02 0.  1.
        1   -1    0    0  501    0  0.00000000000E+00  0.00000000000E+00 -0.52022481538E+03  0.52022481540E+03  0.50400001928E-02 0. -1.
    10030    2    1    2    0    0  0.00000000000E+00  0.00000000000E+00  0.28559870306E+03  0.13260483339E+04  0.12949276291E+04 0.  0.
        3    1    3    3  502    0  0.20060220473E+03 -0.44579686869E+03  0.57754111237E+03  0.75665701566E+03  0.10100000352E+00 0.  1.
       -3    1    3    3    0  502 -0.20060220473E+03  0.44579686869E+03 -0.29194240931E+03  0.56939131819E+03  0.10100000352E+00 0. -1.
</event>
<event>
 5   0  0.5787604E-04  0.1299883E+04  0.7818609E-02  0.9029658E-01
       -2   -1    0    0    0  501  0.00000000000E+00  0.00000000000E+00  0.28458253753E+03  0.28458253754E+03  0.25500000920E-02 0. -1.
        2   -1    0    0  501    0  0.00000000000E+00  0.00000000000E+00 -0.14843630439E+04  0.14843630439E+04  0.25500000920E-02 0.  1.
    10030    2    1    2    0    0  0.00000000000E+00  0.00000000000E+00 -0.11997805064E+04  0.17689455814E+04  0.12998827665E+04 0.  0.
        4    1    3    3  502    0  0.58042859697E+03 -0.17058573370E+03 -0.92314683719E+03  0.11037203199E+04  0.12699999809E+01 0.  1.
       -4    1    3    3    0  502 -0.58042859697E+03  0.17058573370E+03 -0.27663366917E+03  0.66522526151E+03  0.12699999809E+01 0. -1.
</event>
<event>
 5   0  0.3274879E-04  0.1289497E+04  0.7818609E-02  0.9037936E-01
       -1   -1    0    0    0  501  0.00000000000E+00  0.00000000000E+00  0.51995205695E+03  0.51995205697E+03  0.50400001928E-02 0.  1.
        1   -1    0    0  501    0  0.00000000000E+00  0.00000000000E+00 -0.79949741194E+03  0.79949741195E+03  0.50400001928E-02 0. -1.
    10030    2    1    2    0    0  0.00000000000E+00  0.00000000000E+00 -0.27954535499E+03  0.13194494689E+04  0.12894965279E+04 0.  0.
        4    1    3    3  502    0  0.35337525975E+03 -0.66189792889E+02  0.40786347154E+03  0.54369972154E+03  0.12699999809E+01 0.  1.
       -4    1    3    3    0  502 -0.35337525975E+03  0.66189792889E+02 -0.68740882653E+03  0.77574974739E+03  0.12699999809E+01 0. -1.
</event>
<event>
 5   0  0.5384960E-04  0.1296480E+04  0.7818609E-02  0.9032361E-01
       -2   -1    0    0    0  501  0.00000000000E+00  0.00000000000E+00  0.20286595448E+03  0.20286595450E+03  0.25500000920E-02 0. -1.
        2   -1    0    0  501    0  0.00000000000E+00  0.00000000000E+00 -0.20713932809E+04  0.20713932809E+04  0.25500000920E-02 0.  1.
    10030    2    1    2    0    0  0.00000000000E+00  0.00000000000E+00 -0.18685273264E+04  0.22742592354E+04  0.12964801195E+04 0.  0.
        3    1    3    3  502    0 -0.25272106849E+03 -0.58050188428E+03 -0.11783708058E+04  0.13376876102E+04  0.10100000352E+00 0.  1.
       -3    1    3    3    0  502  0.25272106849E+03  0.58050188428E+03 -0.69015652056E+03  0.93657162523E+03  0.10100000352E+00 0. -1.
</event>
<event>
 5   0  0.5384960E-04  0.1302319E+04  0.7818609E-02  0.9027728E-01
       -2   -1    0    0    0  501  0.00000000000E+00  0.00000000000E+00  0.41362872742E+03  0.41362872742E+03  0.25500000920E-02 0.  1.
        2   -1    0    0  501    0  0.00000000000E+00  0.00000000000E+00 -0.10250953973E+04  0.10250953973E+04  0.25500000920E-02 0. -1.
    10030    2    1    2    0    0  0.00000000000E+00  0.00000000000E+00 -0.61146666985E+03  0.14387241247E+04  0.13023193228E+04 0.  0.
        3    1    3    3  502    0  0.59309804433E+03  0.15389772827E+03 -0.54917523387E+03  0.82282637819E+03  0.10100000352E+00 0. -1.
       -3    1    3    3    0  502 -0.59309804433E+03 -0.15389772827E+03 -0.62291435987E+02  0.61589774651E+03  0.10100000352E+00 0.  1.
</event>
<event>
 5   0  0.5384960E-04  0.1303746E+04  0.7818609E-02  0.9026600E-01
       -2   -1    0    0    0  501  0.00000000000E+00  0.00000000000E+00  0.65509652226E+03  0.65509652227E+03  0.25500000920E-02 0.  1.
        2   -1    0    0  501    0  0.00000000000E+00  0.00000000000E+00 -0.64866533805E+03  0.64866533805E+03  0.25500000920E-02 0. -1.
    10030    2    1    2    0    0  0.00000000000E+00  0.00000000000E+00  0.64311842127E+01  0.13037618603E+04  0.13037459984E+04 0.  0.
        3    1    3    3  502    0  0.46772824351E+03  0.39875098326E+03  0.22039636507E+03  0.65295223743E+03  0.10100000352E+00 0.  1.
       -3    1    3    3    0  502 -0.46772824351E+03 -0.39875098326E+03 -0.21396518085E+03  0.65080962289E+03  0.10100000352E+00 0. -1.
</event>
<event>
 5   0  0.3263679E-04  0.1288814E+04  0.7818609E-02  0.9038483E-01
        1   -1    0    0  501    0  0.00000000000E+00  0.00000000000E+00  0.11858849175E+04  0.11858849175E+04  0.50400001928E-02 0.  1.
       -1   -1    0    0    0  501  0.00000000000E+00  0.00000000000E+00 -0.35016908326E+03  0.35016908329E+03  0.50400001928E-02 0. -1.
    10030    2    1    2    0    0  0.00000000000E+00  0.00000000000E+00  0.83571583426E+03  0.15360540008E+04  0.12888137716E+04 0.  0.
        2    1    3    3  502    0 -0.42193083755E+03  0.47108955002E+03  0.56532432865E+03  0.84825856458E+03  0.25500000920E-02 0.  1.
       -2    1    3    3    0  502  0.42193083755E+03 -0.47108955002E+03  0.27039150562E+03  0.68779543625E+03  0.25500000920E-02 0. -1.
</event>
<event>
 5   0  0.6007125E-04  0.1311663E+04  0.7818609E-02  0.9020367E-01
       -2   -1    0    0    0  501  0.00000000000E+00  0.00000000000E+00  0.15842731811E+04  0.15842731811E+04  0.25500000920E-02 0.  1.
        2   -1    0    0  501    0  0.00000000000E+00  0.00000000000E+00 -0.27149024994E+03  0.27149024996E+03  0.25500000920E-02 0. -1.
    10030    2    1    2    0    0  0.00000000000E+00  0.00000000000E+00  0.13127829312E+04  0.18557634311E+04  0.13116626425E+04 0.  0.
        5    1    3    3  502    0 -0.64316115230E+03 -0.71813095377E+02  0.80665044957E+03  0.10341762066E+04  0.46999998093E+01 0.  1.
       -5    1    3    3    0  502  0.64316115230E+03  0.71813095377E+02  0.50613248162E+03  0.82158722449E+03  0.46999998093E+01 0. -1.
</event>
<event>
 5   0  0.6007125E-04  0.1295214E+04  0.7818609E-02  0.9033369E-01
       -2   -1    0    0    0  501  0.00000000000E+00  0.00000000000E+00  0.58406526011E+03  0.58406526011E+03  0.25500000920E-02 0.  1.
        2   -1    0    0  501    0  0.00000000000E+00  0.00000000000E+00 -0.71806151162E+03  0.71806151163E+03  0.25500000920E-02 0. -1.
    10030    2    1    2    0    0  0.00000000000E+00  0.00000000000E+00 -0.13399625152E+03  0.13021267717E+04  0.12952139338E+04 0.  0.
        5    1    3    3  502    0  0.47596598690E+03  0.36412627335E+03  0.17975252963E+03  0.62567133988E+03  0.46999998093E+01 0.  1.
       -5    1    3    3    0  502 -0.47596598690E+03 -0.36412627335E+03 -0.31374878115E+03  0.67645543187E+03  0.46999998093E+01 0. -1.
</event>
<event>
 5   0  0.5787604E-04  0.1299511E+04  0.7818609E-02  0.9029953E-01
        2   -1    0    0  501    0  0.00000000000E+00  0.00000000000E+00  0.12724815262E+04  0.12724815262E+04  0.25500000920E-02 0.  1.
       -2   -1    0    0    0  501  0.00000000000E+00  0.00000000000E+00 -0.33177843844E+03  0.33177843845E+03  0.25500000920E-02 0. -1.
    10030    2    1    2    0    0  0.00000000000E+00  0.00000000000E+00  0.94070308777E+03  0.16042599647E+04  0.12995105751E+04 0.  0.
        4    1    3    3  502    0  0.21330835466E+03  0.55053436649E+03  0.13545584083E+03  0.60575443916E+03  0.12699999809E+01 0. -1.
       -4    1    3    3    0  502 -0.21330835466E+03 -0.55053436649E+03  0.80524724694E+03  0.99850552550E+03  0.12699999809E+01 0.  1.
</event>
<event>
 5   0  0.5787604E-04  0.1289931E+04  0.7818609E-02  0.9037589E-01
        2   -1    0    0  501    0  0.00000000000E+00  0.00000000000E+00  0.17950629430E+04  0.17950629430E+04  0.25500000920E-02 0.  1.
       -2   -1    0    0    0  501  0.00000000000E+00  0.00000000000E+00 -0.23173571211E+03  0.23173571213E+03  0.25500000920E-02 0. -1.
    10030    2    1    2    0    0  0.00000000000E+00  0.00000000000E+00  0.15633272309E+04  0.20267986552E+04  0.12899305243E+04 0.  0.
        4    1    3    3  502    0  0.62957101286E+02  0.41442979000E+03  0.11491711771E+02  0.41934391588E+03  0.12699999809E+01 0. -1.
       -4    1    3    3    0  502 -0.62957101286E+02 -0.41442979000E+03  0.15518355192E+04  0.16074547393E+04  0.12699999809E+01 0.  1.
</event>
<event>
 5   0  0.3263679E-04  0.1296706E+04  0.7818609E-02  0.9032182E-01
       -1   -1    0    0    0  501  0.00000000000E+00  0.00000000000E+00  0.17480664124E+03  0.17480664132E+03  0.50400001928E-02 0.  1.
        1   -1    0    0  501    0  0.00000000000E+00  0.00000000000E+00 -0.24047223346E+04  0.24047223346E+04  0.50400001928E-02 0. -1.
    10030    2    1    2    0    0  0.00000000000E+00  0.00000000000E+00 -0.22299156933E+04  0.25795289759E+04  0.12967057253E+04 0.  0.
        2    1    3    3  502    0 -0.33542520300E+03 -0.45646616314E+02 -0.22149632639E+04  0.22406820259E+04  0.25500000920E-02 0. -1.
       -2    1    3    3    0  502  0.33542520300E+03  0.45646616314E+02 -0.14952429375E+02  0.33884695002E+03  0.25500000920E-02 0.  1.
</event>
<event>
 5   0  0.5384960E-04  0.1264407E+04  0.7818609E-02  0.9058277E-01
       -2   -1    0    0    0  501  0.00000000000E+00  0.00000000000E+00  0.57850553552E+03  0.57850553553E+03  0.25500000920E-02 0. -1.
        2   -1    0    0  501    0  0.00000000000E+00  0.00000000000E+00 -0.69088601016E+03  0.69088601016E+03  0.25500000920E-02 0.  1.
    10030    2    1    2    0    0  0.00000000000E+00  0.00000000000E+00 -0.11238047464E+03  0.12693915457E+04  0.12644071833E+04 0.  0.
        3    1    3    3  502    0 -0.55562438177E+03 -0.19912961102E+03  0.17122051221E+03  0.61456287685E+03  0.10100000352E+00 0.  1.
       -3    1    3    3    0  502  0.55562438177E+03  0.19912961102E+03 -0.28360098684E+03  0.65482866884E+03  0.10100000352E+00 0. -1.
</event>
<event>
 5   0  0.3274879E-04  0.1308910E+04  0.7818609E-02  0.9022529E-01
        1   -1    0    0  501    0  0.00000000000E+00  0.00000000000E+00  0.49269054953E+03  0.49269054955E+03  0.50400001928E-02 0.  1.
       -1   -1    0    0    0  501  0.00000000000E+00  0.00000000000E+00 -0.86933178830E+03  0.86933178831E+03  0.50400001928E-02 0. -1.
    10030    2    1    2    0    0  0.00000000000E+00  0.00000000000E+00 -0.37664123877E+03  0.13620223379E+04  0.13089103201E+04 0.  0.
        4    1    3    3  502    0 -0.29943953889E+03 -0.47708070583E+02  0.41518715170E+03  0.51412263253E+03  0.12699999809E+01 0.  1.
       -4    1    3    3    0  502  0.29943953889E+03  0.47708070583E+02 -0.79182839047E+03  0.84789970533E+03  0.12699999809E+01 0. -1.
</event>
<event>
 5   0  0.5957913E-04  0.1311599E+04  0.7818609E-02  0.9020417E-01
        2   -1    0    0  501    0  0.00000000000E+00  0.00000000000E+00  0.86662991838E+03  0.86662991839E+03  0.25500000920E-02 0. -1.
       -2   -1    0    0    0  501  0.00000000000E+00  0.00000000000E+00 -0.49625894358E+03  0.49625894359E+03  0.25500000920E-02 0.  1.
    10030    2    1    2    0    0  0.00000000000E+00  0.00000000000E+00  0.37037097480E+03  0.13628888620E+04  0.13115987920E+04 0.  0.
        1    1    3    3  502    0 -0.35431847588E+03  0.54620085176E+03  0.26697760586E+03  0.70367179485E+03  0.50400001928E-02 0. -1.
       -1    1    3    3    0  502  0.35431847588E+03 -0.54620085176E+03  0.10339336894E+03  0.65921706712E+03  0.50400001928E-02 0.  1.
</event>
<event>
 5   0  0.6052864E-04  0.1297721E+04  0.7818609E-02  0.9031375E-01
        2   -1    0    0  501    0  0.00000000000E+00  0.00000000000E+00  0.63593966358E+03  0.63593966359E+03  0.25500000920E-02 0.  1.
       -2   -1    0    0    0  501  0.00000000000E+00  0.00000000000E+00 -0.66204347166E+03  0.66204347167E+03  0.25500000920E-02 0. -1.
    10030    2    1    2    0    0  0.00000000000E+00  0.00000000000E+00 -0.26103808079E+02  0.12979831353E+04  0.12977206212E+04 0.  0.
        2    1    3    3  502    0 -0.19790894592E+03 -0.21059736796E+03 -0.59411735577E+03  0.66067740593E+03  0.25500000920E-02 0. -1.
       -2    1    3    3    0  502  0.19790894592E+03  0.21059736796E+03  0.56801354769E+03  0.63730572933E+03  0.25500000920E-02 0.  1.
</event>
<event>
 5   0  0.3274879E-04  0.1302234E+04  0.7818609E-02  0.9027795E-01
       -1   -1    0    0    0  501  0.00000000000E+00  0.00000000000E+00  0.47528207481E+03  0.47528207484E+03  0.50400001928E-02 0. -1.
        1   -1    0    0  501    0  0.00000000000E+00  0.00000000000E+00 -0.89200360590E+03  0.89200360591E+03  0.50400001928E-02 0.  1.
    10030    2    1    2    0    0  0.00000000000E+00  0.00000000000E+00 -0.41672153109E+03  0.13672856807E+04  0.13022339645E+04 0.  0.
        4    1    3    3  502    0 -0.19390607810E+03  0.51384063347E+03  0.15885294762E+03  0.57172339081E+03  0.12699999809E+01 0. -1.
       -4    1    3    3    0  502  0.19390607810E+03 -0.51384063347E+03 -0.57557447871E+03  0.79556228994E+03  0.12699999809E+01 0.  1.
</event>
<event>
 5   0  0.3263679E-04  0.1299705E+04  0.7818609E-02  0.9029799E-01
        1   -1    0    0  501    0  0.00000000000E+00  0.00000000000E+00  0.15874163509E+04  0.15874163509E+04  0.50400001928E-02 0.  1.
       -1   -1    0    0    0  501  0.00000000000E+00  0.00000000000E+00 -0.26603504071E+03  0.26603504075E+03  0.50400001928E-02 0. -1.
    10030    2    1    2    0    0  0.00000000000E+00  0.00000000000E+00  0.13213813102E+04  0.18534513917E+04  0.12997051567E+04 0.  0.
        2    1    3    3  502    0  0.20638962617E+03 -0.16763100545E+03  0.15062963906E+04  0.15295834885E+04  0.25500000920E-02 0.  1.
       -2    1    3    3    0  502 -0.20638962617E+03  0.16763100545E+03 -0.18491508040E+03  0.32386790323E+03  0.25500000920E-02 0. -1.
</event>
<event>
 5   0  0.5787604E-04  0.1301607E+04  0.7818609E-02  0.9028292E-01
       -2   -1    0    0    0  501  0.00000000000E+00  0.00000000000E+00  0.19563983043E+03  0.19563983045E+03  0.25500000920E-02 0.  1.
        2   -1    0    0  501    0  0.00000000000E+00  0.00000000000E+00 -0.21649239649E+04  0.21649239649E+04  0.25500000920E-02 0. -1.
    10030    2    1    2    0    0  0.00000000000E+00  0.00000000000E+00 -0.19692841344E+04  0.23605637953E+04  0.13016072486E+04 0.  0.
        4    1    3    3  502    0  0.16789054434E+02 -0.28993167226E+03  0.71602927447E+02  0.29911676491E+03  0.12699999809E+01 0.  1.
       -4    1    3    3    0  502 -0.16789054434E+02  0.28993167226E+03 -0.20408870619E+04  0.20614470304E+04  0.12699999809E+01 0. -1.
</event>
<event>
 5   0  0.5787604E-04  0.1315905E+04  0.7818609E-02  0.9017046E-01
        2   -1    0    0  501    0  0.00000000000E+00  0.00000000000E+00  0.10477709772E+04  0.10477709772E+04  0.25500000920E-02 0.  1.
       -2   -1    0    0    0  501  0.00000000000E+00  0.00000000000E+00 -0.41316445253E+03  0.41316445254E+03  0.25500000920E-02 0. -1.
    10030    2    1    2    0    0  0.00000000000E+00  0.00000000000E+00  0.63460652471E+03  0.14609354298E+04  0.13159053495E+04 0.  0.
        4    1    3    3  502    0  0.61171176917E+03 -0.17390360357E+03  0.50461815946E+03  0.81183425132E+03  0.12699999809E+01 0. -1.
       -4    1    3    3    0  502 -0.61171176917E+03  0.17390360357E+03  0.12998836526E+03  0.64910117846E+03  0.12699999809E+01 0.  1.
</event>
<event>
 5   0  0.3274879E-04  0.1302643E+04  0.7818609E-02  0.9027472E-01
       -1   -1    0    0    0  501  0.00000000000E+00  0.00000000000E+00  0.28751939545E+03  0.28751939549E+03  0.50400001928E-02 0.  1.
        1   -1    0    0  501    0  0.00000000000E+00  0.00000000000E+00 -0.14754462187E+04  0.14754462188E+04  0.50400001928E-02 0. -1.
    10030    2    1    2    0    0  0.00000000000E+00  0.00000000000E+00 -0.11879268233E+04  0.17629656142E+04  0.13026425525E+04 0.  0.
        4    1    3    3  502    0  0.64537065952E+03 -0.76593703051E+02 -0.53578540898E+03  0.84228112937E+03  0.12699999809E+01 0. -1.
       -4    1    3    3    0  502 -0.64537065952E+03  0.76593703051E+02 -0.65214141432E+03  0.92068448487E+03  0.12699999809E+01 0.  1.
</event>
<event>
 5   0  0.3263679E-04  0.1304716E+04  0.7818609E-02  0.9025834E-01
        1   -1    0    0  501    0  0.00000000000E+00  0.00000000000E+00  0.91748370658E+03  0.91748370659E+03  0.50400001928E-02 0. -1.
       -1   -1    0    0    0  501  0.00000000000E+00  0.00000000000E+00 -0.46384563424E+03  0.46384563427E+03  0.50400001928E-02 0.  1.
    10030    2    1    2    0    0  0.00000000000E+00  0.00000000000E+00  0.45363807234E+03  0.13813293409E+04  0.13047157726E+04 0.  0.
        2    1    3    3  502    0 -0.23042660706E+03  0.41822067915E+03 -0.24376508347E+03  0.53612160341E+03  0.25500000920E-02 0.  1.
       -2    1    3    3    0  502  0.23042660706E+03 -0.41822067915E+03  0.69740315580E+03  0.84520773745E+03  0.25500000920E-02 0. -1.
</event>
<event>
 5   0  0.6007125E-04  0.1299822E+04  0.7818609E-02  0.9029706E-01
       -2   -1    0    0    0  501  0.00000000000E+00  0.00000000000E+00  0.78247654588E+03  0.78247654588E+03  0.25500000920E-02 0. -1.
        2   -1    0    0  501    0  0.00000000000E+00  0.00000000000E+00 -0.53980477619E+03  0.53980477620E+03  0.25500000920E-02 0.  1.
    10030    2    1    2    0    0  0.00000000000E+00  0.00000000000E+00  0.24267176969E+03  0.13222813221E+04  0.12998224136E+04 0.  0.
        5    1    3    3  502    0  0.38295327083E+03  0.32814647898E+03 -0.29566039411E+03  0.58461139055E+03  0.46999998093E+01 0.  1.
       -5    1    3    3    0  502 -0.38295327083E+03 -0.32814647898E+03  0.53833216380E+03  0.73766993154E+03  0.46999998093E+01 0. -1.
</event>
<event>
 5   0  0.6007125E-04  0.1301683E+04  0.7818609E-02  0.9028232E-01
        2   -1    0    0  501    0  0.00000000000E+00  0.00000000000E+00  0.10044317877E+04  0.10044317877E+04  0.25500000920E-02 0. -1.
       -2   -1    0    0    0  501  0.00000000000E+00  0.00000000000E+00 -0.42172573318E+03  0.42172573318E+03  0.25500000920E-02 0.  1.
    10030    2    1    2    0    0  0.00000000000E+00  0.00000000000E+00  0.58270605456E+03  0.14261575209E+04  0.13016831137E+04 0.  0.
        5    1    3    3  502    0  0.21860410791E+03  0.43758219254E+03  0.76171564647E+03  0.90526170100E+03  0.46999998093E+01 0.  1.
       -5    1    3    3    0  502 -0.21860410791E+03 -0.43758219254E+03 -0.17900959191E+03  0.52089581993E+03  0.46999998093E+01 0. -1.
</event>
<event>
 5   0  0.3335747E-04  0.1301376E+04  0.7818609E-02  0.9028474E-01
        1   -1    0    0  501    0  0.00000000000E+00  0.00000000000E+00  0.10491293954E+04  0.10491293954E+04  0.50400001928E-02 0. -1.
       -1   -1    0    0    0  501  0.00000000000E+00  0.00000000000E+00 -0.40356805047E+03  0.40356805051E+03  0.50400001928E-02 0.  1.
    10030    2    1    2    0    0  0.00000000000E+00  0.00000000000E+00  0.64556134489E+03  0.14526974459E+04  0.13013763557E+04 0.  0.
        3    1    3    3  502    0  0.31245496467E+03  0.46787755315E+02  0.95776306686E+03  0.10085272934E+04  0.10100000352E+00 0. -1.
       -3    1    3    3    0  502 -0.31245496467E+03 -0.46787755315E+02 -0.31220172197E+03  0.44417015253E+03  0.10100000352E+00 0.  1.
</event>
<event>
 5   0  0.6052864E-04  0.1300998E+04  0.7818609E-02  0.9028774E-01
       -2   -1    0    0    0  501  0.00000000000E+00  0.00000000000E+00  0.33580081698E+03  0.33580081699E+03  0.25500000920E-02 0. -1.
        2   -1    0    0  501    0  0.00000000000E+00  0.00000000000E+00 -0.12601196637E+04  0.12601196637E+04  0.25500000920E-02 0.  1.
    10030    2    1    2    0    0  0.00000000000E+00  0.00000000000E+00 -0.92431884669E+03  0.15959204807E+04  0.13009984052E+04 0.  0.
        2    1    3    3  502    0  0.84880801570E+02 -0.32161114621E+03 -0.11479112175E+04  0.11951312242E+04  0.25500000920E-02 0.  1.
       -2    1    3    3    0  502 -0.84880801570E+02  0.32161114621E+03  0.22359237077E+03  0.40078925648E+03  0.25500000920E-02 0. -1.
</event>
<event>
 5   0  0.3274879E-04  0.1313346E+04  0.7818609E-02  0.9019048E-01
        1   -1    0    0  501    0  0.00000000000E+00  0.00000000000E+00  0.69623653800E+03  0.69623653802E+03  0.50400001928E-02 0. -1.
       -1   -1    0    0    0  501  0.00000000000E+00  0.00000000000E+00 -0.61935790331E+03  0.61935790333E+03  0.50400001928E-02 0.  1.
    10030    2    1    2    0    0  0.00000000000E+00  0.00000000000E+00  0.76878634684E+02  0.13155944414E+04  0.13133462642E+04 0.  0.
        4    1    3    3  502    0 -0.23352065686E+02 -0.45719194866E+03 -0.43316186356E+03  0.63023853407E+03  0.12699999809E+01 0.  1.
       -4    1    3    3    0  502  0.23352065686E+02  0.45719194866E+03  0.51004049824E+03  0.68535590728E+03  0.12699999809E+01 0. -1.
</event>
<event>
 5   0  0.5384960E-04  0.1291651E+04  0.7818609E-02  0.9036212E-01
        2   -1    0    0  501    0  0.00000000000E+00  0.00000000000E+00  0.14182550939E+04  0.14182550939E+04  0.25500000920E-02 0. -1.
       -2   -1    0    0    0  501  0.00000000000E+00  0.00000000000E+00 -0.29408714978E+03  0.29408714979E+03  0.25500000920E-02 0.  1.
    10030    2    1    2    0    0  0.00000000000E+00  0.00000000000E+00  0.11241679441E+04  0.17123422437E+04  0.12916510337E+04 0.  0.
        3    1    3    3  502    0 -0.39927550806E+03  0.34937871950E+03  0.73901825395E+02  0.53567519167E+03  0.10100000352E+00 0.  1.
       -3    1    3    3    0  502  0.39927550806E+03 -0.34937871950E+03  0.10502661187E+04  0.11766670520E+04  0.10100000352E+00 0. -1.
</event>
<event>
 5   0  0.6007125E-04  0.1300856E+04  0.7818609E-02  0.9028887E-01
       -2   -1    0    0    0  501  0.00000000000E+00  0.00000000000E+00  0.47531482804E+03  0.47531482805E+03  0.25500000920E-02 0. -1.
        2   -1    0    0  501    0  0.00000000000E+00  0.00000000000E+00 -0.89005513552E+03  0.89005513552E+03  0.25500000920E-02 0.  1.
    10030    2    1    2    0    0  0.00000000000E+00  0.00000000000E+00 -0.41474030747E+03  0.13653699636E+04  0.13008557240E+04 0.  0.
        5    1    3    3  502    0  0.52428770685E+03  0.27036605480E+03 -0.49492609206E+03  0.77003203164E+03  0.46999998093E+01 0.  1.
       -5    1    3    3    0  502 -0.52428770685E+03 -0.27036605480E+03  0.80185784591E+02  0.59533793193E+03  0.46999998093E+01 0. -1.
</event>
<event>
 5   0  0.6052864E-04  0.1297390E+04  0.7818609E-02  0.9031638E-01
       -2   -1    0    0    0  501  0.00000000000E+00  0.00000000000E+00  0.61069379351E+03  0.61069379351E+03  0.25500000920E-02 0. -1.
        2   -1    0    0  501    0  0.00000000000E+00  0.00000000000E+00 -0.68906059789E+03  0.68906059790E+03  0.25500000920E-02 0.  1.
    10030    2    1    2    0    0  0.00000000000E+00  0.00000000000E+00 -0.78366804385E+02  0.12997543914E+04  0.12973897340E+04 0.  0.
        2    1    3    3  502    0  0.60768514635E+03 -0.50061689057E+02 -0.26098616408E+03  0.66325047128E+03  0.25500000920E-02 0.  1.
       -2    1    3    3    0  502 -0.60768514635E+03  0.50061689057E+02  0.18261935969E+03  0.63650392013E+03  0.25500000920E-02 0. -1.
</event>
<event>
 5   0  0.3335747E-04  0.1303432E+04  0.7818609E-02  0.9026848E-01
        1   -1    0    0  501    0  0.00000000000E+00  0.00000000000E+00  0.13131495820E+04  0.13131495820E+04  0.50400001928E-02 0. -1.
       -1   -1    0    0    0  501  0.00000000000E+00  0.00000000000E+00 -0.32344664739E+03  0.32344664743E+03  0.50400001928E-02 0.  1.
    10030    2    1    2    0    0  0.00000000000E+00  0.00000000000E+00  0.98970293465E+03  0.16365962295E+04  0.13034321308E+04 0.  0.
        3    1    3    3  502    0 -0.18175456031E+03  0.15288117332E+03  0.12568770912E+04  0.12791197778E+04  0.10100000352E+00 0. -1.
       -3    1    3    3    0  502  0.18175456031E+03 -0.15288117332E+03 -0.26717415658E+03  0.35747645166E+03  0.10100000352E+00 0.  1.
</event>
<event>
 5   0  0.6052864E-04  0.1300762E+04  0.7818609E-02  0.9028961E-01
        2   -1    0    0  501    0  0.00000000000E+00  0.00000000000E+00  0.84318609697E+03  0.84318609697E+03  0.25500000920E-02 0.  1.
       -2   -1    0    0    0  501  0.00000000000E+00  0.00000000000E+00 -0.50166292963E+03  0.50166292963E+03  0.25500000920E-02 0. -1.
    10030    2    1    2    0    0  0.00000000000E+00  0.00000000000E+00  0.34152316734E+03  0.13448490266E+04  0.13007616348E+04 0.  0.
        2    1    3    3  502    0 -0.32585522407E+03 -0.38794823567E+03 -0.25087148501E+03  0.56535118520E+03  0.25500000920E-02 0. -1.
       -2    1    3    3    0  502  0.32585522407E+03  0.38794823567E+03  0.59239465235E+03  0.77949784140E+03  0.25500000920E-02 0.  1.
</event>
<event>
 5   0  0.3337520E-04  0.1303121E+04  0.7818609E-02  0.9027094E-01
       -1   -1    0    0    0  501  0.00000000000E+00  0.00000000000E+00  0.45665053647E+03  0.45665053650E+03  0.50400001928E-02 0. -1.
        1   -1    0    0  501    0  0.00000000000E+00  0.00000000000E+00 -0.92966298017E+03  0.92966298019E+03  0.50400001928E-02 0.  1.
    10030    2    1    2    0    0  0.00000000000E+00  0.00000000000E+00 -0.47301244371E+03  0.13863135167E+04  0.13031210207E+04 0.  0.
        5    1    3    3  502    0 -0.63155880291E+03 -0.14210357113E+03 -0.15797586158E+03  0.66636207072E+03  0.46999998093E+01 0. -1.
       -5    1    3    3    0  502  0.63155880291E+03  0.14210357113E+03 -0.31503658213E+03  0.71995144596E+03  0.46999998093E+01 0.  1.
</event>
<event>
 5   0  0.3274879E-04  0.1297145E+04  0.7818609E-02  0.9031832E-01
       -1   -1    0    0    0  501  0.00000000000E+00  0.00000000000E+00  0.62673031392E+03  0.62673031394E+03  0.50400001928E-02 0. -1.
        1   -1    0    0  501    0  0.00000000000E+00  0.00000000000E+00 -0.67117590935E+03  0.67117590937E+03  0.50400001928E-02 0.  1.
    10030    2    1    2    0    0  0.00000000000E+00  0.00000000000E+00 -0.44445595424E+02  0.12979062233E+04  0.12971450010E+04 0.  0.
        4    1    3    3  502    0  0.30638978719E+03  0.23054906465E+03  0.50116839267E+03  0.63103006554E+03  0.12699999809E+01 0. -1.
       -4    1    3    3    0  502 -0.30638978719E+03 -0.23054906465E+03 -0.54561398809E+03  0.66687615777E+03  0.12699999809E+01 0.  1.
</event>
<event>
 5   0  0.5384960E-04  0.1297751E+04  0.7818609E-02  0.9031351E-01
       -2   -1    0    0    0  501  0.00000000000E+00  0.00000000000E+00  0.30672580058E+03  0.30672580059E+03  0.25500000920E-02 0.  1.
        2   -1    0    0  501    0  0.00000000000E+00  0.00000000000E+00 -0.13726897428E+04  0.13726897428E+04  0.25500000920E-02 0. -1.
    10030    2    1    2    0    0  0.00000000000E+00  0.00000000000E+00 -0.10659639422E+04  0.16794155433E+04  0.12977509165E+04 0.  0.
        3    1    3    3  502    0  0.54247066293E+02  0.99965393898E+01 -0.13696501230E+04  0.13707604257E+04  0.10100000352E+00 0. -1.
       -3    1    3    3    0  502 -0.54247066293E+02 -0.99965393898E+01  0.30368618085E+03  0.30865511764E+03  0.10100000352E+00 0.  1.
</event>
<event>
 5   0  0.3403833E-04  0.1300056E+04  0.7818609E-02  0.9029521E-01
       -1   -1    0    0    0  501  0.00000000000E+00  0.00000000000E+00  0.21614173277E+03  0.21614173283E+03  0.50400001928E-02 0.  1.
        1   -1    0    0  501    0  0.00000000000E+00  0.00000000000E+00 -0.19549044367E+04  0.19549044367E+04  0.50400001928E-02 0. -1.
    10030    2    1    2    0    0  0.00000000000E+00  0.00000000000E+00 -0.17387627040E+04  0.21710461696E+04  0.13000560487E+04 0.  0.
        1    1    3    3  502    0 -0.62114491581E+03  0.18620749608E+03 -0.79391462404E+03  0.10250827617E+04  0.50400001928E-02 0. -1.
       -1    1    3    3    0  502  0.62114491581E+03 -0.18620749608E+03 -0.94484807991E+03  0.11459634079E+04  0.50400001928E-02 0.  1.
</event>
<event>
 5   0  0.3263679E-04  0.1306005E+04  0.7818609E-02  0.9024817E-01
        1   -1    0    0  501    0  0.00000000000E+00  0.00000000000E+00  0.13346171694E+04  0.13346171694E+04  0.50400001928E-02 0.  1.
       -1   -1    0    0    0  501  0.00000000000E+00  0.00000000000E+00 -0.31950160855E+03  0.31950160859E+03  0.50400001928E-02 0. -1.
    10030    2    1    2    0    0  0.00000000000E+00  0.00000000000E+00  0.10151155608E+04  0.16541187780E+04  0.13060051033E+04 0.  0.
        2    1    3    3  502    0  0.95671720255E+02  0.24344268453E+03  0.12653676307E+04  0.12921194448E+04  0.25500000920E-02 0.  1.
       -2    1    3    3    0  502 -0.95671720255E+02 -0.24344268453E+03 -0.25025206991E+03  0.36199933316E+03  0.25500000920E-02 0. -1.
</event>
<event>
 5   0  0.3263679E-04  0.1298462E+04  0.7818609E-02  0.9030786E-01
       -1   -1    0    0    0  501  0.00000000000E+00  0.00000000000E+00  0.58270243709E+03  0.58270243712E+03  0.50400001928E-02 0. -1.
        1   -1    0    0  501    0  0.00000000000E+00  0.00000000000E+00 -0.72335543803E+03  0.72335543805E+03  0.50400001928E-02 0.  1.
    10030    2    1    2    0    0  0.00000000000E+00  0.00000000000E+00 -0.14065300094E+03  0.13060578752E+04  0.12984621314E+04 0.  0.
        2    1    3    3  502    0 -0.22699691801E+03  0.49193025939E+03  0.28950633092E+03  0.61427754032E+03  0.25500000920E-02 0. -1.
       -2    1    3    3    0  502  0.22699691801E+03 -0.49193025939E+03 -0.43015933186E+03  0.69178033485E+03  0.25500000920E-02 0.  1.
</event>
<event>
 5   0  0.5787604E-04  0.1302886E+04  0.7818609E-02  0.9027280E-01
        2   -1    0    0  501    0  0.00000000000E+00  0.00000000000E+00  0.16799316365E+04  0.16799316365E+04  0.25500000920E-02 0.  1.
       -2   -1    0    0    0  501  0.00000000000E+00  0.00000000000E+00 -0.25261629223E+03  0.25261629225E+03  0.25500000920E-02 0. -1.
    10030    2    1    2    0    0  0.00000000000E+00  0.00000000000E+00  0.14273153443E+04  0.19325479288E+04  0.13028861827E+04 0.  0.
        4    1    3    3  502    0  0.14783429190E+03 -0.18853583386E+02  0.16543042928E+04  0.16610041365E+04  0.12699999809E+01 0.  1.
       -4    1    3    3    0  502 -0.14783429190E+03  0.18853583386E+02 -0.22698894851E+03  0.27154379226E+03  0.12699999809E+01 0. -1.
</event>
<event>
 5   0  0.3274879E-04  0.1300346E+04  0.7818609E-02  0.9029291E-01
        1   -1    0    0  501    0  0.00000000000E+00  0.00000000000E+00  0.74649484765E+03  0.74649484767E+03  0.50400001928E-02 0. -1.
       -1   -1    0    0    0  501  0.00000000000E+00  0.00000000000E+00 -0.56627990627E+03  0.56627990630E+03  0.50400001928E-02 0.  1.
    10030    2    1    2    0    0  0.00000000000E+00  0.00000000000E+00  0.18021494138E+03  0.13127747540E+04  0.13003461576E+04 0.  0.
        4    1    3    3  502    0 -0.59705068533E+03  0.20660207003E+03 -0.64883453667E+02  0.63511055073E+03  0.12699999809E+01 0. -1.
       -4    1    3    3    0  502  0.59705068533E+03 -0.20660207003E+03  0.24509839504E+03  0.67766420323E+03  0.12699999809E+01 0.  1.
</event>
<event>
 5   0  0.3274879E-04  0.1297086E+04  0.7818609E-02  0.9031879E-01
        1   -1    0    0  501    0  0.00000000000E+00  0.00000000000E+00  0.11231000725E+04  0.11231000725E+04  0.50400001928E-02 0. -1.
       -1   -1    0    0    0  501  0.00000000000E+00  0.00000000000E+00 -0.37450647451E+03  0.37450647455E+03  0.50400001928E-02 0.  1.
    10030    2    1    2    0    0  0.00000000000E+00  0.00000000000E+00  0.74859359795E+03  0.14976065470E+04  0.12970863482E+04 0.  0.
        4    1    3    3  502    0 -0.10302905727E+03 -0.22511781209E+03  0.10663917505E+04  0.10947538511E+04  0.12699999809E+01 0. -1.
       -4    1    3    3    0  502  0.10302905727E+03  0.22511781209E+03 -0.31779815257E+03  0.40285269595E+03  0.12699999809E+01 0.  1.
</event>
<event>
 5   0  0.6007125E-04  0.1298184E+04  0.7818609E-02  0.9031007E-01
        2   -1    0    0  501    0  0.00000000000E+00  0.00000000000E+00  0.78691690452E+03  0.78691690452E+03  0.25500000920E-02 0. -1.
       -2   -1    0    0    0  501  0.00000000000E+00  0.00000000000E+00 -0.53540615981E+03  0.53540615981E+03  0.25500000920E-02 0.  1.
    10030    2    1    2    0    0  0.00000000000E+00  0.00000000000E+00  0.25151074471E+03  0.13223230643E+04  0.12981835894E+04 0.  0.
        5    1    3    3  502    0  0.58242891722E+03  0.15337963799E+03 -0.12071365575E+03  0.61428221010E+03  0.46999998093E+01 0. -1.
       -5    1    3    3    0  502 -0.58242891722E+03 -0.15337963799E+03  0.37222440046E+03  0.70804085423E+03  0.46999998093E+01 0.  1.
</event>
<event>
 5   0  0.5957913E-04  0.1296899E+04  0.7818609E-02  0.9032028E-01
        2   -1    0    0  501    0  0.00000000000E+00  0.00000000000E+00  0.21638888045E+04  0.21638888045E+04  0.25500000920E-02 0.  1.
       -2   -1    0    0    0  501  0.00000000000E+00  0.00000000000E+00 -0.19432004382E+03  0.19432004384E+03  0.25500000920E-02 0. -1.
    10030    2    1    2    0    0  0.00000000000E+00  0.00000000000E+00  0.19695687607E+04  0.23582088483E+04  0.12968993289E+04 0.  0.
        1    1    3    3  502    0  0.13323709763E+03 -0.27985951830E+03 -0.50895295346E+02  0.31410795164E+03  0.50400001928E-02 0. -1.
       -1    1    3    3    0  502 -0.13323709763E+03  0.27985951830E+03  0.20204640560E+04  0.20441008967E+04  0.50400001928E-02 0.  1.
</event>
<event>
 5   0  0.5957913E-04  0.1307559E+04  0.7818609E-02  0.9023592E-01
        2   -1    0    0  501    0  0.00000000000E+00  0.00000000000E+00  0.13024235807E+04  0.13024235807E+04  0.25500000920E-02 0.  1.
       -2   -1    0    0    0  501  0.00000000000E+00  0.00000000000E+00 -0.32817863084E+03  0.32817863085E+03  0.25500000920E-02 0. -1.
    10030    2    1    2    0    0  0.00000000000E+00  0.00000000000E+00  0.97424494983E+03  0.16306022115E+04  0.13075589279E+04 0.  0.
        1    1    3    3  502    0 -0.20447786306E+03  0.44162091988E+03 -0.57297181415E+02  0.49002367328E+03  0.50400001928E-02 0. -1.
       -1    1    3    3    0  502  0.20447786306E+03 -0.44162091988E+03  0.10315421312E+04  0.11405785382E+04  0.50400001928E-02 0.  1.
</event>
<event>
 5   0  0.3335747E-04  0.1340030E+04  0.7818609E-02  0.8998410E-01
        1   -1    0    0  501    0  0.00000000000E+00  0.00000000000E+00  0.12965874456E+04  0.12965874456E+04  0.50400001928E-02 0. -1.
       -1   -1    0    0    0  501  0.00000000000E+00  0.00000000000E+00 -0.34623185425E+03  0.34623185429E+03  0.50400001928E-02 0.  1.
    10030    2    1    2    0    0  0.00000000000E+00  0.00000000000E+00  0.95035559138E+03  0.16428192999E+04  0.13400296647E+04 0.  0.
        3    1    3    3  502    0 -0.20640881873E+02 -0.65505288846E+03  0.30442374398E+03  0.72263002898E+03  0.10100000352E+00 0. -1.
       -3    1    3    3    0  502  0.20640881873E+02  0.65505288846E+03  0.64593184739E+03  0.92018927095E+03  0.10100000352E+00 0.  1.
</event>
<event>
 5   0  0.6007125E-04  0.1298468E+04  0.7818609E-02  0.9030781E-01
        2   -1    0    0  501    0  0.00000000000E+00  0.00000000000E+00  0.10147769569E+04  0.10147769569E+04  0.25500000920E-02 0.  1.
       -2   -1    0    0    0  501  0.00000000000E+00  0.00000000000E+00 -0.41536696704E+03  0.41536696705E+03  0.25500000920E-02 0. -1.
    10030    2    1    2    0    0  0.00000000000E+00  0.00000000000E+00  0.59940998989E+03  0.14301439240E+04  0.12984680617E+04 0.  0.
        5    1    3    3  502    0  0.51913320878E+03  0.21215593411E+03  0.65994022756E+03  0.86605578504E+03  0.46999998093E+01 0.  1.
       -5    1    3    3    0  502 -0.51913320878E+03 -0.21215593411E+03 -0.60530237668E+02  0.56408813895E+03  0.46999998093E+01 0. -1.
</event>
<event>
 5   0  0.6052864E-04  0.1308952E+04  0.7818609E-02  0.9022496E-01
        2   -1    0    0  501    0  0.00000000000E+00  0.00000000000E+00  0.15808756888E+04  0.15808756888E+04  0.25500000920E-02 0. -1.
       -2   -1    0    0    0  501  0.00000000000E+00  0.00000000000E+00 -0.27095052192E+03  0.27095052193E+03  0.25500000920E-02 0.  1.
    10030    2    1    2    0    0  0.00000000000E+00  0.00000000000E+00  0.13099251668E+04  0.18518262107E+04  0.13089523948E+04 0.  0.
        2    1    3    3  502    0 -0.44047302611E+03 -0.38762047839E+02 -0.27669379954E+02  0.44304015358E+03  0.25500000920E-02 0.  1.
       -2    1    3    3    0  502  0.44047302611E+03  0.38762047839E+02  0.13375945468E+04  0.14087860571E+04  0.25500000920E-02 0. -1.
</event>
<event>
 5   0  0.3337520E-04  0.1301209E+04  0.7818609E-02  0.9028607E-01
       -1   -1    0    0    0  501  0.00000000000E+00  0.00000000000E+00  0.44698582613E+03  0.44698582615E+03  0.50400001928E-02 0.  1.
        1   -1    0    0  501    0  0.00000000000E+00  0.00000000000E+00 -0.94697852977E+03  0.94697852978E+03  0.50400001928E-02 0. -1.
    10030    2    1    2    0    0  0.00000000000E+00  0.00000000000E+00 -0.49999270364E+03  0.13939643559E+04  0.13012086389E+04 0.  0.
        5    1    3    3  502    0 -0.33357148587E+03  0.51079897305E+03 -0.78805037285E+01  0.61013909840E+03  0.46999998093E+01 0.  1.
       -5    1    3    3    0  502  0.33357148587E+03 -0.51079897305E+03 -0.49211219991E+03  0.78382525754E+03  0.46999998093E+01 0. -1.
</event>
<event>
 5   0  0.5957913E-04  0.1252471E+04  0.7818609E-02  0.9068129E-01
        2   -1    0    0  501    0  0.00000000000E+00  0.00000000000E+00  0.15155428715E+04  0.15155428715E+04  0.25500000920E-02 0.  1.
       -2   -1    0    0    0  501  0.00000000000E+00  0.00000000000E+00 -0.25876581830E+03  0.25876581831E+03  0.25500000920E-02 0. -1.
    10030    2    1    2    0    0  0.00000000000E+00  0.00000000000E+00  0.12567770532E+04  0.17743086898E+04  0.12524706644E+04 0.  0.
        1    1    3    3  502    0 -0.59839409671E+03 -0.18460212627E+03  0.63427252240E+03  0.89132209256E+03  0.50400001928E-02 0. -1.
       -1    1    3    3    0  502  0.59839409671E+03  0.18460212627E+03  0.62250453077E+03  0.88298659721E+03  0.50400001928E-02 0.  1.
</event>
<event>
 5   0  0.5787604E-04  0.1301389E+04  0.7818609E-02  0.9028464E-01
       -2   -1    0    0    0  501  0.00000000000E+00  0.00000000000E+00  0.12160864659E+04  0.12160864659E+04  0.25500000920E-02 0.  1.
        2   -1    0    0  501    0  0.00000000000E+00  0.00000000000E+00 -0.34816870954E+03  0.34816870955E+03  0.25500000920E-02 0. -1.
    10030    2    1    2    0    0  0.00000000000E+00  0.00000000000E+00  0.86791775639E+03  0.15642551755E+04  0.13013888820E+04 0.  0.
        4    1    3    3  502    0  0.61646745059E+03 -0.16367281951E+03  0.27918332203E+03  0.69625128344E+03  0.12699999809E+01 0. -1.
       -4    1    3    3    0  502 -0.61646745059E+03  0.16367281951E+03  0.58873443436E+03  0.86800389204E+03  0.12699999809E+01 0.  1.
</event>
<event>
 5   0  0.5957913E-04  0.1298247E+04  0.7818609E-02  0.9030957E-01
       -2   -1    0    0    0  501  0.00000000000E+00  0.00000000000E+00  0.78158731078E+03  0.78158731079E+03  0.25500000920E-02 0.  1.
        2   -1    0    0  501    0  0.00000000000E+00  0.00000000000E+00 -0.53910933355E+03  0.53910933356E+03  0.25500000920E-02 0. -1.
    10030    2    1    2    0    0  0.00000000000E+00  0.00000000000E+00  0.24247797723E+03  0.13206966443E+04  0.12982465316E+04 0.  0.
        1    1    3    3  502    0  0.81958358771E+01  0.38954217953E+03  0.64939978497E+03  0.75731787389E+03  0.50400001928E-02 0.  1.
       -1    1    3    3    0  502 -0.81958358771E+01 -0.38954217953E+03 -0.40692180774E+03  0.56337877046E+03  0.50400001928E-02 0. -1.
</event>
<event>
 5   0  0.6052864E-04  0.1303473E+04  0.7818609E-02  0.9026816E-01
        2   -1    0    0  501    0  0.00000000000E+00  0.00000000000E+00  0.57667195308E+03  0.57667195308E+03  0.25500000920E-02 0. -1.
       -2   -1    0    0    0  501  0.00000000000E+00  0.00000000000E+00 -0.73657156165E+03  0.73657156166E+03  0.25500000920E-02 0.  1.
    10030    2    1    2    0    0  0.00000000000E+00  0.00000000000E+00 -0.15989960857E+03  0.13132435147E+04  0.13034725330E+04 0.  0.
        2    1    3    3  502    0 -0.17785338310E+03 -0.50080825830E+03 -0.46003019931E+03  0.70290007948E+03  0.25500000920E-02 0.  1.
       -2    1    3    3    0  502  0.17785338310E+03  0.50080825830E+03  0.30013059074E+03  0.61034343526E+03  0.25500000920E-02 0. -1.
</event>
<event>
 5   0  0.3263679E-04  0.1298461E+04  0.7818609E-02  0.9030787E-01
        1   -1    0    0  501    0  0.00000000000E+00  0.00000000000E+00  0.34972370789E+03  0.34972370792E+03  0.50400001928E-02 0. -1.
       -1   -1    0    0    0  501  0.00000000000E+00  0.00000000000E+00 -0.12052371875E+04  0.12052371875E+04  0.50400001928E-02 0.  1.
    10030    2    1    2    0    0  0.00000000000E+00  0.00000000000E+00 -0.85551347959E+03  0.15549608954E+04  0.12984606550E+04 0.  0.
        2    1    3    3  502    0 -0.60557611285E+03  0.11257399364E+03 -0.18202803489E+03  0.64228462382E+03  0.25500000920E-02 0. -1.
       -2    1    3    3    0  502  0.60557611285E+03 -0.11257399364E+03 -0.67348544469E+03  0.91267627159E+03  0.25500000920E-02 0.  1.
</event>
<event>
 5   0  0.3263679E-04  0.1296660E+04  0.7818609E-02  0.9032218E-01
        1   -1    0    0  501    0  0.00000000000E+00  0.00000000000E+00  0.13915132730E+04  0.13915132730E+04  0.50400001928E-02 0.  1.
       -1   -1    0    0    0  501  0.00000000000E+00  0.00000000000E+00 -0.30206792967E+03  0.30206792972E+03  0.50400001928E-02 0. -1.
    10030    2    1    2    0    0  0.00000000000E+00  0.00000000000E+00  0.10894453433E+04  0.16935812027E+04  0.12966596061E+04 0.  0.
        2    1    3    3  502    0  0.16439964265E+03 -0.62462193095E+03  0.47139720279E+03  0.79962186184E+03  0.25500000920E-02 0. -1.
       -2    1    3    3    0  502 -0.16439964265E+03  0.62462193095E+03  0.61804814052E+03  0.89395934087E+03  0.25500000920E-02 0.  1.
</event>
<event>
 5   0  0.5957913E-04  0.1298745E+04  0.7818609E-02  0.9030561E-01
       -2   -1    0    0    0  501  0.00000000000E+00  0.00000000000E+00  0.31679549640E+03  0.31679549641E+03  0.25500000920E-02 0.  1.
        2   -1    0    0  501    0  0.00000000000E+00  0.00000000000E+00 -0.13310939177E+04  0.13310939177E+04  0.25500000920E-02 0. -1.
    10030    2    1    2    0    0  0.00000000000E+00  0.00000000000E+00 -0.10142984213E+04  0.16478894141E+04  0.12987448686E+04 0.  0.
        1    1    3    3  502    0 -0.11586454911E+03 -0.40008480261E+03  0.12496886533E+03  0.43486740548E+03  0.50400001928E-02 0.  1.
       -1    1    3    3    0  502  0.11586454911E+03  0.40008480261E+03 -0.11392672866E+04  0.12130220086E+04  0.50400001928E-02 0. -1.
</event>
<event>
 5   0  0.3403833E-04  0.1300367E+04  0.7818609E-02  0.9029274E-01
       -1   -1    0    0    0  501  0.00000000000E+00  0.00000000000E+00  0.66331565630E+03  0.66331565632E+03  0.50400001928E-02 0.  1.
        1   -1    0    0  501    0  0.00000000000E+00  0.00000000000E+00 -0.63731160766E+03  0.63731160768E+03  0.50400001928E-02 0. -1.
    10030    2    1    2    0    0  0.00000000000E+00  0.00000000000E+00  0.26004048643E+02  0.13006272640E+04  0.13003672825E+04 0.  0.
        1    1    3    3  502    0  0.19222775511E+03 -0.56022650445E+03 -0.25525585031E+03  0.64495022696E+03  0.50400001928E-02 0. -1.
       -1    1    3    3    0  502 -0.19222775511E+03  0.56022650445E+03  0.28125989895E+03  0.65567703704E+03  0.50400001928E-02 0.  1.
</event>
<event>
 5   0  0.3337520E-04  0.1299341E+04  0.7818609E-02  0.9030088E-01
        1   -1    0    0  501    0  0.00000000000E+00  0.00000000000E+00  0.96596377031E+03  0.96596377033E+03  0.50400001928E-02 0. -1.
       -1   -1    0    0    0  501  0.00000000000E+00  0.00000000000E+00 -0.43694352289E+03  0.43694352292E+03  0.50400001928E-02 0.  1.
    10030    2    1    2    0    0  0.00000000000E+00  0.00000000000E+00  0.52902024743E+03  0.14029072932E+04  0.12993407756E+04 0.  0.
        5    1    3    3  502    0  0.28240324638E+03  0.38247641660E+03  0.74252862894E+03  0.88170894156E+03  0.46999998093E+01 0. -1.
       -5    1    3    3    0  502 -0.28240324638E+03 -0.38247641660E+03 -0.21350838152E+03  0.52119835169E+03  0.46999998093E+01 0.  1.
</event>
<event>
 5   0  0.5957913E-04  0.1295527E+04  0.7818609E-02  0.9033120E-01
       -2   -1    0    0    0  501  0.00000000000E+00  0.00000000000E+00  0.52812286893E+03  0.52812286894E+03  0.25500000920E-02 0.  1.
        2   -1    0    0  501    0  0.00000000000E+00  0.00000000000E+00 -0.79450692767E+03  0.79450692767E+03  0.25500000920E-02 0. -1.
    10030    2    1    2    0    0  0.00000000000E+00  0.00000000000E+00 -0.26638405873E+03  0.13226297966E+04  0.12955265772E+04 0.  0.
        1    1    3    3  502    0  0.55982280576E+03  0.52227913002E+02 -0.46158578944E+03  0.72745499502E+03  0.50400001928E-02 0. -1.
       -1    1    3    3    0  502 -0.55982280576E+03 -0.52227913002E+02  0.19520173070E+03  0.59517480159E+03  0.50400001928E-02 0.  1.
</event>
<event>
 5   0  0.3274879E-04  0.1298624E+04  0.7818609E-02  0.9030657E-01
        1   -1    0    0  501    0  0.00000000000E+00  0.00000000000E+00  0.67308751882E+03  0.67308751884E+03  0.50400001928E-02 0. -1.
       -1   -1    0    0    0  501  0.00000000000E+00  0.00000000000E+00 -0.62637607815E+03  0.62637607817E+03  0.50400001928E-02 0.  1.
    10030    2    1    2    0    0  0.00000000000E+00  0.00000000000E+00  0.46711440674E+02  0.12994635970E+04  0.12986237643E+04 0.  0.
        4    1    3    3  502    0  0.61825106946E+01  0.12425385659E+03  0.66104884845E+03  0.67265476825E+03  0.12699999809E+01 0. -1.
       -4    1    3    3    0  502 -0.61825106946E+01 -0.12425385659E+03 -0.61433740778E+03  0.62680882876E+03  0.12699999809E+01 0.  1.
</event>
<event>
 5   0  0.6052864E-04  0.1241091E+04  0.7818609E-02  0.9077631E-01
       -2   -1    0    0    0  501  0.00000000000E+00  0.00000000000E+00  0.75710633342E+03  0.75710633343E+03  0.25500000920E-02 0. -1.
        2   -1    0    0  501    0  0.00000000000E+00  0.00000000000E+00 -0.50861678717E+03  0.50861678718E+03  0.25500000920E-02 0.  1.
    10030    2    1    2    0    0  0.00000000000E+00  0.00000000000E+00  0.24848954625E+03  0.12657231206E+04  0.12410914404E+04 0.  0.
        2    1    3    3  502    0 -0.55403919991E+03  0.24619585142E+03  0.25917770514E+03  0.65935189022E+03  0.25500000920E-02 0.  1.
       -2    1    3    3    0  502  0.55403919991E+03 -0.24619585142E+03 -0.10688158885E+02  0.60637123038E+03  0.25500000920E-02 0. -1.
</event>
<event>
 5   0  0.3274879E-04  0.1292065E+04  0.7818609E-02  0.9035882E-01
        1   -1    0    0  501    0  0.00000000000E+00  0.00000000000E+00  0.92827801923E+03  0.92827801924E+03  0.50400001928E-02 0. -1.
       -1   -1    0    0    0  501  0.00000000000E+00  0.00000000000E+00 -0.44960422729E+03  0.44960422732E+03  0.50400001928E-02 0.  1.
    10030    2    1    2    0    0  0.00000000000E+00  0.00000000000E+00  0.47867379194E+03  0.13778822466E+04  0.12920645829E+04 0.  0.
        4    1    3    3  502    0  0.58274376212E+03  0.18397381898E+03  0.15847804329E+02  0.61130141842E+03  0.12699999809E+01 0.  1.
       -4    1    3    3    0  502 -0.58274376212E+03 -0.18397381898E+03  0.46282598761E+03  0.76658082814E+03  0.12699999809E+01 0. -1.
</event>
<event>
 5   0  0.3403833E-04  0.1317780E+04  0.7818609E-02  0.9015583E-01
        1   -1    0    0  501    0  0.00000000000E+00  0.00000000000E+00  0.65634160866E+03  0.65634160868E+03  0.50400001928E-02 0. -1.
       -1   -1    0    0    0  501  0.00000000000E+00  0.00000000000E+00 -0.66144873805E+03  0.66144873807E+03  0.50400001928E-02 0.  1.
    10030    2    1    2    0    0  0.00000000000E+00  0.00000000000E+00 -0.51071293920E+01  0.13177903467E+04  0.13177804503E+04 0.  0.
        1    1    3    3  502    0  0.63239591448E+03 -0.40655761789E+02 -0.18299561685E+03  0.65959448105E+03  0.50400001928E-02 0. -1.
       -1    1    3    3    0  502 -0.63239591448E+03  0.40655761789E+02  0.17788848746E+03  0.65819586570E+03  0.50400001928E-02 0.  1.
</event>
<event>
 5   0  0.6007125E-04  0.1300253E+04  0.7818609E-02  0.9029364E-01
       -2   -1    0    0    0  501  0.00000000000E+00  0.00000000000E+00  0.58703496264E+03  0.58703496265E+03  0.25500000920E-02 0. -1.
        2   -1    0    0  501    0  0.00000000000E+00  0.00000000000E+00 -0.71999900971E+03  0.71999900971E+03  0.25500000920E-02 0.  1.
    10030    2    1    2    0    0  0.00000000000E+00  0.00000000000E+00 -0.13296404707E+03  0.13070339724E+04  0.13002531935E+04 0.  0.
        5    1    3    3  502    0  0.38335482764E+03  0.27687495193E+03  0.38196310861E+03  0.60789684093E+03  0.46999998093E+01 0. -1.
       -5    1    3    3    0  502 -0.38335482764E+03 -0.27687495193E+03 -0.51492715568E+03  0.69913713142E+03  0.46999998093E+01 0.  1.
</event>
<event>
 5   0  0.3335747E-04  0.1305734E+04  0.7818609E-02  0.9025030E-01
       -1   -1    0    0    0  501  0.00000000000E+00  0.00000000000E+00  0.29860827628E+03  0.29860827632E+03  0.50400001928E-02 0.  1.
        1   -1    0    0  501    0  0.00000000000E+00  0.00000000000E+00 -0.14274059242E+04  0.14274059243E+04  0.50400001928E-02 0. -1.
    10030    2    1    2    0    0  0.00000000000E+00  0.00000000000E+00 -0.11287976480E+04  0.17260142006E+04  0.13057338513E+04 0.  0.
        3    1    3    3  502    0 -0.36547187294E+03  0.46653493295E+03 -0.92643439982E+03  0.10997750865E+04  0.10100000352E+00 0. -1.
       -3    1    3    3    0  502  0.36547187294E+03 -0.46653493295E+03 -0.20236324815E+03  0.62623911406E+03  0.10100000352E+00 0.  1.
</event>
<event>
 5   0  0.3335747E-04  0.1302908E+04  0.7818609E-02  0.9027262E-01
        1   -1    0    0  501    0  0.00000000000E+00  0.00000000000E+00  0.41392242251E+03  0.41392242254E+03  0.50400001928E-02 0.  1.
       -1   -1    0    0    0  501  0.00000000000E+00  0.00000000000E+00 -0.10252946692E+04  0.10252946692E+04  0.50400001928E-02 0. -1.
    10030    2    1    2    0    0  0.00000000000E+00  0.00000000000E+00 -0.61137224669E+03  0.14392170918E+04  0.13029082136E+04 0.  0.
        3    1    3    3  502    0  0.42350478545E+03 -0.32288410231E+03  0.10877714327E+03  0.54354661615E+03  0.10100000352E+00 0. -1.
       -3    1    3    3    0  502 -0.42350478545E+03  0.32288410231E+03 -0.72014938996E+03  0.89567047561E+03  0.10100000352E+00 0.  1.
</event>
<event>
 5   0  0.6052864E-04  0.1298758E+04  0.7818609E-02  0.9030551E-01
       -2   -1    0    0    0  501  0.00000000000E+00  0.00000000000E+00  0.33908592740E+03  0.33908592741E+03  0.25500000920E-02 0.  1.
        2   -1    0    0  501    0  0.00000000000E+00  0.00000000000E+00 -0.12436166004E+04  0.12436166004E+04  0.25500000920E-02 0. -1.
    10030    2    1    2    0    0  0.00000000000E+00  0.00000000000E+00 -0.90453067297E+03  0.15827025278E+04  0.12987576961E+04 0.  0.
        2    1    3    3  502    0  0.33915441790E+02 -0.57142288611E+03 -0.82592641123E+03  0.10049023877E+04  0.25500000920E-02 0. -1.
       -2    1    3    3    0  502 -0.33915441790E+02  0.57142288611E+03 -0.78604261745E+02  0.57780014013E+03  0.25500000920E-02 0.  1.
</event>
<event>
 5   0  0.5787604E-04  0.1305881E+04  0.7818609E-02  0.9024915E-01
        2   -1    0    0  501    0  0.00000000000E+00  0.00000000000E+00  0.13291803873E+04  0.13291803873E+04  0.25500000920E-02 0.  1.
       -2   -1    0    0    0  501  0.00000000000E+00  0.00000000000E+00 -0.32074740610E+03  0.32074740611E+03  0.25500000920E-02 0. -1.
    10030    2    1    2    0    0  0.00000000000E+00  0.00000000000E+00  0.10084329812E+04  0.16499277935E+04  0.13058807932E+04 0.  0.
        4    1    3    3  502    0 -0.55911417521E+03 -0.31538800450E+03  0.65504677789E+03  0.91715110447E+03  0.12699999809E+01 0.  1.
       -4    1    3    3    0  502  0.55911417521E+03  0.31538800450E+03  0.35338620335E+03  0.73277668899E+03  0.12699999809E+01 0. -1.
</event>
<event>
 5   0  0.3335747E-04  0.1307547E+04  0.7818609E-02  0.9023601E-01
        1   -1    0    0  501    0  0.00000000000E+00  0.00000000000E+00  0.14051605914E+04  0.14051605914E+04  0.50400001928E-02 0. -1.
       -1   -1    0    0    0  501  0.00000000000E+00  0.00000000000E+00 -0.30417878852E+03  0.30417878856E+03  0.50400001928E-02 0.  1.
    10030    2    1    2    0    0  0.00000000000E+00  0.00000000000E+00  0.11009818029E+04  0.17093393799E+04  0.13075473932E+04 0.  0.
        3    1    3    3  502    0 -0.88983379248E+02 -0.27087144804E+03  0.13196052077E+04  0.13500545535E+04  0.10100000352E+00 0. -1.
       -3    1    3    3    0  502  0.88983379248E+02  0.27087144804E+03 -0.21862340483E+03  0.35928482641E+03  0.10100000352E+00 0.  1.
</event>
<event>
 5   0  0.6052864E-04  0.1299866E+04  0.7818609E-02  0.9029671E-01
        2   -1    0    0  501    0  0.00000000000E+00  0.00000000000E+00  0.18238086638E+04  0.18238086638E+04  0.25500000920E-02 0. -1.
       -2   -1    0    0    0  501  0.00000000000E+00  0.00000000000E+00 -0.23161045691E+03  0.23161045693E+03  0.25500000920E-02 0.  1.
    10030    2    1    2    0    0  0.00000000000E+00  0.00000000000E+00  0.15921982068E+04  0.20554191207E+04  0.12998663900E+04 0.  0.
        2    1    3    3  502    0 -0.32361478027E+03 -0.11983040006E+03  0.16669773298E+04  0.17023217290E+04  0.25500000920E-02 0. -1.
       -2    1    3    3    0  502  0.32361478027E+03  0.11983040006E+03 -0.74779122988E+02  0.35309739170E+03  0.25500000920E-02 0.  1.
</event>
<event>
 5   0  0.5787604E-04  0.1297074E+04  0.7818609E-02  0.9031889E-01
        2   -1    0    0  501    0  0.00000000000E+00  0.00000000000E+00  0.80340236981E+03  0.80340236981E+03  0.25500000920E-02 0. -1.
       -2   -1    0    0    0  501  0.00000000000E+00  0.00000000000E+00 -0.52352361757E+03  0.52352361757E+03  0.25500000920E-02 0.  1.
    10030    2    1    2    0    0  0.00000000000E+00  0.00000000000E+00  0.27987875224E+03  0.13269259874E+04  0.12970738067E+04 0.  0.
        4    1    3    3  502    0  0.23971688500E+03 -0.40024558889E+03 -0.32091473834E+03  0.56625842030E+03  0.12699999809E+01 0.  1.
       -4    1    3    3    0  502 -0.23971688500E+03  0.40024558889E+03  0.60079349058E+03  0.76066756708E+03  0.12699999809E+01 0. -1.
</event>
<event>
 5   0  0.5384960E-04  0.1297329E+04  0.7818609E-02  0.9031686E-01
        2   -1    0    0  501    0  0.00000000000E+00  0.00000000000E+00  0.24554979762E+04  0.24554979762E+04  0.25500000920E-02 0. -1.
       -2   -1    0    0    0  501  0.00000000000E+00  0.00000000000E+00 -0.17135662987E+03  0.17135662989E+03  0.25500000920E-02 0.  1.
    10030    2    1    2    0    0  0.00000000000E+00  0.00000000000E+00  0.22841413463E+04  0.26268546061E+04  0.12973293458E+04 0.  0.
        3    1    3    3  502    0 -0.18514850013E+03 -0.62104985207E+03  0.10854133456E+04  0.12641617883E+04  0.10100000352E+00 0. -1.
       -3    1    3    3    0  502  0.18514850013E+03  0.62104985207E+03  0.11987280007E+04  0.13626928178E+04  0.10100000352E+00 0.  1.
</event>
<event>
 5   0  0.3335747E-04  0.1299688E+04  0.7818609E-02  0.9029813E-01
        1   -1    0    0  501    0  0.00000000000E+00  0.00000000000E+00  0.88964992193E+03  0.88964992195E+03  0.50400001928E-02 0.  1.
       -1   -1    0    0    0  501  0.00000000000E+00  0.00000000000E+00 -0.47467781143E+03  0.47467781146E+03  0.50400001928E-02 0. -1.
    10030    2    1    2    0    0  0.00000000000E+00  0.00000000000E+00  0.41497211050E+03  0.13643277334E+04  0.12996877747E+04 0.  0.
        3    1    3    3  502    0 -0.23284173058E+03 -0.51184731580E+03  0.54940670812E+03  0.78616199814E+03  0.10100000352E+00 0.  1.
       -3    1    3    3    0  502  0.23284173058E+03  0.51184731580E+03 -0.13443459762E+03  0.57816573526E+03  0.10100000352E+00 0. -1.
</event>
<event>
 5   0  0.6052864E-04  0.1387404E+04  0.7818609E-02  0.8962987E-01
        2   -1    0    0  501    0  0.00000000000E+00  0.00000000000E+00  0.80765325298E+03  0.80765325298E+03  0.25500000920E-02 0. -1.
       -2   -1    0    0    0  501  0.00000000000E+00  0.00000000000E+00 -0.59582802032E+03  0.59582802033E+03  0.25500000920E-02 0.  1.
    10030    2    1    2    0    0  0.00000000000E+00  0.00000000000E+00  0.21182523265E+03  0.14034812733E+04  0.13874039626E+04 0.  0.
        2    1    3    3  502    0  0.51359082872E+03  0.44901221377E+03  0.23320774499E+03  0.72095309126E+03  0.25500000920E-02 0. -1.
       -2    1    3    3    0  502 -0.51359082872E+03 -0.44901221377E+03 -0.21382512335E+02  0.68252818206E+03  0.25500000920E-02 0.  1.
</event>
<event>
 5   0  0.3337520E-04  0.1304373E+04  0.7818609E-02  0.9026104E-01
       -1   -1    0    0    0  501  0.00000000000E+00  0.00000000000E+00  0.31650970536E+03  0.31650970540E+03  0.50400001928E-02 0.  1.
        1   -1    0    0  501    0  0.00000000000E+00  0.00000000000E+00 -0.13438682063E+04  0.13438682063E+04  0.50400001928E-02 0. -1.
    10030    2    1    2    0    0  0.00000000000E+00  0.00000000000E+00 -0.10273585010E+04  0.16603779117E+04  0.13043731522E+04 0.  0.
        5    1    3    3  502    0  0.27469470765E+03 -0.17826596752E+03  0.20424666056E+03  0.38597244194E+03  0.46999998093E+01 0.  1.
       -5    1    3    3    0  502 -0.27469470765E+03  0.17826596752E+03 -0.12316051615E+04  0.12744054698E+04  0.46999998093E+01 0. -1.
</event>
<event>
 5   0  0.3274879E-04  0.1307257E+04  0.7818609E-02  0.9023830E-01
        1   -1    0    0  501    0  0.00000000000E+00  0.00000000000E+00  0.97468756952E+03  0.97468756953E+03  0.50400001928E-02 0. -1.
       -1   -1    0    0    0  501  0.00000000000E+00  0.00000000000E+00 -0.43832533172E+03  0.43832533175E+03  0.50400001928E-02 0.  1.
    10030    2    1    2    0    0  0.00000000000E+00  0.00000000000E+00  0.53636223780E+03  0.14130129013E+04  0.13072570555E+04 0.  0.
        4    1    3    3  502    0 -0.13024559315E+03  0.10545964497E+03 -0.41470672954E+03  0.44729066129E+03  0.12699999809E+01 0.  1.
       -4    1    3    3    0  502  0.13024559315E+03 -0.10545964497E+03  0.95106896735E+03  0.96572223999E+03  0.12699999809E+01 0. -1.
</event>
<event>
 5   0  0.6052864E-04  0.1279809E+04  0.7818609E-02  0.9045732E-01
       -2   -1    0    0    0  501  0.00000000000E+00  0.00000000000E+00  0.30352754239E+03  0.30352754240E+03  0.25500000920E-02 0.  1.
        2   -1    0    0  501    0  0.00000000000E+00  0.00000000000E+00 -0.13490632956E+04  0.13490632956E+04  0.25500000920E-02 0. -1.
    10030    2    1    2    0    0  0.00000000000E+00  0.00000000000E+00 -0.10455357532E+04  0.16525908380E+04  0.12798091524E+04 0.  0.
        2    1    3    3  502    0 -0.31813594328E+03  0.49796131530E+03 -0.20567558309E+03  0.62568234387E+03  0.25500000920E-02 0.  1.
       -2    1    3    3    0  502  0.31813594328E+03 -0.49796131530E+03 -0.83986017012E+03  0.10269084941E+04  0.25500000920E-02 0. -1.
</event>
<event>
 5   0  0.3335747E-04  0.1301283E+04  0.7818609E-02  0.9028549E-01
       -1   -1    0    0    0  501  0.00000000000E+00  0.00000000000E+00  0.27994642265E+03  0.27994642269E+03  0.50400001928E-02 0.  1.
        1   -1    0    0  501    0  0.00000000000E+00  0.00000000000E+00 -0.15121968941E+04  0.15121968941E+04  0.50400001928E-02 0. -1.
    10030    2    1    2    0    0  0.00000000000E+00  0.00000000000E+00 -0.12322504714E+04  0.17921433168E+04  0.13012826148E+04 0.  0.
        3    1    3    3  502    0  0.20184305182E+03 -0.14212732617E+03  0.21294475016E+03  0.32601575305E+03  0.10100000352E+00 0.  1.
       -3    1    3    3    0  502 -0.20184305182E+03  0.14212732617E+03 -0.14451952216E+04  0.14661275637E+04  0.10100000352E+00 0. -1.
</event>
<event>
 5   0  0.3335747E-04  0.1295054E+04  0.7818609E-02  0.9033497E-01
        1   -1    0    0  501    0  0.00000000000E+00  0.00000000000E+00  0.94261382472E+03  0.94261382474E+03  0.50400001928E-02 0. -1.
       -1   -1    0    0    0  501  0.00000000000E+00  0.00000000000E+00 -0.44481744138E+03  0.44481744141E+03  0.50400001928E-02 0.  1.
    10030    2    1    2    0    0  0.00000000000E+00  0.00000000000E+00  0.49779638334E+03  0.13874312661E+04  0.12950537746E+04 0.  0.
        3    1    3    3  502    0 -0.12640552954E+03 -0.96790937074E+02 -0.42352245426E+03  0.45245786860E+03  0.10100000352E+00 0.  1.
       -3    1    3    3    0  502  0.12640552954E+03  0.96790937074E+02  0.92131883760E+03  0.93497339754E+03  0.10100000352E+00 0. -1.
</event>
<event>
 5   0  0.3335747E-04  0.1301865E+04  0.7818609E-02  0.9028087E-01
       -1   -1    0    0    0  501  0.00000000000E+00  0.00000000000E+00  0.32713809473E+03  0.32713809477E+03  0.50400001928E-02 0.  1.
        1   -1    0    0  501    0  0.00000000000E+00  0.00000000000E+00 -0.12952124080E+04  0.12952124080E+04  0.50400001928E-02 0. -1.
    10030    2    1    2    0    0  0.00000000000E+00  0.00000000000E+00 -0.96807431323E+03  0.16223505027E+04  0.13018653071E+04 0.  0.
        3    1    3    3  502    0  0.46354168370E+03 -0.27825944261E+03 -0.93578866916E+03  0.10807403266E+04  0.10100000352E+00 0. -1.
       -3    1    3    3    0  502 -0.46354168370E+03  0.27825944261E+03 -0.32285644067E+02  0.54161017618E+03  0.10100000352E+00 0.  1.
</event>
<event>
 5   0  0.3263679E-04  0.1299015E+04  0.7818609E-02  0.9030347E-01
       -1   -1    0    0    0  501  0.00000000000E+00  0.00000000000E+00  0.92441428414E+03  0.92441428415E+03  0.50400001928E-02 0. -1.
        1   -1    0    0  501    0  0.00000000000E+00  0.00000000000E+00 -0.45635372257E+03  0.45635372259E+03  0.50400001928E-02 0.  1.
    10030    2    1    2    0    0  0.00000000000E+00  0.00000000000E+00  0.46806056157E+03  0.13807680067E+04  0.12990148572E+04 0.  0.
        2    1    3    3  502    0  0.10913893062E+03  0.41725498140E+03 -0.28217406880E+03  0.51539812843E+03  0.25500000920E-02 0.  1.
       -2    1    3    3    0  502 -0.10913893062E+03 -0.41725498140E+03  0.75023463037E+03  0.86536987831E+03  0.25500000920E-02 0. -1.
</event>
<event>
 5   0  0.6007125E-04  0.1298883E+04  0.7818609E-02  0.9030451E-01
       -2   -1    0    0    0  501  0.00000000000E+00  0.00000000000E+00  0.45747400093E+03  0.45747400093E+03  0.25500000920E-02 0. -1.
        2   -1    0    0  501    0  0.00000000000E+00  0.00000000000E+00 -0.92196366299E+03  0.92196366299E+03  0.25500000920E-02 0.  1.
    10030    2    1    2    0    0  0.00000000000E+00  0.00000000000E+00 -0.46448966206E+03  0.13794376639E+04  0.12988832213E+04 0.  0.
        5    1    3    3  502    0  0.76997169485E+02 -0.57971179581E+03  0.67684584068E+02  0.58872542262E+03  0.46999998093E+01 0. -1.
       -5    1    3    3    0  502 -0.76997169485E+02  0.57971179581E+03 -0.53217424613E+03  0.79071224131E+03  0.46999998093E+01 0.  1.
</event>
<event>
 5   0  0.3274879E-04  0.1301212E+04  0.7818609E-02  0.9028605E-01
       -1   -1    0    0    0  501  0.00000000000E+00  0.00000000000E+00  0.43324102635E+03  0.43324102638E+03  0.50400001928E-02 0.  1.
        1   -1    0    0  501    0  0.00000000000E+00  0.00000000000E+00 -0.97702629983E+03  0.97702629984E+03  0.50400001928E-02 0. -1.
    10030    2    1    2    0    0  0.00000000000E+00  0.00000000000E+00 -0.54378527348E+03  0.14102673262E+04  0.13012115538E+04 0.  0.
        4    1    3    3  502    0 -0.77496740338E+02 -0.28180415890E+03  0.35808680820E+03  0.46221975709E+03  0.12699999809E+01 0.  1.
       -4    1    3    3    0  502  0.77496740338E+02  0.28180415890E+03 -0.90187208167E+03  0.94804756913E+03  0.12699999809E+01 0. -1.
</event>
<event>
 5   0  0.3335747E-04  0.1300152E+04  0.7818609E-02  0.9029444E-01
        1   -1    0    0  501    0  0.00000000000E+00  0.00000000000E+00  0.15717919931E+04  0.15717919931E+04  0.50400001928E-02 0. -1.
       -1   -1    0    0    0  501  0.00000000000E+00  0.00000000000E+00 -0.26886444297E+03  0.26886444301E+03  0.50400001928E-02 0.  1.
    10030    2    1    2    0    0  0.00000000000E+00  0.00000000000E+00  0.13029275502E+04  0.18406564362E+04  0.13001522661E+04 0.  0.
        3    1    3    3  502    0 -0.61577918963E+03  0.20650657194E+03  0.69074835910E+03  0.94813621407E+03  0.10100000352E+00 0.  1.
       -3    1    3    3    0  502  0.61577918963E+03 -0.20650657194E+03  0.61217919107E+03  0.89252022208E+03  0.10100000352E+00 0. -1.
</event>
<event>
 5   0  0.6052864E-04  0.1292106E+04  0.7818609E-02  0.9035848E-01
       -2   -1    0    0    0  501  0.00000000000E+00  0.00000000000E+00  0.29845698354E+03  0.29845698355E+03  0.25500000920E-02 0.  1.
        2   -1    0    0  501    0  0.00000000000E+00  0.00000000000E+00 -0.13984754207E+04  0.13984754207E+04  0.25500000920E-02 0. -1.
    10030    2    1    2    0    0  0.00000000000E+00  0.00000000000E+00 -0.11000184371E+04  0.16969324042E+04  0.12921064285E+04 0.  0.
        2    1    3    3  502    0 -0.27587506562E+03 -0.20104054561E+03 -0.12703678629E+04  0.13154310548E+04  0.25500000920E-02 0. -1.
       -2    1    3    3    0  502  0.27587506562E+03  0.20104054561E+03  0.17034942572E+03  0.38150134949E+03  0.25500000920E-02 0.  1.
</event>
<event>
 5   0  0.2255875E-04  0.1300853E+04  0.7818609E-02  0.9028889E-01
       -4   -1    0    0    0  501  0.00000000000E+00  0.00000000000E+00  0.10506363042E+04  0.10506370718E+04  0.12699999809E+01 0. -1.
        4   -1    0    0  501    0  0.00000000000E+00  0.00000000000E+00 -0.40266351020E+03  0.40266551298E+03  0.12699999809E+01 0.  1.
    10030    2    1    2    0    0  0.00000000000E+00  0.00000000000E+00  0.64797279405E+03  0.14533025848E+04  0.13008534357E+04 0.  0.
        1    1    3    3  502    0  0.51282924882E+03 -0.29644461943E+03  0.23834478408E+02  0.59282487568E+03  0.50400001928E-02 0.  1.
       -1    1    3    3    0  502 -0.51282924882E+03  0.29644461943E+03  0.62413831565E+03  0.86047770913E+03  0.50400001928E-02 0. -1.
</event>
<event>
 5   0  0.6007125E-04  0.1292442E+04  0.7818609E-02  0.9035580E-01
       -2   -1    0    0    0  501  0.00000000000E+00  0.00000000000E+00  0.53094065294E+03  0.53094065295E+03  0.25500000920E-02 0. -1.
        2   -1    0    0  501    0  0.00000000000E+00  0.00000000000E+00 -0.78653137926E+03  0.78653137926E+03  0.25500000920E-02 0.  1.
    10030    2    1    2    0    0  0.00000000000E+00  0.00000000000E+00 -0.25559072632E+03  0.13174720322E+04  0.12924418502E+04 0.  0.
        5    1    3    3  502    0  0.64001219539E+02 -0.54762722538E+03  0.21575939566E+03  0.59208609247E+03  0.46999998093E+01 0. -1.
       -5    1    3    3    0  502 -0.64001219539E+02  0.54762722538E+03 -0.47135012198E+03  0.72538593974E+03  0.46999998093E+01 0.  1.
</event>
<event>
 5   0  0.3403833E-04  0.1303087E+04  0.7818609E-02  0.9027120E-01
       -1   -1    0    0    0  501  0.00000000000E+00  0.00000000000E+00  0.72620653788E+03  0.72620653790E+03  0.50400001928E-02 0.  1.
        1   -1    0    0  501    0  0.00000000000E+00  0.00000000000E+00 -0.58455718733E+03  0.58455718736E+03  0.50400001928E-02 0. -1.
    10030    2    1    2    0    0  0.00000000000E+00  0.00000000000E+00  0.14164935055E+03  0.13107637253E+04  0.13030874894E+04 0.  0.
        1    1    3    3  502    0  0.11619779938E+02  0.38207962153E+03  0.60155900735E+03  0.71273634384E+03  0.50400001928E-02 0.  1.
       -1    1    3    3    0  502 -0.11619779938E+02 -0.38207962153E+03 -0.45990965681E+03  0.59802738142E+03  0.50400001928E-02 0. -1.
</event>
<event>
 5   0  0.5384960E-04  0.1299618E+04  0.7818609E-02  0.9029868E-01
        2   -1    0    0  501    0  0.00000000000E+00  0.00000000000E+00  0.40324544168E+03  0.40324544169E+03  0.25500000920E-02 0.  1.
       -2   -1    0    0    0  501  0.00000000000E+00  0.00000000000E+00 -0.10471328960E+04  0.10471328960E+04  0.25500000920E-02 0. -1.
    10030    2    1    2    0    0  0.00000000000E+00  0.00000000000E+00 -0.64388745432E+03  0.14503783377E+04  0.12996177394E+04 0.  0.
        3    1    3    3  502    0  0.51304829081E+03 -0.27439605759E+03 -0.64489103186E+03  0.86855984151E+03  0.10100000352E+00 0.  1.
       -3    1    3    3    0  502 -0.51304829081E+03  0.27439605759E+03  0.10035775355E+01  0.58181849617E+03  0.10100000352E+00 0. -1.
</event>
<event>
 5   0  0.6007125E-04  0.1294322E+04  0.7818609E-02  0.9034080E-01
       -2   -1    0    0    0  501  0.00000000000E+00  0.00000000000E+00  0.39093458191E+03  0.39093458192E+03  0.25500000920E-02 0.  1.
        2   -1    0    0  501    0  0.00000000000E+00  0.00000000000E+00 -0.10713229691E+04  0.10713229691E+04  0.25500000920E-02 0. -1.
    10030    2    1    2    0    0  0.00000000000E+00  0.00000000000E+00 -0.68038838722E+03  0.14622575511E+04  0.12943217483E+04 0.  0.
        5    1    3    3  502    0  0.62943338606E+03 -0.38435923884E+02 -0.17596674249E+03  0.65471374828E+03  0.46999998093E+01 0.  1.
       -5    1    3    3    0  502 -0.62943338606E+03  0.38435923884E+02 -0.50442164473E+03  0.80754380277E+03  0.46999998093E+01 0. -1.
</event>
<event>
 5   0  0.3403833E-04  0.1297902E+04  0.7818609E-02  0.9031230E-01
       -1   -1    0    0    0  501  0.00000000000E+00  0.00000000000E+00  0.74220274919E+03  0.74220274920E+03  0.50400001928E-02 0. -1.
        1   -1    0    0  501    0  0.00000000000E+00  0.00000000000E+00 -0.56741586455E+03  0.56741586457E+03  0.50400001928E-02 0.  1.
    10030    2    1    2    0    0  0.00000000000E+00  0.00000000000E+00  0.17478688464E+03  0.13096186138E+04  0.12979023301E+04 0.  0.
        1    1    3    3  502    0 -0.24966781763E+03  0.56913576797E+03 -0.10107616193E+03  0.62965540740E+03  0.50400001928E-02 0. -1.
       -1    1    3    3    0  502  0.24966781763E+03 -0.56913576797E+03  0.27586304656E+03  0.67996320637E+03  0.50400001928E-02 0.  1.
</event>
<event>
 5   0  0.6052864E-04  0.1300933E+04  0.7818609E-02  0.9028826E-01
       -2   -1    0    0    0  501  0.00000000000E+00  0.00000000000E+00  0.39851958421E+03  0.39851958422E+03  0.25500000920E-02 0.  1.
        2   -1    0    0  501    0  0.00000000000E+00  0.00000000000E+00 -0.10616953785E+04  0.10616953785E+04  0.25500000920E-02 0. -1.
    10030    2    1    2    0    0  0.00000000000E+00  0.00000000000E+00 -0.66317579424E+03  0.14602149627E+04  0.13009325898E+04 0.  0.
        2    1    3    3  502    0 -0.22258647608E+03  0.60863664371E+03 -0.39431493275E+03  0.75859578802E+03  0.25500000920E-02 0.  1.
       -2    1    3    3    0  502  0.22258647608E+03 -0.60863664371E+03 -0.26886086149E+03  0.70161917466E+03  0.25500000920E-02 0. -1.
</event>
<event>
 5   0  0.6007125E-04  0.1300862E+04  0.7818609E-02  0.9028882E-01
        2   -1    0    0  501    0  0.00000000000E+00  0.00000000000E+00  0.66531515481E+03  0.66531515482E+03  0.25500000920E-02 0. -1.
       -2   -1    0    0    0  501  0.00000000000E+00  0.00000000000E+00 -0.63587941011E+03  0.63587941012E+03  0.25500000920E-02 0.  1.
    10030    2    1    2    0    0  0.00000000000E+00  0.00000000000E+00  0.29435744698E+02  0.13011945649E+04  0.13008615732E+04 0.  0.
        5    1    3    3  502    0 -0.34185959347E+03 -0.14915514963E+03 -0.51826266425E+03  0.63854014710E+03  0.46999998093E+01 0.  1.
       -5    1    3    3    0  502  0.34185959347E+03  0.14915514963E+03  0.54769840895E+03  0.66265441783E+03  0.46999998093E+01 0. -1.
</event>
<event>
 5   0  0.3263679E-04  0.1302326E+04  0.7818609E-02  0.9027723E-01
       -1   -1    0    0    0  501  0.00000000000E+00  0.00000000000E+00  0.50705895873E+03  0.50705895876E+03  0.50400001928E-02 0.  1.
        1   -1    0    0  501    0  0.00000000000E+00  0.00000000000E+00 -0.83622017368E+03  0.83622017369E+03  0.50400001928E-02 0. -1.
    10030    2    1    2    0    0  0.00000000000E+00  0.00000000000E+00 -0.32916121494E+03  0.13432791324E+04  0.13023255055E+04 0.  0.
        2    1    3    3  502    0  0.25009043198E+03  0.59484389238E+03 -0.74493036663E+02  0.64956423315E+03  0.25500000920E-02 0.  1.
       -2    1    3    3    0  502 -0.25009043198E+03 -0.59484389238E+03 -0.25466817828E+03  0.69371489930E+03  0.25500000920E-02 0. -1.
</event>
<event>
 5   0  0.5384960E-04  0.1305392E+04  0.7818609E-02  0.9025300E-01
       -2   -1    0    0    0  501  0.00000000000E+00  0.00000000000E+00  0.23510864597E+03  0.23510864598E+03  0.25500000920E-02 0. -1.
        2   -1    0    0  501    0  0.00000000000E+00  0.00000000000E+00 -0.18119802723E+04  0.18119802723E+04  0.25500000920E-02 0.  1.
    10030    2    1    2    0    0  0.00000000000E+00  0.00000000000E+00 -0.15768716263E+04  0.20470889183E+04  0.13053922450E+04 0.  0.
        3    1    3    3  502    0 -0.45822696541E+03 -0.46278590662E+03 -0.72063185599E+03  0.97131510298E+03  0.10100000352E+00 0.  1.
       -3    1    3    3    0  502  0.45822696541E+03  0.46278590662E+03 -0.85623977034E+03  0.10757738153E+04  0.10100000352E+00 0. -1.
</event>
<event>
 5   0  0.3274879E-04  0.1298246E+04  0.7818609E-02  0.9030957E-01
       -1   -1    0    0    0  501  0.00000000000E+00  0.00000000000E+00  0.51360729543E+03  0.51360729546E+03  0.50400001928E-02 0. -1.
        1   -1    0    0  501    0  0.00000000000E+00  0.00000000000E+00 -0.82039498042E+03  0.82039498044E+03  0.50400001928E-02 0.  1.
    10030    2    1    2    0    0  0.00000000000E+00  0.00000000000E+00 -0.30678768499E+03  0.13340022759E+04  0.12982462742E+04 0.  0.
        4    1    3    3  502    0 -0.45269271570E+03 -0.45348659757E+03 -0.26007250065E+03  0.69153460327E+03  0.12699999809E+01 0.  1.
       -4    1    3    3    0  502  0.45269271570E+03  0.45348659757E+03 -0.46715184338E+02  0.64246767263E+03  0.12699999809E+01 0. -1.
</event>
<event>
 5   0  0.3337520E-04  0.1316566E+04  0.7818609E-02  0.9016530E-01
       -1   -1    0    0    0  501  0.00000000000E+00  0.00000000000E+00  0.52844164166E+03  0.52844164169E+03  0.50400001928E-02 0.  1.
        1   -1    0    0  501    0  0.00000000000E+00  0.00000000000E+00 -0.82002697170E+03  0.82002697171E+03  0.50400001928E-02 0. -1.
    10030    2    1    2    0    0  0.00000000000E+00  0.00000000000E+00 -0.29158533003E+03  0.13484686134E+04  0.13165658345E+04 0.  0.
        5    1    3    3  502    0  0.42922664278E+03  0.71096951688E+02 -0.65175076364E+03  0.78363986327E+03  0.46999998093E+01 0. -1.
       -5    1    3    3    0  502 -0.42922664278E+03 -0.71096951688E+02  0.36016543360E+03  0.56482875013E+03  0.46999998093E+01 0.  1.
</event>
<event>
 5   0  0.3337520E-04  0.1301234E+04  0.7818609E-02  0.9028587E-01
        1   -1    0    0  501    0  0.00000000000E+00  0.00000000000E+00  0.98856970248E+03  0.98856970249E+03  0.50400001928E-02 0. -1.
       -1   -1    0    0    0  501  0.00000000000E+00  0.00000000000E+00 -0.42819719011E+03  0.42819719014E+03  0.50400001928E-02 0.  1.
    10030    2    1    2    0    0  0.00000000000E+00  0.00000000000E+00  0.56037251237E+03  0.14167668926E+04  0.13012344429E+04 0.  0.
        5    1    3    3  502    0 -0.26884442356E+02  0.65003809195E+03  0.28333897283E+03  0.70963043745E+03  0.46999998093E+01 0.  1.
       -5    1    3    3    0  502  0.26884442356E+02 -0.65003809195E+03  0.27703353953E+03  0.70713645518E+03  0.46999998093E+01 0. -1.
</event>
<event>
 5   0  0.3337520E-04  0.1299389E+04  0.7818609E-02  0.9030050E-01
        1   -1    0    0  501    0  0.00000000000E+00  0.00000000000E+00  0.11213191025E+04  0.11213191025E+04  0.50400001928E-02 0. -1.
       -1   -1    0    0    0  501  0.00000000000E+00  0.00000000000E+00 -0.37643448905E+03  0.37643448908E+03  0.50400001928E-02 0.  1.
    10030    2    1    2    0    0  0.00000000000E+00  0.00000000000E+00  0.74488461342E+03  0.14977535916E+04  0.12993893696E+04 0.  0.
        5    1    3    3  502    0  0.18184291792E+03 -0.37727188672E+03 -0.20004805563E+03  0.46415755716E+03  0.46999998093E+01 0.  1.
       -5    1    3    3    0  502 -0.18184291792E+03  0.37727188672E+03  0.94493266905E+03  0.10335960344E+04  0.46999998093E+01 0. -1.
</event>
<event>
 5   0  0.5384960E-04  0.1299926E+04  0.7818609E-02  0.9029624E-01
        2   -1    0    0  501    0  0.00000000000E+00  0.00000000000E+00  0.76304905275E+03  0.76304905275E+03  0.25500000920E-02 0. -1.
       -2   -1    0    0    0  501  0.00000000000E+00  0.00000000000E+00 -0.55363627158E+03  0.55363627159E+03  0.25500000920E-02 0.  1.
    10030    2    1    2    0    0  0.00000000000E+00  0.00000000000E+00  0.20941278117E+03  0.13166853243E+04  0.12999255865E+04 0.  0.
        3    1    3    3  502    0 -0.46906007940E+03 -0.27260552777E+03 -0.25784769150E+03  0.60068009295E+03  0.10100000352E+00 0.  1.
       -3    1    3    3    0  502  0.46906007940E+03  0.27260552777E+03  0.46726047267E+03  0.71600523139E+03  0.10100000352E+00 0. -1.
</event>
<event>
 5   0  0.3337520E-04  0.1323444E+04  0.7818609E-02  0.9011178E-01
        1   -1    0    0  501    0  0.00000000000E+00  0.00000000000E+00  0.72652744542E+03  0.72652744544E+03  0.50400001928E-02 0.  1.
       -1   -1    0    0    0  501  0.00000000000E+00  0.00000000000E+00 -0.60269730266E+03  0.60269730268E+03  0.50400001928E-02 0. -1.
    10030    2    1    2    0    0  0.00000000000E+00  0.00000000000E+00  0.12383014276E+03  0.13292247481E+04  0.13234441910E+04 0.  0.
        5    1    3    3  502    0  0.35033656516E+03 -0.11888273262E+03 -0.48910241053E+03  0.61327976568E+03  0.46999998093E+01 0. -1.
       -5    1    3    3    0  502 -0.35033656516E+03  0.11888273262E+03  0.61293255329E+03  0.71594498244E+03  0.46999998093E+01 0.  1.
</event>
<event>
 5   0  0.3337520E-04  0.1298639E+04  0.7818609E-02  0.9030645E-01
       -1   -1    0    0    0  501  0.00000000000E+00  0.00000000000E+00  0.29912580710E+03  0.29912580714E+03  0.50400001928E-02 0. -1.
        1   -1    0    0  501    0  0.00000000000E+00  0.00000000000E+00 -0.14094942953E+04  0.14094942953E+04  0.50400001928E-02 0.  1.
    10030    2    1    2    0    0  0.00000000000E+00  0.00000000000E+00 -0.11103684882E+04  0.17086201025E+04  0.12986394707E+04 0.  0.
        5    1    3    3  502    0 -0.17290192549E+02  0.14073473001E+03  0.27848472754E+03  0.31253967502E+03  0.46999998093E+01 0. -1.
       -5    1    3    3    0  502  0.17290192549E+02 -0.14073473001E+03 -0.13888532158E+04  0.13960804274E+04  0.46999998093E+01 0.  1.
</event>
<event>
 5   0  0.5384960E-04  0.1298455E+04  0.7818609E-02  0.9030791E-01
        2   -1    0    0  501    0  0.00000000000E+00  0.00000000000E+00  0.11963653013E+04  0.11963653013E+04  0.25500000920E-02 0.  1.
       -2   -1    0    0    0  501  0.00000000000E+00  0.00000000000E+00 -0.35231399387E+03  0.35231399388E+03  0.25500000920E-02 0. -1.
    10030    2    1    2    0    0  0.00000000000E+00  0.00000000000E+00  0.84405130744E+03  0.15486792952E+04  0.12984548316E+04 0.  0.
        3    1    3    3  502    0  0.35198375863E+03 -0.53219638807E+03  0.56500492673E+03  0.85226529863E+03  0.10100000352E+00 0.  1.
       -3    1    3    3    0  502 -0.35198375863E+03  0.53219638807E+03  0.27904638071E+03  0.69641399656E+03  0.10100000352E+00 0. -1.
</event>
<event>
 5   0  0.5957913E-04  0.1301785E+04  0.7818609E-02  0.9028151E-01
       -2   -1    0    0    0  501  0.00000000000E+00  0.00000000000E+00  0.11858983790E+04  0.11858983790E+04  0.25500000920E-02 0. -1.
        2   -1    0    0  501    0  0.00000000000E+00  0.00000000000E+00 -0.35724913326E+03  0.35724913327E+03  0.25500000920E-02 0.  1.
    10030    2    1    2    0    0  0.00000000000E+00  0.00000000000E+00  0.82864924570E+03  0.15431475122E+04  0.13017851866E+04 0.  0.
        1    1    3    3  502    0  0.59968629779E+03  0.20827151053E+03  0.58471239638E+03  0.86306967527E+03  0.50400001928E-02 0.  1.
       -1    1    3    3    0  502 -0.59968629779E+03 -0.20827151053E+03  0.24393684932E+03  0.68007783697E+03  0.50400001928E-02 0. -1.
</event>
<event>
 5   0  0.5787604E-04  0.1302363E+04  0.7818609E-02  0.9027694E-01
        2   -1    0    0  501    0  0.00000000000E+00  0.00000000000E+00  0.11057562615E+04  0.11057562615E+04  0.25500000920E-02 0.  1.
       -2   -1    0    0    0  501  0.00000000000E+00  0.00000000000E+00 -0.38348149914E+03  0.38348149915E+03  0.25500000920E-02 0. -1.
    10030    2    1    2    0    0  0.00000000000E+00  0.00000000000E+00  0.72227476238E+03  0.14892377607E+04  0.13023625745E+04 0.  0.
        4    1    3    3  502    0 -0.30681168645E+03  0.11170155554E+03 -0.28310985544E+03  0.43216137218E+03  0.12699999809E+01 0. -1.
       -4    1    3    3    0  502  0.30681168645E+03 -0.11170155554E+03  0.10053846178E+04  0.10570763885E+04  0.12699999809E+01 0.  1.
</event>
<event>
 5   0  0.3263679E-04  0.1295650E+04  0.7818609E-02  0.9033022E-01
        1   -1    0    0  501    0  0.00000000000E+00  0.00000000000E+00  0.83178618031E+03  0.83178618033E+03  0.50400001928E-02 0. -1.
       -1   -1    0    0    0  501  0.00000000000E+00  0.00000000000E+00 -0.50454921007E+03  0.50454921010E+03  0.50400001928E-02 0.  1.
    10030    2    1    2    0    0  0.00000000000E+00  0.00000000000E+00  0.32723697024E+03  0.13363353904E+04  0.12956497370E+04 0.  0.
        2    1    3    3  502    0  0.25329165245E+03 -0.37328256639E+03  0.64317096604E+03  0.78559876981E+03  0.25500000920E-02 0. -1.
       -2    1    3    3    0  502 -0.25329165245E+03  0.37328256639E+03 -0.31593399580E+03  0.55073662061E+03  0.25500000920E-02 0.  1.
</event>
<event>
 5   0  0.6007125E-04  0.1298968E+04  0.7818609E-02  0.9030384E-01
       -2   -1    0    0    0  501  0.00000000000E+00  0.00000000000E+00  0.57060212485E+03  0.57060212485E+03  0.25500000920E-02 0. -1.
        2   -1    0    0  501    0  0.00000000000E+00  0.00000000000E+00 -0.73927053818E+03  0.73927053818E+03  0.25500000920E-02 0.  1.
    10030    2    1    2    0    0  0.00000000000E+00  0.00000000000E+00 -0.16866841333E+03  0.13098726630E+04  0.12989678055E+04 0.  0.
        5    1    3    3  502    0 -0.18145613240E+03  0.27626819139E+03 -0.64809539371E+03  0.72753018556E+03  0.46999998093E+01 0.  1.
       -5    1    3    3    0  502  0.18145613240E+03 -0.27626819139E+03  0.47942698038E+03  0.58234247748E+03  0.46999998093E+01 0. -1.
</event>
<event>
 5   0  0.3274879E-04  0.1307532E+04  0.7818609E-02  0.9023614E-01
        1   -1    0    0  501    0  0.00000000000E+00  0.00000000000E+00  0.18963548733E+04  0.18963548733E+04  0.50400001928E-02 0. -1.
       -1   -1    0    0    0  501  0.00000000000E+00  0.00000000000E+00 -0.22538485365E+03  0.22538485371E+03  0.50400001928E-02 0.  1.
    10030    2    1    2    0    0  0.00000000000E+00  0.00000000000E+00  0.16709700196E+04  0.21217397270E+04  0.13075315150E+04 0.  0.
        4    1    3    3  502    0  0.29846502228E+03  0.28756004278E+03  0.16559326474E+04  0.17070110407E+04  0.12699999809E+01 0. -1.
       -4    1    3    3    0  502 -0.29846502228E+03 -0.28756004278E+03  0.15037372255E+02  0.41472868624E+03  0.12699999809E+01 0.  1.
</event>
<event>
 5   0  0.5957913E-04  0.1297039E+04  0.7818609E-02  0.9031917E-01
        2   -1    0    0  501    0  0.00000000000E+00  0.00000000000E+00  0.93221759322E+03  0.93221759323E+03  0.25500000920E-02 0.  1.
       -2   -1    0    0    0  501  0.00000000000E+00  0.00000000000E+00 -0.45115796986E+03  0.45115796986E+03  0.25500000920E-02 0. -1.
    10030    2    1    2    0    0  0.00000000000E+00  0.00000000000E+00  0.48105962337E+03  0.13833755631E+04  0.12970387763E+04 0.  0.
        1    1    3    3  502    0 -0.40396991797E+03 -0.10194708467E+03 -0.28953505249E+03  0.50736126117E+03  0.50400001928E-02 0. -1.
       -1    1    3    3    0  502  0.40396991797E+03  0.10194708467E+03  0.77059467585E+03  0.87601430192E+03  0.50400001928E-02 0.  1.
</event>
<event>
 5   0  0.6007125E-04  0.1277022E+04  0.7818609E-02  0.9047988E-01
        2   -1    0    0  501    0  0.00000000000E+00  0.00000000000E+00  0.56448649797E+03  0.56448649798E+03  0.25500000920E-02 0. -1.
       -2   -1    0    0    0  501  0.00000000000E+00  0.00000000000E+00 -0.72224324308E+03  0.72224324309E+03  0.25500000920E-02 0.  1.
    10030    2    1    2    0    0  0.00000000000E+00  0.00000000000E+00 -0.15775674511E+03  0.12867297411E+04  0.12770224101E+04 0.  0.
        5    1    3    3  502    0 -0.19477688751E+03 -0.32693892380E+03  0.43770525917E+03  0.58003024033E+03  0.46999998093E+01 0. -1.
       -5    1    3    3    0  502  0.19477688751E+03  0.32693892380E+03 -0.59546200428E+03  0.70669950073E+03  0.46999998093E+01 0.  1.
</event>
<event>
 5   0  0.6052864E-04  0.1294373E+04  0.7818609E-02  0.9034040E-01
        2   -1    0    0  501    0  0.00000000000E+00  0.00000000000E+00  0.14339655010E+04  0.14339655010E+04  0.25500000920E-02 0. -1.
       -2   -1    0    0    0  501  0.00000000000E+00  0.00000000000E+00 -0.29209216290E+03  0.29209216291E+03  0.25500000920E-02 0.  1.
    10030    2    1    2    0    0  0.00000000000E+00  0.00000000000E+00  0.11418733381E+04  0.17260576639E+04  0.12943725657E+04 0.  0.
        2    1    3    3  502    0 -0.48189322428E+03 -0.16627544273E+03  0.11026398663E+04  0.12147770484E+04  0.25500000920E-02 0. -1.
       -2    1    3    3    0  502  0.48189322428E+03  0.16627544273E+03  0.39233471723E+02  0.51128061549E+03  0.25500000920E-02 0.  1.
</event>
<event>
 5   0  0.3403833E-04  0.1295493E+04  0.7818609E-02  0.9033147E-01
        1   -1    0    0  501    0  0.00000000000E+00  0.00000000000E+00  0.29956406958E+03  0.29956406962E+03  0.50400001928E-02 0. -1.
       -1   -1    0    0    0  501  0.00000000000E+00  0.00000000000E+00 -0.14006200883E+04  0.14006200883E+04  0.50400001928E-02 0.  1.
    10030    2    1    2    0    0  0.00000000000E+00  0.00000000000E+00 -0.11010560187E+04  0.17001841579E+04  0.12954928848E+04 0.  0.
        1    1    3    3  502    0 -0.59477556655E+03  0.59196110600E+02 -0.22292241671E+03  0.63793146808E+03  0.50400001928E-02 0.  1.
       -1    1    3    3    0  502  0.59477556655E+03 -0.59196110600E+02 -0.87813360198E+03  0.10622526898E+04  0.50400001928E-02 0. -1.
</event>
<event>
 5   0  0.3274879E-04  0.1304544E+04  0.7818609E-02  0.9025970E-01
        1   -1    0    0  501    0  0.00000000000E+00  0.00000000000E+00  0.88135526772E+03  0.88135526774E+03  0.50400001928E-02 0.  1.
       -1   -1    0    0    0  501  0.00000000000E+00  0.00000000000E+00 -0.48273238348E+03  0.48273238351E+03  0.50400001928E-02 0. -1.
    10030    2    1    2    0    0  0.00000000000E+00  0.00000000000E+00  0.39862288424E+03  0.13640876512E+04  0.13045439496E+04 0.  0.
        4    1    3    3  502    0  0.42806601420E+03  0.48476706961E+03  0.11047795400E+03  0.65608430519E+03  0.12699999809E+01 0.  1.
       -4    1    3    3    0  502 -0.42806601420E+03 -0.48476706961E+03  0.28814493024E+03  0.70800334605E+03  0.12699999809E+01 0. -1.
</event>
<event>
 5   0  0.6052864E-04  0.1302806E+04  0.7818609E-02  0.9027343E-01
       -2   -1    0    0    0  501  0.00000000000E+00  0.00000000000E+00  0.25550703453E+03  0.25550703455E+03  0.25500000920E-02 0. -1.
        2   -1    0    0  501    0  0.00000000000E+00  0.00000000000E+00 -0.16607200854E+04  0.16607200854E+04  0.25500000920E-02 0.  1.
    10030    2    1    2    0    0  0.00000000000E+00  0.00000000000E+00 -0.14052130509E+04  0.19162271199E+04  0.13028056865E+04 0.  0.
        2    1    3    3  502    0 -0.54625510296E+03  0.22774908335E+02 -0.18172679743E+03  0.57614057562E+03  0.25500000920E-02 0. -1.
       -2    1    3    3    0  502  0.54625510296E+03 -0.22774908335E+02 -0.12234862534E+04  0.13400865443E+04  0.25500000920E-02 0.  1.
</event>
<event>
 5   0  0.6007125E-04  0.1307508E+04  0.7818609E-02  0.9023633E-01
       -2   -1    0    0    0  501  0.00000000000E+00  0.00000000000E+00  0.48711088396E+03  0.48711088396E+03  0.25500000920E-02 0. -1.
        2   -1    0    0  501    0  0.00000000000E+00  0.00000000000E+00 -0.87740590777E+03  0.87740590777E+03  0.25500000920E-02 0.  1.
    10030    2    1    2    0    0  0.00000000000E+00  0.00000000000E+00 -0.39029502381E+03  0.13645167917E+04  0.13075075026E+04 0.  0.
        5    1    3    3  502    0 -0.62900513015E+03 -0.22657430963E+02 -0.37951697239E+03  0.73499390151E+03  0.46999998093E+01 0. -1.
       -5    1    3    3    0  502  0.62900513015E+03  0.22657430963E+02 -0.10778051427E+02  0.62952289023E+03  0.46999998093E+01 0.  1.
</event>
<event>
 5   0  0.3274879E-04  0.1300836E+04  0.7818609E-02  0.9028902E-01
       -1   -1    0    0    0  501  0.00000000000E+00  0.00000000000E+00  0.63650116123E+03  0.63650116125E+03  0.50400001928E-02 0. -1.
        1   -1    0    0  501    0  0.00000000000E+00  0.00000000000E+00 -0.66463924510E+03  0.66463924512E+03  0.50400001928E-02 0.  1.
    10030    2    1    2    0    0  0.00000000000E+00  0.00000000000E+00 -0.28138083867E+02  0.13011404064E+04  0.13008361178E+04 0.  0.
        4    1    3    3  502    0 -0.40643556063E+03  0.25409263124E+03 -0.45381845500E+03  0.66008009605E+03  0.12699999809E+01 0.  1.
       -4    1    3    3    0  502  0.40643556063E+03 -0.25409263124E+03  0.42568037114E+03  0.64106031032E+03  0.12699999809E+01 0. -1.
</event>
<event>
 5   0  0.3263679E-04  0.1301161E+04  0.7818609E-02  0.9028645E-01
        1   -1    0    0  501    0  0.00000000000E+00  0.00000000000E+00  0.56725980500E+03  0.56725980503E+03  0.50400001928E-02 0.  1.
       -1   -1    0    0    0  501  0.00000000000E+00  0.00000000000E+00 -0.74613938165E+03  0.74613938167E+03  0.50400001928E-02 0. -1.
    10030    2    1    2    0    0  0.00000000000E+00  0.00000000000E+00 -0.17887957664E+03  0.13133991867E+04  0.13011608358E+04 0.  0.
        2    1    3    3  502    0  0.62276113973E+03  0.66588221612E+02  0.88254188342E+02  0.63249840330E+03  0.25500000920E-02 0. -1.
       -2    1    3    3    0  502 -0.62276113973E+03 -0.66588221612E+02 -0.26713376499E+03  0.68090078339E+03  0.25500000920E-02 0.  1.
</event>
<event>
 5   0  0.5787604E-04  0.1298609E+04  0.7818609E-02  0.9030669E-01
        2   -1    0    0  501    0  0.00000000000E+00  0.00000000000E+00  0.76190574313E+03  0.76190574313E+03  0.25500000920E-02 0.  1.
       -2   -1    0    0    0  501  0.00000000000E+00  0.00000000000E+00 -0.55334463609E+03  0.55334463610E+03  0.25500000920E-02 0. -1.
    10030    2    1    2    0    0  0.00000000000E+00  0.00000000000E+00  0.20856110703E+03  0.13152503792E+04  0.12986091886E+04 0.  0.
        4    1    3    3  502    0  0.30684403364E+03  0.26386276722E+03 -0.40998401142E+03  0.57607753248E+03  0.12699999809E+01 0. -1.
       -4    1    3    3    0  502 -0.30684403364E+03 -0.26386276722E+03  0.61854511845E+03  0.73917284675E+03  0.12699999809E+01 0.  1.
</event>
<event>
 5   0  0.3337520E-04  0.1314030E+04  0.7818609E-02  0.9018513E-01
       -1   -1    0    0    0  501  0.00000000000E+00  0.00000000000E+00  0.29170898743E+03  0.29170898747E+03  0.50400001928E-02 0. -1.
        1   -1    0    0  501    0  0.00000000000E+00  0.00000000000E+00 -0.14797915053E+04  0.14797915053E+04  0.50400001928E-02 0.  1.
    10030    2    1    2    0    0  0.00000000000E+00  0.00000000000E+00 -0.11880825178E+04  0.17715004927E+04  0.13140296521E+04 0.  0.
        5    1    3    3  502    0  0.25656365975E+03  0.29227510416E+03  0.11983443411E+03  0.40697915132E+03  0.46999998093E+01 0. -1.
       -5    1    3    3    0  502 -0.25656365975E+03 -0.29227510416E+03 -0.13079169519E+04  0.13645213414E+04  0.46999998093E+01 0.  1.
</event>
<event>
 5   0  0.5787604E-04  0.1301950E+04  0.7818609E-02  0.9028020E-01
        2   -1    0    0  501    0  0.00000000000E+00  0.00000000000E+00  0.10238858896E+04  0.10238858896E+04  0.25500000920E-02 0.  1.
       -2   -1    0    0    0  501  0.00000000000E+00  0.00000000000E+00 -0.41388234759E+03  0.41388234760E+03  0.25500000920E-02 0. -1.
    10030    2    1    2    0    0  0.00000000000E+00  0.00000000000E+00  0.61000354196E+03  0.14377682371E+04  0.13019497619E+04 0.  0.
        4    1    3    3  502    0 -0.60133117684E+03 -0.20983478873E+03  0.45372393912E+03  0.78198263959E+03  0.12699999809E+01 0. -1.
       -4    1    3    3    0  502  0.60133117684E+03  0.20983478873E+03  0.15627960285E+03  0.65578559756E+03  0.12699999809E+01 0.  1.
</event>
<event>
 5   0  0.5787604E-04  0.1325624E+04  0.7818609E-02  0.9009488E-01
       -2   -1    0    0    0  501  0.00000000000E+00  0.00000000000E+00  0.67104086291E+03  0.67104086292E+03  0.25500000920E-02 0. -1.
        2   -1    0    0  501    0  0.00000000000E+00  0.00000000000E+00 -0.65468420459E+03  0.65468420460E+03  0.25500000920E-02 0.  1.
    10030    2    1    2    0    0  0.00000000000E+00  0.00000000000E+00  0.16356658319E+02  0.13257250675E+04  0.13256241603E+04 0.  0.
        4    1    3    3  502    0  0.49004554649E+03 -0.42890009914E+03  0.13155022608E+03  0.66438468342E+03  0.12699999809E+01 0. -1.
       -4    1    3    3    0  502 -0.49004554649E+03  0.42890009914E+03 -0.11519356777E+03  0.66134038410E+03  0.12699999809E+01 0.  1.
</event>
<event>
 5   0  0.5384960E-04  0.1296865E+04  0.7818609E-02  0.9032055E-01
       -2   -1    0    0    0  501  0.00000000000E+00  0.00000000000E+00  0.47727683684E+03  0.47727683684E+03  0.25500000920E-02 0. -1.
        2   -1    0    0  501    0  0.00000000000E+00  0.00000000000E+00 -0.88096613406E+03  0.88096613406E+03  0.25500000920E-02 0.  1.
    10030    2    1    2    0    0  0.00000000000E+00  0.00000000000E+00 -0.40368929722E+03  0.13582429709E+04  0.12968650351E+04 0.  0.
        3    1    3    3  502    0  0.59109965738E+03  0.12633143691E+03 -0.44770202500E+03  0.75219382495E+03  0.10100000352E+00 0. -1.
       -3    1    3    3    0  502 -0.59109965738E+03 -0.12633143691E+03  0.44012727780E+02  0.60604914595E+03  0.10100000352E+00 0.  1.
</event>
<event>
 5   0  0.3263679E-04  0.1297862E+04  0.7818609E-02  0.9031262E-01
        1   -1    0    0  501    0  0.00000000000E+00  0.00000000000E+00  0.78515771653E+03  0.78515771654E+03  0.50400001928E-02 0. -1.
       -1   -1    0    0    0  501  0.00000000000E+00  0.00000000000E+00 -0.53634011327E+03  0.53634011330E+03  0.50400001928E-02 0.  1.
    10030    2    1    2    0    0  0.00000000000E+00  0.00000000000E+00  0.24881760325E+03  0.13214978298E+04  0.12978622094E+04 0.  0.
        2    1    3    3  502    0 -0.22932223536E+03 -0.42862950609E+03  0.56212077309E+03  0.74316330955E+03  0.25500000920E-02 0. -1.
       -2    1    3    3    0  502  0.22932223536E+03  0.42862950609E+03 -0.31330316984E+03  0.57833452029E+03  0.25500000920E-02 0.  1.
</event>
<event>
 5   0  0.3274879E-04  0.1300161E+04  0.7818609E-02  0.9029438E-01
       -1   -1    0    0    0  501  0.00000000000E+00  0.00000000000E+00  0.32010458526E+03  0.32010458530E+03  0.50400001928E-02 0.  1.
        1   -1    0    0  501    0  0.00000000000E+00  0.00000000000E+00 -0.13202075814E+04  0.13202075814E+04  0.50400001928E-02 0. -1.
    10030    2    1    2    0    0  0.00000000000E+00  0.00000000000E+00 -0.10001029962E+04  0.16403121667E+04  0.13001607598E+04 0.  0.
        4    1    3    3  502    0  0.31670353248E+03  0.51034427901E+03 -0.81381395558E+03  0.10114579466E+04  0.12699999809E+01 0. -1.
       -4    1    3    3    0  502 -0.31670353248E+03 -0.51034427901E+03 -0.18628904058E+03  0.62885422010E+03  0.12699999809E+01 0.  1.
</event>
<event>
 5   0  0.3337520E-04  0.1299898E+04  0.7818609E-02  0.9029646E-01
       -1   -1    0    0    0  501  0.00000000000E+00  0.00000000000E+00  0.50911954230E+03  0.50911954232E+03  0.50400001928E-02 0. -1.
        1   -1    0    0  501    0  0.00000000000E+00  0.00000000000E+00 -0.82973377821E+03  0.82973377822E+03  0.50400001928E-02 0.  1.
    10030    2    1    2    0    0  0.00000000000E+00  0.00000000000E+00 -0.32061423591E+03  0.13388533205E+04  0.12998979674E+04 0.  0.
        5    1    3    3  502    0 -0.42438914258E+02  0.90559750124E+02 -0.82174344847E+03  0.82782033974E+03  0.46999998093E+01 0.  1.
       -5    1    3    3    0  502  0.42438914258E+02 -0.90559750124E+02  0.50112921256E+03  0.51103298080E+03  0.46999998093E+01 0. -1.
</event>
<event>
 5   0  0.5957913E-04  0.1297554E+04  0.7818609E-02  0.9031507E-01
       -2   -1    0    0    0  501  0.00000000000E+00  0.00000000000E+00  0.46126162886E+03  0.46126162887E+03  0.25500000920E-02 0. -1.
        2   -1    0    0  501    0  0.00000000000E+00  0.00000000000E+00 -0.91252286916E+03  0.91252286917E+03  0.25500000920E-02 0.  1.
    10030    2    1    2    0    0  0.00000000000E+00  0.00000000000E+00 -0.45126124030E+03  0.13737844980E+04  0.12975542918E+04 0.  0.
        1    1    3    3  502    0  0.52854366377E+03  0.37499876784E+03 -0.25790605598E+03  0.69749409613E+03  0.50400001928E-02 0.  1.
       -1    1    3    3    0  502 -0.52854366377E+03 -0.37499876784E+03 -0.19335518432E+03  0.67629040191E+03  0.50400001928E-02 0. -1.
</event>
<event>
 5   0  0.6007125E-04  0.1296716E+04  0.7818609E-02  0.9032173E-01
       -2   -1    0    0    0  501  0.00000000000E+00  0.00000000000E+00  0.19100527623E+03  0.19100527625E+03  0.25500000920E-02 0.  1.
        2   -1    0    0  501    0  0.00000000000E+00  0.00000000000E+00 -0.22008192205E+04  0.22008192205E+04  0.25500000920E-02 0. -1.
    10030    2    1    2    0    0  0.00000000000E+00  0.00000000000E+00 -0.20098139442E+04  0.23918244967E+04  0.12967159800E+04 0.  0.
        5    1    3    3  502    0 -0.39248332963E+01 -0.23299433413E+03  0.11105971053E+03  0.25818232580E+03  0.46999998093E+01 0.  1.
       -5    1    3    3    0  502  0.39248332963E+01  0.23299433413E+03 -0.21208736548E+04  0.21336421709E+04  0.46999998093E+01 0. -1.
</event>
<event>
 5   0  0.5787604E-04  0.1303326E+04  0.7818609E-02  0.9026932E-01
       -2   -1    0    0    0  501  0.00000000000E+00  0.00000000000E+00  0.61587493427E+03  0.61587493427E+03  0.25500000920E-02 0.  1.
        2   -1    0    0  501    0  0.00000000000E+00  0.00000000000E+00 -0.68953021846E+03  0.68953021846E+03  0.25500000920E-02 0. -1.
    10030    2    1    2    0    0  0.00000000000E+00  0.00000000000E+00 -0.73655284187E+02  0.13054051527E+04  0.13033255587E+04 0.  0.
        4    1    3    3  502    0 -0.28981345973E+03  0.14624260797E+03 -0.60278147336E+03  0.68463556682E+03  0.12699999809E+01 0. -1.
       -4    1    3    3    0  502  0.28981345973E+03 -0.14624260797E+03  0.52912618917E+03  0.62076958591E+03  0.12699999809E+01 0.  1.
</event>
<event>
 5   0  0.3337520E-04  0.1256235E+04  0.7818609E-02  0.9065010E-01
        1   -1    0    0  501    0  0.00000000000E+00  0.00000000000E+00  0.37851543183E+03  0.37851543186E+03  0.50400001928E-02 0.  1.
       -1   -1    0    0    0  501  0.00000000000E+00  0.00000000000E+00 -0.10423133820E+04  0.10423133821E+04  0.50400001928E-02 0. -1.
    10030    2    1    2    0    0  0.00000000000E+00  0.00000000000E+00 -0.66379795021E+03  0.14208288139E+04  0.12562351690E+04 0.  0.
        5    1    3    3  502    0  0.28120819774E+03 -0.48541789830E+03 -0.65140204767E+03  0.85968325805E+03  0.46999998093E+01 0. -1.
       -5    1    3    3    0  502 -0.28120819774E+03  0.48541789830E+03 -0.12395902540E+02  0.56114555586E+03  0.46999998093E+01 0.  1.
</event>
<event>
 5   0  0.3403833E-04  0.1297416E+04  0.7818609E-02  0.9031617E-01
        1   -1    0    0  501    0  0.00000000000E+00  0.00000000000E+00  0.50365923001E+03  0.50365923003E+03  0.50400001928E-02 0.  1.
       -1   -1    0    0    0  501  0.00000000000E+00  0.00000000000E+00 -0.83552935044E+03  0.83552935046E+03  0.50400001928E-02 0. -1.
    10030    2    1    2    0    0  0.00000000000E+00  0.00000000000E+00 -0.33187012044E+03  0.13391885805E+04  0.12974160001E+04 0.  0.
        1    1    3    3  502    0  0.13816939969E+03  0.28016427853E+03 -0.75278159169E+03  0.81502327009E+03  0.50400001928E-02 0. -1.
       -1    1    3    3    0  502 -0.13816939969E+03 -0.28016427853E+03  0.42091147125E+03  0.52416531040E+03  0.50400001928E-02 0.  1.
</event>
<event>
 5   0  0.2255875E-04  0.1311194E+04  0.7818609E-02  0.9020735E-01
       -4   -1    0    0    0  501  0.00000000000E+00  0.00000000000E+00  0.42542291344E+03  0.42542480908E+03  0.12699999809E+01 0. -1.
        4   -1    0    0  501    0  0.00000000000E+00  0.00000000000E+00 -0.10103023749E+04  0.10103031731E+04  0.12699999809E+01 0.  1.
    10030    2    1    2    0    0  0.00000000000E+00  0.00000000000E+00 -0.58487946143E+03  0.14357279822E+04  0.13111944381E+04 0.  0.
        5    1    3    3  502    0  0.35589876497E+03 -0.54850927891E+03 -0.24039359104E+03  0.69666170311E+03  0.46999998093E+01 0. -1.
       -5    1    3    3    0  502 -0.35589876497E+03  0.54850927891E+03 -0.34448587039E+03  0.73906627907E+03  0.46999998093E+01 0.  1.
</event>
<event>
 5   0  0.3263679E-04  0.1306067E+04  0.7818609E-02  0.9024768E-01
       -1   -1    0    0    0  501  0.00000000000E+00  0.00000000000E+00  0.33153509136E+03  0.33153509140E+03  0.50400001928E-02 0. -1.
        1   -1    0    0  501    0  0.00000000000E+00  0.00000000000E+00 -0.12862980136E+04  0.12862980136E+04  0.50400001928E-02 0.  1.
    10030    2    1    2    0    0  0.00000000000E+00  0.00000000000E+00 -0.95476292221E+03  0.16178331050E+04  0.13060672716E+04 0.  0.
        2    1    3    3  502    0 -0.64349943788E+02 -0.15614144716E+03 -0.12587798809E+04  0.12700582094E+04  0.25500000920E-02 0.  1.
       -2    1    3    3    0  502  0.64349943788E+02  0.15614144716E+03  0.30401695869E+03  0.34777489554E+03  0.25500000920E-02 0. -1.
</event>
<event>
 5   0  0.3335747E-04  0.1301023E+04  0.7818609E-02  0.9028754E-01
        1   -1    0    0  501    0  0.00000000000E+00  0.00000000000E+00  0.56298463308E+03  0.56298463311E+03  0.50400001928E-02 0. -1.
       -1   -1    0    0    0  501  0.00000000000E+00  0.00000000000E+00 -0.75164644162E+03  0.75164644164E+03  0.50400001928E-02 0.  1.
    10030    2    1    2    0    0  0.00000000000E+00  0.00000000000E+00 -0.18866180854E+03  0.13146310747E+04  0.13010232837E+04 0.  0.
        3    1    3    3  502    0 -0.63474641789E+03 -0.10251360971E+03  0.54609979631E+01  0.64299446957E+03  0.10100000352E+00 0.  1.
       -3    1    3    3    0  502  0.63474641789E+03  0.10251360971E+03 -0.19412280650E+03  0.67163660517E+03  0.10100000352E+00 0. -1.
</event>
<event>
 5   0  0.5957913E-04  0.1304148E+04  0.7818609E-02  0.9026283E-01
       -2   -1    0    0    0  501  0.00000000000E+00  0.00000000000E+00  0.21777235242E+03  0.21777235243E+03  0.25500000920E-02 0. -1.
        2   -1    0    0  501    0  0.00000000000E+00  0.00000000000E+00 -0.19524984967E+04  0.19524984967E+04  0.25500000920E-02 0.  1.
    10030    2    1    2    0    0  0.00000000000E+00  0.00000000000E+00 -0.17347261443E+04  0.21702708491E+04  0.13041475235E+04 0.  0.
        1    1    3    3  502    0 -0.11876574667E+03 -0.29236810068E+03 -0.18169613953E+04  0.18441619020E+04  0.50400001928E-02 0.  1.
       -1    1    3    3    0  502  0.11876574667E+03  0.29236810068E+03  0.82235250979E+02  0.32610894714E+03  0.50400001928E-02 0. -1.
</event>
<event>
 5   0  0.3263679E-04  0.1302718E+04  0.7818609E-02  0.9027413E-01
        1   -1    0    0  501    0  0.00000000000E+00  0.00000000000E+00  0.65210563957E+03  0.65210563959E+03  0.50400001928E-02 0.  1.
       -1   -1    0    0    0  501  0.00000000000E+00  0.00000000000E+00 -0.65061323110E+03  0.65061323112E+03  0.50400001928E-02 0. -1.
    10030    2    1    2    0    0  0.00000000000E+00  0.00000000000E+00  0.14924084671E+01  0.13027188707E+04  0.13027180158E+04 0.  0.
        2    1    3    3  502    0 -0.37264750290E+03  0.67726464113E+02 -0.52917444113E+03  0.65075235268E+03  0.25500000920E-02 0. -1.
       -2    1    3    3    0  502  0.37264750290E+03 -0.67726464113E+02  0.53066684960E+03  0.65196651803E+03  0.25500000920E-02 0.  1.
</event>
<event>
 5   0  0.3274879E-04  0.1301340E+04  0.7818609E-02  0.9028503E-01
       -1   -1    0    0    0  501  0.00000000000E+00  0.00000000000E+00  0.30398155523E+03  0.30398155527E+03  0.50400001928E-02 0.  1.
        1   -1    0    0  501    0  0.00000000000E+00  0.00000000000E+00 -0.13927543776E+04  0.13927543776E+04  0.50400001928E-02 0. -1.
    10030    2    1    2    0    0  0.00000000000E+00  0.00000000000E+00 -0.10887728224E+04  0.16967359329E+04  0.13013402965E+04 0.  0.
        4    1    3    3  502    0  0.17941060139E+03 -0.26734852513E+03  0.19283714109E+03  0.37530144373E+03  0.12699999809E+01 0.  1.
       -4    1    3    3    0  502 -0.17941060139E+03  0.26734852513E+03 -0.12816099635E+04  0.13214344892E+04  0.12699999809E+01 0. -1.
</event>
<event>
 5   0  0.5787604E-04  0.1299598E+04  0.7818609E-02  0.9029884E-01
       -2   -1    0    0    0  501  0.00000000000E+00  0.00000000000E+00  0.35645799561E+03  0.35645799562E+03  0.25500000920E-02 0. -1.
        2   -1    0    0  501    0  0.00000000000E+00  0.00000000000E+00 -0.11845396689E+04  0.11845396689E+04  0.25500000920E-02 0.  1.
    10030    2    1    2    0    0  0.00000000000E+00  0.00000000000E+00 -0.82808167326E+03  0.15409976645E+04  0.12995978395E+04 0.  0.
        4    1    3    3  502    0 -0.64081268936E+03  0.59649062469E+02 -0.52034981983E+03  0.82762579793E+03  0.12699999809E+01 0.  1.
       -4    1    3    3    0  502  0.64081268936E+03 -0.59649062469E+02 -0.30773185343E+03  0.71337186657E+03  0.12699999809E+01 0. -1.
</event>
<event>
 5   0  0.3337520E-04  0.1301322E+04  0.7818609E-02  0.9028518E-01
       -1   -1    0    0    0  501  0.00000000000E+00  0.00000000000E+00  0.58164188583E+03  0.58164188585E+03  0.50400001928E-02 0.  1.
        1   -1    0    0  501    0  0.00000000000E+00  0.00000000000E+00 -0.72786989092E+03  0.72786989094E+03  0.50400001928E-02 0. -1.
    10030    2    1    2    0    0  0.00000000000E+00  0.00000000000E+00 -0.14622800510E+03  0.13095117768E+04  0.13013218142E+04 0.  0.
        5    1    3    3  502    0  0.21922430502E+03 -0.45036062977E+03 -0.49100281725E+03  0.70141988089E+03  0.46999998093E+01 0. -1.
       -5    1    3    3    0  502 -0.21922430502E+03  0.45036062977E+03  0.34477481216E+03  0.60809189590E+03  0.46999998093E+01 0.  1.
</event>
<event>
 5   0  0.3337520E-04  0.1300472E+04  0.7818609E-02  0.9029191E-01
       -1   -1    0    0    0  501  0.00000000000E+00  0.00000000000E+00  0.46122765202E+03  0.46122765205E+03  0.50400001928E-02 0.  1.
        1   -1    0    0  501    0  0.00000000000E+00  0.00000000000E+00 -0.91669853839E+03  0.91669853841E+03  0.50400001928E-02 0. -1.
    10030    2    1    2    0    0  0.00000000000E+00  0.00000000000E+00 -0.45547088638E+03  0.13779261905E+04  0.13004717829E+04 0.  0.
        5    1    3    3  502    0 -0.31977196888E+03 -0.14861126678E+03 -0.80657382853E+03  0.88029702463E+03  0.46999998093E+01 0. -1.
       -5    1    3    3    0  502  0.31977196888E+03  0.14861126678E+03  0.35110294216E+03  0.49762916583E+03  0.46999998093E+01 0.  1.
</event>
<event>
 5   0  0.3263679E-04  0.1297018E+04  0.7818609E-02  0.9031933E-01
        1   -1    0    0  501    0  0.00000000000E+00  0.00000000000E+00  0.10171626479E+04  0.10171626479E+04  0.50400001928E-02 0. -1.
       -1   -1    0    0    0  501  0.00000000000E+00  0.00000000000E+00 -0.41346776195E+03  0.41346776198E+03  0.50400001928E-02 0.  1.
    10030    2    1    2    0    0  0.00000000000E+00  0.00000000000E+00  0.60369488590E+03  0.14306304098E+04  0.12970180624E+04 0.  0.
        2    1    3    3  502    0  0.39394394241E+03  0.19010930455E+03 -0.22625443342E+03  0.49246771070E+03  0.25500000920E-02 0.  1.
       -2    1    3    3    0  502 -0.39394394241E+03 -0.19010930455E+03  0.82994931932E+03  0.93816269915E+03  0.25500000920E-02 0. -1.
</event>
<event>
 5   0  0.5957913E-04  0.1305449E+04  0.7818609E-02  0.9025256E-01
        2   -1    0    0  501    0  0.00000000000E+00  0.00000000000E+00  0.23465105638E+04  0.23465105638E+04  0.25500000920E-02 0.  1.
       -2   -1    0    0    0  501  0.00000000000E+00  0.00000000000E+00 -0.18156704023E+03  0.18156704024E+03  0.25500000920E-02 0. -1.
    10030    2    1    2    0    0  0.00000000000E+00  0.00000000000E+00  0.21649435236E+04  0.25280776041E+04  0.13054485481E+04 0.  0.
        1    1    3    3  502    0 -0.48269121350E+03  0.39521992695E+03  0.14542677102E+04  0.15824298314E+04  0.50400001928E-02 0.  1.
       -1    1    3    3    0  502  0.48269121350E+03 -0.39521992695E+03  0.71067581339E+03  0.94564777270E+03  0.50400001928E-02 0. -1.
</event>
<event>
 5   0  0.3263679E-04  0.1303855E+04  0.7818609E-02  0.9026514E-01
       -1   -1    0    0    0  501  0.00000000000E+00  0.00000000000E+00  0.67656028599E+03  0.67656028601E+03  0.50400001928E-02 0. -1.
        1   -1    0    0  501    0  0.00000000000E+00  0.00000000000E+00 -0.62819131228E+03  0.62819131230E+03  0.50400001928E-02 0.  1.
    10030    2    1    2    0    0  0.00000000000E+00  0.00000000000E+00  0.48368973703E+02  0.13047515983E+04  0.13038547372E+04 0.  0.
        2    1    3    3  502    0  0.39188605917E+03  0.19171435343E+03  0.50895575200E+03  0.67034695060E+03  0.25500000920E-02 0. -1.
       -2    1    3    3    0  502 -0.39188605917E+03 -0.19171435343E+03 -0.46058677830E+03  0.63440464771E+03  0.25500000920E-02 0.  1.
</event>
<event>
 5   0  0.5957913E-04  0.1300148E+04  0.7818609E-02  0.9029448E-01
        2   -1    0    0  501    0  0.00000000000E+00  0.00000000000E+00  0.20081520382E+04  0.20081520382E+04  0.25500000920E-02 0. -1.
       -2   -1    0    0    0  501  0.00000000000E+00  0.00000000000E+00 -0.21044034675E+03  0.21044034676E+03  0.25500000920E-02 0.  1.
    10030    2    1    2    0    0  0.00000000000E+00  0.00000000000E+00  0.17977116914E+04  0.22185923850E+04  0.13001480089E+04 0.  0.
        1    1    3    3  502    0 -0.15982623775E+03  0.41352029026E+03  0.87540623500E+02  0.45189248447E+03  0.50400001928E-02 0.  1.
       -1    1    3    3    0  502  0.15982623775E+03 -0.41352029026E+03  0.17101710679E+04  0.17666999005E+04  0.50400001928E-02 0. -1.
</event>
<event>
 5   0  0.5384960E-04  0.1288593E+04  0.7818609E-02  0.9038660E-01
       -2   -1    0    0    0  501  0.00000000000E+00  0.00000000000E+00  0.74584626282E+03  0.74584626282E+03  0.25500000920E-02 0.  1.
        2   -1    0    0  501    0  0.00000000000E+00  0.00000000000E+00 -0.55657301419E+03  0.55657301419E+03  0.25500000920E-02 0. -1.
    10030    2    1    2    0    0  0.00000000000E+00  0.00000000000E+00  0.18927324863E+03  0.13024192770E+04  0.12885928800E+04 0.  0.
        3    1    3    3  502    0 -0.19229948350E+02 -0.35576349355E+03  0.63722106651E+03  0.73006037563E+03  0.10100000352E+00 0.  1.
       -3    1    3    3    0  502  0.19229948350E+02  0.35576349355E+03 -0.44794781788E+03  0.57235890139E+03  0.10100000352E+00 0. -1.
</event>
<event>
 5   0  0.5384960E-04  0.1309559E+04  0.7818609E-02  0.9022019E-01
        2   -1    0    0  501    0  0.00000000000E+00  0.00000000000E+00  0.19499618474E+04  0.19499618474E+04  0.25500000920E-02 0.  1.
       -2   -1    0    0    0  501  0.00000000000E+00  0.00000000000E+00 -0.21986888309E+03  0.21986888310E+03  0.25500000920E-02 0. -1.
    10030    2    1    2    0    0  0.00000000000E+00  0.00000000000E+00  0.17300929643E+04  0.21698307305E+04  0.13095586027E+04 0.  0.
        3    1    3    3  502    0  0.21891460448E+03  0.58374363338E+03  0.53343235415E+03  0.82050613661E+03  0.10100000352E+00 0. -1.
       -3    1    3    3    0  502 -0.21891460448E+03 -0.58374363338E+03  0.11966606102E+04  0.13493245939E+04  0.10100000352E+00 0.  1.
</event>
<event>
 5   0  0.3403833E-04  0.1303372E+04  0.7818609E-02  0.9026895E-01
        1   -1    0    0  501    0  0.00000000000E+00  0.00000000000E+00  0.81299762677E+03  0.81299762678E+03  0.50400001928E-02 0.  1.
       -1   -1    0    0    0  501  0.00000000000E+00  0.00000000000E+00 -0.52238145157E+03  0.52238145159E+03  0.50400001928E-02 0. -1.
    10030    2    1    2    0    0  0.00000000000E+00  0.00000000000E+00  0.29061617520E+03  0.13353790784E+04  0.13033723649E+04 0.  0.
        1    1    3    3  502    0  0.34500692072E+03  0.35093123363E+03 -0.29239762698E+03  0.57243242254E+03  0.50400001928E-02 0. -1.
       -1    1    3    3    0  502 -0.34500692072E+03 -0.35093123363E+03  0.58301380218E+03  0.76294665583E+03  0.50400001928E-02 0.  1.
</event>
<event>
 5   0  0.3335747E-04  0.1297794E+04  0.7818609E-02  0.9031316E-01
        1   -1    0    0  501    0  0.00000000000E+00  0.00000000000E+00  0.57821286172E+03  0.57821286174E+03  0.50400001928E-02 0.  1.
       -1   -1    0    0    0  501  0.00000000000E+00  0.00000000000E+00 -0.72822191329E+03  0.72822191331E+03  0.50400001928E-02 0. -1.
    10030    2    1    2    0    0  0.00000000000E+00  0.00000000000E+00 -0.15000905157E+03  0.13064347751E+04  0.12977939382E+04 0.  0.
        3    1    3    3  502    0  0.46029483284E+03 -0.38693934996E+03  0.17049185833E+03  0.62502870146E+03  0.10100000352E+00 0.  1.
       -3    1    3    3    0  502 -0.46029483284E+03  0.38693934996E+03 -0.32050090990E+03  0.68140607360E+03  0.10100000352E+00 0. -1.
</event>
<event>
 5   0  0.5384960E-04  0.1260479E+04  0.7818609E-02  0.9061506E-01
        2   -1    0    0  501    0  0.00000000000E+00  0.00000000000E+00  0.65033755496E+03  0.65033755497E+03  0.25500000920E-02 0. -1.
       -2   -1    0    0    0  501  0.00000000000E+00  0.00000000000E+00 -0.61076280310E+03  0.61076280310E+03  0.25500000920E-02 0.  1.
    10030    2    1    2    0    0  0.00000000000E+00  0.00000000000E+00  0.39574751868E+02  0.12611003581E+04  0.12604792549E+04 0.  0.
        3    1    3    3  502    0 -0.52592845378E+03 -0.12751266817E+03 -0.30339154240E+03  0.62040846000E+03  0.10100000352E+00 0.  1.
       -3    1    3    3    0  502  0.52592845378E+03  0.12751266817E+03  0.34296629427E+03  0.64069189807E+03  0.10100000352E+00 0. -1.
</event>
<event>
 5   0  0.3337520E-04  0.1315301E+04  0.7818609E-02  0.9017518E-01
        1   -1    0    0  501    0  0.00000000000E+00  0.00000000000E+00  0.38900419464E+03  0.38900419468E+03  0.50400001928E-02 0. -1.
       -1   -1    0    0    0  501  0.00000000000E+00  0.00000000000E+00 -0.11118244157E+04  0.11118244158E+04  0.50400001928E-02 0.  1.
    10030    2    1    2    0    0  0.00000000000E+00  0.00000000000E+00 -0.72282022110E+03  0.15008286104E+04  0.13153012757E+04 0.  0.
        5    1    3    3  502    0 -0.65217374944E+03 -0.11166393741E+02 -0.45706129017E+03  0.79648126204E+03  0.46999998093E+01 0.  1.
       -5    1    3    3    0  502  0.65217374944E+03  0.11166393741E+02 -0.26575893093E+03  0.70434734839E+03  0.46999998093E+01 0. -1.
</event>
<event>
 5   0  0.6052864E-04  0.1289699E+04  0.7818609E-02  0.9037774E-01
        2   -1    0    0  501    0  0.00000000000E+00  0.00000000000E+00  0.22162604703E+04  0.22162604703E+04  0.25500000920E-02 0.  1.
       -2   -1    0    0    0  501  0.00000000000E+00  0.00000000000E+00 -0.18762715070E+03  0.18762715072E+03  0.25500000920E-02 0. -1.
    10030    2    1    2    0    0  0.00000000000E+00  0.00000000000E+00  0.20286333196E+04  0.24038876210E+04  0.12896986272E+04 0.  0.
        2    1    3    3  502    0  0.47392579011E+03  0.12003531984E+03  0.23054902768E+03  0.54052473275E+03  0.25500000920E-02 0. -1.
       -2    1    3    3    0  502 -0.47392579011E+03 -0.12003531984E+03  0.17980842919E+04  0.18633628882E+04  0.25500000920E-02 0.  1.
</event>
<event>
 5   0  0.3403833E-04  0.1300816E+04  0.7818609E-02  0.9028918E-01
       -1   -1    0    0    0  501  0.00000000000E+00  0.00000000000E+00  0.45520422157E+03  0.45520422160E+03  0.50400001928E-02 0.  1.
        1   -1    0    0  501    0  0.00000000000E+00  0.00000000000E+00 -0.92932065503E+03  0.92932065504E+03  0.50400001928E-02 0. -1.
    10030    2    1    2    0    0  0.00000000000E+00  0.00000000000E+00 -0.47411643346E+03  0.13845248766E+04  0.13008161828E+04 0.  0.
        1    1    3    3  502    0 -0.13190393293E+03  0.60524938622E+03 -0.26044863610E+02  0.62000306611E+03  0.50400001928E-02 0.  1.
       -1    1    3    3    0  502  0.13190393293E+03 -0.60524938622E+03 -0.44807156985E+03  0.76452181053E+03  0.50400001928E-02 0. -1.
</event>
<event>
 5   0  0.3403833E-04  0.1300677E+04  0.7818609E-02  0.9029029E-01
        1   -1    0    0  501    0  0.00000000000E+00  0.00000000000E+00  0.10340305254E+04  0.10340305254E+04  0.50400001928E-02 0.  1.
       -1   -1    0    0    0  501  0.00000000000E+00  0.00000000000E+00 -0.40902075355E+03  0.40902075358E+03  0.50400001928E-02 0. -1.
    10030    2    1    2    0    0  0.00000000000E+00  0.00000000000E+00  0.62500977181E+03  0.14430512790E+04  0.13006766619E+04 0.  0.
        1    1    3    3  502    0 -0.26005134844E+03 -0.24480009135E+03  0.91549124147E+03  0.98268916845E+03  0.50400001928E-02 0.  1.
       -1    1    3    3    0  502  0.26005134844E+03  0.24480009135E+03 -0.29048146966E+03  0.46036211051E+03  0.50400001928E-02 0. -1.
</event>
<event>
 5   0  0.3263679E-04  0.1310215E+04  0.7818609E-02  0.9021504E-01
        1   -1    0    0  501    0  0.00000000000E+00  0.00000000000E+00  0.23943971191E+04  0.23943971191E+04  0.50400001928E-02 0.  1.
       -1   -1    0    0    0  501  0.00000000000E+00  0.00000000000E+00 -0.17923751575E+03  0.17923751582E+03  0.50400001928E-02 0. -1.
    10030    2    1    2    0    0  0.00000000000E+00  0.00000000000E+00  0.22151596033E+04  0.25736346349E+04  0.13102149311E+04 0.  0.
        2    1    3    3  502    0  0.52215018890E+03  0.82835396786E+02  0.34767014877E+03  0.63275355003E+03  0.25500000920E-02 0. -1.
       -2    1    3    3    0  502 -0.52215018890E+03 -0.82835396786E+02  0.18674894545E+04  0.19408810849E+04  0.25500000920E-02 0.  1.
</event>
<event>
 5   0  0.5787604E-04  0.1291961E+04  0.7818609E-02  0.9035965E-01
       -2   -1    0    0    0  501  0.00000000000E+00  0.00000000000E+00  0.26763089592E+03  0.26763089593E+03  0.25500000920E-02 0. -1.
        2   -1    0    0  501    0  0.00000000000E+00  0.00000000000E+00 -0.15592016690E+04  0.15592016690E+04  0.25500000920E-02 0.  1.
    10030    2    1    2    0    0  0.00000000000E+00  0.00000000000E+00 -0.12915707731E+04  0.18268325649E+04  0.12919605870E+04 0.  0.
        4    1    3    3  502    0  0.98058775300E+02  0.20072691618E+03 -0.15028399677E+04  0.15193539416E+04  0.12699999809E+01 0.  1.
       -4    1    3    3    0  502 -0.98058775300E+02 -0.20072691618E+03  0.21126919467E+03  0.30747862334E+03  0.12699999809E+01 0. -1.
</event>
<event>
 5   0  0.3335747E-04  0.1311781E+04  0.7818609E-02  0.9020275E-01
        1   -1    0    0  501    0  0.00000000000E+00  0.00000000000E+00  0.60626530214E+03  0.60626530216E+03  0.50400001928E-02 0. -1.
       -1   -1    0    0    0  501  0.00000000000E+00  0.00000000000E+00 -0.70957732198E+03  0.70957732199E+03  0.50400001928E-02 0.  1.
    10030    2    1    2    0    0  0.00000000000E+00  0.00000000000E+00 -0.10331201984E+03  0.13158426242E+04  0.13117806364E+04 0.  0.
        3    1    3    3  502    0  0.41406977392E+03  0.41352250601E+03  0.24546629810E+03  0.63459306201E+03  0.10100000352E+00 0. -1.
       -3    1    3    3    0  502 -0.41406977392E+03 -0.41352250601E+03 -0.34877831794E+03  0.68124956214E+03  0.10100000352E+00 0.  1.
</event>
<event>
 5   0  0.3337520E-04  0.1286364E+04  0.7818609E-02  0.9040449E-01
       -1   -1    0    0    0  501  0.00000000000E+00  0.00000000000E+00  0.92947434835E+03  0.92947434836E+03  0.50400001928E-02 0. -1.
        1   -1    0    0  501    0  0.00000000000E+00  0.00000000000E+00 -0.44507200254E+03  0.44507200257E+03  0.50400001928E-02 0.  1.
    10030    2    1    2    0    0  0.00000000000E+00  0.00000000000E+00  0.48440234581E+03  0.13745463509E+04  0.12863638825E+04 0.  0.
        5    1    3    3  502    0 -0.27217915921E+03  0.62195360315E+02 -0.37692397118E+03  0.46908797427E+03  0.46999998093E+01 0.  1.
       -5    1    3    3    0  502  0.27217915921E+03 -0.62195360315E+02  0.86132631699E+03  0.90545837667E+03  0.46999998093E+01 0. -1.
</event>
<event>
 5   0  0.3263679E-04  0.1303933E+04  0.7818609E-02  0.9026452E-01
       -1   -1    0    0    0  501  0.00000000000E+00  0.00000000000E+00  0.68496653480E+03  0.68496653482E+03  0.50400001928E-02 0. -1.
        1   -1    0    0  501    0  0.00000000000E+00  0.00000000000E+00 -0.62055599000E+03  0.62055599002E+03  0.50400001928E-02 0.  1.
    10030    2    1    2    0    0  0.00000000000E+00  0.00000000000E+00  0.64410544800E+02  0.13055225248E+04  0.13039326457E+04 0.  0.
        2    1    3    3  502    0  0.32559133985E+03 -0.42822310369E+03 -0.33658517944E+03  0.63456625355E+03  0.25500000920E-02 0.  1.
       -2    1    3    3    0  502 -0.32559133985E+03  0.42822310369E+03  0.40099572424E+03  0.67095627129E+03  0.25500000920E-02 0. -1.
</event>
<event>
 5   0  0.6052864E-04  0.1303298E+04  0.7818609E-02  0.9026954E-01
       -2   -1    0    0    0  501  0.00000000000E+00  0.00000000000E+00  0.28859156245E+03  0.28859156246E+03  0.25500000920E-02 0.  1.
        2   -1    0    0  501    0  0.00000000000E+00  0.00000000000E+00 -0.14714452242E+04  0.14714452242E+04  0.25500000920E-02 0. -1.
    10030    2    1    2    0    0  0.00000000000E+00  0.00000000000E+00 -0.11828536618E+04  0.17600367867E+04  0.13032983946E+04 0.  0.
        2    1    3    3  502    0 -0.56857912556E+03  0.29850698947E+03 -0.44191063040E+03  0.77953425200E+03  0.25500000920E-02 0.  1.
       -2    1    3    3    0  502  0.56857912556E+03 -0.29850698947E+03 -0.74094303138E+03  0.98050253469E+03  0.25500000920E-02 0. -1.
</event>
<event>
 5   0  0.2255875E-04  0.1301772E+04  0.7818609E-02  0.9028161E-01
        3   -1    0    0  501    0  0.00000000000E+00  0.00000000000E+00  0.79692961936E+03  0.79692962576E+03  0.10100000352E+00 0.  1.
       -3   -1    0    0    0  501  0.00000000000E+00  0.00000000000E+00 -0.53160596258E+03  0.53160597218E+03  0.10100000352E+00 0. -1.
    10030    2    1    2    0    0  0.00000000000E+00  0.00000000000E+00  0.26532365678E+03  0.13285355979E+04  0.13017719432E+04 0.  0.
        3    1    3    3  502    0  0.35790197567E+03  0.54308053695E+03  0.15811949872E+03  0.66935198504E+03  0.10100000352E+00 0. -1.
       -3    1    3    3    0  502 -0.35790197567E+03 -0.54308053695E+03  0.10720415806E+03  0.65918361290E+03  0.10100000352E+00 0.  1.
</event>
<event>
 5   0  0.5787604E-04  0.1299412E+04  0.7818609E-02  0.9030031E-01
        2   -1    0    0  501    0  0.00000000000E+00  0.00000000000E+00  0.10049075218E+04  0.10049075218E+04  0.25500000920E-02 0.  1.
       -2   -1    0    0    0  501  0.00000000000E+00  0.00000000000E+00 -0.42005662071E+03  0.42005662072E+03  0.25500000920E-02 0. -1.
    10030    2    1    2    0    0  0.00000000000E+00  0.00000000000E+00  0.58485090105E+03  0.14249641425E+04  0.12994122636E+04 0.  0.
        4    1    3    3  502    0 -0.22692459999E+02 -0.41105687591E+03  0.84361712872E+03  0.93870878112E+03  0.12699999809E+01 0.  1.
       -4    1    3    3    0  502  0.22692459999E+02  0.41105687591E+03 -0.25876622767E+03  0.48625536137E+03  0.12699999809E+01 0. -1.
</event>
<event>
 5   0  0.5787604E-04  0.1299118E+04  0.7818609E-02  0.9030265E-01
        2   -1    0    0  501    0  0.00000000000E+00  0.00000000000E+00  0.93081157834E+03  0.93081157834E+03  0.25500000920E-02 0. -1.
       -2   -1    0    0    0  501  0.00000000000E+00  0.00000000000E+00 -0.45328931121E+03  0.45328931121E+03  0.25500000920E-02 0.  1.
    10030    2    1    2    0    0  0.00000000000E+00  0.00000000000E+00  0.47752226713E+03  0.13841008896E+04  0.12991180689E+04 0.  0.
        4    1    3    3  502    0  0.60722082038E+03  0.21975750575E+03  0.31345308895E+03  0.71781957197E+03  0.12699999809E+01 0. -1.
       -4    1    3    3    0  502 -0.60722082038E+03 -0.21975750575E+03  0.16406917818E+03  0.66628131758E+03  0.12699999809E+01 0.  1.
</event>
<event>
 5   0  0.3274879E-04  0.1298944E+04  0.7818609E-02  0.9030403E-01
        1   -1    0    0  501    0  0.00000000000E+00  0.00000000000E+00  0.46239732561E+03  0.46239732564E+03  0.50400001928E-02 0. -1.
       -1   -1    0    0    0  501  0.00000000000E+00  0.00000000000E+00 -0.91223248729E+03  0.91223248730E+03  0.50400001928E-02 0.  1.
    10030    2    1    2    0    0  0.00000000000E+00  0.00000000000E+00 -0.44983516167E+03  0.13746298129E+04  0.12989439749E+04 0.  0.
        4    1    3    3  502    0 -0.62956218449E+03 -0.41289345644E+02 -0.38803804985E+03  0.74069460322E+03  0.12699999809E+01 0.  1.
       -4    1    3    3    0  502  0.62956218449E+03  0.41289345644E+02 -0.61797111817E+02  0.63393520972E+03  0.12699999809E+01 0. -1.
</event>
<event>
 5   0  0.6052864E-04  0.1297619E+04  0.7818609E-02  0.9031455E-01
        2   -1    0    0  501    0  0.00000000000E+00  0.00000000000E+00  0.19195459791E+04  0.19195459791E+04  0.25500000920E-02 0.  1.
       -2   -1    0    0    0  501  0.00000000000E+00  0.00000000000E+00 -0.21929875718E+03  0.21929875719E+03  0.25500000920E-02 0. -1.
    10030    2    1    2    0    0  0.00000000000E+00  0.00000000000E+00  0.17002472219E+04  0.21388447363E+04  0.12976194320E+04 0.  0.
        2    1    3    3  502    0 -0.16432297492E+03 -0.51264796385E+03  0.14470300337E+04  0.15439254818E+04  0.25500000920E-02 0.  1.
       -2    1    3    3    0  502  0.16432297492E+03  0.51264796385E+03  0.25321718819E+03  0.59491925446E+03  0.25500000920E-02 0. -1.
</event>
<event>
 5   0  0.2255875E-04  0.1296066E+04  0.7818609E-02  0.9032690E-01
       -3   -1    0    0    0  501  0.00000000000E+00  0.00000000000E+00  0.13131717351E+04  0.13131717390E+04  0.10100000352E+00 0.  1.
        3   -1    0    0  501    0  0.00000000000E+00  0.00000000000E+00 -0.31979597862E+03  0.31979599457E+03  0.10100000352E+00 0. -1.
    10030    2    1    2    0    0  0.00000000000E+00  0.00000000000E+00  0.99337575652E+03  0.16329677336E+04  0.12960664432E+04 0.  0.
        5    1    3    3  502    0 -0.61756898264E+02 -0.59218021184E+03  0.81898090244E+03  0.10125429010E+04  0.46999998093E+01 0.  1.
       -5    1    3    3    0  502  0.61756898264E+02  0.59218021184E+03  0.17439485408E+03  0.62042483260E+03  0.46999998093E+01 0. -1.
</event>
<event>
 5   0  0.5787604E-04  0.1299564E+04  0.7818609E-02  0.9029911E-01
       -2   -1    0    0    0  501  0.00000000000E+00  0.00000000000E+00  0.22102857692E+03  0.22102857694E+03  0.25500000920E-02 0. -1.
        2   -1    0    0  501    0  0.00000000000E+00  0.00000000000E+00 -0.19102367516E+04  0.19102367516E+04  0.25500000920E-02 0.  1.
    10030    2    1    2    0    0  0.00000000000E+00  0.00000000000E+00 -0.16892081746E+04  0.21312653285E+04  0.12995644052E+04 0.  0.
        4    1    3    3  502    0  0.53721811975E+03 -0.29961969972E+03 -0.50122399731E+03  0.79347487738E+03  0.12699999809E+01 0. -1.
       -4    1    3    3    0  502 -0.53721811975E+03  0.29961969972E+03 -0.11879841773E+04  0.13377904511E+04  0.12699999809E+01 0.  1.
</event>
<event>
 5   0  0.6007125E-04  0.1303644E+04  0.7818609E-02  0.9026680E-01
        2   -1    0    0  501    0  0.00000000000E+00  0.00000000000E+00  0.13583977376E+04  0.13583977376E+04  0.25500000920E-02 0.  1.
       -2   -1    0    0    0  501  0.00000000000E+00  0.00000000000E+00 -0.31277443156E+03  0.31277443157E+03  0.25500000920E-02 0. -1.
    10030    2    1    2    0    0  0.00000000000E+00  0.00000000000E+00  0.10456233061E+04  0.16711721692E+04  0.13036442463E+04 0.  0.
        5    1    3    3  502    0  0.59175678287E+02  0.39372321451E+03 -0.13875309977E+03  0.42165654654E+03  0.46999998093E+01 0. -1.
       -5    1    3    3    0  502 -0.59175678287E+02 -0.39372321451E+03  0.11843764058E+04  0.12495156226E+04  0.46999998093E+01 0.  1.
</event>
<event>
 5   0  0.6007125E-04  0.1310353E+04  0.7818609E-02  0.9021395E-01
       -2   -1    0    0    0  501  0.00000000000E+00  0.00000000000E+00  0.22018019365E+03  0.22018019367E+03  0.25500000920E-02 0. -1.
        2   -1    0    0  501    0  0.00000000000E+00  0.00000000000E+00 -0.19495680492E+04  0.19495680492E+04  0.25500000920E-02 0.  1.
    10030    2    1    2    0    0  0.00000000000E+00  0.00000000000E+00 -0.17293878555E+04  0.21697482429E+04  0.13103530374E+04 0.  0.
        5    1    3    3  502    0 -0.15095357894E+03  0.33974811982E+03 -0.17579608646E+04  0.17968484242E+04  0.46999998093E+01 0.  1.
       -5    1    3    3    0  502  0.15095357894E+03 -0.33974811982E+03  0.28573009110E+02  0.37289981866E+03  0.46999998093E+01 0. -1.
</event>
<event>
 5   0  0.5384960E-04  0.1292267E+04  0.7818609E-02  0.9035720E-01
        2   -1    0    0  501    0  0.00000000000E+00  0.00000000000E+00  0.13230759925E+04  0.13230759925E+04  0.25500000920E-02 0.  1.
       -2   -1    0    0    0  501  0.00000000000E+00  0.00000000000E+00 -0.31554401364E+03  0.31554401365E+03  0.25500000920E-02 0. -1.
    10030    2    1    2    0    0  0.00000000000E+00  0.00000000000E+00  0.10075319789E+04  0.16386200061E+04  0.12922673238E+04 0.  0.
        3    1    3    3  502    0 -0.17337922805E+03 -0.27749660667E+03  0.12102519212E+04  0.12537042898E+04  0.10100000352E+00 0.  1.
       -3    1    3    3    0  502  0.17337922805E+03  0.27749660667E+03 -0.20271994234E+03  0.38491571630E+03  0.10100000352E+00 0. -1.
</event>
<event>
 5   0  0.3337520E-04  0.1296786E+04  0.7818609E-02  0.9032118E-01
        1   -1    0    0  501    0  0.00000000000E+00  0.00000000000E+00  0.92771375282E+03  0.92771375283E+03  0.50400001928E-02 0.  1.
       -1   -1    0    0    0  501  0.00000000000E+00  0.00000000000E+00 -0.45317178012E+03  0.45317178015E+03  0.50400001928E-02 0. -1.
    10030    2    1    2    0    0  0.00000000000E+00  0.00000000000E+00  0.47454197270E+03  0.13808855330E+04  0.12967863245E+04 0.  0.
        5    1    3    3  502    0  0.94031135542E+02 -0.57494779405E+03  0.54030471379E+03  0.79458045160E+03  0.46999998093E+01 0.  1.
       -5    1    3    3    0  502 -0.94031135542E+02  0.57494779405E+03 -0.65762741090E+02  0.58630508137E+03  0.46999998093E+01 0. -1.
</event>
<event>
 5   0  0.3263679E-04  0.1304782E+04  0.7818609E-02  0.9025781E-01
        1   -1    0    0  501    0  0.00000000000E+00  0.00000000000E+00  0.43882507987E+03  0.43882507990E+03  0.50400001928E-02 0.  1.
       -1   -1    0    0    0  501  0.00000000000E+00  0.00000000000E+00 -0.96989493402E+03  0.96989493403E+03  0.50400001928E-02 0. -1.
    10030    2    1    2    0    0  0.00000000000E+00  0.00000000000E+00 -0.53106985415E+03  0.14087200139E+04  0.13047823143E+04 0.  0.
        2    1    3    3  502    0 -0.24519199715E+03  0.10424831328E+03  0.37740850566E+03  0.46197836145E+03  0.25500000920E-02 0.  1.
       -2    1    3    3    0  502  0.24519199715E+03 -0.10424831328E+03 -0.90847835982E+03  0.94674165249E+03  0.25500000920E-02 0. -1.
</event>
<event>
 5   0  0.5957913E-04  0.1298359E+04  0.7818609E-02  0.9030868E-01
        2   -1    0    0  501    0  0.00000000000E+00  0.00000000000E+00  0.14546695793E+04  0.14546695793E+04  0.25500000920E-02 0.  1.
       -2   -1    0    0    0  501  0.00000000000E+00  0.00000000000E+00 -0.28971111484E+03  0.28971111486E+03  0.25500000920E-02 0. -1.
    10030    2    1    2    0    0  0.00000000000E+00  0.00000000000E+00  0.11649584644E+04  0.17443806941E+04  0.12983588804E+04 0.  0.
        1    1    3    3  502    0  0.60648727137E+02  0.42663559800E+03 -0.69841347758E+02  0.43654783869E+03  0.50400001928E-02 0. -1.
       -1    1    3    3    0  502 -0.60648727137E+02 -0.42663559800E+03  0.12347998122E+04  0.13078328555E+04  0.50400001928E-02 0.  1.
</event>
<event>
 5   0  0.3274879E-04  0.1294887E+04  0.7818609E-02  0.9033630E-01
        1   -1    0    0  501    0  0.00000000000E+00  0.00000000000E+00  0.13527715809E+04  0.13527715809E+04  0.50400001928E-02 0. -1.
       -1   -1    0    0    0  501  0.00000000000E+00  0.00000000000E+00 -0.30986982066E+03  0.30986982070E+03  0.50400001928E-02 0.  1.
    10030    2    1    2    0    0  0.00000000000E+00  0.00000000000E+00  0.10429017602E+04  0.16626414016E+04  0.12948870023E+04 0.  0.
        4    1    3    3  502    0  0.57081806508E+03 -0.21847566161E+03  0.79568921105E+03  0.10033383336E+04  0.12699999809E+01 0. -1.
       -4    1    3    3    0  502 -0.57081806508E+03  0.21847566161E+03  0.24721254920E+03  0.65930306804E+03  0.12699999809E+01 0.  1.
</event>
<event>
 5   0  0.5384960E-04  0.1295854E+04  0.7818609E-02  0.9032859E-01
       -2   -1    0    0    0  501  0.00000000000E+00  0.00000000000E+00  0.57662951004E+03  0.57662951004E+03  0.25500000920E-02 0. -1.
        2   -1    0    0  501    0  0.00000000000E+00  0.00000000000E+00 -0.72804004352E+03  0.72804004352E+03  0.25500000920E-02 0.  1.
    10030    2    1    2    0    0  0.00000000000E+00  0.00000000000E+00 -0.15141053348E+03  0.13046695536E+04  0.12958539634E+04 0.  0.
        3    1    3    3  502    0  0.64527071433E+02  0.33298764159E+03 -0.63151596915E+03  0.71683815600E+03  0.10100000352E+00 0.  1.
       -3    1    3    3    0  502 -0.64527071433E+02 -0.33298764159E+03  0.48010543567E+03  0.58783139756E+03  0.10100000352E+00 0. -1.
</event>
<event>
 5   0  0.3335747E-04  0.1309636E+04  0.7818609E-02  0.9021959E-01
       -1   -1    0    0    0  501  0.00000000000E+00  0.00000000000E+00  0.65942507857E+03  0.65942507859E+03  0.50400001928E-02 0. -1.
        1   -1    0    0  501    0  0.00000000000E+00  0.00000000000E+00 -0.65024293506E+03  0.65024293508E+03  0.50400001928E-02 0.  1.
    10030    2    1    2    0    0  0.00000000000E+00  0.00000000000E+00  0.91821435110E+01  0.13096680137E+04  0.13096358250E+04 0.  0.
        3    1    3    3  502    0 -0.32486723633E+03 -0.54379782110E+03  0.17052193167E+03  0.65599735583E+03  0.10100000352E+00 0. -1.
       -3    1    3    3    0  502  0.32486723633E+03  0.54379782110E+03 -0.16133978816E+03  0.65367065784E+03  0.10100000352E+00 0.  1.
</event>
<event>
 5   0  0.3335747E-04  0.1305186E+04  0.7818609E-02  0.9025463E-01
       -1   -1    0    0    0  501  0.00000000000E+00  0.00000000000E+00  0.30951095286E+03  0.30951095290E+03  0.50400001928E-02 0.  1.
        1   -1    0    0  501    0  0.00000000000E+00  0.00000000000E+00 -0.13759684250E+04  0.13759684250E+04  0.50400001928E-02 0. -1.
    10030    2    1    2    0    0  0.00000000000E+00  0.00000000000E+00 -0.10664574721E+04  0.16854793779E+04  0.13051855016E+04 0.  0.
        3    1    3    3  502    0  0.46192060561E+03 -0.30357136702E+03 -0.98122683966E+03  0.11262026202E+04  0.10100000352E+00 0. -1.
       -3    1    3    3    0  502 -0.46192060561E+03  0.30357136702E+03 -0.85230632485E+02  0.55927675768E+03  0.10100000352E+00 0.  1.
</event>
<event>
 5   0  0.3337520E-04  0.1293022E+04  0.7818609E-02  0.9035117E-01
        1   -1    0    0  501    0  0.00000000000E+00  0.00000000000E+00  0.86850125386E+03  0.86850125388E+03  0.50400001928E-02 0. -1.
       -1   -1    0    0    0  501  0.00000000000E+00  0.00000000000E+00 -0.48126214630E+03  0.48126214633E+03  0.50400001928E-02 0.  1.
    10030    2    1    2    0    0  0.00000000000E+00  0.00000000000E+00  0.38723910756E+03  0.13497634002E+04  0.12930224708E+04 0.  0.
        5    1    3    3  502    0  0.54080521512E+03 -0.11207545808E+03  0.54440675371E+03  0.77552046555E+03  0.46999998093E+01 0. -1.
       -5    1    3    3    0  502 -0.54080521512E+03  0.11207545808E+03 -0.15716764615E+03  0.57424293465E+03  0.46999998093E+01 0.  1.
</event>
<event>
 5   0  0.6052864E-04  0.1303828E+04  0.7818609E-02  0.9026535E-01
       -2   -1    0    0    0  501  0.00000000000E+00  0.00000000000E+00  0.31185988255E+03  0.31185988256E+03  0.25500000920E-02 0.  1.
        2   -1    0    0  501    0  0.00000000000E+00  0.00000000000E+00 -0.13627646158E+04  0.13627646158E+04  0.25500000920E-02 0. -1.
    10030    2    1    2    0    0  0.00000000000E+00  0.00000000000E+00 -0.10509047333E+04  0.16746244984E+04  0.13038276160E+04 0.  0.
        2    1    3    3  502    0 -0.45049007232E+03 -0.36975898482E+03 -0.90063659814E+03  0.10727577984E+04  0.25500000920E-02 0. -1.
       -2    1    3    3    0  502  0.45049007232E+03  0.36975898482E+03 -0.15026813514E+03  0.60186669999E+03  0.25500000920E-02 0.  1.
</event>
<event>
 5   0  0.6007125E-04  0.1291407E+04  0.7818609E-02  0.9036407E-01
        2   -1    0    0  501    0  0.00000000000E+00  0.00000000000E+00  0.13071665919E+04  0.13071665919E+04  0.25500000920E-02 0.  1.
       -2   -1    0    0    0  501  0.00000000000E+00  0.00000000000E+00 -0.31895959612E+03  0.31895959613E+03  0.25500000920E-02 0. -1.
    10030    2    1    2    0    0  0.00000000000E+00  0.00000000000E+00  0.98820699581E+03  0.16261261881E+04  0.12914074930E+04 0.  0.
        5    1    3    3  502    0  0.60849875962E+03  0.77680751574E+02  0.24036456489E+03  0.65886436668E+03  0.46999998093E+01 0. -1.
       -5    1    3    3    0  502 -0.60849875962E+03 -0.77680751574E+02  0.74784243092E+03  0.96726182139E+03  0.46999998093E+01 0.  1.
</event>
<event>
 5   0  0.3274879E-04  0.1279633E+04  0.7818609E-02  0.9045874E-01
        1   -1    0    0  501    0  0.00000000000E+00  0.00000000000E+00  0.12338547053E+04  0.12338547053E+04  0.50400001928E-02 0. -1.
       -1   -1    0    0    0  501  0.00000000000E+00  0.00000000000E+00 -0.33177730902E+03  0.33177730905E+03  0.50400001928E-02 0.  1.
    10030    2    1    2    0    0  0.00000000000E+00  0.00000000000E+00  0.90207739631E+03  0.15656320144E+04  0.12796327503E+04 0.  0.
        4    1    3    3  502    0 -0.26497568116E+03 -0.58222320245E+03  0.46686930381E+03  0.79193720004E+03  0.12699999809E+01 0. -1.
       -4    1    3    3    0  502  0.26497568116E+03  0.58222320245E+03  0.43520809250E+03  0.77369481435E+03  0.12699999809E+01 0.  1.
</event>
<event>
 5   0  0.5787604E-04  0.1300183E+04  0.7818609E-02  0.9029420E-01
       -2   -1    0    0    0  501  0.00000000000E+00  0.00000000000E+00  0.52370232673E+03  0.52370232673E+03  0.25500000920E-02 0.  1.
        2   -1    0    0  501    0  0.00000000000E+00  0.00000000000E+00 -0.80698376350E+03  0.80698376351E+03  0.25500000920E-02 0. -1.
    10030    2    1    2    0    0  0.00000000000E+00  0.00000000000E+00 -0.28328143678E+03  0.13306860902E+04  0.13001834864E+04 0.  0.
        4    1    3    3  502    0  0.79870709601E+02 -0.53772502115E+03  0.22321981493E+03  0.58767016881E+03  0.12699999809E+01 0.  1.
       -4    1    3    3    0  502 -0.79870709601E+02  0.53772502115E+03 -0.50650125170E+03  0.74301592143E+03  0.12699999809E+01 0. -1.
</event>
<event>
 5   0  0.3337520E-04  0.1309541E+04  0.7818609E-02  0.9022033E-01
        1   -1    0    0  501    0  0.00000000000E+00  0.00000000000E+00  0.11938967519E+04  0.11938967520E+04  0.50400001928E-02 0. -1.
       -1   -1    0    0    0  501  0.00000000000E+00  0.00000000000E+00 -0.35909679959E+03  0.35909679963E+03  0.50400001928E-02 0.  1.
    10030    2    1    2    0    0  0.00000000000E+00  0.00000000000E+00  0.83479995235E+03  0.15529935516E+04  0.13095411451E+04 0.  0.
        5    1    3    3  502    0 -0.24768250923E+03  0.18081613422E+03  0.11034460123E+04  0.11452756401E+04  0.46999998093E+01 0. -1.
       -5    1    3    3    0  502  0.24768250923E+03 -0.18081613422E+03 -0.26864605998E+03  0.40771791144E+03  0.46999998093E+01 0.  1.
</event>
<event>
 5   0  0.6052864E-04  0.1295813E+04  0.7818609E-02  0.9032892E-01
       -2   -1    0    0    0  501  0.00000000000E+00  0.00000000000E+00  0.30344053671E+03  0.30344053672E+03  0.25500000920E-02 0.  1.
        2   -1    0    0  501    0  0.00000000000E+00  0.00000000000E+00 -0.13834102728E+04  0.13834102728E+04  0.25500000920E-02 0. -1.
    10030    2    1    2    0    0  0.00000000000E+00  0.00000000000E+00 -0.10799697361E+04  0.16868508095E+04  0.12958128811E+04 0.  0.
        2    1    3    3  502    0  0.70667624618E+01  0.47215966468E+03 -0.11174753038E+04  0.12131511623E+04  0.25500000920E-02 0. -1.
       -2    1    3    3    0  502 -0.70667624618E+01 -0.47215966468E+03  0.37505567754E+02  0.47369964714E+03  0.25500000920E-02 0.  1.
</event>
<event>
 5   0  0.5384960E-04  0.1307019E+04  0.7818609E-02  0.9024017E-01
       -2   -1    0    0    0  501  0.00000000000E+00  0.00000000000E+00  0.54732500890E+03  0.54732500891E+03  0.25500000920E-02 0. -1.
        2   -1    0    0  501    0  0.00000000000E+00  0.00000000000E+00 -0.78029485798E+03  0.78029485798E+03  0.25500000920E-02 0.  1.
    10030    2    1    2    0    0  0.00000000000E+00  0.00000000000E+00 -0.23296984907E+03  0.13276198669E+04  0.13070193420E+04 0.  0.
        3    1    3    3  502    0  0.34036708142E+03 -0.27313430278E+03 -0.61059078681E+03  0.75051530072E+03  0.10100000352E+00 0.  1.
       -3    1    3    3    0  502 -0.34036708142E+03  0.27313430278E+03  0.37762093774E+03  0.57710456617E+03  0.10100000352E+00 0. -1.
</event>
<event>
 5   0  0.3263679E-04  0.1290106E+04  0.7818609E-02  0.9037449E-01
        1   -1    0    0  501    0  0.00000000000E+00  0.00000000000E+00  0.52479322435E+03  0.52479322438E+03  0.50400001928E-02 0.  1.
       -1   -1    0    0    0  501  0.00000000000E+00  0.00000000000E+00 -0.79287057109E+03  0.79287057111E+03  0.50400001928E-02 0. -1.
    10030    2    1    2    0    0  0.00000000000E+00  0.00000000000E+00 -0.26807734673E+03  0.13176637955E+04  0.12901055825E+04 0.  0.
        2    1    3    3  502    0  0.58331944539E+03  0.56870407591E+00 -0.41529567110E+03  0.71605334525E+03  0.25500000920E-02 0. -1.
       -2    1    3    3    0  502 -0.58331944539E+03 -0.56870407591E+00  0.14721832437E+03  0.60161045024E+03  0.25500000920E-02 0.  1.
</event>
<event>
 5   0  0.3337520E-04  0.1307159E+04  0.7818609E-02  0.9023907E-01
       -1   -1    0    0    0  501  0.00000000000E+00  0.00000000000E+00  0.46033984960E+03  0.46033984963E+03  0.50400001928E-02 0. -1.
        1   -1    0    0  501    0  0.00000000000E+00  0.00000000000E+00 -0.92793621050E+03  0.92793621052E+03  0.50400001928E-02 0.  1.
    10030    2    1    2    0    0  0.00000000000E+00  0.00000000000E+00 -0.46759636090E+03  0.13882760601E+04  0.13071587748E+04 0.  0.
        5    1    3    3  502    0 -0.70348097882E+02 -0.50760313185E+03  0.19700161981E+03  0.54903690454E+03  0.46999998093E+01 0. -1.
       -5    1    3    3    0  502  0.70348097882E+02  0.50760313185E+03 -0.66459798071E+03  0.83923915561E+03  0.46999998093E+01 0.  1.
</event>
<event>
 5   0  0.5384960E-04  0.1299029E+04  0.7818609E-02  0.9030336E-01
        2   -1    0    0  501    0  0.00000000000E+00  0.00000000000E+00  0.72972107162E+03  0.72972107162E+03  0.25500000920E-02 0. -1.
       -2   -1    0    0    0  501  0.00000000000E+00  0.00000000000E+00 -0.57812336749E+03  0.57812336750E+03  0.25500000920E-02 0.  1.
    10030    2    1    2    0    0  0.00000000000E+00  0.00000000000E+00  0.15159770413E+03  0.13078444391E+04  0.12990285651E+04 0.  0.
        3    1    3    3  502    0 -0.64175867295E+03 -0.49666119022E+02 -0.11669259340E+02  0.64378342593E+03  0.10100000352E+00 0.  1.
       -3    1    3    3    0  502  0.64175867295E+03  0.49666119022E+02  0.16326696347E+03  0.66406101319E+03  0.10100000352E+00 0. -1.
</event>
<event>
 5   0  0.5384960E-04  0.1300755E+04  0.7818609E-02  0.9028966E-01
        2   -1    0    0  501    0  0.00000000000E+00  0.00000000000E+00  0.36802740220E+03  0.36802740221E+03  0.25500000920E-02 0. -1.
       -2   -1    0    0    0  501  0.00000000000E+00  0.00000000000E+00 -0.11493466597E+04  0.11493466597E+04  0.25500000920E-02 0.  1.
    10030    2    1    2    0    0  0.00000000000E+00  0.00000000000E+00 -0.78131925753E+03  0.15173740619E+04  0.13007552659E+04 0.  0.
        3    1    3    3  502    0  0.20417082699E+03 -0.20808356995E+02  0.32926458505E+03  0.38798697334E+03  0.10100000352E+00 0. -1.
       -3    1    3    3    0  502 -0.20417082699E+03  0.20808356995E+02 -0.11105838426E+04  0.11293870886E+04  0.10100000352E+00 0.  1.
</event>
<event>
 5   0  0.6052864E-04  0.1302221E+04  0.7818609E-02  0.9027806E-01
        2   -1    0    0  501    0  0.00000000000E+00  0.00000000000E+00  0.88246675566E+03  0.88246675566E+03  0.25500000920E-02 0. -1.
       -2   -1    0    0    0  501  0.00000000000E+00  0.00000000000E+00 -0.48040864713E+03  0.48040864714E+03  0.25500000920E-02 0.  1.
    10030    2    1    2    0    0  0.00000000000E+00  0.00000000000E+00  0.40205810853E+03  0.13628754028E+04  0.13022206575E+04 0.  0.
        2    1    3    3  502    0 -0.36483575305E+03  0.21514315946E+03  0.71858586736E+03  0.83412070742E+03  0.25500000920E-02 0. -1.
       -2    1    3    3    0  502  0.36483575305E+03 -0.21514315946E+03 -0.31652775884E+03  0.52875469538E+03  0.25500000920E-02 0.  1.
</event>
<event>
 5   0  0.3403833E-04  0.1297088E+04  0.7818609E-02  0.9031878E-01
        1   -1    0    0  501    0  0.00000000000E+00  0.00000000000E+00  0.69621221903E+03  0.69621221904E+03  0.50400001928E-02 0.  1.
       -1   -1    0    0    0  501  0.00000000000E+00  0.00000000000E+00 -0.60413944055E+03  0.60413944057E+03  0.50400001928E-02 0. -1.
    10030    2    1    2    0    0  0.00000000000E+00  0.00000000000E+00  0.92072778479E+02  0.13003516596E+04  0.12970879084E+04 0.  0.
        1    1    3    3  502    0 -0.73048727656E+02  0.13086587995E+03 -0.58654043130E+03  0.60538555708E+03  0.50400001928E-02 0. -1.
       -1    1    3    3    0  502  0.73048727656E+02 -0.13086587995E+03  0.67861320978E+03  0.69496610253E+03  0.50400001928E-02 0.  1.
</event>
<event>
 5   0  0.5787604E-04  0.1302430E+04  0.7818609E-02  0.9027640E-01
       -2   -1    0    0    0  501  0.00000000000E+00  0.00000000000E+00  0.39135264854E+03  0.39135264855E+03  0.25500000920E-02 0. -1.
        2   -1    0    0  501    0  0.00000000000E+00  0.00000000000E+00 -0.10836291764E+04  0.10836291764E+04  0.25500000920E-02 0.  1.
    10030    2    1    2    0    0  0.00000000000E+00  0.00000000000E+00 -0.69227652781E+03  0.14749818249E+04  0.13024302641E+04 0.  0.
        4    1    3    3  502    0 -0.24654498545E+03  0.10273325881E+03  0.32646682690E+03  0.42180653656E+03  0.12699999809E+01 0. -1.
       -4    1    3    3    0  502  0.24654498545E+03 -0.10273325881E+03 -0.10187433547E+04  0.10531752883E+04  0.12699999809E+01 0.  1.
</event>
<event>
 5   0  0.5384960E-04  0.1296322E+04  0.7818609E-02  0.9032487E-01
       -2   -1    0    0    0  501  0.00000000000E+00  0.00000000000E+00  0.54348917222E+03  0.54348917222E+03  0.25500000920E-02 0. -1.
        2   -1    0    0  501    0  0.00000000000E+00  0.00000000000E+00 -0.77299206829E+03  0.77299206829E+03  0.25500000920E-02 0.  1.
    10030    2    1    2    0    0  0.00000000000E+00  0.00000000000E+00 -0.22950289607E+03  0.13164812405E+04  0.12963222120E+04 0.  0.
        3    1    3    3  502    0  0.15348989630E+03  0.59200263944E+03 -0.33276763740E+03  0.69624750202E+03  0.10100000352E+00 0.  1.
       -3    1    3    3    0  502 -0.15348989630E+03 -0.59200263944E+03  0.10326474133E+03  0.62023373850E+03  0.10100000352E+00 0. -1.
</event>
<event>
 5   0  0.2255875E-04  0.1301907E+04  0.7818609E-02  0.9028054E-01
        4   -1    0    0  501    0  0.00000000000E+00  0.00000000000E+00  0.22419040047E+04  0.22419043644E+04  0.12699999809E+01 0.  1.
       -4   -1    0    0    0  501  0.00000000000E+00  0.00000000000E+00 -0.18900679139E+03  0.18901105812E+03  0.12699999809E+01 0. -1.
    10030    2    1    2    0    0  0.00000000000E+00  0.00000000000E+00  0.20528972133E+04  0.24309154226E+04  0.13019073789E+04 0.  0.
        5    1    3    3  502    0  0.21125737470E+03  0.26048821263E+03 -0.15230265531E+02  0.33576455780E+03  0.46999998093E+01 0. -1.
       -5    1    3    3    0  502 -0.21125737470E+03 -0.26048821263E+03  0.20681274789E+04  0.20951508648E+04  0.46999998093E+01 0.  1.
</event>
<event>
 5   0  0.3403833E-04  0.1300335E+04  0.7818609E-02  0.9029300E-01
       -1   -1    0    0    0  501  0.00000000000E+00  0.00000000000E+00  0.51003512547E+03  0.51003512550E+03  0.50400001928E-02 0.  1.
        1   -1    0    0  501    0  0.00000000000E+00  0.00000000000E+00 -0.82880125319E+03  0.82880125320E+03  0.50400001928E-02 0. -1.
    10030    2    1    2    0    0  0.00000000000E+00  0.00000000000E+00 -0.31876612771E+03  0.13388363787E+04  0.13003349587E+04 0.  0.
        1    1    3    3  502    0  0.77437898328E+02 -0.25063760313E+03 -0.77189382378E+03  0.81525205391E+03  0.50400001928E-02 0. -1.
       -1    1    3    3    0  502 -0.77437898328E+02  0.25063760313E+03  0.45312769606E+03  0.52358432479E+03  0.50400001928E-02 0.  1.
</event>
<event>
 5   0  0.5957913E-04  0.1303878E+04  0.7818609E-02  0.9026495E-01
        2   -1    0    0  501    0  0.00000000000E+00  0.00000000000E+00  0.71717332900E+03  0.71717332901E+03  0.25500000920E-02 0.  1.
       -2   -1    0    0    0  501  0.00000000000E+00  0.00000000000E+00 -0.59263846926E+03  0.59263846927E+03  0.25500000920E-02 0. -1.
    10030    2    1    2    0    0  0.00000000000E+00  0.00000000000E+00  0.12453485974E+03  0.13098117983E+04  0.13038780678E+04 0.  0.
        1    1    3    3  502    0  0.81862320158E+02  0.64663930828E+03  0.48764928690E+02  0.65362210242E+03  0.50400001928E-02 0.  1.
       -1    1    3    3    0  502 -0.81862320158E+02 -0.64663930828E+03  0.75769931048E+02  0.65618969586E+03  0.50400001928E-02 0. -1.
</event>
<event>
 5   0  0.3337520E-04  0.1299592E+04  0.7818609E-02  0.9029889E-01
       -1   -1    0    0    0  501  0.00000000000E+00  0.00000000000E+00  0.23421839742E+03  0.23421839747E+03  0.50400001928E-02 0.  1.
        1   -1    0    0  501    0  0.00000000000E+00  0.00000000000E+00 -0.18027389388E+04  0.18027389388E+04  0.50400001928E-02 0. -1.
    10030    2    1    2    0    0  0.00000000000E+00  0.00000000000E+00 -0.15685205414E+04  0.20369573363E+04  0.12995916671E+04 0.  0.
        5    1    3    3  502    0 -0.24308791498E+03  0.11060754734E+03  0.14418971216E+03  0.30354328691E+03  0.46999998093E+01 0.  1.
       -5    1    3    3    0  502  0.24308791498E+03 -0.11060754734E+03 -0.17127102535E+04  0.17334140494E+04  0.46999998093E+01 0. -1.
</event>
<event>
 5   0  0.3274879E-04  0.1284363E+04  0.7818609E-02  0.9042058E-01
       -1   -1    0    0    0  501  0.00000000000E+00  0.00000000000E+00  0.18922985760E+03  0.18922985766E+03  0.50400001928E-02 0. -1.
        1   -1    0    0  501    0  0.00000000000E+00  0.00000000000E+00 -0.21793453577E+04  0.21793453577E+04  0.50400001928E-02 0.  1.
    10030    2    1    2    0    0  0.00000000000E+00  0.00000000000E+00 -0.19901155001E+04  0.23685752153E+04  0.12843632068E+04 0.  0.
        4    1    3    3  502    0  0.90545877462E+02  0.13016657862E+03  0.15255962613E+03  0.22004078381E+03  0.12699999809E+01 0. -1.
       -4    1    3    3    0  502 -0.90545877462E+02 -0.13016657862E+03 -0.21426751262E+04  0.21485344315E+04  0.12699999809E+01 0.  1.
</event>
<event>
 5   0  0.5384960E-04  0.1290679E+04  0.7818609E-02  0.9036990E-01
        2   -1    0    0  501    0  0.00000000000E+00  0.00000000000E+00  0.13414626192E+04  0.13414626192E+04  0.25500000920E-02 0. -1.
       -2   -1    0    0    0  501  0.00000000000E+00  0.00000000000E+00 -0.31045451048E+03  0.31045451049E+03  0.25500000920E-02 0.  1.
    10030    2    1    2    0    0  0.00000000000E+00  0.00000000000E+00  0.10310081087E+04  0.16519171297E+04  0.12906790783E+04 0.  0.
        3    1    3    3  502    0  0.14635619289E+03 -0.97081488656E+02 -0.27927923145E+03  0.32991188211E+03  0.10100000352E+00 0.  1.
       -3    1    3    3    0  502 -0.14635619289E+03  0.97081488656E+02  0.13102873402E+04  0.13220052476E+04  0.10100000352E+00 0. -1.
</event>
<event>
 5   0  0.3274879E-04  0.1302555E+04  0.7818609E-02  0.9027541E-01
       -1   -1    0    0    0  501  0.00000000000E+00  0.00000000000E+00  0.11582483189E+04  0.11582483189E+04  0.50400001928E-02 0.  1.
        1   -1    0    0  501    0  0.00000000000E+00  0.00000000000E+00 -0.36621035123E+03  0.36621035127E+03  0.50400001928E-02 0. -1.
    10030    2    1    2    0    0  0.00000000000E+00  0.00000000000E+00  0.79203796766E+03  0.15244586702E+04  0.13025552176E+04 0.  0.
        4    1    3    3  502    0  0.48676636397E+03 -0.37951833530E+03  0.15280573150E+03  0.63586701786E+03  0.12699999809E+01 0. -1.
       -4    1    3    3    0  502 -0.48676636397E+03  0.37951833530E+03  0.63923223616E+03  0.88859165232E+03  0.12699999809E+01 0.  1.
</event>
<event>
 5   0  0.3403833E-04  0.1300628E+04  0.7818609E-02  0.9029067E-01
        1   -1    0    0  501    0  0.00000000000E+00  0.00000000000E+00  0.48777441467E+03  0.48777441469E+03  0.50400001928E-02 0.  1.
       -1   -1    0    0    0  501  0.00000000000E+00  0.00000000000E+00 -0.86701635813E+03  0.86701635814E+03  0.50400001928E-02 0. -1.
    10030    2    1    2    0    0  0.00000000000E+00  0.00000000000E+00 -0.37924194346E+03  0.13547907728E+04  0.13006281507E+04 0.  0.
        1    1    3    3  502    0  0.13928108910E+03  0.48323137679E+03  0.23985533783E+03  0.55717355322E+03  0.50400001928E-02 0.  1.
       -1    1    3    3    0  502 -0.13928108910E+03 -0.48323137679E+03 -0.61909728129E+03  0.79761721961E+03  0.50400001928E-02 0. -1.
</event>
<event>
 5   0  0.3263679E-04  0.1301135E+04  0.7818609E-02  0.9028665E-01
       -1   -1    0    0    0  501  0.00000000000E+00  0.00000000000E+00  0.11650335317E+04  0.11650335317E+04  0.50400001928E-02 0.  1.
        1   -1    0    0  501    0  0.00000000000E+00  0.00000000000E+00 -0.36328412237E+03  0.36328412240E+03  0.50400001928E-02 0. -1.
    10030    2    1    2    0    0  0.00000000000E+00  0.00000000000E+00  0.80174940930E+03  0.15283176541E+04  0.13011351722E+04 0.  0.
        2    1    3    3  502    0 -0.11024277753E+03 -0.58173150634E+03  0.71752380696E+03  0.93027169634E+03  0.25500000920E-02 0.  1.
       -2    1    3    3    0  502  0.11024277753E+03  0.58173150634E+03  0.84225602344E+02  0.59804595773E+03  0.25500000920E-02 0. -1.
</event>
<event>
 5   0  0.5957913E-04  0.1298530E+04  0.7818609E-02  0.9030732E-01
        2   -1    0    0  501    0  0.00000000000E+00  0.00000000000E+00  0.70423628815E+03  0.70423628815E+03  0.25500000920E-02 0.  1.
       -2   -1    0    0    0  501  0.00000000000E+00  0.00000000000E+00 -0.59858453975E+03  0.59858453976E+03  0.25500000920E-02 0. -1.
    10030    2    1    2    0    0  0.00000000000E+00  0.00000000000E+00  0.10565174839E+03  0.13028208279E+04  0.12985298679E+04 0.  0.
        1    1    3    3  502    0  0.35359636066E+03  0.42517085162E+02  0.59748887722E+03  0.69557964838E+03  0.50400001928E-02 0.  1.
       -1    1    3    3    0  502 -0.35359636066E+03 -0.42517085162E+02 -0.49183712883E+03  0.60724117954E+03  0.50400001928E-02 0. -1.
</event>
<event>
 5   0  0.3337520E-04  0.1301479E+04  0.7818609E-02  0.9028393E-01
        1   -1    0    0  501    0  0.00000000000E+00  0.00000000000E+00  0.75085829258E+03  0.75085829260E+03  0.50400001928E-02 0. -1.
       -1   -1    0    0    0  501  0.00000000000E+00  0.00000000000E+00 -0.56397060549E+03  0.56397060551E+03  0.50400001928E-02 0.  1.
    10030    2    1    2    0    0  0.00000000000E+00  0.00000000000E+00  0.18688768709E+03  0.13148288981E+04  0.13014791676E+04 0.  0.
        5    1    3    3  502    0 -0.38332594737E+03 -0.52491103199E+03  0.61986977967E+02  0.65294322024E+03  0.46999998093E+01 0. -1.
       -5    1    3    3    0  502  0.38332594737E+03  0.52491103199E+03  0.12490070912E+03  0.66188567787E+03  0.46999998093E+01 0.  1.
</event>
<event>
 5   0  0.5384960E-04  0.1285075E+04  0.7818609E-02  0.9041485E-01
        2   -1    0    0  501    0  0.00000000000E+00  0.00000000000E+00  0.80345781465E+03  0.80345781466E+03  0.25500000920E-02 0.  1.
       -2   -1    0    0    0  501  0.00000000000E+00  0.00000000000E+00 -0.51384734664E+03  0.51384734665E+03  0.25500000920E-02 0. -1.
    10030    2    1    2    0    0  0.00000000000E+00  0.00000000000E+00  0.28961046801E+03  0.13173051613E+04  0.12850753538E+04 0.  0.
        3    1    3    3  502    0 -0.19235494141E+03  0.45284609791E+01 -0.48362297798E+03  0.52049219540E+03  0.10100000352E+00 0. -1.
       -3    1    3    3    0  502  0.19235494141E+03 -0.45284609791E+01  0.77323344598E+03  0.79681296591E+03  0.10100000352E+00 0.  1.
</event>
<event>
 5   0  0.6052864E-04  0.1297702E+04  0.7818609E-02  0.9031389E-01
       -2   -1    0    0    0  501  0.00000000000E+00  0.00000000000E+00  0.80137610905E+03  0.80137610905E+03  0.25500000920E-02 0. -1.
        2   -1    0    0  501    0  0.00000000000E+00  0.00000000000E+00 -0.52535591615E+03  0.52535591616E+03  0.25500000920E-02 0.  1.
    10030    2    1    2    0    0  0.00000000000E+00  0.00000000000E+00  0.27602019290E+03  0.13267320252E+04  0.12977020921E+04 0.  0.
        2    1    3    3  502    0  0.49955474457E+02  0.44406599533E+03  0.61897801317E+03  0.76342906575E+03  0.25500000920E-02 0. -1.
       -2    1    3    3    0  502 -0.49955474457E+02 -0.44406599533E+03 -0.34295782027E+03  0.56330295946E+03  0.25500000920E-02 0.  1.
</event>
<event>
 5   0  0.5787604E-04  0.1298949E+04  0.7818609E-02  0.9030399E-01
        2   -1    0    0  501    0  0.00000000000E+00  0.00000000000E+00  0.10355056930E+04  0.10355056930E+04  0.25500000920E-02 0.  1.
       -2   -1    0    0    0  501  0.00000000000E+00  0.00000000000E+00 -0.40735388243E+03  0.40735388244E+03  0.25500000920E-02 0. -1.
    10030    2    1    2    0    0  0.00000000000E+00  0.00000000000E+00  0.62815181053E+03  0.14428595754E+04  0.12989492127E+04 0.  0.
        4    1    3    3  502    0 -0.21602750677E+03  0.57193333141E+02 -0.36330254090E+03  0.42653172234E+03  0.12699999809E+01 0. -1.
       -4    1    3    3    0  502  0.21602750677E+03 -0.57193333141E+02  0.99145435144E+03  0.10163278531E+04  0.12699999809E+01 0.  1.
</event>
<event>
 5   0  0.5384960E-04  0.1293879E+04  0.7818609E-02  0.9034433E-01
       -2   -1    0    0    0  501  0.00000000000E+00  0.00000000000E+00  0.92755703810E+03  0.92755703810E+03  0.25500000920E-02 0. -1.
        2   -1    0    0  501    0  0.00000000000E+00  0.00000000000E+00 -0.45121830084E+03  0.45121830085E+03  0.25500000920E-02 0.  1.
    10030    2    1    2    0    0  0.00000000000E+00  0.00000000000E+00  0.47633873726E+03  0.13787753390E+04  0.12938789907E+04 0.  0.
        3    1    3    3  502    0 -0.65002307244E+02 -0.19360451805E+02 -0.44741924855E+03  0.45253079587E+03  0.10100000352E+00 0.  1.
       -3    1    3    3    0  502  0.65002307244E+02  0.19360451805E+02  0.92375798581E+03  0.92624454308E+03  0.10100000352E+00 0. -1.
</event>
<event>
 5   0  0.3403833E-04  0.1297054E+04  0.7818609E-02  0.9031905E-01
       -1   -1    0    0    0  501  0.00000000000E+00  0.00000000000E+00  0.54209576079E+03  0.54209576081E+03  0.50400001928E-02 0. -1.
        1   -1    0    0  501    0  0.00000000000E+00  0.00000000000E+00 -0.77585371245E+03  0.77585371247E+03  0.50400001928E-02 0.  1.
    10030    2    1    2    0    0  0.00000000000E+00  0.00000000000E+00 -0.23375795167E+03  0.13179494733E+04  0.12970535973E+04 0.  0.
        1    1    3    3  502    0 -0.61727731391E+03 -0.19762629487E+03 -0.94167744736E+02  0.65494656184E+03  0.50400001928E-02 0.  1.
       -1    1    3    3    0  502  0.61727731391E+03  0.19762629487E+03 -0.13959020693E+03  0.66300291144E+03  0.50400001928E-02 0. -1.
</event>
<event>
 5   0  0.3337520E-04  0.1302244E+04  0.7818609E-02  0.9027787E-01
       -1   -1    0    0    0  501  0.00000000000E+00  0.00000000000E+00  0.43318009418E+03  0.43318009420E+03  0.50400001928E-02 0.  1.
        1   -1    0    0  501    0  0.00000000000E+00  0.00000000000E+00 -0.97871573039E+03  0.97871573040E+03  0.50400001928E-02 0. -1.
    10030    2    1    2    0    0  0.00000000000E+00  0.00000000000E+00 -0.54553563622E+03  0.14118958246E+04  0.13022444813E+04 0.  0.
        5    1    3    3  502    0  0.43520116362E+03 -0.42234711113E+03 -0.52970522705E+03  0.80522472183E+03  0.46999998093E+01 0. -1.
       -5    1    3    3    0  502 -0.43520116362E+03  0.42234711113E+03 -0.15830409169E+02  0.60667110278E+03  0.46999998093E+01 0.  1.
</event>
<event>
 5   0  0.2255875E-04  0.1299951E+04  0.7818609E-02  0.9029604E-01
        3   -1    0    0  501    0  0.00000000000E+00  0.00000000000E+00  0.23473792986E+03  0.23473795158E+03  0.10100000352E+00 0.  1.
       -3   -1    0    0    0  501  0.00000000000E+00  0.00000000000E+00 -0.17997427533E+04  0.17997427562E+04  0.10100000352E+00 0. -1.
    10030    2    1    2    0    0  0.00000000000E+00  0.00000000000E+00 -0.15650048235E+04  0.20344807078E+04  0.12999506347E+04 0.  0.
        4    1    3    3  502    0 -0.39487147735E+03  0.51190173856E+03 -0.67752271671E+03  0.93648572766E+03  0.12699999809E+01 0.  1.
       -4    1    3    3    0  502  0.39487147735E+03 -0.51190173856E+03 -0.88748210679E+03  0.10979949801E+04  0.12699999809E+01 0. -1.
</event>
<event>
 5   0  0.5787604E-04  0.1304564E+04  0.7818609E-02  0.9025954E-01
        2   -1    0    0  501    0  0.00000000000E+00  0.00000000000E+00  0.14207322398E+04  0.14207322398E+04  0.25500000920E-02 0.  1.
       -2   -1    0    0    0  501  0.00000000000E+00  0.00000000000E+00 -0.29947348911E+03  0.29947348912E+03  0.25500000920E-02 0. -1.
    10030    2    1    2    0    0  0.00000000000E+00  0.00000000000E+00  0.11212587507E+04  0.17202057290E+04  0.13045637447E+04 0.  0.
        4    1    3    3  502    0 -0.42237003078E+02 -0.23620172617E+03  0.13604211151E+04  0.13814204440E+04  0.12699999809E+01 0.  1.
       -4    1    3    3    0  502  0.42237003078E+02  0.23620172617E+03 -0.23916236436E+03  0.33878528495E+03  0.12699999809E+01 0. -1.
</event>
<event>
 5   0  0.6052864E-04  0.1303189E+04  0.7818609E-02  0.9027040E-01
        2   -1    0    0  501    0  0.00000000000E+00  0.00000000000E+00  0.10193995906E+04  0.10193995906E+04  0.25500000920E-02 0.  1.
       -2   -1    0    0    0  501  0.00000000000E+00  0.00000000000E+00 -0.41649555912E+03  0.41649555913E+03  0.25500000920E-02 0. -1.
    10030    2    1    2    0    0  0.00000000000E+00  0.00000000000E+00  0.60290403146E+03  0.14358951497E+04  0.13031890154E+04 0.  0.
        2    1    3    3  502    0 -0.50413199422E+03 -0.31544968069E+03  0.59487426956E+03  0.84114978763E+03  0.25500000920E-02 0.  1.
       -2    1    3    3    0  502  0.50413199422E+03  0.31544968069E+03  0.80297619043E+01  0.59474536209E+03  0.25500000920E-02 0. -1.
</event>
<event>
 5   0  0.3263679E-04  0.1306999E+04  0.7818609E-02  0.9024033E-01
        1   -1    0    0  501    0  0.00000000000E+00  0.00000000000E+00  0.10975198151E+04  0.10975198152E+04  0.50400001928E-02 0. -1.
       -1   -1    0    0    0  501  0.00000000000E+00  0.00000000000E+00 -0.38911527813E+03  0.38911527816E+03  0.50400001928E-02 0.  1.
    10030    2    1    2    0    0  0.00000000000E+00  0.00000000000E+00  0.70840453702E+03  0.14866350933E+04  0.13069992015E+04 0.  0.
        2    1    3    3  502    0 -0.51355249718E+03 -0.34611141533E+03  0.11688157542E+03  0.63023057833E+03  0.25500000920E-02 0. -1.
       -2    1    3    3    0  502  0.51355249718E+03  0.34611141533E+03  0.59152296160E+03  0.85640451499E+03  0.25500000920E-02 0.  1.
</event>
<event>
 5   0  0.2255875E-04  0.1295684E+04  0.7818609E-02  0.9032994E-01
       -4   -1    0    0    0  501  0.00000000000E+00  0.00000000000E+00  0.12107973926E+04  0.12107980587E+04  0.12699999809E+01 0. -1.
        4   -1    0    0  501    0  0.00000000000E+00  0.00000000000E+00 -0.34662878214E+03  0.34663110869E+03  0.12699999809E+01 0.  1.
    10030    2    1    2    0    0  0.00000000000E+00  0.00000000000E+00  0.86416861046E+03  0.15574291673E+04  0.12956844616E+04 0.  0.
        2    1    3    3  502    0  0.27814726104E+03  0.58473410826E+03  0.45670884309E+03  0.79237796760E+03  0.25500000920E-02 0. -1.
       -2    1    3    3    0  502 -0.27814726104E+03 -0.58473410826E+03  0.40745976737E+03  0.76505119974E+03  0.25500000920E-02 0.  1.
</event>
<event>
 5   0  0.5957913E-04  0.1270733E+04  0.7818609E-02  0.9053102E-01
       -2   -1    0    0    0  501  0.00000000000E+00  0.00000000000E+00  0.71640892629E+03  0.71640892629E+03  0.25500000920E-02 0. -1.
        2   -1    0    0  501    0  0.00000000000E+00  0.00000000000E+00 -0.56349185554E+03  0.56349185555E+03  0.25500000920E-02 0.  1.
    10030    2    1    2    0    0  0.00000000000E+00  0.00000000000E+00  0.15291707075E+03  0.12799007818E+04  0.12707330093E+04 0.  0.
        1    1    3    3  502    0 -0.55445303258E+03 -0.38715184255E+01  0.38895071206E+03  0.67728561953E+03  0.50400001928E-02 0. -1.
       -1    1    3    3    0  502  0.55445303258E+03  0.38715184255E+01 -0.23603364131E+03  0.60261516231E+03  0.50400001928E-02 0.  1.
</event>
<event>
 5   0  0.3274879E-04  0.1304249E+04  0.7818609E-02  0.9026203E-01
       -1   -1    0    0    0  501  0.00000000000E+00  0.00000000000E+00  0.32205264453E+03  0.32205264457E+03  0.50400001928E-02 0. -1.
        1   -1    0    0  501    0  0.00000000000E+00  0.00000000000E+00 -0.13204863317E+04  0.13204863317E+04  0.50400001928E-02 0.  1.
    10030    2    1    2    0    0  0.00000000000E+00  0.00000000000E+00 -0.99843368715E+03  0.16425389763E+04  0.13042486193E+04 0.  0.
        4    1    3    3  502    0 -0.47890933999E+03  0.33131817723E+03 -0.86883579657E+03  0.10459460525E+04  0.12699999809E+01 0.  1.
       -4    1    3    3    0  502  0.47890933999E+03 -0.33131817723E+03 -0.12959789057E+03  0.59659292372E+03  0.12699999809E+01 0. -1.
</event>
<event>
 5   0  0.3337520E-04  0.1285752E+04  0.7818609E-02  0.9040941E-01
        1   -1    0    0  501    0  0.00000000000E+00  0.00000000000E+00  0.11391167083E+04  0.11391167083E+04  0.50400001928E-02 0. -1.
       -1   -1    0    0    0  501  0.00000000000E+00  0.00000000000E+00 -0.36281585735E+03  0.36281585739E+03  0.50400001928E-02 0.  1.
    10030    2    1    2    0    0  0.00000000000E+00  0.00000000000E+00  0.77630085095E+03  0.15019325657E+04  0.12857520837E+04 0.  0.
        5    1    3    3  502    0 -0.29337441291E+03 -0.21354912846E+03  0.10080284445E+04  0.10713613822E+04  0.46999998093E+01 0. -1.
       -5    1    3    3    0  502  0.29337441291E+03  0.21354912846E+03 -0.23172759356E+03  0.43057118346E+03  0.46999998093E+01 0.  1.
</event>
<event>
 5   0  0.3403833E-04  0.1306843E+04  0.7818609E-02  0.9024156E-01
        1   -1    0    0  501    0  0.00000000000E+00  0.00000000000E+00  0.11084421710E+04  0.11084421710E+04  0.50400001928E-02 0. -1.
       -1   -1    0    0    0  501  0.00000000000E+00  0.00000000000E+00 -0.38518884628E+03  0.38518884631E+03  0.50400001928E-02 0.  1.
    10030    2    1    2    0    0  0.00000000000E+00  0.00000000000E+00  0.72325332470E+03  0.14936310173E+04  0.13068428536E+04 0.  0.
        1    1    3    3  502    0 -0.36931367916E+03  0.25616857166E+03 -0.18044633209E+03  0.48433026904E+03  0.50400001928E-02 0.  1.
       -1    1    3    3    0  502  0.36931367916E+03 -0.25616857166E+03  0.90369965679E+03  0.10093007483E+04  0.50400001928E-02 0. -1.
</event>
<event>
 5   0  0.3335747E-04  0.1303117E+04  0.7818609E-02  0.9027097E-01
       -1   -1    0    0    0  501  0.00000000000E+00  0.00000000000E+00  0.72640378305E+03  0.72640378307E+03  0.50400001928E-02 0.  1.
        1   -1    0    0  501    0  0.00000000000E+00  0.00000000000E+00 -0.58442529299E+03  0.58442529301E+03  0.50400001928E-02 0. -1.
    10030    2    1    2    0    0  0.00000000000E+00  0.00000000000E+00  0.14197849006E+03  0.13108290761E+04  0.13031174065E+04 0.  0.
        3    1    3    3  502    0 -0.39625434037E+03  0.30555901266E+03  0.49076555596E+03  0.70088134060E+03  0.10100000352E+00 0.  1.
       -3    1    3    3    0  502  0.39625434037E+03 -0.30555901266E+03 -0.34878706590E+03  0.60994773548E+03  0.10100000352E+00 0. -1.
</event>
<event>
 5   0  0.5384960E-04  0.1308994E+04  0.7818609E-02  0.9022463E-01
        2   -1    0    0  501    0  0.00000000000E+00  0.00000000000E+00  0.10019824054E+04  0.10019824054E+04  0.25500000920E-02 0.  1.
       -2   -1    0    0    0  501  0.00000000000E+00  0.00000000000E+00 -0.42751861947E+03  0.42751861947E+03  0.25500000920E-02 0. -1.
    10030    2    1    2    0    0  0.00000000000E+00  0.00000000000E+00  0.57446378590E+03  0.14295010248E+04  0.13089937123E+04 0.  0.
        3    1    3    3  502    0  0.51063876695E+02 -0.37860520616E+03  0.86758471398E+03  0.94797292565E+03  0.10100000352E+00 0.  1.
       -3    1    3    3    0  502 -0.51063876695E+02  0.37860520616E+03 -0.29312092808E+03  0.48152809919E+03  0.10100000352E+00 0. -1.
</event>
<event>
 5   0  0.5957913E-04  0.1306802E+04  0.7818609E-02  0.9024188E-01
        2   -1    0    0  501    0  0.00000000000E+00  0.00000000000E+00  0.20349931669E+04  0.20349931669E+04  0.25500000920E-02 0. -1.
       -2   -1    0    0    0  501  0.00000000000E+00  0.00000000000E+00 -0.20979571269E+03  0.20979571271E+03  0.25500000920E-02 0.  1.
    10030    2    1    2    0    0  0.00000000000E+00  0.00000000000E+00  0.18251974542E+04  0.22447888796E+04  0.13068019617E+04 0.  0.
        1    1    3    3  502    0 -0.25747545923E+03 -0.20486899441E+03  0.18822931562E+04  0.19108355352E+04  0.50400001928E-02 0. -1.
       -1    1    3    3    0  502  0.25747545923E+03  0.20486899441E+03 -0.57095701993E+02  0.33395334433E+03  0.50400001928E-02 0.  1.
</event>
<event>
 5   0  0.3337520E-04  0.1296849E+04  0.7818609E-02  0.9032067E-01
        1   -1    0    0  501    0  0.00000000000E+00  0.00000000000E+00  0.16735506508E+04  0.16735506508E+04  0.50400001928E-02 0.  1.
       -1   -1    0    0    0  501  0.00000000000E+00  0.00000000000E+00 -0.25123506737E+03  0.25123506742E+03  0.50400001928E-02 0. -1.
    10030    2    1    2    0    0  0.00000000000E+00  0.00000000000E+00  0.14223155835E+04  0.19247857183E+04  0.12968494293E+04 0.  0.
        5    1    3    3  502    0  0.34370073140E+03  0.54445116422E+03  0.59739341594E+03  0.87832695871E+03  0.46999998093E+01 0. -1.
       -5    1    3    3    0  502 -0.34370073140E+03 -0.54445116422E+03  0.82492216751E+03  0.10464587595E+04  0.46999998093E+01 0.  1.
</event>
<event>
 5   0  0.5787604E-04  0.1300910E+04  0.7818609E-02  0.9028844E-01
        2   -1    0    0  501    0  0.00000000000E+00  0.00000000000E+00  0.10965123003E+04  0.10965123003E+04  0.25500000920E-02 0.  1.
       -2   -1    0    0    0  501  0.00000000000E+00  0.00000000000E+00 -0.38585215806E+03  0.38585215807E+03  0.25500000920E-02 0. -1.
    10030    2    1    2    0    0  0.00000000000E+00  0.00000000000E+00  0.71066014225E+03  0.14823644584E+04  0.13009098930E+04 0.  0.
        4    1    3    3  502    0  0.44022510779E+03  0.19704021734E+02  0.90050279333E+03  0.10025434094E+04  0.12699999809E+01 0.  1.
       -4    1    3    3    0  502 -0.44022510779E+03 -0.19704021734E+02 -0.18984265108E+03  0.47982104900E+03  0.12699999809E+01 0. -1.
</event>
<event>
 5   0  0.3263679E-04  0.1292273E+04  0.7818609E-02  0.9035715E-01
       -1   -1    0    0    0  501  0.00000000000E+00  0.00000000000E+00  0.38412325512E+03  0.38412325516E+03  0.50400001928E-02 0.  1.
        1   -1    0    0  501    0  0.00000000000E+00  0.00000000000E+00 -0.10868711925E+04  0.10868711925E+04  0.50400001928E-02 0. -1.
    10030    2    1    2    0    0  0.00000000000E+00  0.00000000000E+00 -0.70274793737E+03  0.14709944477E+04  0.12922731915E+04 0.  0.
        2    1    3    3  502    0  0.86525129311E+01  0.71903375813E+02 -0.10822365617E+04  0.10846570596E+04  0.25500000920E-02 0. -1.
       -2    1    3    3    0  502 -0.86525129311E+01 -0.71903375813E+02  0.37948862432E+03  0.38633738808E+03  0.25500000920E-02 0.  1.
</event>
<event>
 5   0  0.6007125E-04  0.1300837E+04  0.7818609E-02  0.9028901E-01
       -2   -1    0    0    0  501  0.00000000000E+00  0.00000000000E+00  0.36553776438E+03  0.36553776439E+03  0.25500000920E-02 0. -1.
        2   -1    0    0  501    0  0.00000000000E+00  0.00000000000E+00 -0.11573209362E+04  0.11573209362E+04  0.25500000920E-02 0.  1.
    10030    2    1    2    0    0  0.00000000000E+00  0.00000000000E+00 -0.79178317180E+03  0.15228587006E+04  0.13008374344E+04 0.  0.
        5    1    3    3  502    0  0.40811751681E+03 -0.25960985732E+03  0.11313728931E+03  0.49676888165E+03  0.46999998093E+01 0. -1.
       -5    1    3    3    0  502 -0.40811751681E+03  0.25960985732E+03 -0.90492046111E+03  0.10260898189E+04  0.46999998093E+01 0.  1.
</event>
<event>
 5   0  0.6007125E-04  0.1325776E+04  0.7818609E-02  0.9009371E-01
        2   -1    0    0  501    0  0.00000000000E+00  0.00000000000E+00  0.98533215075E+03  0.98533215075E+03  0.25500000920E-02 0.  1.
       -2   -1    0    0    0  501  0.00000000000E+00  0.00000000000E+00 -0.44596153204E+03  0.44596153204E+03  0.25500000920E-02 0. -1.
    10030    2    1    2    0    0  0.00000000000E+00  0.00000000000E+00  0.53937061871E+03  0.14312936828E+04  0.13257756002E+04 0.  0.
        5    1    3    3  502    0 -0.40779393232E+03 -0.41286476973E+03 -0.76196320743E+02  0.58530434700E+03  0.46999998093E+01 0. -1.
       -5    1    3    3    0  502  0.40779393232E+03  0.41286476973E+03  0.61556693946E+03  0.84598933579E+03  0.46999998093E+01 0.  1.
</event>
<event>
 5   0  0.5384960E-04  0.1306493E+04  0.7818609E-02  0.9024432E-01
       -2   -1    0    0    0  501  0.00000000000E+00  0.00000000000E+00  0.29284015532E+03  0.29284015533E+03  0.25500000920E-02 0. -1.
        2   -1    0    0  501    0  0.00000000000E+00  0.00000000000E+00 -0.14572141899E+04  0.14572141899E+04  0.25500000920E-02 0.  1.
    10030    2    1    2    0    0  0.00000000000E+00  0.00000000000E+00 -0.11643740346E+04  0.17500543453E+04  0.13064927550E+04 0.  0.
        3    1    3    3  502    0  0.24692715993E+03  0.47536322522E+03 -0.81370255462E+02  0.54181578685E+03  0.10100000352E+00 0. -1.
       -3    1    3    3    0  502 -0.24692715993E+03 -0.47536322522E+03 -0.10830037792E+04  0.12082385584E+04  0.10100000352E+00 0.  1.
</event>
<event>
 5   0  0.6007125E-04  0.1301972E+04  0.7818609E-02  0.9028003E-01
        2   -1    0    0  501    0  0.00000000000E+00  0.00000000000E+00  0.92777350001E+03  0.92777350001E+03  0.25500000920E-02 0.  1.
       -2   -1    0    0    0  501  0.00000000000E+00  0.00000000000E+00 -0.45677391871E+03  0.45677391872E+03  0.25500000920E-02 0. -1.
    10030    2    1    2    0    0  0.00000000000E+00  0.00000000000E+00  0.47099958130E+03  0.13845474187E+04  0.13019719464E+04 0.  0.
        5    1    3    3  502    0 -0.11852940916E+03 -0.14804372700E+03 -0.42672741717E+03  0.46699522963E+03  0.46999998093E+01 0. -1.
       -5    1    3    3    0  502  0.11852940916E+03  0.14804372700E+03  0.89772699847E+03  0.91755218910E+03  0.46999998093E+01 0.  1.
</event>
<event>
 5   0  0.6052864E-04  0.1295724E+04  0.7818609E-02  0.9032963E-01
        2   -1    0    0  501    0  0.00000000000E+00  0.00000000000E+00  0.10481529636E+04  0.10481529636E+04  0.25500000920E-02 0.  1.
       -2   -1    0    0    0  501  0.00000000000E+00  0.00000000000E+00 -0.40044240066E+03  0.40044240067E+03  0.25500000920E-02 0. -1.
    10030    2    1    2    0    0  0.00000000000E+00  0.00000000000E+00  0.64771056293E+03  0.14485953643E+04  0.12957235647E+04 0.  0.
        2    1    3    3  502    0 -0.60042195809E+03  0.23048268533E+03  0.23656607891E+03  0.68526805390E+03  0.25500000920E-02 0.  1.
       -2    1    3    3    0  502  0.60042195809E+03 -0.23048268533E+03  0.41114448402E+03  0.76332731036E+03  0.25500000920E-02 0. -1.
</event>
<event>
 5   0  0.6007125E-04  0.1307478E+04  0.7818609E-02  0.9023656E-01
        2   -1    0    0  501    0  0.00000000000E+00  0.00000000000E+00  0.53016906144E+03  0.53016906144E+03  0.25500000920E-02 0. -1.
       -2   -1    0    0    0  501  0.00000000000E+00  0.00000000000E+00 -0.80611073675E+03  0.80611073675E+03  0.25500000920E-02 0.  1.
    10030    2    1    2    0    0  0.00000000000E+00  0.00000000000E+00 -0.27594167531E+03  0.13362797982E+04  0.13074784476E+04 0.  0.
        5    1    3    3  502    0  0.15686850097E+03  0.39455737437E+02 -0.78531770136E+03  0.80181697655E+03  0.46999998093E+01 0.  1.
       -5    1    3    3    0  502 -0.15686850097E+03 -0.39455737437E+02  0.50937602605E+03  0.53446282165E+03  0.46999998093E+01 0. -1.
</event>
<event>
 5   0  0.6052864E-04  0.1297846E+04  0.7818609E-02  0.9031275E-01
       -2   -1    0    0    0  501  0.00000000000E+00  0.00000000000E+00  0.25188445808E+03  0.25188445810E+03  0.25500000920E-02 0.  1.
        2   -1    0    0  501    0  0.00000000000E+00  0.00000000000E+00 -0.16718020790E+04  0.16718020790E+04  0.25500000920E-02 0. -1.
    10030    2    1    2    0    0  0.00000000000E+00  0.00000000000E+00 -0.14199176209E+04  0.19236865371E+04  0.12978458471E+04 0.  0.
        2    1    3    3  502    0 -0.32692451530E+03 -0.42289754539E+03 -0.16459435931E+03  0.55929712651E+03  0.25500000920E-02 0.  1.
       -2    1    3    3    0  502  0.32692451530E+03  0.42289754539E+03 -0.12553232616E+04  0.13643894106E+04  0.25500000920E-02 0. -1.
</event>
<event>
 5   0  0.5787604E-04  0.1374236E+04  0.7818609E-02  0.8972682E-01
       -2   -1    0    0    0  501  0.00000000000E+00  0.00000000000E+00  0.43796930041E+03  0.43796930042E+03  0.25500000920E-02 0.  1.
        2   -1    0    0  501    0  0.00000000000E+00  0.00000000000E+00 -0.10780011124E+04  0.10780011124E+04  0.25500000920E-02 0. -1.
    10030    2    1    2    0    0  0.00000000000E+00  0.00000000000E+00 -0.64003181200E+03  0.15159704128E+04  0.13742363597E+04 0.  0.
        4    1    3    3  502    0  0.18087562870E+03  0.24339177002E+03 -0.10001908503E+04  0.10451501790E+04  0.12699999809E+01 0. -1.
       -4    1    3    3    0  502 -0.18087562870E+03 -0.24339177002E+03  0.36015903833E+03  0.47082023380E+03  0.12699999809E+01 0.  1.
</event>
<event>
 5   0  0.5957913E-04  0.1303502E+04  0.7818609E-02  0.9026793E-01
       -2   -1    0    0    0  501  0.00000000000E+00  0.00000000000E+00  0.39179692552E+03  0.39179692553E+03  0.25500000920E-02 0. -1.
        2   -1    0    0  501    0  0.00000000000E+00  0.00000000000E+00 -0.10841826599E+04  0.10841826599E+04  0.25500000920E-02 0.  1.
    10030    2    1    2    0    0  0.00000000000E+00  0.00000000000E+00 -0.69238573437E+03  0.14759795854E+04  0.13035021026E+04 0.  0.
        1    1    3    3  502    0  0.13512648490E+03  0.42816671489E+03  0.18875248105E+03  0.48704558492E+03  0.50400001928E-02 0. -1.
       -1    1    3    3    0  502 -0.13512648490E+03 -0.42816671489E+03 -0.88113821542E+03  0.98893400051E+03  0.50400001928E-02 0.  1.
</event>
<event>
 5   0  0.3403833E-04  0.1293429E+04  0.7818609E-02  0.9034792E-01
        1   -1    0    0  501    0  0.00000000000E+00  0.00000000000E+00  0.12079022659E+04  0.12079022659E+04  0.50400001928E-02 0.  1.
       -1   -1    0    0    0  501  0.00000000000E+00  0.00000000000E+00 -0.34625299723E+03  0.34625299727E+03  0.50400001928E-02 0. -1.
    10030    2    1    2    0    0  0.00000000000E+00  0.00000000000E+00  0.86164926868E+03  0.15541552632E+04  0.12934292095E+04 0.  0.
        1    1    3    3  502    0  0.48603831466E+03 -0.11758603951E+03  0.92358865551E+03  0.10502741188E+04  0.50400001928E-02 0.  1.
       -1    1    3    3    0  502 -0.48603831466E+03  0.11758603951E+03 -0.61939386828E+02  0.50388114439E+03  0.50400001928E-02 0. -1.
</event>
<event>
 5   0  0.3337520E-04  0.1301722E+04  0.7818609E-02  0.9028201E-01
        1   -1    0    0  501    0  0.00000000000E+00  0.00000000000E+00  0.10599221211E+04  0.10599221212E+04  0.50400001928E-02 0.  1.
       -1   -1    0    0    0  501  0.00000000000E+00  0.00000000000E+00 -0.39967074004E+03  0.39967074007E+03  0.50400001928E-02 0. -1.
    10030    2    1    2    0    0  0.00000000000E+00  0.00000000000E+00  0.66025138111E+03  0.14595928612E+04  0.13017217192E+04 0.  0.
        5    1    3    3  502    0  0.19045837801E+03 -0.10722293734E+03 -0.35727085699E+03  0.41885045935E+03  0.46999998093E+01 0. -1.
       -5    1    3    3    0  502 -0.19045837801E+03  0.10722293734E+03  0.10175222381E+04  0.10407424019E+04  0.46999998093E+01 0.  1.
</event>
<event>
 5   0  0.3263679E-04  0.1304673E+04  0.7818609E-02  0.9025868E-01
        1   -1    0    0  501    0  0.00000000000E+00  0.00000000000E+00  0.54750990139E+03  0.54750990141E+03  0.50400001928E-02 0.  1.
       -1   -1    0    0    0  501  0.00000000000E+00  0.00000000000E+00 -0.77723282424E+03  0.77723282426E+03  0.50400001928E-02 0. -1.
    10030    2    1    2    0    0  0.00000000000E+00  0.00000000000E+00 -0.22972292285E+03  0.13247427257E+04  0.13046726286E+04 0.  0.
        2    1    3    3  502    0  0.45718336699E+03  0.26179117368E+03  0.27575294524E+03  0.59463512887E+03  0.25500000920E-02 0.  1.
       -2    1    3    3    0  502 -0.45718336699E+03 -0.26179117368E+03 -0.50547586809E+03  0.73010759680E+03  0.25500000920E-02 0. -1.
</event>
<event>
 5   0  0.3337520E-04  0.1302903E+04  0.7818609E-02  0.9027266E-01
        1   -1    0    0  501    0  0.00000000000E+00  0.00000000000E+00  0.17028234579E+04  0.17028234579E+04  0.50400001928E-02 0. -1.
       -1   -1    0    0    0  501  0.00000000000E+00  0.00000000000E+00 -0.24922662823E+03  0.24922662828E+03  0.50400001928E-02 0.  1.
    10030    2    1    2    0    0  0.00000000000E+00  0.00000000000E+00  0.14535968296E+04  0.19520500861E+04  0.13029028343E+04 0.  0.
        5    1    3    3  502    0  0.90602893700E+02 -0.38358725651E+03  0.15038864753E+04  0.15546847553E+04  0.46999998093E+01 0. -1.
       -5    1    3    3    0  502 -0.90602893700E+02  0.38358725651E+03 -0.50289645686E+02  0.39736533085E+03  0.46999998093E+01 0.  1.
</event>
<event>
 5   0  0.5957913E-04  0.1298412E+04  0.7818609E-02  0.9030825E-01
        2   -1    0    0  501    0  0.00000000000E+00  0.00000000000E+00  0.10612260251E+04  0.10612260251E+04  0.25500000920E-02 0.  1.
       -2   -1    0    0    0  501  0.00000000000E+00  0.00000000000E+00 -0.39715241741E+03  0.39715241742E+03  0.25500000920E-02 0. -1.
    10030    2    1    2    0    0  0.00000000000E+00  0.00000000000E+00  0.66407360769E+03  0.14583784425E+04  0.12984120783E+04 0.  0.
        1    1    3    3  502    0  0.26272338665E+03  0.41008771296E+02  0.99725587435E+03  0.10320971738E+04  0.50400001928E-02 0.  1.
       -1    1    3    3    0  502 -0.26272338665E+03 -0.41008771296E+02 -0.33318226666E+03  0.42628126872E+03  0.50400001928E-02 0. -1.
</event>
<event>
 5   0  0.5787604E-04  0.1306128E+04  0.7818609E-02  0.9024720E-01
       -2   -1    0    0    0  501  0.00000000000E+00  0.00000000000E+00  0.57507605149E+03  0.57507605149E+03  0.25500000920E-02 0. -1.
        2   -1    0    0  501    0  0.00000000000E+00  0.00000000000E+00 -0.74162837613E+03  0.74162837614E+03  0.25500000920E-02 0.  1.
    10030    2    1    2    0    0  0.00000000000E+00  0.00000000000E+00 -0.16655232465E+03  0.13167044276E+04  0.13061281993E+04 0.  0.
        4    1    3    3  502    0 -0.48380116706E+03  0.38584085210E+03 -0.29366290646E+03  0.68496441362E+03  0.12699999809E+01 0.  1.
       -4    1    3    3    0  502  0.48380116706E+03 -0.38584085210E+03  0.12711058181E+03  0.63174001401E+03  0.12699999809E+01 0. -1.
</event>
<event>
 5   0  0.3274879E-04  0.1299600E+04  0.7818609E-02  0.9029883E-01
       -1   -1    0    0    0  501  0.00000000000E+00  0.00000000000E+00  0.43374037080E+03  0.43374037083E+03  0.50400001928E-02 0.  1.
        1   -1    0    0  501    0  0.00000000000E+00  0.00000000000E+00 -0.97348546986E+03  0.97348546987E+03  0.50400001928E-02 0. -1.
    10030    2    1    2    0    0  0.00000000000E+00  0.00000000000E+00 -0.53974509906E+03  0.14072258407E+04  0.12995998595E+04 0.  0.
        4    1    3    3  502    0  0.16559984976E+03  0.70606947442E+02  0.40619734771E+03  0.44430456835E+03  0.12699999809E+01 0.  1.
       -4    1    3    3    0  502 -0.16559984976E+03 -0.70606947442E+02 -0.94594244677E+03  0.96292127236E+03  0.12699999809E+01 0. -1.
</event>
<event>
 5   0  0.3263679E-04  0.1305272E+04  0.7818609E-02  0.9025394E-01
        1   -1    0    0  501    0  0.00000000000E+00  0.00000000000E+00  0.11944074942E+04  0.11944074942E+04  0.50400001928E-02 0.  1.
       -1   -1    0    0    0  501  0.00000000000E+00  0.00000000000E+00 -0.35660696874E+03  0.35660696878E+03  0.50400001928E-02 0. -1.
    10030    2    1    2    0    0  0.00000000000E+00  0.00000000000E+00  0.83780052545E+03  0.15510144630E+04  0.13052724405E+04 0.  0.
        2    1    3    3  502    0 -0.31304063262E+03  0.50800315387E+03  0.73299994043E+03  0.94517223546E+03  0.25500000920E-02 0.  1.
       -2    1    3    3    0  502  0.31304063262E+03 -0.50800315387E+03  0.10480058502E+03  0.60584222752E+03  0.25500000920E-02 0. -1.
</event>
<event>
 5   0  0.3263679E-04  0.1299403E+04  0.7818609E-02  0.9030039E-01
        1   -1    0    0  501    0  0.00000000000E+00  0.00000000000E+00  0.12353235706E+04  0.12353235706E+04  0.50400001928E-02 0. -1.
       -1   -1    0    0    0  501  0.00000000000E+00  0.00000000000E+00 -0.34170148071E+03  0.34170148075E+03  0.50400001928E-02 0.  1.
    10030    2    1    2    0    0  0.00000000000E+00  0.00000000000E+00  0.89362208987E+03  0.15770250513E+04  0.12994027755E+04 0.  0.
        2    1    3    3  502    0 -0.34166274310E+00  0.44572573631E+03 -0.12687673392E+03  0.46343203856E+03  0.25500000920E-02 0.  1.
       -2    1    3    3    0  502  0.34166274310E+00 -0.44572573631E+03  0.10204988238E+04  0.11135930128E+04  0.25500000920E-02 0. -1.
</event>
<event>
 5   0  0.6052864E-04  0.1301141E+04  0.7818609E-02  0.9028661E-01
       -2   -1    0    0    0  501  0.00000000000E+00  0.00000000000E+00  0.30002992386E+03  0.30002992387E+03  0.25500000920E-02 0. -1.
        2   -1    0    0  501    0  0.00000000000E+00  0.00000000000E+00 -0.14106667187E+04  0.14106667187E+04  0.25500000920E-02 0.  1.
    10030    2    1    2    0    0  0.00000000000E+00  0.00000000000E+00 -0.11106367949E+04  0.17106966426E+04  0.13011413885E+04 0.  0.
        2    1    3    3  502    0 -0.64384645066E+03 -0.82760882970E+02 -0.61193907935E+03  0.89210820679E+03  0.25500000920E-02 0.  1.
       -2    1    3    3    0  502  0.64384645066E+03  0.82760882970E+02 -0.49869771551E+03  0.81858843581E+03  0.25500000920E-02 0. -1.
</event>
<event>
 5   0  0.3274879E-04  0.1302013E+04  0.7818609E-02  0.9027970E-01
        1   -1    0    0  501    0  0.00000000000E+00  0.00000000000E+00  0.42875247745E+03  0.42875247748E+03  0.50400001928E-02 0.  1.
       -1   -1    0    0    0  501  0.00000000000E+00  0.00000000000E+00 -0.98847155681E+03  0.98847155682E+03  0.50400001928E-02 0. -1.
    10030    2    1    2    0    0  0.00000000000E+00  0.00000000000E+00 -0.55971907936E+03  0.14172240343E+04  0.13020132548E+04 0.  0.
        4    1    3    3  502    0  0.42491196204E+03  0.28640093750E+03  0.15720863732E+03  0.53599612035E+03  0.12699999809E+01 0.  1.
       -4    1    3    3    0  502 -0.42491196204E+03 -0.28640093750E+03 -0.71692771668E+03  0.88122791395E+03  0.12699999809E+01 0. -1.
</event>
<event>
 5   0  0.3263679E-04  0.1298253E+04  0.7818609E-02  0.9030952E-01
       -1   -1    0    0    0  501  0.00000000000E+00  0.00000000000E+00  0.61768203341E+03  0.61768203344E+03  0.50400001928E-02 0. -1.
        1   -1    0    0  501    0  0.00000000000E+00  0.00000000000E+00 -0.68217126577E+03  0.68217126579E+03  0.50400001928E-02 0.  1.
    10030    2    1    2    0    0  0.00000000000E+00  0.00000000000E+00 -0.64489232355E+02  0.12998532992E+04  0.12982525711E+04 0.  0.
        2    1    3    3  502    0  0.57242893489E+03 -0.28850129449E+03 -0.13463043009E+03  0.65500628633E+03  0.25500000920E-02 0.  1.
       -2    1    3    3    0  502 -0.57242893489E+03  0.28850129449E+03  0.70141197732E+02  0.64484701290E+03  0.25500000920E-02 0. -1.
</event>
<event>
 5   0  0.3335747E-04  0.1300608E+04  0.7818609E-02  0.9029083E-01
        1   -1    0    0  501    0  0.00000000000E+00  0.00000000000E+00  0.92832198577E+03  0.92832198578E+03  0.50400001928E-02 0. -1.
       -1   -1    0    0    0  501  0.00000000000E+00  0.00000000000E+00 -0.45554811875E+03  0.45554811878E+03  0.50400001928E-02 0.  1.
    10030    2    1    2    0    0  0.00000000000E+00  0.00000000000E+00  0.47277386701E+03  0.13838701046E+04  0.13006080643E+04 0.  0.
        3    1    3    3  502    0  0.86928463833E+02  0.28105723066E+03 -0.38069347717E+03  0.48112083565E+03  0.10100000352E+00 0.  1.
       -3    1    3    3    0  502 -0.86928463833E+02 -0.28105723066E+03  0.85346734419E+03  0.90274926891E+03  0.10100000352E+00 0. -1.
</event>
<event>
 5   0  0.3274879E-04  0.1299716E+04  0.7818609E-02  0.9029790E-01
        1   -1    0    0  501    0  0.00000000000E+00  0.00000000000E+00  0.21856516606E+03  0.21856516612E+03  0.50400001928E-02 0. -1.
       -1   -1    0    0    0  501  0.00000000000E+00  0.00000000000E+00 -0.19322174117E+04  0.19322174117E+04  0.50400001928E-02 0.  1.
    10030    2    1    2    0    0  0.00000000000E+00  0.00000000000E+00 -0.17136522456E+04  0.21507825778E+04  0.12997159990E+04 0.  0.
        4    1    3    3  502    0 -0.38262106666E+03  0.27346083977E+02 -0.17248792625E+04  0.17670191770E+04  0.12699999809E+01 0.  1.
       -4    1    3    3    0  502  0.38262106666E+03 -0.27346083977E+02  0.11227016862E+02  0.38376340077E+03  0.12699999809E+01 0. -1.
</event>
<event>
 5   0  0.5787604E-04  0.1284931E+04  0.7818609E-02  0.9041601E-01
        2   -1    0    0  501    0  0.00000000000E+00  0.00000000000E+00  0.26025720405E+04  0.26025720405E+04  0.25500000920E-02 0.  1.
       -2   -1    0    0    0  501  0.00000000000E+00  0.00000000000E+00 -0.15859768208E+03  0.15859768210E+03  0.25500000920E-02 0. -1.
    10030    2    1    2    0    0  0.00000000000E+00  0.00000000000E+00  0.24439743584E+04  0.27611697226E+04  0.12849309602E+04 0.  0.
        4    1    3    3  502    0  0.53653681838E+03 -0.35099100622E+03  0.13104272382E+04  0.14588651766E+04  0.12699999809E+01 0.  1.
       -4    1    3    3    0  502 -0.53653681838E+03  0.35099100622E+03  0.11335471202E+04  0.13023045460E+04  0.12699999809E+01 0. -1.
</event>
<event>
 5   0  0.6052864E-04  0.1303408E+04  0.7818609E-02  0.9026867E-01
        2   -1    0    0  501    0  0.00000000000E+00  0.00000000000E+00  0.11102788011E+04  0.11102788011E+04  0.25500000920E-02 0.  1.
       -2   -1    0    0    0  501  0.00000000000E+00  0.00000000000E+00 -0.38253298745E+03  0.38253298746E+03  0.25500000920E-02 0. -1.
    10030    2    1    2    0    0  0.00000000000E+00  0.00000000000E+00  0.72774581362E+03  0.14928117885E+04  0.13034082502E+04 0.  0.
        2    1    3    3  502    0  0.23109351624E+03  0.23953195559E+03 -0.27784901701E+03  0.43356642773E+03  0.25500000920E-02 0. -1.
       -2    1    3    3    0  502 -0.23109351624E+03 -0.23953195559E+03  0.10055948306E+04  0.10592453608E+04  0.25500000920E-02 0.  1.
</event>
<event>
 5   0  0.6007125E-04  0.1305638E+04  0.7818609E-02  0.9025106E-01
       -2   -1    0    0    0  501  0.00000000000E+00  0.00000000000E+00  0.17984691009E+03  0.17984691010E+03  0.25500000920E-02 0. -1.
        2   -1    0    0  501    0  0.00000000000E+00  0.00000000000E+00 -0.23696420600E+04  0.23696420600E+04  0.25500000920E-02 0.  1.
    10030    2    1    2    0    0  0.00000000000E+00  0.00000000000E+00 -0.21897951499E+04  0.25494889701E+04  0.13056382386E+04 0.  0.
        5    1    3    3  502    0 -0.36218177008E+03 -0.42098524724E+03 -0.42485209937E+03  0.69923215695E+03  0.46999998093E+01 0. -1.
       -5    1    3    3    0  502  0.36218177008E+03  0.42098524724E+03 -0.17649430506E+04  0.18502568132E+04  0.46999998093E+01 0.  1.
</event>
<event>
 5   0  0.5384960E-04  0.1300216E+04  0.7818609E-02  0.9029394E-01
       -2   -1    0    0    0  501  0.00000000000E+00  0.00000000000E+00  0.79084776222E+03  0.79084776223E+03  0.25500000920E-02 0. -1.
        2   -1    0    0  501    0  0.00000000000E+00  0.00000000000E+00 -0.53441425516E+03  0.53441425517E+03  0.25500000920E-02 0.  1.
    10030    2    1    2    0    0  0.00000000000E+00  0.00000000000E+00  0.25643350706E+03  0.13252620174E+04  0.13002158556E+04 0.  0.
        3    1    3    3  502    0 -0.18161937612E+03 -0.58555113325E+03  0.34868074277E+03  0.70529000986E+03  0.10100000352E+00 0. -1.
       -3    1    3    3    0  502  0.18161937612E+03  0.58555113325E+03 -0.92247235710E+02  0.61997200753E+03  0.10100000352E+00 0.  1.
</event>
<event>
 5   0  0.5957913E-04  0.1308806E+04  0.7818609E-02  0.9022611E-01
        2   -1    0    0  501    0  0.00000000000E+00  0.00000000000E+00  0.94002589477E+03  0.94002589477E+03  0.25500000920E-02 0.  1.
       -2   -1    0    0    0  501  0.00000000000E+00  0.00000000000E+00 -0.45556539831E+03  0.45556539832E+03  0.25500000920E-02 0. -1.
    10030    2    1    2    0    0  0.00000000000E+00  0.00000000000E+00  0.48446049646E+03  0.13955912931E+04  0.13088059767E+04 0.  0.
        1    1    3    3  502    0  0.22167695421E+02 -0.37669804169E+03 -0.32787156422E+03  0.49989257244E+03  0.50400001928E-02 0. -1.
       -1    1    3    3    0  502 -0.22167695421E+02  0.37669804169E+03  0.81233206068E+03  0.89569872065E+03  0.50400001928E-02 0.  1.
</event>
<event>
 5   0  0.3335747E-04  0.1258402E+04  0.7818609E-02  0.9063219E-01
       -1   -1    0    0    0  501  0.00000000000E+00  0.00000000000E+00  0.11690588552E+04  0.11690588552E+04  0.50400001928E-02 0. -1.
        1   -1    0    0  501    0  0.00000000000E+00  0.00000000000E+00 -0.33864304215E+03  0.33864304219E+03  0.50400001928E-02 0.  1.
    10030    2    1    2    0    0  0.00000000000E+00  0.00000000000E+00  0.83041581304E+03  0.15077018974E+04  0.12584016008E+04 0.  0.
        3    1    3    3  502    0  0.19918749317E+03 -0.10235182429E+03  0.11196938657E+04  0.11418694831E+04  0.10100000352E+00 0. -1.
       -3    1    3    3    0  502 -0.19918749317E+03  0.10235182429E+03 -0.28927805267E+03  0.36583241427E+03  0.10100000352E+00 0.  1.
</event>
<event>
 5   0  0.3335747E-04  0.1288655E+04  0.7818609E-02  0.9038610E-01
       -1   -1    0    0    0  501  0.00000000000E+00  0.00000000000E+00  0.30332271175E+03  0.30332271179E+03  0.50400001928E-02 0.  1.
        1   -1    0    0  501    0  0.00000000000E+00  0.00000000000E+00 -0.13687006146E+04  0.13687006146E+04  0.50400001928E-02 0. -1.
    10030    2    1    2    0    0  0.00000000000E+00  0.00000000000E+00 -0.10653779028E+04  0.16720233264E+04  0.12886550850E+04 0.  0.
        3    1    3    3  502    0  0.13441723740E+03  0.50817412208E+03 -0.49210546633E+02  0.52794944849E+03  0.10100000352E+00 0.  1.
       -3    1    3    3    0  502 -0.13441723740E+03 -0.50817412208E+03 -0.10161673562E+04  0.11440738779E+04  0.10100000352E+00 0. -1.
</event>
<event>
 5   0  0.5384960E-04  0.1309191E+04  0.7818609E-02  0.9022308E-01
        2   -1    0    0  501    0  0.00000000000E+00  0.00000000000E+00  0.14433310896E+04  0.14433310896E+04  0.25500000920E-02 0.  1.
       -2   -1    0    0    0  501  0.00000000000E+00  0.00000000000E+00 -0.29687949346E+03  0.29687949347E+03  0.25500000920E-02 0. -1.
    10030    2    1    2    0    0  0.00000000000E+00  0.00000000000E+00  0.11464515962E+04  0.17402105831E+04  0.13091912050E+04 0.  0.
        3    1    3    3  502    0 -0.27652653144E+03  0.14773597032E+03 -0.19059053313E+03  0.36690271331E+03  0.10100000352E+00 0. -1.
       -3    1    3    3    0  502  0.27652653144E+03 -0.14773597032E+03  0.13370421293E+04  0.13733078698E+04  0.10100000352E+00 0.  1.
</event>
<event>
 5   0  0.3263679E-04  0.1301515E+04  0.7818609E-02  0.9028365E-01
       -1   -1    0    0    0  501  0.00000000000E+00  0.00000000000E+00  0.54365198723E+03  0.54365198726E+03  0.50400001928E-02 0.  1.
        1   -1    0    0  501    0  0.00000000000E+00  0.00000000000E+00 -0.77896360488E+03  0.77896360490E+03  0.50400001928E-02 0. -1.
    10030    2    1    2    0    0  0.00000000000E+00  0.00000000000E+00 -0.23531161765E+03  0.13226155922E+04  0.13015146742E+04 0.  0.
        2    1    3    3  502    0  0.36391921890E+02 -0.54731926121E+03 -0.47347879093E+03  0.72461362886E+03  0.25500000920E-02 0. -1.
       -2    1    3    3    0  502 -0.36391921890E+02  0.54731926121E+03  0.23816717328E+03  0.59800196329E+03  0.25500000920E-02 0.  1.
</event>
<event>
 5   0  0.5957913E-04  0.1301574E+04  0.7818609E-02  0.9028318E-01
        2   -1    0    0  501    0  0.00000000000E+00  0.00000000000E+00  0.20696145258E+04  0.20696145258E+04  0.25500000920E-02 0.  1.
       -2   -1    0    0    0  501  0.00000000000E+00  0.00000000000E+00 -0.20463895414E+03  0.20463895415E+03  0.25500000920E-02 0. -1.
    10030    2    1    2    0    0  0.00000000000E+00  0.00000000000E+00  0.18649755717E+04  0.22742534800E+04  0.13015740502E+04 0.  0.
        1    1    3    3  502    0 -0.56212102521E+02  0.23103518866E+03  0.19909982242E+04  0.20051461262E+04  0.50400001928E-02 0.  1.
       -1    1    3    3    0  502  0.56212102521E+02 -0.23103518866E+03 -0.12602265250E+03  0.26910735374E+03  0.50400001928E-02 0. -1.
</event>
<event>
 5   0  0.5384960E-04  0.1303072E+04  0.7818609E-02  0.9027132E-01
        2   -1    0    0  501    0  0.00000000000E+00  0.00000000000E+00  0.80928765010E+03  0.80928765010E+03  0.25500000920E-02 0.  1.
       -2   -1    0    0    0  501  0.00000000000E+00  0.00000000000E+00 -0.52453467598E+03  0.52453467599E+03  0.25500000920E-02 0. -1.
    10030    2    1    2    0    0  0.00000000000E+00  0.00000000000E+00  0.28475297412E+03  0.13338223261E+04  0.13030724237E+04 0.  0.
        3    1    3    3  502    0  0.25843583559E+03 -0.53847165285E+03 -0.12407105269E+03  0.61002822751E+03  0.10100000352E+00 0.  1.
       -3    1    3    3    0  502 -0.25843583559E+03  0.53847165285E+03  0.40882402680E+03  0.72379409858E+03  0.10100000352E+00 0. -1.
</event>
<event>
 5   0  0.3403833E-04  0.1304123E+04  0.7818609E-02  0.9026302E-01
       -1   -1    0    0    0  501  0.00000000000E+00  0.00000000000E+00  0.89511275971E+03  0.89511275972E+03  0.50400001928E-02 0.  1.
        1   -1    0    0  501    0  0.00000000000E+00  0.00000000000E+00 -0.47500610814E+03  0.47500610817E+03  0.50400001928E-02 0. -1.
    10030    2    1    2    0    0  0.00000000000E+00  0.00000000000E+00  0.42010665157E+03  0.13701188679E+04  0.13041227371E+04 0.  0.
        1    1    3    3  502    0 -0.47003716631E+03 -0.98722969755E+02  0.67339651391E+03  0.82712999428E+03  0.50400001928E-02 0.  1.
       -1    1    3    3    0  502  0.47003716631E+03  0.98722969755E+02 -0.25328986234E+03  0.54298887361E+03  0.50400001928E-02 0. -1.
</event>
<event>
 5   0  0.5384960E-04  0.1301744E+04  0.7818609E-02  0.9028183E-01
        2   -1    0    0  501    0  0.00000000000E+00  0.00000000000E+00  0.13219712186E+04  0.13219712186E+04  0.25500000920E-02 0.  1.
       -2   -1    0    0    0  501  0.00000000000E+00  0.00000000000E+00 -0.32045666271E+03  0.32045666272E+03  0.25500000920E-02 0. -1.
    10030    2    1    2    0    0  0.00000000000E+00  0.00000000000E+00  0.10015145559E+04  0.16424278813E+04  0.13017441913E+04 0.  0.
        3    1    3    3  502    0 -0.40464763642E+03  0.16146742260E+03 -0.10934733473E+03  0.44918625095E+03  0.10100000352E+00 0. -1.
       -3    1    3    3    0  502  0.40464763642E+03 -0.16146742260E+03  0.11108618906E+04  0.11932416304E+04  0.10100000352E+00 0.  1.
</event>
<event>
 5   0  0.5957913E-04  0.1298604E+04  0.7818609E-02  0.9030673E-01
       -2   -1    0    0    0  501  0.00000000000E+00  0.00000000000E+00  0.40651634641E+03  0.40651634642E+03  0.25500000920E-02 0. -1.
        2   -1    0    0  501    0  0.00000000000E+00  0.00000000000E+00 -0.10370877135E+04  0.10370877135E+04  0.25500000920E-02 0.  1.
    10030    2    1    2    0    0  0.00000000000E+00  0.00000000000E+00 -0.63057136710E+03  0.14436040599E+04  0.12986040323E+04 0.  0.
        1    1    3    3  502    0 -0.33260930508E+03  0.54718881463E+03 -0.19582217763E+03  0.66961994740E+03  0.50400001928E-02 0. -1.
       -1    1    3    3    0  502  0.33260930508E+03 -0.54718881463E+03 -0.43474918947E+03  0.77398411253E+03  0.50400001928E-02 0.  1.
</event>
<event>
 5   0  0.3263679E-04  0.1300407E+04  0.7818609E-02  0.9029242E-01
        1   -1    0    0  501    0  0.00000000000E+00  0.00000000000E+00  0.12150359080E+04  0.12150359080E+04  0.50400001928E-02 0.  1.
       -1   -1    0    0    0  501  0.00000000000E+00  0.00000000000E+00 -0.34794423550E+03  0.34794423554E+03  0.50400001928E-02 0. -1.
    10030    2    1    2    0    0  0.00000000000E+00  0.00000000000E+00  0.86709167252E+03  0.15629801436E+04  0.13004072288E+04 0.  0.
        2    1    3    3  502    0 -0.44962027750E+03 -0.63181977717E+01  0.99801963663E+03  0.10946421829E+04  0.25500000920E-02 0.  1.
       -2    1    3    3    0  502  0.44962027750E+03  0.63181977717E+01 -0.13092796412E+03  0.46833796062E+03  0.25500000920E-02 0. -1.
</event>
<event>
 5   0  0.5787604E-04  0.1299636E+04  0.7818609E-02  0.9029854E-01
       -2   -1    0    0    0  501  0.00000000000E+00  0.00000000000E+00  0.52652014944E+03  0.52652014944E+03  0.25500000920E-02 0. -1.
        2   -1    0    0  501    0  0.00000000000E+00  0.00000000000E+00 -0.80198906470E+03  0.80198906470E+03  0.25500000920E-02 0.  1.
    10030    2    1    2    0    0  0.00000000000E+00  0.00000000000E+00 -0.27546891526E+03  0.13285092141E+04  0.12996359524E+04 0.  0.
        4    1    3    3  502    0  0.38768919582E+03 -0.20539287068E+03 -0.62772987254E+03  0.76585608939E+03  0.12699999809E+01 0.  1.
       -4    1    3    3    0  502 -0.38768919582E+03  0.20539287068E+03  0.35226095728E+03  0.56265312476E+03  0.12699999809E+01 0. -1.
</event>
<event>
 5   0  0.6052864E-04  0.1302358E+04  0.7818609E-02  0.9027697E-01
        2   -1    0    0  501    0  0.00000000000E+00  0.00000000000E+00  0.16747130969E+04  0.16747130969E+04  0.25500000920E-02 0.  1.
       -2   -1    0    0    0  501  0.00000000000E+00  0.00000000000E+00 -0.25319805618E+03  0.25319805620E+03  0.25500000920E-02 0. -1.
    10030    2    1    2    0    0  0.00000000000E+00  0.00000000000E+00  0.14215150407E+04  0.19279111531E+04  0.13023580165E+04 0.  0.
        2    1    3    3  502    0 -0.62576863587E+02 -0.56313469646E+03  0.11858411617E+04  0.13142510456E+04  0.25500000920E-02 0.  1.
       -2    1    3    3    0  502  0.62576863587E+02  0.56313469646E+03  0.23567387902E+03  0.61366010744E+03  0.25500000920E-02 0. -1.
</event>
<event>
 5   0  0.3335747E-04  0.1295615E+04  0.7818609E-02  0.9033050E-01
        1   -1    0    0  501    0  0.00000000000E+00  0.00000000000E+00  0.47075506072E+03  0.47075506075E+03  0.50400001928E-02 0.  1.
       -1   -1    0    0    0  501  0.00000000000E+00  0.00000000000E+00 -0.89144982511E+03  0.89144982512E+03  0.50400001928E-02 0. -1.
    10030    2    1    2    0    0  0.00000000000E+00  0.00000000000E+00 -0.42069476439E+03  0.13622048859E+04  0.12956149375E+04 0.  0.
        3    1    3    3  502    0 -0.56294235766E+03  0.30958502186E+03 -0.12296424280E+03  0.65411558537E+03  0.10100000352E+00 0. -1.
       -3    1    3    3    0  502  0.56294235766E+03 -0.30958502186E+03 -0.29773052159E+03  0.70808930051E+03  0.10100000352E+00 0.  1.
</event>
<event>
 5   0  0.3274879E-04  0.1300204E+04  0.7818609E-02  0.9029403E-01
       -1   -1    0    0    0  501  0.00000000000E+00  0.00000000000E+00  0.25230051549E+03  0.25230051554E+03  0.50400001928E-02 0.  1.
        1   -1    0    0  501    0  0.00000000000E+00  0.00000000000E+00 -0.16751156875E+04  0.16751156875E+04  0.50400001928E-02 0. -1.
    10030    2    1    2    0    0  0.00000000000E+00  0.00000000000E+00 -0.14228151720E+04  0.19274162031E+04  0.13002039094E+04 0.  0.
        4    1    3    3  502    0 -0.34585820760E+03 -0.53250501313E+03 -0.91815497183E+03  0.11163286496E+04  0.12699999809E+01 0. -1.
       -4    1    3    3    0  502  0.34585820760E+03  0.53250501313E+03 -0.50466020020E+03  0.81108755344E+03  0.12699999809E+01 0.  1.
</event>
<event>
 5   0  0.3337520E-04  0.1299059E+04  0.7818609E-02  0.9030312E-01
        1   -1    0    0  501    0  0.00000000000E+00  0.00000000000E+00  0.46635341365E+03  0.46635341368E+03  0.50400001928E-02 0. -1.
       -1   -1    0    0    0  501  0.00000000000E+00  0.00000000000E+00 -0.90465357697E+03  0.90465357698E+03  0.50400001928E-02 0.  1.
    10030    2    1    2    0    0  0.00000000000E+00  0.00000000000E+00 -0.43830016331E+03  0.13710069907E+04  0.12990585573E+04 0.  0.
        5    1    3    3  502    0 -0.25782881641E+03  0.32544907344E+03 -0.74628654746E+03  0.85402488189E+03  0.46999998093E+01 0.  1.
       -5    1    3    3    0  502  0.25782881641E+03 -0.32544907344E+03  0.30798638414E+03  0.51698210877E+03  0.46999998093E+01 0. -1.
</event>
<event>
 5   0  0.3274879E-04  0.1294751E+04  0.7818609E-02  0.9033738E-01
        1   -1    0    0  501    0  0.00000000000E+00  0.00000000000E+00  0.26340285983E+03  0.26340285988E+03  0.50400001928E-02 0.  1.
       -1   -1    0    0    0  501  0.00000000000E+00  0.00000000000E+00 -0.15910810992E+04  0.15910810992E+04  0.50400001928E-02 0. -1.
    10030    2    1    2    0    0  0.00000000000E+00  0.00000000000E+00 -0.13276782394E+04  0.18544839591E+04  0.12947514229E+04 0.  0.
        4    1    3    3  502    0 -0.12082444592E+03 -0.61403905413E+03 -0.90114980269E+03  0.10971395018E+04  0.12699999809E+01 0. -1.
       -4    1    3    3    0  502  0.12082444592E+03  0.61403905413E+03 -0.42652843671E+03  0.75734445726E+03  0.12699999809E+01 0.  1.
</event>
<event>
 5   0  0.3403833E-04  0.1300446E+04  0.7818609E-02  0.9029211E-01
       -1   -1    0    0    0  501  0.00000000000E+00  0.00000000000E+00  0.23141353995E+03  0.23141354001E+03  0.50400001928E-02 0. -1.
        1   -1    0    0  501    0  0.00000000000E+00  0.00000000000E+00 -0.18269893627E+04  0.18269893628E+04  0.50400001928E-02 0.  1.
    10030    2    1    2    0    0  0.00000000000E+00  0.00000000000E+00 -0.15955758228E+04  0.20584029028E+04  0.13004461941E+04 0.  0.
        1    1    3    3  502    0  0.41423584358E+03  0.11801235086E+03 -0.26776005035E+02  0.43154976947E+03  0.50400001928E-02 0. -1.
       -1    1    3    3    0  502 -0.41423584358E+03 -0.11801235086E+03 -0.15687998178E+04  0.16268531333E+04  0.50400001928E-02 0.  1.
</event>
<event>
 5   0  0.6007125E-04  0.1302834E+04  0.7818609E-02  0.9027321E-01
       -2   -1    0    0    0  501  0.00000000000E+00  0.00000000000E+00  0.23957964078E+03  0.23957964080E+03  0.25500000920E-02 0. -1.
        2   -1    0    0  501    0  0.00000000000E+00  0.00000000000E+00 -0.17712028427E+04  0.17712028427E+04  0.25500000920E-02 0.  1.
    10030    2    1    2    0    0  0.00000000000E+00  0.00000000000E+00 -0.15316232019E+04  0.20107824835E+04  0.13028340505E+04 0.  0.
        5    1    3    3  502    0 -0.20405006938E+02  0.54454642071E+03 -0.21498121410E+03  0.58582094622E+03  0.46999998093E+01 0. -1.
       -5    1    3    3    0  502  0.20405006938E+02 -0.54454642071E+03 -0.13166419878E+04  0.14249615372E+04  0.46999998093E+01 0.  1.
</event>
<event>
 5   0  0.3274879E-04  0.1296466E+04  0.7818609E-02  0.9032373E-01
        1   -1    0    0  501    0  0.00000000000E+00  0.00000000000E+00  0.54337887712E+03  0.54337887714E+03  0.50400001928E-02 0.  1.
       -1   -1    0    0    0  501  0.00000000000E+00  0.00000000000E+00 -0.77332018783E+03  0.77332018785E+03  0.50400001928E-02 0. -1.
    10030    2    1    2    0    0  0.00000000000E+00  0.00000000000E+00 -0.22994131072E+03  0.13166990650E+04  0.12964657425E+04 0.  0.
        4    1    3    3  502    0 -0.18634839999E+03  0.56683677051E+03 -0.37225125501E+03  0.70327964590E+03  0.12699999809E+01 0.  1.
       -4    1    3    3    0  502  0.18634839999E+03 -0.56683677051E+03  0.14230994429E+03  0.61341941910E+03  0.12699999809E+01 0. -1.
</event>
<event>
 5   0  0.6007125E-04  0.1298586E+04  0.7818609E-02  0.9030687E-01
        2   -1    0    0  501    0  0.00000000000E+00  0.00000000000E+00  0.72489442362E+03  0.72489442362E+03  0.25500000920E-02 0. -1.
       -2   -1    0    0    0  501  0.00000000000E+00  0.00000000000E+00 -0.58157662096E+03  0.58157662097E+03  0.25500000920E-02 0.  1.
    10030    2    1    2    0    0  0.00000000000E+00  0.00000000000E+00  0.14331780265E+03  0.13064710446E+04  0.12985863844E+04 0.  0.
        5    1    3    3  502    0 -0.21119178187E+03 -0.42233293057E+03 -0.37668405436E+03  0.60405301074E+03  0.46999998093E+01 0.  1.
       -5    1    3    3    0  502  0.21119178187E+03  0.42233293057E+03  0.52000185702E+03  0.70241803385E+03  0.46999998093E+01 0. -1.
</event>
<event>
 5   0  0.5384960E-04  0.1304919E+04  0.7818609E-02  0.9025673E-01
       -2   -1    0    0    0  501  0.00000000000E+00  0.00000000000E+00  0.19522480736E+03  0.19522480738E+03  0.25500000920E-02 0. -1.
        2   -1    0    0  501    0  0.00000000000E+00  0.00000000000E+00 -0.21805815420E+04  0.21805815420E+04  0.25500000920E-02 0.  1.
    10030    2    1    2    0    0  0.00000000000E+00  0.00000000000E+00 -0.19853567346E+04  0.23758063494E+04  0.13049193255E+04 0.  0.
        3    1    3    3  502    0 -0.55812198605E+02  0.29701198149E+03 -0.20454705235E+04  0.20676752142E+04  0.10100000352E+00 0.  1.
       -3    1    3    3    0  502  0.55812198605E+02 -0.29701198149E+03  0.60113788861E+02  0.30813113519E+03  0.10100000352E+00 0. -1.
</event>
<event>
 5   0  0.5384960E-04  0.1237265E+04  0.7818609E-02  0.9080849E-01
        2   -1    0    0  501    0  0.00000000000E+00  0.00000000000E+00  0.12766424864E+04  0.12766424864E+04  0.25500000920E-02 0.  1.
       -2   -1    0    0    0  501  0.00000000000E+00  0.00000000000E+00 -0.29977575561E+03  0.29977575562E+03  0.25500000920E-02 0. -1.
    10030    2    1    2    0    0  0.00000000000E+00  0.00000000000E+00  0.97686673078E+03  0.15764182420E+04  0.12372654784E+04 0.  0.
        3    1    3    3  502    0  0.12065198607E+03 -0.60545064770E+03  0.43780325521E+03  0.75683491530E+03  0.10100000352E+00 0. -1.
       -3    1    3    3    0  502 -0.12065198607E+03  0.60545064770E+03  0.53906347558E+03  0.81958332672E+03  0.10100000352E+00 0.  1.
</event>
<event>
 5   0  0.3337520E-04  0.1327991E+04  0.7818609E-02  0.9007658E-01
       -1   -1    0    0    0  501  0.00000000000E+00  0.00000000000E+00  0.13993962441E+04  0.13993962442E+04  0.50400001928E-02 0.  1.
        1   -1    0    0  501    0  0.00000000000E+00  0.00000000000E+00 -0.31505741919E+03  0.31505741923E+03  0.50400001928E-02 0. -1.
    10030    2    1    2    0    0  0.00000000000E+00  0.00000000000E+00  0.10843388250E+04  0.17144536634E+04  0.13279912186E+04 0.  0.
        5    1    3    3  502    0  0.14182886177E+03  0.11693989197E+03  0.13658696906E+04  0.13781917377E+04  0.46999998093E+01 0.  1.
       -5    1    3    3    0  502 -0.14182886177E+03 -0.11693989197E+03 -0.28153086560E+03  0.33626192566E+03  0.46999998093E+01 0. -1.
</event>
<event>
 5   0  0.6007125E-04  0.1291377E+04  0.7818609E-02  0.9036431E-01
        2   -1    0    0  501    0  0.00000000000E+00  0.00000000000E+00  0.16924450712E+04  0.16924450712E+04  0.25500000920E-02 0. -1.
       -2   -1    0    0    0  501  0.00000000000E+00  0.00000000000E+00 -0.24633812042E+03  0.24633812043E+03  0.25500000920E-02 0.  1.
    10030    2    1    2    0    0  0.00000000000E+00  0.00000000000E+00  0.14461069508E+04  0.19387831916E+04  0.12913771529E+04 0.  0.
        5    1    3    3  502    0  0.40818084610E+03  0.48455415359E+03  0.53621589280E+03  0.83003247200E+03  0.46999998093E+01 0.  1.
       -5    1    3    3    0  502 -0.40818084610E+03 -0.48455415359E+03  0.90989105795E+03  0.11087507196E+04  0.46999998093E+01 0. -1.
</event>
<event>
 5   0  0.5384960E-04  0.1294903E+04  0.7818609E-02  0.9033617E-01
       -2   -1    0    0    0  501  0.00000000000E+00  0.00000000000E+00  0.34025828520E+03  0.34025828521E+03  0.25500000920E-02 0. -1.
        2   -1    0    0  501    0  0.00000000000E+00  0.00000000000E+00 -0.12319866685E+04  0.12319866685E+04  0.25500000920E-02 0.  1.
    10030    2    1    2    0    0  0.00000000000E+00  0.00000000000E+00 -0.89172838325E+03  0.15722449537E+04  0.12949033496E+04 0.  0.
        3    1    3    3  502    0  0.27237205276E+03  0.52368673499E+03 -0.12288487627E+03  0.60293866566E+03  0.10100000352E+00 0. -1.
       -3    1    3    3    0  502 -0.27237205276E+03 -0.52368673499E+03 -0.76884350698E+03  0.96930628800E+03  0.10100000352E+00 0.  1.
</event>
<event>
 5   0  0.3403833E-04  0.1300345E+04  0.7818609E-02  0.9029291E-01
       -1   -1    0    0    0  501  0.00000000000E+00  0.00000000000E+00  0.32086219485E+03  0.32086219489E+03  0.50400001928E-02 0.  1.
        1   -1    0    0  501    0  0.00000000000E+00  0.00000000000E+00 -0.13174645308E+04  0.13174645308E+04  0.50400001928E-02 0. -1.
    10030    2    1    2    0    0  0.00000000000E+00  0.00000000000E+00 -0.99660233597E+03  0.16383267257E+04  0.13003454326E+04 0.  0.
        1    1    3    3  502    0 -0.64167936994E+03  0.71421156006E+01 -0.36663453966E+03  0.73906989475E+03  0.50400001928E-02 0.  1.
       -1    1    3    3    0  502  0.64167936994E+03 -0.71421156006E+01 -0.62996779630E+03  0.89925683096E+03  0.50400001928E-02 0. -1.
</event>
<event>
 5   0  0.3335747E-04  0.1301296E+04  0.7818609E-02  0.9028538E-01
        1   -1    0    0  501    0  0.00000000000E+00  0.00000000000E+00  0.15868692710E+04  0.15868692710E+04  0.50400001928E-02 0. -1.
       -1   -1    0    0    0  501  0.00000000000E+00  0.00000000000E+00 -0.26677872345E+03  0.26677872350E+03  0.50400001928E-02 0.  1.
    10030    2    1    2    0    0  0.00000000000E+00  0.00000000000E+00  0.13200905476E+04  0.18536479945E+04  0.13012962130E+04 0.  0.
        3    1    3    3  502    0 -0.55092432697E+03  0.81342832531E+02  0.18076345038E+03  0.58549953514E+03  0.10100000352E+00 0.  1.
       -3    1    3    3    0  502  0.55092432697E+03 -0.81342832531E+02  0.11393270972E+04  0.12681484594E+04  0.10100000352E+00 0. -1.
</event>
<event>
 5   0  0.3274879E-04  0.1300348E+04  0.7818609E-02  0.9029289E-01
        1   -1    0    0  501    0  0.00000000000E+00  0.00000000000E+00  0.12312618988E+04  0.12312618989E+04  0.50400001928E-02 0.  1.
       -1   -1    0    0    0  501  0.00000000000E+00  0.00000000000E+00 -0.34332766582E+03  0.34332766586E+03  0.50400001928E-02 0. -1.
    10030    2    1    2    0    0  0.00000000000E+00  0.00000000000E+00  0.88793423302E+03  0.15745895647E+04  0.13003480669E+04 0.  0.
        4    1    3    3  502    0 -0.15089014918E+03  0.61442568531E+03  0.62535107106E+03  0.88957986425E+03  0.12699999809E+01 0.  1.
       -4    1    3    3    0  502  0.15089014918E+03 -0.61442568531E+03  0.26258316196E+03  0.68500970047E+03  0.12699999809E+01 0. -1.
</event>
<event>
 5   0  0.2255875E-04  0.1287823E+04  0.7818609E-02  0.9039278E-01
        3   -1    0    0  501    0  0.00000000000E+00  0.00000000000E+00  0.65953268282E+03  0.65953269055E+03  0.10100000352E+00 0. -1.
       -3   -1    0    0    0  501  0.00000000000E+00  0.00000000000E+00 -0.62866040974E+03  0.62866041786E+03  0.10100000352E+00 0.  1.
    10030    2    1    2    0    0  0.00000000000E+00  0.00000000000E+00  0.30872273073E+02  0.12881931084E+04  0.12878231196E+04 0.  0.
        5    1    3    3  502    0 -0.23343898535E+03 -0.56987723812E+03  0.20349594911E+03  0.64860351349E+03  0.46999998093E+01 0. -1.
       -5    1    3    3    0  502  0.23343898535E+03  0.56987723812E+03 -0.17262367603E+03  0.63958959492E+03  0.46999998093E+01 0.  1.
</event>
<event>
 5   0  0.5957913E-04  0.1299826E+04  0.7818609E-02  0.9029703E-01
        2   -1    0    0  501    0  0.00000000000E+00  0.00000000000E+00  0.20291374189E+04  0.20291374189E+04  0.25500000920E-02 0. -1.
       -2   -1    0    0    0  501  0.00000000000E+00  0.00000000000E+00 -0.20816091408E+03  0.20816091410E+03  0.25500000920E-02 0.  1.
    10030    2    1    2    0    0  0.00000000000E+00  0.00000000000E+00  0.18209765048E+04  0.22372983330E+04  0.12998262960E+04 0.  0.
        1    1    3    3  502    0 -0.11883405706E+03  0.61376459776E+03  0.12162599918E+04  0.13675221689E+04  0.50400001928E-02 0. -1.
       -1    1    3    3    0  502  0.11883405706E+03 -0.61376459776E+03  0.60471651296E+03  0.86977616411E+03  0.50400001928E-02 0.  1.
</event>
<event>
 5   0  0.6007125E-04  0.1294641E+04  0.7818609E-02  0.9033826E-01
        2   -1    0    0  501    0  0.00000000000E+00  0.00000000000E+00  0.18977666259E+04  0.18977666259E+04  0.25500000920E-02 0. -1.
       -2   -1    0    0    0  501  0.00000000000E+00  0.00000000000E+00 -0.22079848656E+03  0.22079848658E+03  0.25500000920E-02 0.  1.
    10030    2    1    2    0    0  0.00000000000E+00  0.00000000000E+00  0.16769681393E+04  0.21185651125E+04  0.12946412613E+04 0.  0.
        5    1    3    3  502    0  0.16150809316E+02  0.53912616189E+03  0.25283172837E+03  0.59570449046E+03  0.46999998093E+01 0.  1.
       -5    1    3    3    0  502 -0.16150809316E+02 -0.53912616189E+03  0.14241364110E+04  0.15228606220E+04  0.46999998093E+01 0. -1.
</event>
<event>
 5   0  0.6052864E-04  0.1310024E+04  0.7818609E-02  0.9021653E-01
       -2   -1    0    0    0  501  0.00000000000E+00  0.00000000000E+00  0.40307328523E+03  0.40307328524E+03  0.25500000920E-02 0. -1.
        2   -1    0    0  501    0  0.00000000000E+00  0.00000000000E+00 -0.10644239544E+04  0.10644239544E+04  0.25500000920E-02 0.  1.
    10030    2    1    2    0    0  0.00000000000E+00  0.00000000000E+00 -0.66135066915E+03  0.14674972396E+04  0.13100242138E+04 0.  0.
        2    1    3    3  502    0 -0.32644985288E+03  0.45173621532E+03 -0.71613980894E+03  0.90746423656E+03  0.25500000920E-02 0.  1.
       -2    1    3    3    0  502  0.32644985288E+03 -0.45173621532E+03  0.54789139789E+02  0.56003300307E+03  0.25500000920E-02 0. -1.
</event>
<event>
 5   0  0.5384960E-04  0.1301049E+04  0.7818609E-02  0.9028734E-01
       -2   -1    0    0    0  501  0.00000000000E+00  0.00000000000E+00  0.38759674546E+03  0.38759674547E+03  0.25500000920E-02 0. -1.
        2   -1    0    0  501    0  0.00000000000E+00  0.00000000000E+00 -0.10918101258E+04  0.10918101259E+04  0.25500000920E-02 0.  1.
    10030    2    1    2    0    0  0.00000000000E+00  0.00000000000E+00 -0.70421338039E+03  0.14794068713E+04  0.13010488868E+04 0.  0.
        3    1    3    3  502    0  0.48415857035E+03  0.33127443355E+03 -0.32445895937E+02  0.58754150316E+03  0.10100000352E+00 0. -1.
       -3    1    3    3    0  502 -0.48415857035E+03 -0.33127443355E+03 -0.67176748445E+03  0.89186536817E+03  0.10100000352E+00 0.  1.
</event>
<event>
 5   0  0.3263679E-04  0.1305752E+04  0.7818609E-02  0.9025016E-01
       -1   -1    0    0    0  501  0.00000000000E+00  0.00000000000E+00  0.47280916048E+03  0.47280916051E+03  0.50400001928E-02 0. -1.
        1   -1    0    0  501    0  0.00000000000E+00  0.00000000000E+00 -0.90152082586E+03  0.90152082587E+03  0.50400001928E-02 0.  1.
    10030    2    1    2    0    0  0.00000000000E+00  0.00000000000E+00 -0.42871166538E+03  0.13743299864E+04  0.13057523576E+04 0.  0.
        2    1    3    3  502    0  0.59665524352E+03 -0.13956654412E+03  0.22802333690E+02  0.61318532785E+03  0.25500000920E-02 0. -1.
       -2    1    3    3    0  502 -0.59665524352E+03  0.13956654412E+03 -0.45151399907E+03  0.76114465854E+03  0.25500000920E-02 0.  1.
</event>
<event>
 5   0  0.3403833E-04  0.1301304E+04  0.7818609E-02  0.9028532E-01
       -1   -1    0    0    0  501  0.00000000000E+00  0.00000000000E+00  0.40623166427E+03  0.40623166430E+03  0.50400001928E-02 0. -1.
        1   -1    0    0  501    0  0.00000000000E+00  0.00000000000E+00 -0.10421346246E+04  0.10421346246E+04  0.50400001928E-02 0.  1.
    10030    2    1    2    0    0  0.00000000000E+00  0.00000000000E+00 -0.63590296028E+03  0.14483662889E+04  0.13013040889E+04 0.  0.
        1    1    3    3  502    0  0.23482373468E+03 -0.26019970708E+02 -0.99270527526E+03  0.10204327458E+04  0.50400001928E-02 0.  1.
       -1    1    3    3    0  502 -0.23482373468E+03  0.26019970708E+02  0.35680231497E+03  0.42793354302E+03  0.50400001928E-02 0. -1.
</event>
<event>
 5   0  0.5384960E-04  0.1297290E+04  0.7818609E-02  0.9031717E-01
        2   -1    0    0  501    0  0.00000000000E+00  0.00000000000E+00  0.91383490219E+03  0.91383490219E+03  0.25500000920E-02 0. -1.
       -2   -1    0    0    0  501  0.00000000000E+00  0.00000000000E+00 -0.46041202793E+03  0.46041202793E+03  0.25500000920E-02 0.  1.
    10030    2    1    2    0    0  0.00000000000E+00  0.00000000000E+00  0.45342287426E+03  0.13742469301E+04  0.12972903769E+04 0.  0.
        3    1    3    3  502    0 -0.33004306301E+03 -0.46506031410E+03  0.55412740590E+03  0.79515200519E+03  0.10100000352E+00 0. -1.
       -3    1    3    3    0  502  0.33004306301E+03  0.46506031410E+03 -0.10070453164E+03  0.57909492493E+03  0.10100000352E+00 0.  1.
</event>
<event>
 5   0  0.6007125E-04  0.1301721E+04  0.7818609E-02  0.9028202E-01
        2   -1    0    0  501    0  0.00000000000E+00  0.00000000000E+00  0.17356691083E+04  0.17356691083E+04  0.25500000920E-02 0.  1.
       -2   -1    0    0    0  501  0.00000000000E+00  0.00000000000E+00 -0.24406681061E+03  0.24406681062E+03  0.25500000920E-02 0. -1.
    10030    2    1    2    0    0  0.00000000000E+00  0.00000000000E+00  0.14916022977E+04  0.19797359190E+04  0.13017207436E+04 0.  0.
        5    1    3    3  502    0  0.49528553762E+02 -0.56015020949E+03  0.24744176434E+03  0.61438656525E+03  0.46999998093E+01 0. -1.
       -5    1    3    3    0  502 -0.49528553762E+02  0.56015020949E+03  0.12441605334E+04  0.13653493537E+04  0.46999998093E+01 0.  1.
</event>
<event>
 5   0  0.3335747E-04  0.1296608E+04  0.7818609E-02  0.9032259E-01
       -1   -1    0    0    0  501  0.00000000000E+00  0.00000000000E+00  0.53531252984E+03  0.53531252986E+03  0.50400001928E-02 0. -1.
        1   -1    0    0  501    0  0.00000000000E+00  0.00000000000E+00 -0.78514570916E+03  0.78514570918E+03  0.50400001928E-02 0.  1.
    10030    2    1    2    0    0  0.00000000000E+00  0.00000000000E+00 -0.24983317933E+03  0.13204582390E+04  0.12966084002E+04 0.  0.
        3    1    3    3  502    0 -0.21794380457E+03 -0.39590908729E+03 -0.59828341457E+03  0.74979101202E+03  0.10100000352E+00 0.  1.
       -3    1    3    3    0  502  0.21794380457E+03  0.39590908729E+03  0.34845023525E+03  0.57066722702E+03  0.10100000352E+00 0. -1.
</event>
<event>
 5   0  0.3263679E-04  0.1311147E+04  0.7818609E-02  0.9020772E-01
       -1   -1    0    0    0  501  0.00000000000E+00  0.00000000000E+00  0.10043091422E+04  0.10043091423E+04  0.50400001928E-02 0. -1.
        1   -1    0    0  501    0  0.00000000000E+00  0.00000000000E+00 -0.42793244060E+03  0.42793244063E+03  0.50400001928E-02 0.  1.
    10030    2    1    2    0    0  0.00000000000E+00  0.00000000000E+00  0.57637670164E+03  0.14322415829E+04  0.13111467689E+04 0.  0.
        2    1    3    3  502    0 -0.42736402873E+03  0.53367513405E+02  0.82809211411E+03  0.93339415790E+03  0.25500000920E-02 0. -1.
       -2    1    3    3    0  502  0.42736402873E+03 -0.53367513405E+02 -0.25171541246E+03  0.49884742499E+03  0.25500000920E-02 0.  1.
</event>
<event>
 5   0  0.3263679E-04  0.1300533E+04  0.7818609E-02  0.9029143E-01
        1   -1    0    0  501    0  0.00000000000E+00  0.00000000000E+00  0.13988642660E+04  0.13988642660E+04  0.50400001928E-02 0.  1.
       -1   -1    0    0    0  501  0.00000000000E+00  0.00000000000E+00 -0.30227832549E+03  0.30227832553E+03  0.50400001928E-02 0. -1.
    10030    2    1    2    0    0  0.00000000000E+00  0.00000000000E+00  0.10965859405E+04  0.17011425915E+04  0.13005327339E+04 0.  0.
        2    1    3    3  502    0 -0.29669400956E+03 -0.41964379001E+03  0.10694068749E+04  0.11864903328E+04  0.25500000920E-02 0.  1.
       -2    1    3    3    0  502  0.29669400956E+03  0.41964379001E+03  0.27179065620E+02  0.51465225873E+03  0.25500000920E-02 0. -1.
</event>
<event>
 5   0  0.5787604E-04  0.1299930E+04  0.7818609E-02  0.9029621E-01
       -2   -1    0    0    0  501  0.00000000000E+00  0.00000000000E+00  0.40729148588E+03  0.40729148588E+03  0.25500000920E-02 0.  1.
        2   -1    0    0  501    0  0.00000000000E+00  0.00000000000E+00 -0.10372290049E+04  0.10372290049E+04  0.25500000920E-02 0. -1.
    10030    2    1    2    0    0  0.00000000000E+00  0.00000000000E+00 -0.62993751906E+03  0.14445204908E+04  0.12999300637E+04 0.  0.
        4    1    3    3  502    0  0.99212364326E+02  0.63234893505E+03 -0.44041794906E+03  0.77696708531E+03  0.12699999809E+01 0. -1.
       -4    1    3    3    0  502 -0.99212364326E+02 -0.63234893505E+03 -0.18951957000E+03  0.66755340551E+03  0.12699999809E+01 0.  1.
</event>
<event>
 5   0  0.3337520E-04  0.1302342E+04  0.7818609E-02  0.9027710E-01
       -1   -1    0    0    0  501  0.00000000000E+00  0.00000000000E+00  0.28105303909E+03  0.28105303913E+03  0.50400001928E-02 0. -1.
        1   -1    0    0  501    0  0.00000000000E+00  0.00000000000E+00 -0.15086956930E+04  0.15086956930E+04  0.50400001928E-02 0.  1.
    10030    2    1    2    0    0  0.00000000000E+00  0.00000000000E+00 -0.12276426539E+04  0.17897487321E+04  0.13023417518E+04 0.  0.
        5    1    3    3  502    0  0.51634975921E+03  0.20928536968E+03 -0.10769755629E+04  0.12125658304E+04  0.46999998093E+01 0.  1.
       -5    1    3    3    0  502 -0.51634975921E+03 -0.20928536968E+03 -0.15066709096E+03  0.57718290177E+03  0.46999998093E+01 0. -1.
</event>
<event>
 5   0  0.6007125E-04  0.1301387E+04  0.7818609E-02  0.9028466E-01
       -2   -1    0    0    0  501  0.00000000000E+00  0.00000000000E+00  0.36939813834E+03  0.36939813835E+03  0.25500000920E-02 0.  1.
        2   -1    0    0  501    0  0.00000000000E+00  0.00000000000E+00 -0.11461936006E+04  0.11461936006E+04  0.25500000920E-02 0. -1.
    10030    2    1    2    0    0  0.00000000000E+00  0.00000000000E+00 -0.77679546224E+03  0.15155917389E+04  0.13013866178E+04 0.  0.
        5    1    3    3  502    0 -0.56367344499E+03  0.20466486271E+03 -0.94318425003E+02  0.60706961208E+03  0.46999998093E+01 0.  1.
       -5    1    3    3    0  502  0.56367344499E+03 -0.20466486271E+03 -0.68247703724E+03  0.90852212685E+03  0.46999998093E+01 0. -1.
</event>
<event>
 5   0  0.3263679E-04  0.1296838E+04  0.7818609E-02  0.9032076E-01
       -1   -1    0    0    0  501  0.00000000000E+00  0.00000000000E+00  0.35260977144E+03  0.35260977147E+03  0.50400001928E-02 0.  1.
        1   -1    0    0  501    0  0.00000000000E+00  0.00000000000E+00 -0.11923867423E+04  0.11923867423E+04  0.50400001928E-02 0. -1.
    10030    2    1    2    0    0  0.00000000000E+00  0.00000000000E+00 -0.83977697088E+03  0.15449965138E+04  0.12968380264E+04 0.  0.
        2    1    3    3  502    0 -0.56905596243E+03 -0.84195297473E+02 -0.77636833451E+03  0.96626152119E+03  0.25500000920E-02 0.  1.
       -2    1    3    3    0  502  0.56905596243E+03  0.84195297473E+02 -0.63408636369E+02  0.57873499261E+03  0.25500000920E-02 0. -1.
</event>
<event>
 5   0  0.5957913E-04  0.1303357E+04  0.7818609E-02  0.9026907E-01
       -2   -1    0    0    0  501  0.00000000000E+00  0.00000000000E+00  0.21422445466E+03  0.21422445468E+03  0.25500000920E-02 0.  1.
        2   -1    0    0  501    0  0.00000000000E+00  0.00000000000E+00 -0.19824308427E+04  0.19824308427E+04  0.25500000920E-02 0. -1.
    10030    2    1    2    0    0  0.00000000000E+00  0.00000000000E+00 -0.17682063880E+04  0.21966552974E+04  0.13033574586E+04 0.  0.
        1    1    3    3  502    0  0.23858867950E+03 -0.55940598263E+03 -0.12787330037E+04  0.14159864781E+04  0.50400001928E-02 0. -1.
       -1    1    3    3    0  502 -0.23858867950E+03  0.55940598263E+03 -0.48947338431E+03  0.78066881925E+03  0.50400001928E-02 0.  1.
</event>
<event>
 5   0  0.3337520E-04  0.1278392E+04  0.7818609E-02  0.9046878E-01
        1   -1    0    0  501    0  0.00000000000E+00  0.00000000000E+00  0.53576540094E+03  0.53576540097E+03  0.50400001928E-02 0.  1.
       -1   -1    0    0    0  501  0.00000000000E+00  0.00000000000E+00 -0.76259417976E+03  0.76259417977E+03  0.50400001928E-02 0. -1.
    10030    2    1    2    0    0  0.00000000000E+00  0.00000000000E+00 -0.22682877881E+03  0.12983595807E+04  0.12783920784E+04 0.  0.
        5    1    3    3  502    0  0.19402099885E+03 -0.57481328399E+03 -0.31779126843E+03  0.68488527487E+03  0.46999998093E+01 0. -1.
       -5    1    3    3    0  502 -0.19402099885E+03  0.57481328399E+03  0.90962489620E+02  0.61347430587E+03  0.46999998093E+01 0.  1.
</event>
<event>
 5   0  0.2255875E-04  0.1296893E+04  0.7818609E-02  0.9032033E-01
       -4   -1    0    0    0  501  0.00000000000E+00  0.00000000000E+00  0.37135287271E+03  0.37135504436E+03  0.12699999809E+01 0.  1.
        4   -1    0    0  501    0  0.00000000000E+00  0.00000000000E+00 -0.11322934873E+04  0.11322941996E+04  0.12699999809E+01 0. -1.
    10030    2    1    2    0    0  0.00000000000E+00  0.00000000000E+00 -0.76094061463E+03  0.15036492439E+04  0.12968926053E+04 0.  0.
        4    1    3    3  502    0 -0.45727751043E+03 -0.14030875009E+02 -0.91327785252E+03  0.10214585825E+04  0.12699999809E+01 0. -1.
       -4    1    3    3    0  502  0.45727751043E+03  0.14030875009E+02  0.15233723789E+03  0.48219066141E+03  0.12699999809E+01 0.  1.
</event>
<event>
 5   0  0.6052864E-04  0.1303469E+04  0.7818609E-02  0.9026819E-01
       -2   -1    0    0    0  501  0.00000000000E+00  0.00000000000E+00  0.29843263531E+03  0.29843263532E+03  0.25500000920E-02 0. -1.
        2   -1    0    0  501    0  0.00000000000E+00  0.00000000000E+00 -0.14232960749E+04  0.14232960749E+04  0.25500000920E-02 0.  1.
    10030    2    1    2    0    0  0.00000000000E+00  0.00000000000E+00 -0.11248634396E+04  0.17217287102E+04  0.13034692148E+04 0.  0.
        2    1    3    3  502    0  0.14694744011E+03 -0.24551179698E+03 -0.13358961445E+04  0.13661947524E+04  0.25500000920E-02 0.  1.
       -2    1    3    3    0  502 -0.14694744011E+03  0.24551179698E+03  0.21103270491E+03  0.35553395782E+03  0.25500000920E-02 0. -1.
</event>
<event>
 5   0  0.6052864E-04  0.1307109E+04  0.7818609E-02  0.9023946E-01
        2   -1    0    0  501    0  0.00000000000E+00  0.00000000000E+00  0.17713748234E+04  0.17713748234E+04  0.25500000920E-02 0.  1.
       -2   -1    0    0    0  501  0.00000000000E+00  0.00000000000E+00 -0.24113111850E+03  0.24113111852E+03  0.25500000920E-02 0. -1.
    10030    2    1    2    0    0  0.00000000000E+00  0.00000000000E+00  0.15302437049E+04  0.20125059419E+04  0.13071091653E+04 0.  0.
        2    1    3    3  502    0  0.46329532306E+03 -0.36433444931E+03  0.33031678978E+03  0.67564142039E+03  0.25500000920E-02 0. -1.
       -2    1    3    3    0  502 -0.46329532306E+03  0.36433444931E+03  0.11999269151E+04  0.13368645216E+04  0.25500000920E-02 0.  1.
</event>
<event>
 5   0  0.5787604E-04  0.1301378E+04  0.7818609E-02  0.9028473E-01
        2   -1    0    0  501    0  0.00000000000E+00  0.00000000000E+00  0.59484330873E+03  0.59484330873E+03  0.25500000920E-02 0. -1.
       -2   -1    0    0    0  501  0.00000000000E+00  0.00000000000E+00 -0.71177803177E+03  0.71177803178E+03  0.25500000920E-02 0.  1.
    10030    2    1    2    0    0  0.00000000000E+00  0.00000000000E+00 -0.11693472305E+03  0.13066213405E+04  0.13013783455E+04 0.  0.
        4    1    3    3  502    0  0.12982773284E+03  0.29640766122E+03  0.50832627886E+03  0.60258606068E+03  0.12699999809E+01 0. -1.
       -4    1    3    3    0  502 -0.12982773284E+03 -0.29640766122E+03 -0.62526100191E+03  0.70403527983E+03  0.12699999809E+01 0.  1.
</event>
<event>
 5   0  0.6052864E-04  0.1300190E+04  0.7818609E-02  0.9029415E-01
        2   -1    0    0  501    0  0.00000000000E+00  0.00000000000E+00  0.44541985142E+03  0.44541985143E+03  0.25500000920E-02 0.  1.
       -2   -1    0    0    0  501  0.00000000000E+00  0.00000000000E+00 -0.94882007386E+03  0.94882007386E+03  0.25500000920E-02 0. -1.
    10030    2    1    2    0    0  0.00000000000E+00  0.00000000000E+00 -0.50340022244E+03  0.13942399253E+04  0.13001896728E+04 0.  0.
        2    1    3    3  502    0 -0.63613069058E+03 -0.59135218161E+02 -0.38066634349E+03  0.74368413631E+03  0.25500000920E-02 0. -1.
       -2    1    3    3    0  502  0.63613069058E+03  0.59135218161E+02 -0.12273387895E+03  0.65055578898E+03  0.25500000920E-02 0.  1.
</event>
<event>
 5   0  0.6052864E-04  0.1303203E+04  0.7818609E-02  0.9027029E-01
       -2   -1    0    0    0  501  0.00000000000E+00  0.00000000000E+00  0.27770562371E+03  0.27770562372E+03  0.25500000920E-02 0.  1.
        2   -1    0    0  501    0  0.00000000000E+00  0.00000000000E+00 -0.15289010191E+04  0.15289010191E+04  0.25500000920E-02 0. -1.
    10030    2    1    2    0    0  0.00000000000E+00  0.00000000000E+00 -0.12511953954E+04  0.18066066429E+04  0.13032028409E+04 0.  0.
        2    1    3    3  502    0 -0.27482544187E+03  0.94591233148E+02  0.18286490583E+03  0.34338913594E+03  0.25500000920E-02 0.  1.
       -2    1    3    3    0  502  0.27482544187E+03 -0.94591233148E+02 -0.14340603013E+04  0.14632175069E+04  0.25500000920E-02 0. -1.
</event>
<event>
 5   0  0.5384960E-04  0.1302510E+04  0.7818609E-02  0.9027577E-01
        2   -1    0    0  501    0  0.00000000000E+00  0.00000000000E+00  0.12465260169E+04  0.12465260169E+04  0.25500000920E-02 0. -1.
       -2   -1    0    0    0  501  0.00000000000E+00  0.00000000000E+00 -0.34025224910E+03  0.34025224911E+03  0.25500000920E-02 0.  1.
    10030    2    1    2    0    0  0.00000000000E+00  0.00000000000E+00  0.90627376780E+03  0.15867782660E+04  0.13025103160E+04 0.  0.
        3    1    3    3  502    0  0.67244066887E+02  0.23618754470E+03 -0.28168571537E+03  0.37370198454E+03  0.10100000352E+00 0.  1.
       -3    1    3    3    0  502 -0.67244066887E+02 -0.23618754470E+03  0.11879594832E+04  0.12130762815E+04  0.10100000352E+00 0. -1.
</event>
<event>
 5   0  0.3263679E-04  0.1304428E+04  0.7818609E-02  0.9026061E-01
        1   -1    0    0  501    0  0.00000000000E+00  0.00000000000E+00  0.91446099353E+03  0.91446099355E+03  0.50400001928E-02 0.  1.
       -1   -1    0    0    0  501  0.00000000000E+00  0.00000000000E+00 -0.46517325581E+03  0.46517325584E+03  0.50400001928E-02 0. -1.
    10030    2    1    2    0    0  0.00000000000E+00  0.00000000000E+00  0.44928773772E+03  0.13796342494E+04  0.13044275338E+04 0.  0.
        2    1    3    3  502    0  0.26905789429E+03  0.35955879730E+03 -0.27560357996E+03  0.52690797346E+03  0.25500000920E-02 0. -1.
       -2    1    3    3    0  502 -0.26905789429E+03 -0.35955879730E+03  0.72489131769E+03  0.85272627593E+03  0.25500000920E-02 0.  1.
</event>
<event>
 5   0  0.3403833E-04  0.1300037E+04  0.7818609E-02  0.9029536E-01
        1   -1    0    0  501    0  0.00000000000E+00  0.00000000000E+00  0.47633689470E+03  0.47633689472E+03  0.50400001928E-02 0. -1.
       -1   -1    0    0    0  501  0.00000000000E+00  0.00000000000E+00 -0.88702763777E+03  0.88702763779E+03  0.50400001928E-02 0.  1.
    10030    2    1    2    0    0  0.00000000000E+00  0.00000000000E+00 -0.41069074308E+03  0.13633645325E+04  0.13000369080E+04 0.  0.
        1    1    3    3  502    0  0.33886667153E+03  0.31276323301E+03  0.27508904175E+03  0.53695944159E+03  0.50400001928E-02 0. -1.
       -1    1    3    3    0  502 -0.33886667153E+03 -0.31276323301E+03 -0.68577978482E+03  0.82640509092E+03  0.50400001928E-02 0.  1.
</event>
<event>
 5   0  0.3335747E-04  0.1310385E+04  0.7818609E-02  0.9021370E-01
       -1   -1    0    0    0  501  0.00000000000E+00  0.00000000000E+00  0.73717446088E+03  0.73717446089E+03  0.50400001928E-02 0. -1.
        1   -1    0    0  501    0  0.00000000000E+00  0.00000000000E+00 -0.58232807455E+03  0.58232807457E+03  0.50400001928E-02 0.  1.
    10030    2    1    2    0    0  0.00000000000E+00  0.00000000000E+00  0.15484638633E+03  0.13195025355E+04  0.13103852631E+04 0.  0.
        3    1    3    3  502    0  0.42352628741E+03  0.29428103296E+03  0.48434068412E+03  0.70750388761E+03  0.10100000352E+00 0. -1.
       -3    1    3    3    0  502 -0.42352628741E+03 -0.29428103296E+03 -0.32949429780E+03  0.61199864785E+03  0.10100000352E+00 0.  1.
</event>
<event>
 5   0  0.2255875E-04  0.1309884E+04  0.7818609E-02  0.9021764E-01
        3   -1    0    0  501    0  0.00000000000E+00  0.00000000000E+00  0.11948363442E+04  0.11948363485E+04  0.10100000352E+00 0.  1.
       -3   -1    0    0    0  501  0.00000000000E+00  0.00000000000E+00 -0.35900212214E+03  0.35900213635E+03  0.10100000352E+00 0. -1.
    10030    2    1    2    0    0  0.00000000000E+00  0.00000000000E+00  0.83583422207E+03  0.15538384848E+04  0.13098836552E+04 0.  0.
        5    1    3    3  502    0  0.49267421130E+03 -0.43049948075E+03  0.38294759928E+03  0.75810859064E+03  0.46999998093E+01 0.  1.
       -5    1    3    3    0  502 -0.49267421130E+03  0.43049948075E+03  0.45288662278E+03  0.79572989419E+03  0.46999998093E+01 0. -1.
</event>
<event>
 5   0  0.3263679E-04  0.1300917E+04  0.7818609E-02  0.9028839E-01
        1   -1    0    0  501    0  0.00000000000E+00  0.00000000000E+00  0.48893160461E+03  0.48893160463E+03  0.50400001928E-02 0.  1.
       -1   -1    0    0    0  501  0.00000000000E+00  0.00000000000E+00 -0.86534792269E+03  0.86534792271E+03  0.50400001928E-02 0. -1.
    10030    2    1    2    0    0  0.00000000000E+00  0.00000000000E+00 -0.37641631808E+03  0.13542795273E+04  0.13009165206E+04 0.  0.
        2    1    3    3  502    0 -0.47048009569E+03 -0.13932206642E+03  0.25631302631E+03  0.55358696344E+03  0.25500000920E-02 0.  1.
       -2    1    3    3    0  502  0.47048009569E+03  0.13932206642E+03 -0.63272934439E+03  0.80069256390E+03  0.25500000920E-02 0. -1.
</event>
<event>
 5   0  0.3403833E-04  0.1309521E+04  0.7818609E-02  0.9022049E-01
        1   -1    0    0  501    0  0.00000000000E+00  0.00000000000E+00  0.47206949580E+03  0.47206949583E+03  0.50400001928E-02 0. -1.
       -1   -1    0    0    0  501  0.00000000000E+00  0.00000000000E+00 -0.90815338172E+03  0.90815338173E+03  0.50400001928E-02 0.  1.
    10030    2    1    2    0    0  0.00000000000E+00  0.00000000000E+00 -0.43608388592E+03  0.13802228776E+04  0.13095213004E+04 0.  0.
        1    1    3    3  502    0 -0.14626839554E+03 -0.28385908755E+03 -0.82051624526E+03  0.88046427178E+03  0.50400001928E-02 0.  1.
       -1    1    3    3    0  502  0.14626839554E+03  0.28385908755E+03  0.38443235934E+03  0.49975860579E+03  0.50400001928E-02 0. -1.
</event>
<event>
 5   0  0.5787604E-04  0.1299798E+04  0.7818609E-02  0.9029726E-01
        2   -1    0    0  501    0  0.00000000000E+00  0.00000000000E+00  0.10875719179E+04  0.10875719179E+04  0.25500000920E-02 0.  1.
       -2   -1    0    0    0  501  0.00000000000E+00  0.00000000000E+00 -0.38835919289E+03  0.38835919289E+03  0.25500000920E-02 0. -1.
    10030    2    1    2    0    0  0.00000000000E+00  0.00000000000E+00  0.69921272496E+03  0.14759311107E+04  0.12997977569E+04 0.  0.
        4    1    3    3  502    0  0.20811065551E+03 -0.60393319738E+03  0.48549585735E+03  0.80234231612E+03  0.12699999809E+01 0.  1.
       -4    1    3    3    0  502 -0.20811065551E+03  0.60393319738E+03  0.21371686762E+03  0.67358879463E+03  0.12699999809E+01 0. -1.
</event>
<event>
 5   0  0.5787604E-04  0.1315181E+04  0.7818609E-02  0.9017613E-01
        2   -1    0    0  501    0  0.00000000000E+00  0.00000000000E+00  0.18000290548E+04  0.18000290548E+04  0.25500000920E-02 0. -1.
       -2   -1    0    0    0  501  0.00000000000E+00  0.00000000000E+00 -0.24023220546E+03  0.24023220547E+03  0.25500000920E-02 0.  1.
    10030    2    1    2    0    0  0.00000000000E+00  0.00000000000E+00  0.15597968493E+04  0.20402612603E+04  0.13151805195E+04 0.  0.
        4    1    3    3  502    0  0.61381028389E+03  0.22697181767E+03  0.87976352868E+03  0.10964783399E+04  0.12699999809E+01 0. -1.
       -4    1    3    3    0  502 -0.61381028389E+03 -0.22697181767E+03  0.68003332067E+03  0.94378292036E+03  0.12699999809E+01 0.  1.
</event>
<event>
 5   0  0.6052864E-04  0.1299935E+04  0.7818609E-02  0.9029616E-01
       -2   -1    0    0    0  501  0.00000000000E+00  0.00000000000E+00  0.20943335279E+03  0.20943335281E+03  0.25500000920E-02 0.  1.
        2   -1    0    0  501    0  0.00000000000E+00  0.00000000000E+00 -0.20171475271E+04  0.20171475271E+04  0.25500000920E-02 0. -1.
    10030    2    1    2    0    0  0.00000000000E+00  0.00000000000E+00 -0.18077141743E+04  0.22265808799E+04  0.12999353364E+04 0.  0.
        2    1    3    3  502    0 -0.59420917158E+02  0.42525985256E+03 -0.68101553028E+02  0.43475810415E+03  0.25500000920E-02 0.  1.
       -2    1    3    3    0  502  0.59420917158E+02 -0.42525985256E+03 -0.17396126213E+04  0.17918227757E+04  0.25500000920E-02 0. -1.
</event>
<event>
 5   0  0.3337520E-04  0.1300811E+04  0.7818609E-02  0.9028923E-01
        1   -1    0    0  501    0  0.00000000000E+00  0.00000000000E+00  0.22691378077E+04  0.22691378077E+04  0.50400001928E-02 0. -1.
       -1   -1    0    0    0  501  0.00000000000E+00  0.00000000000E+00 -0.18642634392E+03  0.18642634399E+03  0.50400001928E-02 0.  1.
    10030    2    1    2    0    0  0.00000000000E+00  0.00000000000E+00  0.20827114638E+04  0.24555641517E+04  0.13008106172E+04 0.  0.
        5    1    3    3  502    0  0.28735786093E+03 -0.22860007345E+03  0.20547149786E+04  0.20872729259E+04  0.46999998093E+01 0. -1.
       -5    1    3    3    0  502 -0.28735786093E+03  0.22860007345E+03  0.27996485162E+02  0.36829122580E+03  0.46999998093E+01 0.  1.
</event>
<event>
 5   0  0.3274879E-04  0.1248238E+04  0.7818609E-02  0.9071651E-01
        1   -1    0    0  501    0  0.00000000000E+00  0.00000000000E+00  0.10632382809E+04  0.10632382809E+04  0.50400001928E-02 0. -1.
       -1   -1    0    0    0  501  0.00000000000E+00  0.00000000000E+00 -0.36635671993E+03  0.36635671996E+03  0.50400001928E-02 0.  1.
    10030    2    1    2    0    0  0.00000000000E+00  0.00000000000E+00  0.69688156094E+03  0.14295950008E+04  0.12482379406E+04 0.  0.
        4    1    3    3  502    0 -0.80178854009E+02  0.58913515285E+03  0.56578661311E+03  0.82074660001E+03  0.12699999809E+01 0. -1.
       -4    1    3    3    0  502  0.80178854009E+02 -0.58913515285E+03  0.13109494783E+03  0.60884840083E+03  0.12699999809E+01 0.  1.
</event>
<event>
 5   0  0.3335747E-04  0.1300806E+04  0.7818609E-02  0.9028926E-01
        1   -1    0    0  501    0  0.00000000000E+00  0.00000000000E+00  0.27119033725E+04  0.27119033725E+04  0.50400001928E-02 0. -1.
       -1   -1    0    0    0  501  0.00000000000E+00  0.00000000000E+00 -0.15598793730E+03  0.15598793739E+03  0.50400001928E-02 0.  1.
    10030    2    1    2    0    0  0.00000000000E+00  0.00000000000E+00  0.25559154352E+04  0.28678913099E+04  0.13008062321E+04 0.  0.
        3    1    3    3  502    0 -0.50028859881E+02  0.98456602698E+02  0.26910804817E+04  0.26933456441E+04  0.10100000352E+00 0. -1.
       -3    1    3    3    0  502  0.50028859881E+02 -0.98456602698E+02 -0.13516504652E+03  0.17454566577E+03  0.10100000352E+00 0.  1.
</event>
<event>
 5   0  0.2255875E-04  0.1302074E+04  0.7818609E-02  0.9027922E-01
       -3   -1    0    0    0  501  0.00000000000E+00  0.00000000000E+00  0.41161219422E+03  0.41161220661E+03  0.10100000352E+00 0. -1.
        3   -1    0    0  501    0  0.00000000000E+00  0.00000000000E+00 -0.10297300969E+04  0.10297301019E+04  0.10100000352E+00 0.  1.
    10030    2    1    2    0    0  0.00000000000E+00  0.00000000000E+00 -0.61811790268E+03  0.14413423085E+04  0.13020744635E+04 0.  0.
        3    1    3    3  502    0  0.52750692886E+03  0.97648779031E+02 -0.71736102031E+03  0.89577100182E+03  0.10100000352E+00 0.  1.
       -3    1    3    3    0  502 -0.52750692886E+03 -0.97648779031E+02  0.99243117630E+02  0.54557130665E+03  0.10100000352E+00 0. -1.
</event>
<event>
 5   0  0.3274879E-04  0.1303411E+04  0.7818609E-02  0.9026865E-01
       -1   -1    0    0    0  501  0.00000000000E+00  0.00000000000E+00  0.28986967316E+03  0.28986967321E+03  0.50400001928E-02 0.  1.
        1   -1    0    0  501    0  0.00000000000E+00  0.00000000000E+00 -0.14652095069E+04  0.14652095069E+04  0.50400001928E-02 0. -1.
    10030    2    1    2    0    0  0.00000000000E+00  0.00000000000E+00 -0.11753398337E+04  0.17550791801E+04  0.13034106044E+04 0.  0.
        4    1    3    3  502    0 -0.14972955215E+03  0.23013152627E+03  0.20819403261E+03  0.34456614210E+03  0.12699999809E+01 0.  1.
       -4    1    3    3    0  502  0.14972955215E+03 -0.23013152627E+03 -0.13835338663E+04  0.14105130380E+04  0.12699999809E+01 0. -1.
</event>
<event>
 5   0  0.3263679E-04  0.1297835E+04  0.7818609E-02  0.9031284E-01
        1   -1    0    0  501    0  0.00000000000E+00  0.00000000000E+00  0.33866073510E+03  0.33866073514E+03  0.50400001928E-02 0.  1.
       -1   -1    0    0    0  501  0.00000000000E+00  0.00000000000E+00 -0.12434098848E+04  0.12434098848E+04  0.50400001928E-02 0. -1.
    10030    2    1    2    0    0  0.00000000000E+00  0.00000000000E+00 -0.90474914969E+03  0.15820706199E+04  0.12978352833E+04 0.  0.
        2    1    3    3  502    0  0.22040637474E+03  0.78528803881E+02 -0.11901996590E+04  0.12129802024E+04  0.25500000920E-02 0. -1.
       -2    1    3    3    0  502 -0.22040637474E+03 -0.78528803881E+02  0.28545050931E+03  0.36909041757E+03  0.25500000920E-02 0.  1.
</event>
<event>
 5   0  0.5957913E-04  0.1301545E+04  0.7818609E-02  0.9028341E-01
       -2   -1    0    0    0  501  0.00000000000E+00  0.00000000000E+00  0.25132261885E+03  0.25132261887E+03  0.25500000920E-02 0.  1.
        2   -1    0    0  501    0  0.00000000000E+00  0.00000000000E+00 -0.16851047970E+04  0.16851047970E+04  0.25500000920E-02 0. -1.
    10030    2    1    2    0    0  0.00000000000E+00  0.00000000000E+00 -0.14337821781E+04  0.19364274158E+04  0.13015451596E+04 0.  0.
        1    1    3    3  502    0 -0.25259736427E+03 -0.90988759606E+02 -0.15988646560E+04  0.16212503111E+04  0.50400001928E-02 0. -1.
       -1    1    3    3    0  502  0.25259736427E+03  0.90988759606E+02  0.16508247793E+03  0.31517710475E+03  0.50400001928E-02 0.  1.
</event>
<event>
 5   0  0.6052864E-04  0.1300887E+04  0.7818609E-02  0.9028862E-01
       -2   -1    0    0    0  501  0.00000000000E+00  0.00000000000E+00  0.98219881002E+03  0.98219881003E+03  0.25500000920E-02 0. -1.
        2   -1    0    0  501    0  0.00000000000E+00  0.00000000000E+00 -0.43074419160E+03  0.43074419160E+03  0.25500000920E-02 0.  1.
    10030    2    1    2    0    0  0.00000000000E+00  0.00000000000E+00  0.55145461843E+03  0.14129430016E+04  0.13008865168E+04 0.  0.
        2    1    3    3  502    0 -0.62163415385E+03  0.16867874358E+03  0.37405070392E+03  0.74484593634E+03  0.25500000920E-02 0.  1.
       -2    1    3    3    0  502  0.62163415385E+03 -0.16867874358E+03  0.17740391451E+03  0.66809706529E+03  0.25500000920E-02 0. -1.
</event>
<event>
 5   0  0.5384960E-04  0.1301148E+04  0.7818609E-02  0.9028655E-01
       -2   -1    0    0    0  501  0.00000000000E+00  0.00000000000E+00  0.63931590262E+03  0.63931590263E+03  0.25500000920E-02 0.  1.
        2   -1    0    0  501    0  0.00000000000E+00  0.00000000000E+00 -0.66203011234E+03  0.66203011235E+03  0.25500000920E-02 0. -1.
    10030    2    1    2    0    0  0.00000000000E+00  0.00000000000E+00 -0.22714209723E+02  0.13013460150E+04  0.13011477685E+04 0.  0.
        3    1    3    3  502    0  0.15605888460E+03  0.42462723434E+03 -0.47895770170E+03  0.65883469385E+03  0.10100000352E+00 0. -1.
       -3    1    3    3    0  502 -0.15605888460E+03 -0.42462723434E+03  0.45624349197E+03  0.64251132112E+03  0.10100000352E+00 0.  1.
</event>
<event>
 5   0  0.6007125E-04  0.1302198E+04  0.7818609E-02  0.9027824E-01
        2   -1    0    0  501    0  0.00000000000E+00  0.00000000000E+00  0.91015613729E+03  0.91015613730E+03  0.25500000920E-02 0.  1.
       -2   -1    0    0    0  501  0.00000000000E+00  0.00000000000E+00 -0.46577732673E+03  0.46577732673E+03  0.25500000920E-02 0. -1.
    10030    2    1    2    0    0  0.00000000000E+00  0.00000000000E+00  0.44437881057E+03  0.13759334640E+04  0.13021982837E+04 0.  0.
        5    1    3    3  502    0  0.47998145690E+03  0.43213845995E+03  0.13517239254E+03  0.65986325344E+03  0.46999998093E+01 0.  1.
       -5    1    3    3    0  502 -0.47998145690E+03 -0.43213845995E+03  0.30920641803E+03  0.71607021059E+03  0.46999998093E+01 0. -1.
</event>
<event>
 5   0  0.3337520E-04  0.1285416E+04  0.7818609E-02  0.9041211E-01
        1   -1    0    0  501    0  0.00000000000E+00  0.00000000000E+00  0.86262608795E+03  0.86262608796E+03  0.50400001928E-02 0.  1.
       -1   -1    0    0    0  501  0.00000000000E+00  0.00000000000E+00 -0.47885556255E+03  0.47885556257E+03  0.50400001928E-02 0. -1.
    10030    2    1    2    0    0  0.00000000000E+00  0.00000000000E+00  0.38377052540E+03  0.13414816505E+04  0.12854155758E+04 0.  0.
        5    1    3    3  502    0 -0.26255236236E+03  0.51800542128E+03  0.47918880146E+03  0.75293250488E+03  0.46999998093E+01 0.  1.
       -5    1    3    3    0  502  0.26255236236E+03 -0.51800542128E+03 -0.95418276062E+02  0.58854914566E+03  0.46999998093E+01 0. -1.
</event>
<event>
 5   0  0.3263679E-04  0.1298932E+04  0.7818609E-02  0.9030413E-01
        1   -1    0    0  501    0  0.00000000000E+00  0.00000000000E+00  0.25951116166E+04  0.25951116166E+04  0.50400001928E-02 0. -1.
       -1   -1    0    0    0  501  0.00000000000E+00  0.00000000000E+00 -0.16253862341E+03  0.16253862349E+03  0.50400001928E-02 0.  1.
    10030    2    1    2    0    0  0.00000000000E+00  0.00000000000E+00  0.24325729932E+04  0.27576502401E+04  0.12989316685E+04 0.  0.
        2    1    3    3  502    0 -0.22636345242E+03  0.54014264522E+02 -0.70981380868E+02  0.24330291778E+03  0.25500000920E-02 0.  1.
       -2    1    3    3    0  502  0.22636345242E+03 -0.54014264522E+02  0.25035543741E+04  0.25143473223E+04  0.25500000920E-02 0. -1.
</event>
<event>
 5   0  0.3335747E-04  0.1305894E+04  0.7818609E-02  0.9024905E-01
        1   -1    0    0  501    0  0.00000000000E+00  0.00000000000E+00  0.14062891935E+04  0.14062891935E+04  0.50400001928E-02 0. -1.
       -1   -1    0    0    0  501  0.00000000000E+00  0.00000000000E+00 -0.30316628413E+03  0.30316628417E+03  0.50400001928E-02 0.  1.
    10030    2    1    2    0    0  0.00000000000E+00  0.00000000000E+00  0.11031229093E+04  0.17094554777E+04  0.13058935167E+04 0.  0.
        3    1    3    3  502    0 -0.51062820462E+03  0.22394786694E+03  0.10678804816E+03  0.56771252222E+03  0.10100000352E+00 0. -1.
       -3    1    3    3    0  502  0.51062820462E+03 -0.22394786694E+03  0.99633486119E+03  0.11417429554E+04  0.10100000352E+00 0.  1.
</event>
<event>
 5   0  0.6052864E-04  0.1293754E+04  0.7818609E-02  0.9034533E-01
        2   -1    0    0  501    0  0.00000000000E+00  0.00000000000E+00  0.13921973805E+04  0.13921973805E+04  0.25500000920E-02 0. -1.
       -2   -1    0    0    0  501  0.00000000000E+00  0.00000000000E+00 -0.30056792037E+03  0.30056792038E+03  0.25500000920E-02 0.  1.
    10030    2    1    2    0    0  0.00000000000E+00  0.00000000000E+00  0.10916294601E+04  0.16927653009E+04  0.12937540283E+04 0.  0.
        2    1    3    3  502    0 -0.60830183583E+03  0.30687005962E+02  0.83090797140E+03  0.10302334069E+04  0.25500000920E-02 0. -1.
       -2    1    3    3    0  502  0.60830183583E+03 -0.30687005962E+02  0.26072148872E+03  0.66253189395E+03  0.25500000920E-02 0.  1.
</event>
<event>
 5   0  0.5957913E-04  0.1298382E+04  0.7818609E-02  0.9030849E-01
        2   -1    0    0  501    0  0.00000000000E+00  0.00000000000E+00  0.14586121415E+04  0.14586121415E+04  0.25500000920E-02 0. -1.
       -2   -1    0    0    0  501  0.00000000000E+00  0.00000000000E+00 -0.28893853157E+03  0.28893853158E+03  0.25500000920E-02 0.  1.
    10030    2    1    2    0    0  0.00000000000E+00  0.00000000000E+00  0.11696736099E+04  0.17475506731E+04  0.12983824557E+04 0.  0.
        1    1    3    3  502    0 -0.50715716687E+03 -0.28286087904E+03  0.19421000255E+03  0.61232033603E+03  0.50400001928E-02 0.  1.
       -1    1    3    3    0  502  0.50715716687E+03  0.28286087904E+03  0.97546360739E+03  0.11352303371E+04  0.50400001928E-02 0. -1.
</event>
<event>
 5   0  0.5957913E-04  0.1388555E+04  0.7818609E-02  0.8962145E-01
       -2   -1    0    0    0  501  0.00000000000E+00  0.00000000000E+00  0.42052084860E+03  0.42052084861E+03  0.25500000920E-02 0.  1.
        2   -1    0    0  501    0  0.00000000000E+00  0.00000000000E+00 -0.11462482461E+04  0.11462482461E+04  0.25500000920E-02 0. -1.
    10030    2    1    2    0    0  0.00000000000E+00  0.00000000000E+00 -0.72572739748E+03  0.15667690947E+04  0.13885550549E+04 0.  0.
        1    1    3    3  502    0 -0.23977409792E+03  0.32325722334E+02  0.37141471704E+03  0.44326680726E+03  0.50400001928E-02 0.  1.
       -1    1    3    3    0  502  0.23977409792E+03 -0.32325722334E+02 -0.10971421145E+04  0.11235022874E+04  0.50400001928E-02 0. -1.
</event>
<event>
 5   0  0.5384960E-04  0.1305791E+04  0.7818609E-02  0.9024986E-01
       -2   -1    0    0    0  501  0.00000000000E+00  0.00000000000E+00  0.31462024115E+03  0.31462024116E+03  0.25500000920E-02 0. -1.
        2   -1    0    0  501    0  0.00000000000E+00  0.00000000000E+00 -0.13548791615E+04  0.13548791615E+04  0.25500000920E-02 0.  1.
    10030    2    1    2    0    0  0.00000000000E+00  0.00000000000E+00 -0.10402589204E+04  0.16694994027E+04  0.13057908080E+04 0.  0.
        3    1    3    3  502    0 -0.54986137149E+03  0.20529253396E+03 -0.15450452615E+03  0.60693015344E+03  0.10100000352E+00 0. -1.
       -3    1    3    3    0  502  0.54986137149E+03 -0.20529253396E+03 -0.88575439425E+03  0.10625692493E+04  0.10100000352E+00 0.  1.
</event>
<event>
 5   0  0.3274879E-04  0.1227740E+04  0.7818609E-02  0.9088916E-01
       -1   -1    0    0    0  501  0.00000000000E+00  0.00000000000E+00  0.22755463765E+03  0.22755463770E+03  0.50400001928E-02 0.  1.
        1   -1    0    0  501    0  0.00000000000E+00  0.00000000000E+00 -0.16560257669E+04  0.16560257669E+04  0.50400001928E-02 0. -1.
    10030    2    1    2    0    0  0.00000000000E+00  0.00000000000E+00 -0.14284711292E+04  0.18835804046E+04  0.12277399454E+04 0.  0.
        4    1    3    3  502    0 -0.22202122254E+03 -0.42753036007E+03 -0.13052075458E+03  0.49911212399E+03  0.12699999809E+01 0.  1.
       -4    1    3    3    0  502  0.22202122254E+03  0.42753036007E+03 -0.12979503746E+04  0.13844682806E+04  0.12699999809E+01 0. -1.
</event>
<event>
 5   0  0.5384960E-04  0.1298897E+04  0.7818609E-02  0.9030440E-01
       -2   -1    0    0    0  501  0.00000000000E+00  0.00000000000E+00  0.32932563951E+03  0.32932563952E+03  0.25500000920E-02 0. -1.
        2   -1    0    0  501    0  0.00000000000E+00  0.00000000000E+00 -0.12807494928E+04  0.12807494928E+04  0.25500000920E-02 0.  1.
    10030    2    1    2    0    0  0.00000000000E+00  0.00000000000E+00 -0.95142385325E+03  0.16100751323E+04  0.12988974490E+04 0.  0.
        3    1    3    3  502    0 -0.51295712644E+03 -0.38529898692E+03 -0.35050110188E+03  0.73104812120E+03  0.10100000352E+00 0. -1.
       -3    1    3    3    0  502  0.51295712644E+03  0.38529898692E+03 -0.60092275137E+03  0.87902701108E+03  0.10100000352E+00 0.  1.
</event>
<event>
 5   0  0.3263679E-04  0.1306557E+04  0.7818609E-02  0.9024381E-01
       -1   -1    0    0    0  501  0.00000000000E+00  0.00000000000E+00  0.38261144914E+03  0.38261144917E+03  0.50400001928E-02 0. -1.
        1   -1    0    0  501    0  0.00000000000E+00  0.00000000000E+00 -0.11154209395E+04  0.11154209395E+04  0.50400001928E-02 0.  1.
    10030    2    1    2    0    0  0.00000000000E+00  0.00000000000E+00 -0.73280949035E+03  0.14980323887E+04  0.13065570360E+04 0.  0.
        2    1    3    3  502    0 -0.48466511718E+02 -0.57917546899E+03 -0.24395344364E+02  0.58171157756E+03  0.25500000920E-02 0. -1.
       -2    1    3    3    0  502  0.48466511718E+02  0.57917546899E+03 -0.70841414599E+03  0.91632081111E+03  0.25500000920E-02 0.  1.
</event>
<event>
 5   0  0.6007125E-04  0.1300210E+04  0.7818609E-02  0.9029399E-01
        2   -1    0    0  501    0  0.00000000000E+00  0.00000000000E+00  0.11724346526E+04  0.11724346526E+04  0.25500000920E-02 0.  1.
       -2   -1    0    0    0  501  0.00000000000E+00  0.00000000000E+00 -0.36047764607E+03  0.36047764608E+03  0.25500000920E-02 0. -1.
    10030    2    1    2    0    0  0.00000000000E+00  0.00000000000E+00  0.81195700651E+03  0.15329122987E+04  0.13002099580E+04 0.  0.
        5    1    3    3  502    0 -0.40219388957E+03 -0.25719795974E+02  0.10073621198E+04  0.10849986005E+04  0.46999998093E+01 0.  1.
       -5    1    3    3    0  502  0.40219388957E+03  0.25719795974E+02 -0.19540511328E+03  0.44791369817E+03  0.46999998093E+01 0. -1.
</event>
<event>
 5   0  0.5384960E-04  0.1306367E+04  0.7818609E-02  0.9024531E-01
        2   -1    0    0  501    0  0.00000000000E+00  0.00000000000E+00  0.38557908126E+03  0.38557908127E+03  0.25500000920E-02 0. -1.
       -2   -1    0    0    0  501  0.00000000000E+00  0.00000000000E+00 -0.11065143619E+04  0.11065143619E+04  0.25500000920E-02 0.  1.
    10030    2    1    2    0    0  0.00000000000E+00  0.00000000000E+00 -0.72093528067E+03  0.14920934432E+04  0.13063671629E+04 0.  0.
        3    1    3    3  502    0 -0.63720632785E+03 -0.89937285686E+02 -0.48830989877E+03  0.80781630774E+03  0.10100000352E+00 0.  1.
       -3    1    3    3    0  502  0.63720632785E+03  0.89937285686E+02 -0.23262538189E+03  0.68427713546E+03  0.10100000352E+00 0. -1.
</event>
<event>
 5   0  0.3263679E-04  0.1298947E+04  0.7818609E-02  0.9030400E-01
       -1   -1    0    0    0  501  0.00000000000E+00  0.00000000000E+00  0.28202216570E+03  0.28202216575E+03  0.50400001928E-02 0.  1.
        1   -1    0    0  501    0  0.00000000000E+00  0.00000000000E+00 -0.14956840828E+04  0.14956840828E+04  0.50400001928E-02 0. -1.
    10030    2    1    2    0    0  0.00000000000E+00  0.00000000000E+00 -0.12136619171E+04  0.17777062485E+04  0.12989473650E+04 0.  0.
        2    1    3    3  502    0  0.37728968677E+03  0.32974499849E+02  0.11525421419E+03  0.39587669706E+03  0.25500000920E-02 0.  1.
       -2    1    3    3    0  502 -0.37728968677E+03 -0.32974499849E+02 -0.13289161313E+04  0.13818295515E+04  0.25500000920E-02 0. -1.
</event>
<event>
 5   0  0.3263679E-04  0.1305988E+04  0.7818609E-02  0.9024830E-01
        1   -1    0    0  501    0  0.00000000000E+00  0.00000000000E+00  0.57617531848E+03  0.57617531850E+03  0.50400001928E-02 0. -1.
       -1   -1    0    0    0  501  0.00000000000E+00  0.00000000000E+00 -0.74005405060E+03  0.74005405062E+03  0.50400001928E-02 0.  1.
    10030    2    1    2    0    0  0.00000000000E+00  0.00000000000E+00 -0.16387873212E+03  0.13162293691E+04  0.13059875625E+04 0.  0.
        2    1    3    3  502    0 -0.83685964083E+02  0.57078256066E+03  0.22640897073E+03  0.61972340134E+03  0.25500000920E-02 0. -1.
       -2    1    3    3    0  502  0.83685964083E+02 -0.57078256066E+03 -0.39028770285E+03  0.69650596777E+03  0.25500000920E-02 0.  1.
</event>
<event>
 5   0  0.3337520E-04  0.1301740E+04  0.7818609E-02  0.9028187E-01
       -1   -1    0    0    0  501  0.00000000000E+00  0.00000000000E+00  0.12210850857E+04  0.12210850857E+04  0.50400001928E-02 0.  1.
        1   -1    0    0  501    0  0.00000000000E+00  0.00000000000E+00 -0.34693039442E+03  0.34693039446E+03  0.50400001928E-02 0. -1.
    10030    2    1    2    0    0  0.00000000000E+00  0.00000000000E+00  0.87415469124E+03  0.15680154801E+04  0.13017396521E+04 0.  0.
        5    1    3    3  502    0  0.25492154887E+03 -0.10419678778E+03  0.11474245771E+04  0.11800200070E+04  0.46999998093E+01 0.  1.
       -5    1    3    3    0  502 -0.25492154887E+03  0.10419678778E+03 -0.27326988589E+03  0.38799547316E+03  0.46999998093E+01 0. -1.
</event>
<event>
 5   0  0.6052864E-04  0.1316981E+04  0.7818609E-02  0.9016207E-01
        2   -1    0    0  501    0  0.00000000000E+00  0.00000000000E+00  0.54028512798E+03  0.54028512799E+03  0.25500000920E-02 0.  1.
       -2   -1    0    0    0  501  0.00000000000E+00  0.00000000000E+00 -0.80255675170E+03  0.80255675170E+03  0.25500000920E-02 0. -1.
    10030    2    1    2    0    0  0.00000000000E+00  0.00000000000E+00 -0.26227162371E+03  0.13428418797E+04  0.13169806032E+04 0.  0.
        2    1    3    3  502    0 -0.29076623103E+01  0.56624105450E+03  0.21157758554E+03  0.60448528602E+03  0.25500000920E-02 0.  1.
       -2    1    3    3    0  502  0.29076623103E+01 -0.56624105450E+03 -0.47384920925E+03  0.73835659367E+03  0.25500000920E-02 0. -1.
</event>
<event>
 5   0  0.6052864E-04  0.1299268E+04  0.7818609E-02  0.9030146E-01
        2   -1    0    0  501    0  0.00000000000E+00  0.00000000000E+00  0.24723103016E+04  0.24723103016E+04  0.25500000920E-02 0.  1.
       -2   -1    0    0    0  501  0.00000000000E+00  0.00000000000E+00 -0.17070046113E+03  0.17070046115E+03  0.25500000920E-02 0. -1.
    10030    2    1    2    0    0  0.00000000000E+00  0.00000000000E+00  0.23016098405E+04  0.26430107628E+04  0.12992682688E+04 0.  0.
        2    1    3    3  502    0  0.57598111340E+03  0.29290161353E+03  0.10146647515E+04  0.12029506042E+04  0.25500000920E-02 0.  1.
       -2    1    3    3    0  502 -0.57598111340E+03 -0.29290161353E+03  0.12869450890E+04  0.14400601586E+04  0.25500000920E-02 0. -1.
</event>
<event>
 5   0  0.3335747E-04  0.1294164E+04  0.7818609E-02  0.9034206E-01
       -1   -1    0    0    0  501  0.00000000000E+00  0.00000000000E+00  0.67267557621E+03  0.67267557623E+03  0.50400001928E-02 0. -1.
        1   -1    0    0  501    0  0.00000000000E+00  0.00000000000E+00 -0.62246223415E+03  0.62246223417E+03  0.50400001928E-02 0.  1.
    10030    2    1    2    0    0  0.00000000000E+00  0.00000000000E+00  0.50213342063E+02  0.12951378104E+04  0.12941640422E+04 0.  0.
        3    1    3    3  502    0 -0.29182281315E+03  0.24130671523E+03 -0.50000296449E+03  0.62721006034E+03  0.10100000352E+00 0.  1.
       -3    1    3    3    0  502  0.29182281315E+03 -0.24130671523E+03  0.55021630656E+03  0.66792775006E+03  0.10100000352E+00 0. -1.
</event>
<event>
 5   0  0.5787604E-04  0.1294849E+04  0.7818609E-02  0.9033660E-01
        2   -1    0    0  501    0  0.00000000000E+00  0.00000000000E+00  0.89005557508E+03  0.89005557508E+03  0.25500000920E-02 0. -1.
       -2   -1    0    0    0  501  0.00000000000E+00  0.00000000000E+00 -0.47093525186E+03  0.47093525187E+03  0.25500000920E-02 0.  1.
    10030    2    1    2    0    0  0.00000000000E+00  0.00000000000E+00  0.41912032322E+03  0.13609908270E+04  0.12948490977E+04 0.  0.
        4    1    3    3  502    0  0.53323297605E+03  0.33230247853E+03  0.37372600313E+03  0.73105067013E+03  0.12699999809E+01 0. -1.
       -4    1    3    3    0  502 -0.53323297605E+03 -0.33230247853E+03  0.45394320087E+02  0.62994015682E+03  0.12699999809E+01 0.  1.
</event>
<event>
 5   0  0.3403833E-04  0.1303263E+04  0.7818609E-02  0.9026982E-01
       -1   -1    0    0    0  501  0.00000000000E+00  0.00000000000E+00  0.59367281547E+03  0.59367281550E+03  0.50400001928E-02 0. -1.
        1   -1    0    0  501    0  0.00000000000E+00  0.00000000000E+00 -0.71524838933E+03  0.71524838935E+03  0.50400001928E-02 0.  1.
    10030    2    1    2    0    0  0.00000000000E+00  0.00000000000E+00 -0.12157557386E+03  0.13089212048E+04  0.13032628669E+04 0.  0.
        1    1    3    3  502    0  0.16026845501E+03  0.59468504607E+03  0.15294415174E+03  0.63460869461E+03  0.50400001928E-02 0. -1.
       -1    1    3    3    0  502 -0.16026845501E+03 -0.59468504607E+03 -0.27451972560E+03  0.67431251024E+03  0.50400001928E-02 0.  1.
</event>
<event>
 5   0  0.6052864E-04  0.1297102E+04  0.7818609E-02  0.9031867E-01
       -2   -1    0    0    0  501  0.00000000000E+00  0.00000000000E+00  0.33663108408E+03  0.33663108409E+03  0.25500000920E-02 0. -1.
        2   -1    0    0  501    0  0.00000000000E+00  0.00000000000E+00 -0.12494926960E+04  0.12494926960E+04  0.25500000920E-02 0.  1.
    10030    2    1    2    0    0  0.00000000000E+00  0.00000000000E+00 -0.91286161189E+03  0.15861237801E+04  0.12971015085E+04 0.  0.
        2    1    3    3  502    0  0.10571485258E+03  0.55759452339E+02  0.32304804790E+03  0.34444852713E+03  0.25500000920E-02 0. -1.
       -2    1    3    3    0  502 -0.10571485258E+03 -0.55759452339E+02 -0.12359096598E+04  0.12416752529E+04  0.25500000920E-02 0.  1.
</event>
<event>
 5   0  0.3335747E-04  0.1296084E+04  0.7818609E-02  0.9032677E-01
        1   -1    0    0  501    0  0.00000000000E+00  0.00000000000E+00  0.66286772569E+03  0.66286772571E+03  0.50400001928E-02 0. -1.
       -1   -1    0    0    0  501  0.00000000000E+00  0.00000000000E+00 -0.63354759412E+03  0.63354759414E+03  0.50400001928E-02 0.  1.
    10030    2    1    2    0    0  0.00000000000E+00  0.00000000000E+00  0.29320131571E+02  0.12964153199E+04  0.12960837208E+04 0.  0.
        3    1    3    3  502    0  0.49195828140E+03  0.15296967846E+03 -0.37855063409E+03  0.63931468460E+03  0.10100000352E+00 0.  1.
       -3    1    3    3    0  502 -0.49195828140E+03 -0.15296967846E+03  0.40787076566E+03  0.65710063526E+03  0.10100000352E+00 0. -1.
</event>
<event>
 5   0  0.5957913E-04  0.1303068E+04  0.7818609E-02  0.9027136E-01
        2   -1    0    0  501    0  0.00000000000E+00  0.00000000000E+00  0.42678476871E+03  0.42678476871E+03  0.25500000920E-02 0.  1.
       -2   -1    0    0    0  501  0.00000000000E+00  0.00000000000E+00 -0.99463792982E+03  0.99463792982E+03  0.25500000920E-02 0. -1.
    10030    2    1    2    0    0  0.00000000000E+00  0.00000000000E+00 -0.56785316112E+03  0.14214226985E+04  0.13030676404E+04 0.  0.
        1    1    3    3  502    0 -0.12153145922E+03 -0.11703353487E+03  0.40254110184E+03  0.43647002482E+03  0.50400001928E-02 0.  1.
       -1    1    3    3    0  502  0.12153145922E+03  0.11703353487E+03 -0.97039426296E+03  0.98495267372E+03  0.50400001928E-02 0. -1.
</event>
<event>
 5   0  0.6007125E-04  0.1302943E+04  0.7818609E-02  0.9027235E-01
       -2   -1    0    0    0  501  0.00000000000E+00  0.00000000000E+00  0.70134674557E+03  0.70134674558E+03  0.25500000920E-02 0. -1.
        2   -1    0    0  501    0  0.00000000000E+00  0.00000000000E+00 -0.60514261503E+03  0.60514261503E+03  0.25500000920E-02 0.  1.
    10030    2    1    2    0    0  0.00000000000E+00  0.00000000000E+00  0.96204130544E+02  0.13064893606E+04  0.13029425216E+04 0.  0.
        5    1    3    3  502    0  0.47220958473E+03 -0.41489613065E+03 -0.12345435878E+03  0.64061201975E+03  0.46999998093E+01 0.  1.
       -5    1    3    3    0  502 -0.47220958473E+03  0.41489613065E+03  0.21965848933E+03  0.66587734086E+03  0.46999998093E+01 0. -1.
</event>
<event>
 5   0  0.3403833E-04  0.1301030E+04  0.7818609E-02  0.9028749E-01
       -1   -1    0    0    0  501  0.00000000000E+00  0.00000000000E+00  0.20822775007E+03  0.20822775014E+03  0.50400001928E-02 0. -1.
        1   -1    0    0  501    0  0.00000000000E+00  0.00000000000E+00 -0.20322444764E+04  0.20322444764E+04  0.50400001928E-02 0.  1.
    10030    2    1    2    0    0  0.00000000000E+00  0.00000000000E+00 -0.18240167263E+04  0.22404722265E+04  0.13010298920E+04 0.  0.
        1    1    3    3  502    0  0.30094089095E+03 -0.15639461670E+03 -0.18679466401E+04  0.18984860670E+04  0.50400001928E-02 0.  1.
       -1    1    3    3    0  502 -0.30094089095E+03  0.15639461670E+03  0.43929913840E+02  0.34198615956E+03  0.50400001928E-02 0. -1.
</event>
<event>
 5   0  0.3263679E-04  0.1298844E+04  0.7818609E-02  0.9030483E-01
        1   -1    0    0  501    0  0.00000000000E+00  0.00000000000E+00  0.13255787620E+04  0.13255787620E+04  0.50400001928E-02 0.  1.
       -1   -1    0    0    0  501  0.00000000000E+00  0.00000000000E+00 -0.31816197511E+03  0.31816197515E+03  0.50400001928E-02 0. -1.
    10030    2    1    2    0    0  0.00000000000E+00  0.00000000000E+00  0.10074167869E+04  0.16437407371E+04  0.12988437275E+04 0.  0.
        2    1    3    3  502    0  0.57288435487E+03  0.28037661743E+03  0.34901579776E+03  0.72706227983E+03  0.25500000920E-02 0. -1.
       -2    1    3    3    0  502 -0.57288435487E+03 -0.28037661743E+03  0.65840098909E+03  0.91667845731E+03  0.25500000920E-02 0.  1.
</event>
<event>
 5   0  0.3274879E-04  0.1294819E+04  0.7818609E-02  0.9033684E-01
       -1   -1    0    0    0  501  0.00000000000E+00  0.00000000000E+00  0.36883957235E+03  0.36883957238E+03  0.50400001928E-02 0.  1.
        1   -1    0    0  501    0  0.00000000000E+00  0.00000000000E+00 -0.11363715202E+04  0.11363715202E+04  0.50400001928E-02 0. -1.
    10030    2    1    2    0    0  0.00000000000E+00  0.00000000000E+00 -0.76753194787E+03  0.15052110926E+04  0.12948185751E+04 0.  0.
        4    1    3    3  502    0  0.86603002529E+02 -0.27172306387E+03  0.29188229813E+03  0.40808135506E+03  0.12699999809E+01 0.  1.
       -4    1    3    3    0  502 -0.86603002529E+02  0.27172306387E+03 -0.10594142460E+04  0.10971297376E+04  0.12699999809E+01 0. -1.
</event>
<event>
 5   0  0.6052864E-04  0.1303597E+04  0.7818609E-02  0.9026717E-01
       -2   -1    0    0    0  501  0.00000000000E+00  0.00000000000E+00  0.51732290379E+03  0.51732290379E+03  0.25500000920E-02 0.  1.
        2   -1    0    0  501    0  0.00000000000E+00  0.00000000000E+00 -0.82123060548E+03  0.82123060548E+03  0.25500000920E-02 0. -1.
    10030    2    1    2    0    0  0.00000000000E+00  0.00000000000E+00 -0.30390770169E+03  0.13385535093E+04  0.13035971794E+04 0.  0.
        2    1    3    3  502    0 -0.28179863302E+03  0.39631609103E+03  0.29369402366E+03  0.56809602457E+03  0.25500000920E-02 0.  1.
       -2    1    3    3    0  502  0.28179863302E+03 -0.39631609103E+03 -0.59760172535E+03  0.77045748471E+03  0.25500000920E-02 0. -1.
</event>
<event>
 5   0  0.6052864E-04  0.1290037E+04  0.7818609E-02  0.9037504E-01
        2   -1    0    0  501    0  0.00000000000E+00  0.00000000000E+00  0.58520420350E+03  0.58520420351E+03  0.25500000920E-02 0.  1.
       -2   -1    0    0    0  501  0.00000000000E+00  0.00000000000E+00 -0.71094614036E+03  0.71094614036E+03  0.25500000920E-02 0. -1.
    10030    2    1    2    0    0  0.00000000000E+00  0.00000000000E+00 -0.12574193686E+03  0.12961503439E+04  0.12900366969E+04 0.  0.
        2    1    3    3  502    0  0.54098629800E+03  0.30769442433E+03 -0.23310424926E+03  0.66458981667E+03  0.25500000920E-02 0. -1.
       -2    1    3    3    0  502 -0.54098629800E+03 -0.30769442433E+03  0.10736231240E+03  0.63156052720E+03  0.25500000920E-02 0.  1.
</event>
<event>
 5   0  0.5787604E-04  0.1308758E+04  0.7818609E-02  0.9022648E-01
        2   -1    0    0  501    0  0.00000000000E+00  0.00000000000E+00  0.14234377908E+04  0.14234377908E+04  0.25500000920E-02 0. -1.
       -2   -1    0    0    0  501  0.00000000000E+00  0.00000000000E+00 -0.30082947873E+03  0.30082947875E+03  0.25500000920E-02 0.  1.
    10030    2    1    2    0    0  0.00000000000E+00  0.00000000000E+00  0.11226083121E+04  0.17242672696E+04  0.13087582644E+04 0.  0.
        4    1    3    3  502    0 -0.54764315293E+03 -0.35688549191E+03  0.60148542185E+03  0.88829420964E+03  0.12699999809E+01 0. -1.
       -4    1    3    3    0  502  0.54764315293E+03  0.35688549191E+03  0.52112289024E+03  0.83597305992E+03  0.12699999809E+01 0.  1.
</event>
<event>
 5   0  0.6007125E-04  0.1305592E+04  0.7818609E-02  0.9025143E-01
        2   -1    0    0  501    0  0.00000000000E+00  0.00000000000E+00  0.82984817751E+03  0.82984817752E+03  0.25500000920E-02 0. -1.
       -2   -1    0    0    0  501  0.00000000000E+00  0.00000000000E+00 -0.51351864615E+03  0.51351864616E+03  0.25500000920E-02 0.  1.
    10030    2    1    2    0    0  0.00000000000E+00  0.00000000000E+00  0.31632953136E+03  0.13433668237E+04  0.13055918392E+04 0.  0.
        5    1    3    3  502    0 -0.15324902628E+03  0.48085115150E+03  0.58416962523E+03  0.77199697862E+03  0.46999998093E+01 0. -1.
       -5    1    3    3    0  502  0.15324902628E+03 -0.48085115150E+03 -0.26784009387E+03  0.57136984506E+03  0.46999998093E+01 0.  1.
</event>
<event>
 5   0  0.6052864E-04  0.1298223E+04  0.7818609E-02  0.9030975E-01
        2   -1    0    0  501    0  0.00000000000E+00  0.00000000000E+00  0.12050663699E+04  0.12050663699E+04  0.25500000920E-02 0. -1.
       -2   -1    0    0    0  501  0.00000000000E+00  0.00000000000E+00 -0.34964547405E+03  0.34964547406E+03  0.25500000920E-02 0.  1.
    10030    2    1    2    0    0  0.00000000000E+00  0.00000000000E+00  0.85542089589E+03  0.15547118440E+04  0.12982234048E+04 0.  0.
        2    1    3    3  502    0 -0.29847669372E+03  0.47578321290E+03  0.81740456085E+03  0.99177024480E+03  0.25500000920E-02 0. -1.
       -2    1    3    3    0  502  0.29847669372E+03 -0.47578321290E+03  0.38016335046E+02  0.56294159920E+03  0.25500000920E-02 0.  1.
</event>
<event>
 5   0  0.5957913E-04  0.1342728E+04  0.7818609E-02  0.8996351E-01
        2   -1    0    0  501    0  0.00000000000E+00  0.00000000000E+00  0.14586544303E+04  0.14586544303E+04  0.25500000920E-02 0.  1.
       -2   -1    0    0    0  501  0.00000000000E+00  0.00000000000E+00 -0.30900369731E+03  0.30900369732E+03  0.25500000920E-02 0. -1.
    10030    2    1    2    0    0  0.00000000000E+00  0.00000000000E+00  0.11496507330E+04  0.17676581276E+04  0.13427279874E+04 0.  0.
        1    1    3    3  502    0 -0.55997243069E+03 -0.32640507668E+03  0.80518922796E+03  0.10336532736E+04  0.50400001928E-02 0.  1.
       -1    1    3    3    0  502  0.55997243069E+03  0.32640507668E+03  0.34446150501E+03  0.73400485399E+03  0.50400001928E-02 0. -1.
</event>
<event>
 5   0  0.5787604E-04  0.1288940E+04  0.7818609E-02  0.9038382E-01
        2   -1    0    0  501    0  0.00000000000E+00  0.00000000000E+00  0.77212704065E+03  0.77212704065E+03  0.25500000920E-02 0. -1.
       -2   -1    0    0    0  501  0.00000000000E+00  0.00000000000E+00 -0.53791876183E+03  0.53791876184E+03  0.25500000920E-02 0.  1.
    10030    2    1    2    0    0  0.00000000000E+00  0.00000000000E+00  0.23420827881E+03  0.13100458025E+04  0.12889400633E+04 0.  0.
        4    1    3    3  502    0 -0.35114254104E+03  0.32715596521E+03 -0.32006439218E+03  0.57686648172E+03  0.12699999809E+01 0.  1.
       -4    1    3    3    0  502  0.35114254104E+03 -0.32715596521E+03  0.55427267099E+03  0.73317932077E+03  0.12699999809E+01 0. -1.
</event>
<event>
 5   0  0.5787604E-04  0.1298798E+04  0.7818609E-02  0.9030519E-01
       -2   -1    0    0    0  501  0.00000000000E+00  0.00000000000E+00  0.24154406681E+03  0.24154406682E+03  0.25500000920E-02 0.  1.
        2   -1    0    0  501    0  0.00000000000E+00  0.00000000000E+00 -0.17459312597E+04  0.17459312597E+04  0.25500000920E-02 0. -1.
    10030    2    1    2    0    0  0.00000000000E+00  0.00000000000E+00 -0.15043871929E+04  0.19874753265E+04  0.12987984245E+04 0.  0.
        4    1    3    3  502    0 -0.22361398194E+03  0.48718286462E+01  0.18074032587E+03  0.28756847172E+03  0.12699999809E+01 0.  1.
       -4    1    3    3    0  502  0.22361398194E+03 -0.48718286462E+01 -0.16851275187E+04  0.16999068548E+04  0.12699999809E+01 0. -1.
</event>
<event>
 5   0  0.6007125E-04  0.1303715E+04  0.7818609E-02  0.9026625E-01
        2   -1    0    0  501    0  0.00000000000E+00  0.00000000000E+00  0.22893941077E+04  0.22893941077E+04  0.25500000920E-02 0.  1.
       -2   -1    0    0    0  501  0.00000000000E+00  0.00000000000E+00 -0.18560281384E+03  0.18560281386E+03  0.25500000920E-02 0. -1.
    10030    2    1    2    0    0  0.00000000000E+00  0.00000000000E+00  0.21037912939E+04  0.24749969216E+04  0.13037146749E+04 0.  0.
        5    1    3    3  502    0 -0.56662168481E+03 -0.28913278446E+03  0.78182593589E+03  0.10079344149E+04  0.46999998093E+01 0. -1.
       -5    1    3    3    0  502  0.56662168481E+03  0.28913278446E+03  0.13219653580E+04  0.14670625067E+04  0.46999998093E+01 0.  1.
</event>
<event>
 5   0  0.3263679E-04  0.1301293E+04  0.7818609E-02  0.9028540E-01
       -1   -1    0    0    0  501  0.00000000000E+00  0.00000000000E+00  0.49845797592E+03  0.49845797595E+03  0.50400001928E-02 0. -1.
        1   -1    0    0  501    0  0.00000000000E+00  0.00000000000E+00 -0.84930105727E+03  0.84930105729E+03  0.50400001928E-02 0.  1.
    10030    2    1    2    0    0  0.00000000000E+00  0.00000000000E+00 -0.35084308135E+03  0.13477590332E+04  0.13012930277E+04 0.  0.
        2    1    3    3  502    0  0.61853840932E+03 -0.17845059383E+03 -0.77677368392E+02  0.64843515621E+03  0.25500000920E-02 0. -1.
       -2    1    3    3    0  502 -0.61853840932E+03  0.17845059383E+03 -0.27316571296E+03  0.69932387703E+03  0.25500000920E-02 0.  1.
</event>
<event>
 5   0  0.6007125E-04  0.1301795E+04  0.7818609E-02  0.9028143E-01
       -2   -1    0    0    0  501  0.00000000000E+00  0.00000000000E+00  0.29341739525E+03  0.29341739526E+03  0.25500000920E-02 0. -1.
        2   -1    0    0  501    0  0.00000000000E+00  0.00000000000E+00 -0.14439068175E+04  0.14439068175E+04  0.25500000920E-02 0.  1.
    10030    2    1    2    0    0  0.00000000000E+00  0.00000000000E+00 -0.11504894223E+04  0.17373242128E+04  0.13017947264E+04 0.  0.
        5    1    3    3  502    0  0.15746815373E+03  0.19603376078E+03  0.22595854353E+03  0.33808994099E+03  0.46999998093E+01 0. -1.
       -5    1    3    3    0  502 -0.15746815373E+03 -0.19603376078E+03 -0.13764479658E+04  0.13992342718E+04  0.46999998093E+01 0.  1.
</event>
<event>
 5   0  0.5384960E-04  0.1306139E+04  0.7818609E-02  0.9024711E-01
       -2   -1    0    0    0  501  0.00000000000E+00  0.00000000000E+00  0.42625925880E+03  0.42625925881E+03  0.25500000920E-02 0. -1.
        2   -1    0    0  501    0  0.00000000000E+00  0.00000000000E+00 -0.10005645793E+04  0.10005645793E+04  0.25500000920E-02 0.  1.
    10030    2    1    2    0    0  0.00000000000E+00  0.00000000000E+00 -0.57430532052E+03  0.14268238381E+04  0.13061392207E+04 0.  0.
        3    1    3    3  502    0 -0.14232398588E+03 -0.62204836856E+03 -0.13539339340E+03  0.65232788608E+03  0.10100000352E+00 0.  1.
       -3    1    3    3    0  502  0.14232398588E+03  0.62204836856E+03 -0.43891192712E+03  0.77449595206E+03  0.10100000352E+00 0. -1.
</event>
<event>
 5   0  0.6007125E-04  0.1294815E+04  0.7818609E-02  0.9033687E-01
        2   -1    0    0  501    0  0.00000000000E+00  0.00000000000E+00  0.22237729302E+04  0.22237729302E+04  0.25500000920E-02 0. -1.
       -2   -1    0    0    0  501  0.00000000000E+00  0.00000000000E+00 -0.18848001760E+03  0.18848001762E+03  0.25500000920E-02 0.  1.
    10030    2    1    2    0    0  0.00000000000E+00  0.00000000000E+00  0.20352929126E+04  0.24122529478E+04  0.12948154479E+04 0.  0.
        5    1    3    3  502    0  0.77240475459E+02 -0.43898506448E+02 -0.17703708518E+03  0.19813477596E+03  0.46999998093E+01 0.  1.
       -5    1    3    3    0  502 -0.77240475459E+02  0.43898506448E+02  0.22123299978E+04  0.22141181718E+04  0.46999998093E+01 0. -1.
</event>
<event>
 5   0  0.3274879E-04  0.1297368E+04  0.7818609E-02  0.9031655E-01
        1   -1    0    0  501    0  0.00000000000E+00  0.00000000000E+00  0.11622767405E+04  0.11622767405E+04  0.50400001928E-02 0. -1.
       -1   -1    0    0    0  501  0.00000000000E+00  0.00000000000E+00 -0.36204018979E+03  0.36204018982E+03  0.50400001928E-02 0.  1.
    10030    2    1    2    0    0  0.00000000000E+00  0.00000000000E+00  0.80023655075E+03  0.15243169304E+04  0.12973679382E+04 0.  0.
        4    1    3    3  502    0  0.25836143399E+03  0.58654939746E+03  0.51760221707E+03  0.82383523489E+03  0.12699999809E+01 0.  1.
       -4    1    3    3    0  502 -0.25836143399E+03 -0.58654939746E+03  0.28263433368E+03  0.70048169548E+03  0.12699999809E+01 0. -1.
</event>
<event>
 5   0  0.3337520E-04  0.1306287E+04  0.7818609E-02  0.9024594E-01
        1   -1    0    0  501    0  0.00000000000E+00  0.00000000000E+00  0.24223142095E+04  0.24223142095E+04  0.50400001928E-02 0.  1.
       -1   -1    0    0    0  501  0.00000000000E+00  0.00000000000E+00 -0.17611114073E+03  0.17611114080E+03  0.50400001928E-02 0. -1.
    10030    2    1    2    0    0  0.00000000000E+00  0.00000000000E+00  0.22462030688E+04  0.25984253503E+04  0.13062871334E+04 0.  0.
        5    1    3    3  502    0 -0.52291027849E+02  0.78861727972E+02 -0.16237072947E+03  0.18798900904E+03  0.46999998093E+01 0. -1.
       -5    1    3    3    0  502  0.52291027849E+02 -0.78861727972E+02  0.24085737982E+04  0.24104363413E+04  0.46999998093E+01 0.  1.
</event>
<event>
 5   0  0.3337520E-04  0.1304566E+04  0.7818609E-02  0.9025952E-01
       -1   -1    0    0    0  501  0.00000000000E+00  0.00000000000E+00  0.16506335920E+03  0.16506335928E+03  0.50400001928E-02 0.  1.
        1   -1    0    0  501    0  0.00000000000E+00  0.00000000000E+00 -0.25776367865E+04  0.25776367865E+04  0.50400001928E-02 0. -1.
    10030    2    1    2    0    0  0.00000000000E+00  0.00000000000E+00 -0.24125734273E+04  0.27427001458E+04  0.13045664213E+04 0.  0.
        5    1    3    3  502    0  0.12592581006E+03  0.35492109613E+03 -0.86631284502E+02  0.38646262895E+03  0.46999998093E+01 0.  1.
       -5    1    3    3    0  502 -0.12592581006E+03 -0.35492109613E+03 -0.23259421428E+04  0.23562375169E+04  0.46999998093E+01 0. -1.
</event>
<event>
 5   0  0.2255875E-04  0.1304405E+04  0.7818609E-02  0.9026080E-01
       -3   -1    0    0    0  501  0.00000000000E+00  0.00000000000E+00  0.74138436935E+03  0.74138437623E+03  0.10100000352E+00 0.  1.
        3   -1    0    0  501    0  0.00000000000E+00  0.00000000000E+00 -0.57374796014E+03  0.57374796903E+03  0.10100000352E+00 0. -1.
    10030    2    1    2    0    0  0.00000000000E+00  0.00000000000E+00  0.16763640920E+03  0.13151323453E+04  0.13044045078E+04 0.  0.
        3    1    3    3  502    0  0.60488450681E+03  0.20441187618E+03  0.21794723897E+03  0.67466324257E+03  0.10100000352E+00 0. -1.
       -3    1    3    3    0  502 -0.60488450681E+03 -0.20441187618E+03 -0.50310829767E+02  0.64046910269E+03  0.10100000352E+00 0.  1.
</event>
<event>
 5   0  0.5957913E-04  0.1301271E+04  0.7818609E-02  0.9028558E-01
       -2   -1    0    0    0  501  0.00000000000E+00  0.00000000000E+00  0.43908916272E+03  0.43908916272E+03  0.25500000920E-02 0. -1.
        2   -1    0    0  501    0  0.00000000000E+00  0.00000000000E+00 -0.96410207170E+03  0.96410207170E+03  0.25500000920E-02 0.  1.
    10030    2    1    2    0    0  0.00000000000E+00  0.00000000000E+00 -0.52501290898E+03  0.14031912344E+04  0.13012713344E+04 0.  0.
        1    1    3    3  502    0 -0.59594928352E+03  0.23215027840E+03 -0.13365935528E+03  0.65338665701E+03  0.50400001928E-02 0. -1.
       -1    1    3    3    0  502  0.59594928352E+03 -0.23215027840E+03 -0.39135355370E+03  0.74980457741E+03  0.50400001928E-02 0.  1.
</event>
<event>
 5   0  0.5957913E-04  0.1311958E+04  0.7818609E-02  0.9020135E-01
       -2   -1    0    0    0  501  0.00000000000E+00  0.00000000000E+00  0.37320838831E+03  0.37320838832E+03  0.25500000920E-02 0. -1.
        2   -1    0    0  501    0  0.00000000000E+00  0.00000000000E+00 -0.11529986012E+04  0.11529986012E+04  0.25500000920E-02 0.  1.
    10030    2    1    2    0    0  0.00000000000E+00  0.00000000000E+00 -0.77979021289E+03  0.15262069895E+04  0.13119584592E+04 0.  0.
        1    1    3    3  502    0  0.20161709537E+03  0.61218127681E+03 -0.24792725767E+03  0.69056737104E+03  0.50400001928E-02 0.  1.
       -1    1    3    3    0  502 -0.20161709537E+03 -0.61218127681E+03 -0.53186295522E+03  0.83563961849E+03  0.50400001928E-02 0. -1.
</event>
<event>
 5   0  0.3274879E-04  0.1303187E+04  0.7818609E-02  0.9027042E-01
       -1   -1    0    0    0  501  0.00000000000E+00  0.00000000000E+00  0.97615054631E+03  0.97615054633E+03  0.50400001928E-02 0. -1.
        1   -1    0    0  501    0  0.00000000000E+00  0.00000000000E+00 -0.43494742224E+03  0.43494742227E+03  0.50400001928E-02 0.  1.
    10030    2    1    2    0    0  0.00000000000E+00  0.00000000000E+00  0.54120312407E+03  0.14110979686E+04  0.13031871145E+04 0.  0.
        4    1    3    3  502    0  0.18440456127E+03 -0.27528666661E+03  0.87811688813E+03  0.93855136948E+03  0.12699999809E+01 0. -1.
       -4    1    3    3    0  502 -0.18440456127E+03  0.27528666661E+03 -0.33691376406E+03  0.47254659912E+03  0.12699999809E+01 0.  1.
</event>
<event>
 5   0  0.6052864E-04  0.1296255E+04  0.7818609E-02  0.9032540E-01
        2   -1    0    0  501    0  0.00000000000E+00  0.00000000000E+00  0.11569742757E+04  0.11569742757E+04  0.25500000920E-02 0.  1.
       -2   -1    0    0    0  501  0.00000000000E+00  0.00000000000E+00 -0.36307568617E+03  0.36307568618E+03  0.25500000920E-02 0. -1.
    10030    2    1    2    0    0  0.00000000000E+00  0.00000000000E+00  0.79389858954E+03  0.15200499619E+04  0.12962549580E+04 0.  0.
        2    1    3    3  502    0  0.31780888540E+03  0.52888944648E+01 -0.26540317914E+03  0.41408852622E+03  0.25500000920E-02 0. -1.
       -2    1    3    3    0  502 -0.31780888540E+03 -0.52888944648E+01  0.10593017687E+04  0.11059614357E+04  0.25500000920E-02 0.  1.
</event>
<event>
 5   0  0.2255875E-04  0.1300244E+04  0.7818609E-02  0.9029372E-01
        3   -1    0    0  501    0  0.00000000000E+00  0.00000000000E+00  0.53477342909E+03  0.53477343863E+03  0.10100000352E+00 0.  1.
       -3   -1    0    0    0  501  0.00000000000E+00  0.00000000000E+00 -0.79035026651E+03  0.79035027296E+03  0.10100000352E+00 0. -1.
    10030    2    1    2    0    0  0.00000000000E+00  0.00000000000E+00 -0.25557683742E+03  0.13251237116E+04  0.13002435661E+04 0.  0.
        2    1    3    3  502    0  0.54594950032E+03  0.33098222695E+03 -0.27698318275E+01  0.63844949951E+03  0.25500000920E-02 0. -1.
       -2    1    3    3    0  502 -0.54594950032E+03 -0.33098222695E+03 -0.25280700559E+03  0.68667421208E+03  0.25500000920E-02 0.  1.
</event>
<event>
 5   0  0.6007125E-04  0.1299487E+04  0.7818609E-02  0.9029972E-01
       -2   -1    0    0    0  501  0.00000000000E+00  0.00000000000E+00  0.23548758396E+03  0.23548758397E+03  0.25500000920E-02 0. -1.
        2   -1    0    0  501    0  0.00000000000E+00  0.00000000000E+00 -0.17927353426E+04  0.17927353426E+04  0.25500000920E-02 0.  1.
    10030    2    1    2    0    0  0.00000000000E+00  0.00000000000E+00 -0.15572477586E+04  0.20282229266E+04  0.12994874598E+04 0.  0.
        5    1    3    3  502    0 -0.40502620701E+03  0.24167361562E+02  0.13411293276E+02  0.40599537253E+03  0.46999998093E+01 0. -1.
       -5    1    3    3    0  502  0.40502620701E+03 -0.24167361562E+02 -0.15706590519E+04  0.16222275540E+04  0.46999998093E+01 0.  1.
</event>
<event>
 5   0  0.6007125E-04  0.1302473E+04  0.7818609E-02  0.9027607E-01
       -2   -1    0    0    0  501  0.00000000000E+00  0.00000000000E+00  0.88765111337E+03  0.88765111338E+03  0.25500000920E-02 0. -1.
        2   -1    0    0  501    0  0.00000000000E+00  0.00000000000E+00 -0.47778765334E+03  0.47778765335E+03  0.25500000920E-02 0.  1.
    10030    2    1    2    0    0  0.00000000000E+00  0.00000000000E+00  0.40986346003E+03  0.13654387667E+04  0.13024726369E+04 0.  0.
        5    1    3    3  502    0 -0.20958332414E+03  0.61590245075E+03  0.23505503570E+03  0.69176148953E+03  0.46999998093E+01 0. -1.
       -5    1    3    3    0  502  0.20958332414E+03 -0.61590245075E+03  0.17480842433E+03  0.67367727719E+03  0.46999998093E+01 0.  1.
</event>
<event>
 5   0  0.3403833E-04  0.1296447E+04  0.7818609E-02  0.9032387E-01
       -1   -1    0    0    0  501  0.00000000000E+00  0.00000000000E+00  0.73261104563E+03  0.73261104565E+03  0.50400001928E-02 0.  1.
        1   -1    0    0  501    0  0.00000000000E+00  0.00000000000E+00 -0.57355631844E+03  0.57355631846E+03  0.50400001928E-02 0. -1.
    10030    2    1    2    0    0  0.00000000000E+00  0.00000000000E+00  0.15905472720E+03  0.13061673641E+04  0.12964469819E+04 0.  0.
        1    1    3    3  502    0 -0.18055133430E+03  0.13763982068E+03  0.69124541731E+03  0.72757386672E+03  0.50400001928E-02 0.  1.
       -1    1    3    3    0  502  0.18055133430E+03 -0.13763982068E+03 -0.53219069011E+03  0.57859349739E+03  0.50400001928E-02 0. -1.
</event>
<event>
 5   0  0.3274879E-04  0.1299192E+04  0.7818609E-02  0.9030206E-01
       -1   -1    0    0    0  501  0.00000000000E+00  0.00000000000E+00  0.31162185898E+03  0.31162185902E+03  0.50400001928E-02 0.  1.
        1   -1    0    0  501    0  0.00000000000E+00  0.00000000000E+00 -0.13541259993E+04  0.13541259993E+04  0.50400001928E-02 0. -1.
    10030    2    1    2    0    0  0.00000000000E+00  0.00000000000E+00 -0.10425041403E+04  0.16657478583E+04  0.12991924588E+04 0.  0.
        4    1    3    3  502    0  0.61020439829E+03  0.97362985855E+02 -0.77814362353E+03  0.99364886677E+03  0.12699999809E+01 0. -1.
       -4    1    3    3    0  502 -0.61020439829E+03 -0.97362985855E+02 -0.26436051678E+03  0.67209899154E+03  0.12699999809E+01 0.  1.
</event>
<event>
 5   0  0.5384960E-04  0.1297249E+04  0.7818609E-02  0.9031750E-01
        2   -1    0    0  501    0  0.00000000000E+00  0.00000000000E+00  0.99940761595E+03  0.99940761595E+03  0.25500000920E-02 0.  1.
       -2   -1    0    0    0  501  0.00000000000E+00  0.00000000000E+00 -0.42096311898E+03  0.42096311899E+03  0.25500000920E-02 0. -1.
    10030    2    1    2    0    0  0.00000000000E+00  0.00000000000E+00  0.57844449696E+03  0.14203707349E+04  0.12972490079E+04 0.  0.
        3    1    3    3  502    0 -0.28177426157E+03 -0.24114533145E+03 -0.29341583568E+03  0.47290661678E+03  0.10100000352E+00 0. -1.
       -3    1    3    3    0  502  0.28177426157E+03  0.24114533145E+03  0.87186033264E+03  0.94746411816E+03  0.10100000352E+00 0.  1.
</event>
<event>
 5   0  0.5957913E-04  0.1306750E+04  0.7818609E-02  0.9024229E-01
        2   -1    0    0  501    0  0.00000000000E+00  0.00000000000E+00  0.30947754587E+03  0.30947754589E+03  0.25500000920E-02 0. -1.
       -2   -1    0    0    0  501  0.00000000000E+00  0.00000000000E+00 -0.13794180965E+04  0.13794180965E+04  0.25500000920E-02 0.  1.
    10030    2    1    2    0    0  0.00000000000E+00  0.00000000000E+00 -0.10699405506E+04  0.16888956424E+04  0.13067500561E+04 0.  0.
        1    1    3    3  502    0 -0.51524818051E+03 -0.24971313544E+03 -0.94175340587E+03  0.11021509947E+04  0.50400001928E-02 0.  1.
       -1    1    3    3    0  502  0.51524818051E+03  0.24971313544E+03 -0.12818714475E+03  0.58674464773E+03  0.50400001928E-02 0. -1.
</event>
<event>
 5   0  0.6007125E-04  0.1304407E+04  0.7818609E-02  0.9026078E-01
        2   -1    0    0  501    0  0.00000000000E+00  0.00000000000E+00  0.39157355077E+03  0.39157355078E+03  0.25500000920E-02 0. -1.
       -2   -1    0    0    0  501  0.00000000000E+00  0.00000000000E+00 -0.10863076355E+04  0.10863076355E+04  0.25500000920E-02 0.  1.
    10030    2    1    2    0    0  0.00000000000E+00  0.00000000000E+00 -0.69473408473E+03  0.14778811863E+04  0.13044068968E+04 0.  0.
        5    1    3    3  502    0  0.18688752810E+03  0.39345806284E+03 -0.89731838162E+03  0.99746607129E+03  0.46999998093E+01 0.  1.
       -5    1    3    3    0  502 -0.18688752810E+03 -0.39345806284E+03  0.20258429690E+03  0.48041511500E+03  0.46999998093E+01 0. -1.
</event>
<event>
 5   0  0.6007125E-04  0.1295247E+04  0.7818609E-02  0.9033343E-01
        2   -1    0    0  501    0  0.00000000000E+00  0.00000000000E+00  0.14068175414E+04  0.14068175414E+04  0.25500000920E-02 0.  1.
       -2   -1    0    0    0  501  0.00000000000E+00  0.00000000000E+00 -0.29813113077E+03  0.29813113078E+03  0.25500000920E-02 0. -1.
    10030    2    1    2    0    0  0.00000000000E+00  0.00000000000E+00  0.11086864106E+04  0.17049486721E+04  0.12952468559E+04 0.  0.
        5    1    3    3  502    0  0.23075187617E+03 -0.39689414582E+03 -0.46885161548E+02  0.46151023793E+03  0.46999998093E+01 0. -1.
       -5    1    3    3    0  502 -0.23075187617E+03  0.39689414582E+03  0.11555715721E+04  0.12434384342E+04  0.46999998093E+01 0.  1.
</event>
<event>
 5   0  0.5384960E-04  0.1304911E+04  0.7818609E-02  0.9025679E-01
       -2   -1    0    0    0  501  0.00000000000E+00  0.00000000000E+00  0.44233162672E+03  0.44233162673E+03  0.25500000920E-02 0.  1.
        2   -1    0    0  501    0  0.00000000000E+00  0.00000000000E+00 -0.96239643070E+03  0.96239643070E+03  0.25500000920E-02 0. -1.
    10030    2    1    2    0    0  0.00000000000E+00  0.00000000000E+00 -0.52006480398E+03  0.14047280574E+04  0.13049113054E+04 0.  0.
        3    1    3    3  502    0 -0.90837301933E+02 -0.34875209787E+03 -0.84552881957E+03  0.91912917271E+03  0.10100000352E+00 0. -1.
       -3    1    3    3    0  502  0.90837301933E+02  0.34875209787E+03  0.32546401560E+03  0.48559888472E+03  0.10100000352E+00 0.  1.
</event>
<event>
 5   0  0.5787604E-04  0.1298552E+04  0.7818609E-02  0.9030714E-01
       -2   -1    0    0    0  501  0.00000000000E+00  0.00000000000E+00  0.73461442445E+03  0.73461442446E+03  0.25500000920E-02 0.  1.
        2   -1    0    0  501    0  0.00000000000E+00  0.00000000000E+00 -0.57385095482E+03  0.57385095482E+03  0.25500000920E-02 0. -1.
    10030    2    1    2    0    0  0.00000000000E+00  0.00000000000E+00  0.16076346964E+03  0.13084653793E+04  0.12985517917E+04 0.  0.
        4    1    3    3  502    0  0.18714124974E+02  0.20970356388E+02 -0.57323642002E+03  0.57392645911E+03  0.12699999809E+01 0. -1.
       -4    1    3    3    0  502 -0.18714124974E+02 -0.20970356388E+02  0.73399988966E+03  0.73453892017E+03  0.12699999809E+01 0.  1.
</event>
<event>
 5   0  0.3337520E-04  0.1302430E+04  0.7818609E-02  0.9027640E-01
        1   -1    0    0  501    0  0.00000000000E+00  0.00000000000E+00  0.64947900048E+03  0.64947900050E+03  0.50400001928E-02 0.  1.
       -1   -1    0    0    0  501  0.00000000000E+00  0.00000000000E+00 -0.65295601184E+03  0.65295601186E+03  0.50400001928E-02 0. -1.
    10030    2    1    2    0    0  0.00000000000E+00  0.00000000000E+00 -0.34770113586E+01  0.13024350124E+04  0.13024303712E+04 0.  0.
        5    1    3    3  502    0 -0.20981446185E+03  0.78439936447E+02  0.60972438001E+03  0.64958513038E+03  0.46999998093E+01 0.  1.
       -5    1    3    3    0  502  0.20981446185E+03 -0.78439936447E+02 -0.61320139137E+03  0.65284988198E+03  0.46999998093E+01 0. -1.
</event>
<event>
 5   0  0.5384960E-04  0.1291291E+04  0.7818609E-02  0.9036500E-01
        2   -1    0    0  501    0  0.00000000000E+00  0.00000000000E+00  0.69733710819E+03  0.69733710820E+03  0.25500000920E-02 0.  1.
       -2   -1    0    0    0  501  0.00000000000E+00  0.00000000000E+00 -0.59778563426E+03  0.59778563427E+03  0.25500000920E-02 0. -1.
    10030    2    1    2    0    0  0.00000000000E+00  0.00000000000E+00  0.99551473931E+02  0.12951227425E+04  0.12912909905E+04 0.  0.
        3    1    3    3  502    0  0.58613568554E+02  0.32699289883E+03  0.60504133240E+03  0.69024266053E+03  0.10100000352E+00 0.  1.
       -3    1    3    3    0  502 -0.58613568554E+02 -0.32699289883E+03 -0.50548985847E+03  0.60488008193E+03  0.10100000352E+00 0. -1.
</event>
<event>
 5   0  0.5787604E-04  0.1289384E+04  0.7818609E-02  0.9038027E-01
        2   -1    0    0  501    0  0.00000000000E+00  0.00000000000E+00  0.45773535096E+03  0.45773535096E+03  0.25500000920E-02 0. -1.
       -2   -1    0    0    0  501  0.00000000000E+00  0.00000000000E+00 -0.90800827859E+03  0.90800827859E+03  0.25500000920E-02 0.  1.
    10030    2    1    2    0    0  0.00000000000E+00  0.00000000000E+00 -0.45027292763E+03  0.13657436296E+04  0.12893835552E+04 0.  0.
        4    1    3    3  502    0  0.43057444273E+03  0.44857143324E+03 -0.44710184290E+02  0.62338695441E+03  0.12699999809E+01 0. -1.
       -4    1    3    3    0  502 -0.43057444273E+03 -0.44857143324E+03 -0.40556274334E+03  0.74235667515E+03  0.12699999809E+01 0.  1.
</event>
<event>
 5   0  0.5957913E-04  0.1301071E+04  0.7818609E-02  0.9028716E-01
        2   -1    0    0  501    0  0.00000000000E+00  0.00000000000E+00  0.39955829627E+03  0.39955829628E+03  0.25500000920E-02 0.  1.
       -2   -1    0    0    0  501  0.00000000000E+00  0.00000000000E+00 -0.10591602550E+04  0.10591602550E+04  0.25500000920E-02 0. -1.
    10030    2    1    2    0    0  0.00000000000E+00  0.00000000000E+00 -0.65960195873E+03  0.14587185513E+04  0.13010707390E+04 0.  0.
        1    1    3    3  502    0 -0.23270707321E+03  0.73992038692E+01  0.35124631039E+03  0.42140396382E+03  0.50400001928E-02 0.  1.
       -1    1    3    3    0  502  0.23270707321E+03 -0.73992038692E+01 -0.10108482691E+04  0.10373145874E+04  0.50400001928E-02 0. -1.
</event>
<event>
 5   0  0.3274879E-04  0.1299103E+04  0.7818609E-02  0.9030276E-01
       -1   -1    0    0    0  501  0.00000000000E+00  0.00000000000E+00  0.77409748837E+03  0.77409748838E+03  0.50400001928E-02 0.  1.
        1   -1    0    0  501    0  0.00000000000E+00  0.00000000000E+00 -0.54504435818E+03  0.54504435821E+03  0.50400001928E-02 0. -1.
    10030    2    1    2    0    0  0.00000000000E+00  0.00000000000E+00  0.22905313018E+03  0.13191418466E+04  0.12991034889E+04 0.  0.
        4    1    3    3  502    0  0.28284616809E+02  0.62722000548E+02  0.77038546823E+03  0.77345294069E+03  0.12699999809E+01 0.  1.
       -4    1    3    3    0  502 -0.28284616809E+02 -0.62722000548E+02 -0.54133233805E+03  0.54568890590E+03  0.12699999809E+01 0. -1.
</event>
<event>
 5   0  0.5384960E-04  0.1307381E+04  0.7818609E-02  0.9023732E-01
        2   -1    0    0  501    0  0.00000000000E+00  0.00000000000E+00  0.73584088056E+03  0.73584088056E+03  0.25500000920E-02 0. -1.
       -2   -1    0    0    0  501  0.00000000000E+00  0.00000000000E+00 -0.58071169297E+03  0.58071169298E+03  0.25500000920E-02 0.  1.
    10030    2    1    2    0    0  0.00000000000E+00  0.00000000000E+00  0.15512918759E+03  0.13165525735E+04  0.13073812046E+04 0.  0.
        3    1    3    3  502    0  0.15832111393E+03 -0.40410099574E+03 -0.41468781960E+03  0.60027426048E+03  0.10100000352E+00 0.  1.
       -3    1    3    3    0  502 -0.15832111393E+03  0.40410099574E+03  0.56981700718E+03  0.71627831305E+03  0.10100000352E+00 0. -1.
</event>
<event>
 5   0  0.6007125E-04  0.1302737E+04  0.7818609E-02  0.9027398E-01
        2   -1    0    0  501    0  0.00000000000E+00  0.00000000000E+00  0.11557267400E+04  0.11557267400E+04  0.25500000920E-02 0.  1.
       -2   -1    0    0    0  501  0.00000000000E+00  0.00000000000E+00 -0.36711153545E+03  0.36711153546E+03  0.25500000920E-02 0. -1.
    10030    2    1    2    0    0  0.00000000000E+00  0.00000000000E+00  0.78861520450E+03  0.15228382754E+04  0.13027365322E+04 0.  0.
        5    1    3    3  502    0 -0.53844037052E+03 -0.29280349740E+03  0.65202565816E+03  0.89488070132E+03  0.46999998093E+01 0. -1.
       -5    1    3    3    0  502  0.53844037052E+03  0.29280349740E+03  0.13658954634E+03  0.62795757410E+03  0.46999998093E+01 0.  1.
</event>
<event>
 5   0  0.3335747E-04  0.1303531E+04  0.7818609E-02  0.9026770E-01
       -1   -1    0    0    0  501  0.00000000000E+00  0.00000000000E+00  0.16482304898E+04  0.16482304898E+04  0.50400001928E-02 0. -1.
        1   -1    0    0  501    0  0.00000000000E+00  0.00000000000E+00 -0.25772979642E+03  0.25772979647E+03  0.50400001928E-02 0.  1.
    10030    2    1    2    0    0  0.00000000000E+00  0.00000000000E+00  0.13905006933E+04  0.19059602862E+04  0.13035307570E+04 0.  0.
        3    1    3    3  502    0 -0.83644156792E+02 -0.30376135080E+03 -0.13898503233E+03  0.34436049805E+03  0.10100000352E+00 0.  1.
       -3    1    3    3    0  502  0.83644156792E+02  0.30376135080E+03  0.15294857257E+04  0.15615997882E+04  0.10100000352E+00 0. -1.
</event>
<event>
 5   0  0.2255875E-04  0.1292191E+04  0.7818609E-02  0.9035781E-01
        3   -1    0    0  501    0  0.00000000000E+00  0.00000000000E+00  0.93014040558E+03  0.93014041107E+03  0.10100000352E+00 0. -1.
       -3   -1    0    0    0  501  0.00000000000E+00  0.00000000000E+00 -0.44879194297E+03  0.44879195433E+03  0.10100000352E+00 0.  1.
    10030    2    1    2    0    0  0.00000000000E+00  0.00000000000E+00  0.48134846262E+03  0.13789323654E+04  0.12921912110E+04 0.  0.
        1    1    3    3  502    0  0.52197253679E+03  0.10594948484E+02  0.64684469085E+03  0.83124944283E+03  0.50400001928E-02 0. -1.
       -1    1    3    3    0  502 -0.52197253679E+03 -0.10594948484E+02 -0.16549622823E+03  0.54768292257E+03  0.50400001928E-02 0.  1.
</event>
<event>
 5   0  0.3274879E-04  0.1299247E+04  0.7818609E-02  0.9030162E-01
       -1   -1    0    0    0  501  0.00000000000E+00  0.00000000000E+00  0.61953501424E+03  0.61953501427E+03  0.50400001928E-02 0.  1.
        1   -1    0    0  501    0  0.00000000000E+00  0.00000000000E+00 -0.68117377629E+03  0.68117377631E+03  0.50400001928E-02 0. -1.
    10030    2    1    2    0    0  0.00000000000E+00  0.00000000000E+00 -0.61638762042E+02  0.13007087906E+04  0.12992474825E+04 0.  0.
        4    1    3    3  502    0  0.26918064921E+03  0.37494767685E+03 -0.48846087330E+03  0.67204138260E+03  0.12699999809E+01 0.  1.
       -4    1    3    3    0  502 -0.26918064921E+03 -0.37494767685E+03  0.42682211126E+03  0.62866740797E+03  0.12699999809E+01 0. -1.
</event>
<event>
 5   0  0.5787604E-04  0.1300048E+04  0.7818609E-02  0.9029527E-01
        2   -1    0    0  501    0  0.00000000000E+00  0.00000000000E+00  0.21818063601E+04  0.21818063601E+04  0.25500000920E-02 0.  1.
       -2   -1    0    0    0  501  0.00000000000E+00  0.00000000000E+00 -0.19366104146E+03  0.19366104148E+03  0.25500000920E-02 0. -1.
    10030    2    1    2    0    0  0.00000000000E+00  0.00000000000E+00  0.19881453186E+04  0.23754674016E+04  0.13000475253E+04 0.  0.
        4    1    3    3  502    0 -0.47129317115E+03  0.39788324879E+03  0.61915510567E+03  0.87394678935E+03  0.12699999809E+01 0. -1.
       -4    1    3    3    0  502  0.47129317115E+03 -0.39788324879E+03  0.13689902130E+04  0.15015206122E+04  0.12699999809E+01 0.  1.
</event>
<event>
 5   0  0.3335747E-04  0.1295516E+04  0.7818609E-02  0.9033129E-01
        1   -1    0    0  501    0  0.00000000000E+00  0.00000000000E+00  0.58915648474E+03  0.58915648476E+03  0.50400001928E-02 0.  1.
       -1   -1    0    0    0  501  0.00000000000E+00  0.00000000000E+00 -0.71218805680E+03  0.71218805682E+03  0.50400001928E-02 0. -1.
    10030    2    1    2    0    0  0.00000000000E+00  0.00000000000E+00 -0.12303157206E+03  0.13013445416E+04  0.12955156688E+04 0.  0.
        3    1    3    3  502    0 -0.55701417155E+03 -0.32612911501E+03 -0.11621457487E+03  0.65584359765E+03  0.10100000352E+00 0.  1.
       -3    1    3    3    0  502  0.55701417155E+03  0.32612911501E+03 -0.68169971919E+01  0.64550094393E+03  0.10100000352E+00 0. -1.
</event>
<event>
 5   0  0.6007125E-04  0.1297490E+04  0.7818609E-02  0.9031558E-01
       -2   -1    0    0    0  501  0.00000000000E+00  0.00000000000E+00  0.23264425850E+03  0.23264425851E+03  0.25500000920E-02 0. -1.
        2   -1    0    0  501    0  0.00000000000E+00  0.00000000000E+00 -0.18090719978E+04  0.18090719978E+04  0.25500000920E-02 0.  1.
    10030    2    1    2    0    0  0.00000000000E+00  0.00000000000E+00 -0.15764277393E+04  0.20417162563E+04  0.12974902135E+04 0.  0.
        5    1    3    3  502    0  0.29959897140E+02  0.28256465036E+03  0.12948364969E+03  0.31229550526E+03  0.46999998093E+01 0. -1.
       -5    1    3    3    0  502 -0.29959897140E+02 -0.28256465036E+03 -0.17059113890E+04  0.17294207510E+04  0.46999998093E+01 0.  1.
</event>
<event>
 5   0  0.6052864E-04  0.1315156E+04  0.7818609E-02  0.9017632E-01
       -2   -1    0    0    0  501  0.00000000000E+00  0.00000000000E+00  0.22884355834E+03  0.22884355835E+03  0.25500000920E-02 0. -1.
        2   -1    0    0  501    0  0.00000000000E+00  0.00000000000E+00 -0.18895397363E+04  0.18895397363E+04  0.25500000920E-02 0.  1.
    10030    2    1    2    0    0  0.00000000000E+00  0.00000000000E+00 -0.16606961779E+04  0.21183832946E+04  0.13151562597E+04 0.  0.
        2    1    3    3  502    0 -0.19957193121E+03 -0.43659355528E+03 -0.15542278519E+04  0.16266736316E+04  0.25500000920E-02 0.  1.
       -2    1    3    3    0  502  0.19957193121E+03  0.43659355528E+03 -0.10646832606E+03  0.49170966301E+03  0.25500000920E-02 0. -1.
</event>
<event>
 5   0  0.6007125E-04  0.1301334E+04  0.7818609E-02  0.9028508E-01
       -2   -1    0    0    0  501  0.00000000000E+00  0.00000000000E+00  0.75980723200E+03  0.75980723201E+03  0.25500000920E-02 0.  1.
        2   -1    0    0  501    0  0.00000000000E+00  0.00000000000E+00 -0.55720364908E+03  0.55720364909E+03  0.25500000920E-02 0. -1.
    10030    2    1    2    0    0  0.00000000000E+00  0.00000000000E+00  0.20260358292E+03  0.13170108811E+04  0.13013337193E+04 0.  0.
        5    1    3    3  502    0 -0.46842982623E+03 -0.54050626797E+02  0.55503001176E+03  0.72830513957E+03  0.46999998093E+01 0. -1.
       -5    1    3    3    0  502  0.46842982623E+03  0.54050626797E+02 -0.35242642884E+03  0.58870574153E+03  0.46999998093E+01 0.  1.
</event>
<event>
 5   0  0.3335747E-04  0.1303550E+04  0.7818609E-02  0.9026754E-01
       -1   -1    0    0    0  501  0.00000000000E+00  0.00000000000E+00  0.59118964167E+03  0.59118964169E+03  0.50400001928E-02 0. -1.
        1   -1    0    0  501    0  0.00000000000E+00  0.00000000000E+00 -0.71856970971E+03  0.71856970973E+03  0.50400001928E-02 0.  1.
    10030    2    1    2    0    0  0.00000000000E+00  0.00000000000E+00 -0.12738006804E+03  0.13097593514E+04  0.13035504888E+04 0.  0.
        3    1    3    3  502    0  0.37409762969E+03 -0.31204469560E+03  0.37137355766E+03  0.61256775799E+03  0.10100000352E+00 0. -1.
       -3    1    3    3    0  502 -0.37409762969E+03  0.31204469560E+03 -0.49875362570E+03  0.69719159343E+03  0.10100000352E+00 0.  1.
</event>
<event>
 5   0  0.3263679E-04  0.1300045E+04  0.7818609E-02  0.9029529E-01
        1   -1    0    0  501    0  0.00000000000E+00  0.00000000000E+00  0.10579219417E+04  0.10579219417E+04  0.50400001928E-02 0. -1.
       -1   -1    0    0    0  501  0.00000000000E+00  0.00000000000E+00 -0.39939555178E+03  0.39939555181E+03  0.50400001928E-02 0.  1.
    10030    2    1    2    0    0  0.00000000000E+00  0.00000000000E+00  0.65852638990E+03  0.14573174935E+04  0.13000451033E+04 0.  0.
        2    1    3    3  502    0  0.50404009528E+03  0.26809896505E+03  0.67766065582E+03  0.88609109981E+03  0.25500000920E-02 0. -1.
       -2    1    3    3    0  502 -0.50404009528E+03 -0.26809896505E+03 -0.19134265917E+02  0.57122639369E+03  0.25500000920E-02 0.  1.
</event>
<event>
 5   0  0.5384960E-04  0.1299033E+04  0.7818609E-02  0.9030332E-01
        2   -1    0    0  501    0  0.00000000000E+00  0.00000000000E+00  0.88446083704E+03  0.88446083704E+03  0.25500000920E-02 0. -1.
       -2   -1    0    0    0  501  0.00000000000E+00  0.00000000000E+00 -0.47698198798E+03  0.47698198799E+03  0.25500000920E-02 0.  1.
    10030    2    1    2    0    0  0.00000000000E+00  0.00000000000E+00  0.40747884906E+03  0.13614428250E+04  0.12990333150E+04 0.  0.
        3    1    3    3  502    0  0.53357677102E+03 -0.13602332277E+03  0.56476760687E+03  0.78877688536E+03  0.10100000352E+00 0. -1.
       -3    1    3    3    0  502 -0.53357677102E+03  0.13602332277E+03 -0.15728875782E+03  0.57266593966E+03  0.10100000352E+00 0.  1.
</event>
<event>
 5   0  0.3263679E-04  0.1299250E+04  0.7818609E-02  0.9030160E-01
       -1   -1    0    0    0  501  0.00000000000E+00  0.00000000000E+00  0.42758233862E+03  0.42758233865E+03  0.50400001928E-02 0. -1.
        1   -1    0    0  501    0  0.00000000000E+00  0.00000000000E+00 -0.98697344666E+03  0.98697344667E+03  0.50400001928E-02 0.  1.
    10030    2    1    2    0    0  0.00000000000E+00  0.00000000000E+00 -0.55939110804E+03  0.14145557853E+04  0.12992496519E+04 0.  0.
        2    1    3    3  502    0 -0.35906590367E+03  0.35268784823E+03  0.16748103156E+03  0.53044032408E+03  0.25500000920E-02 0. -1.
       -2    1    3    3    0  502  0.35906590367E+03 -0.35268784823E+03 -0.72687213960E+03  0.88411546124E+03  0.25500000920E-02 0.  1.
</event>
<event>
 5   0  0.5787604E-04  0.1298662E+04  0.7818609E-02  0.9030627E-01
        2   -1    0    0  501    0  0.00000000000E+00  0.00000000000E+00  0.14478882990E+04  0.14478882990E+04  0.25500000920E-02 0.  1.
       -2   -1    0    0    0  501  0.00000000000E+00  0.00000000000E+00 -0.29120385879E+03  0.29120385881E+03  0.25500000920E-02 0. -1.
    10030    2    1    2    0    0  0.00000000000E+00  0.00000000000E+00  0.11566844402E+04  0.17390921578E+04  0.12986618648E+04 0.  0.
        4    1    3    3  502    0 -0.18650145644E+03 -0.14189155989E+03 -0.23259957680E+03  0.33018204683E+03  0.12699999809E+01 0. -1.
       -4    1    3    3    0  502  0.18650145644E+03  0.14189155989E+03  0.13892840170E+04  0.14089101110E+04  0.12699999809E+01 0.  1.
</event>
<event>
 5   0  0.3274879E-04  0.1286474E+04  0.7818609E-02  0.9040361E-01
       -1   -1    0    0    0  501  0.00000000000E+00  0.00000000000E+00  0.40671106126E+03  0.40671106129E+03  0.50400001928E-02 0. -1.
        1   -1    0    0  501    0  0.00000000000E+00  0.00000000000E+00 -0.10173162493E+04  0.10173162493E+04  0.50400001928E-02 0.  1.
    10030    2    1    2    0    0  0.00000000000E+00  0.00000000000E+00 -0.61060518807E+03  0.14240273106E+04  0.12864738963E+04 0.  0.
        4    1    3    3  502    0 -0.50567493087E+03  0.19890362586E+03  0.75714277934E+02  0.54863836256E+03  0.12699999809E+01 0. -1.
       -4    1    3    3    0  502  0.50567493087E+03 -0.19890362586E+03 -0.68631946600E+03  0.87538894807E+03  0.12699999809E+01 0.  1.
</event>
<event>
 5   0  0.3403833E-04  0.1311226E+04  0.7818609E-02  0.9020710E-01
       -1   -1    0    0    0  501  0.00000000000E+00  0.00000000000E+00  0.47457138265E+03  0.47457138267E+03  0.50400001928E-02 0.  1.
        1   -1    0    0  501    0  0.00000000000E+00  0.00000000000E+00 -0.90571958660E+03  0.90571958661E+03  0.50400001928E-02 0. -1.
    10030    2    1    2    0    0  0.00000000000E+00  0.00000000000E+00 -0.43114820395E+03  0.13802909693E+04  0.13112262910E+04 0.  0.
        1    1    3    3  502    0 -0.36485009639E+03 -0.20875196327E+03  0.31405230403E+03  0.52471118217E+03  0.50400001928E-02 0.  1.
       -1    1    3    3    0  502  0.36485009639E+03  0.20875196327E+03 -0.74520050798E+03  0.85557978711E+03  0.50400001928E-02 0. -1.
</event>
<event>
 5   0  0.3337520E-04  0.1301530E+04  0.7818609E-02  0.9028353E-01
        1   -1    0    0  501    0  0.00000000000E+00  0.00000000000E+00  0.58204958164E+03  0.58204958167E+03  0.50400001928E-02 0. -1.
       -1   -1    0    0    0  501  0.00000000000E+00  0.00000000000E+00 -0.72759240469E+03  0.72759240471E+03  0.50400001928E-02 0.  1.
    10030    2    1    2    0    0  0.00000000000E+00  0.00000000000E+00 -0.14554282304E+03  0.13096419864E+04  0.13015296459E+04 0.  0.
        5    1    3    3  502    0  0.39281567923E+03 -0.36186156827E+03 -0.44687470325E+03  0.69639575160E+03  0.46999998093E+01 0.  1.
       -5    1    3    3    0  502 -0.39281567923E+03  0.36186156827E+03  0.30133188020E+03  0.61324623477E+03  0.46999998093E+01 0. -1.
</event>
<event>
 5   0  0.3335747E-04  0.1304224E+04  0.7818609E-02  0.9026223E-01
       -1   -1    0    0    0  501  0.00000000000E+00  0.00000000000E+00  0.49039543830E+03  0.49039543833E+03  0.50400001928E-02 0.  1.
        1   -1    0    0  501    0  0.00000000000E+00  0.00000000000E+00 -0.86715680710E+03  0.86715680712E+03  0.50400001928E-02 0. -1.
    10030    2    1    2    0    0  0.00000000000E+00  0.00000000000E+00 -0.37676136880E+03  0.13575522454E+04  0.13042235123E+04 0.  0.
        3    1    3    3  502    0  0.45006701293E+02 -0.65010135018E+03 -0.16304697832E+03  0.67174526125E+03  0.10100000352E+00 0. -1.
       -3    1    3    3    0  502 -0.45006701293E+02  0.65010135018E+03 -0.21371439048E+03  0.68580698420E+03  0.10100000352E+00 0.  1.
</event>
<event>
 5   0  0.6052864E-04  0.1294837E+04  0.7818609E-02  0.9033670E-01
       -2   -1    0    0    0  501  0.00000000000E+00  0.00000000000E+00  0.39155399839E+03  0.39155399840E+03  0.25500000920E-02 0.  1.
        2   -1    0    0  501    0  0.00000000000E+00  0.00000000000E+00 -0.10704791776E+04  0.10704791776E+04  0.25500000920E-02 0. -1.
    10030    2    1    2    0    0  0.00000000000E+00  0.00000000000E+00 -0.67892517917E+03  0.14620331760E+04  0.12948365181E+04 0.  0.
        2    1    3    3  502    0 -0.23051440485E+03  0.40793171642E+03 -0.84392433969E+03  0.96527377839E+03  0.25500000920E-02 0.  1.
       -2    1    3    3    0  502  0.23051440485E+03 -0.40793171642E+03  0.16499916052E+03  0.49675939758E+03  0.25500000920E-02 0. -1.
</event>
<event>
 5   0  0.3274879E-04  0.1320977E+04  0.7818609E-02  0.9013093E-01
        1   -1    0    0  501    0  0.00000000000E+00  0.00000000000E+00  0.68119451620E+03  0.68119451622E+03  0.50400001928E-02 0.  1.
       -1   -1    0    0    0  501  0.00000000000E+00  0.00000000000E+00 -0.64041209386E+03  0.64041209388E+03  0.50400001928E-02 0. -1.
    10030    2    1    2    0    0  0.00000000000E+00  0.00000000000E+00  0.40782422343E+02  0.13216066101E+04  0.13209772238E+04 0.  0.
        4    1    3    3  502    0 -0.97108281912E+02  0.50482444906E+03  0.43527644568E+03  0.67360592326E+03  0.12699999809E+01 0.  1.
       -4    1    3    3    0  502  0.97108281912E+02 -0.50482444906E+03 -0.39449402334E+03  0.64800068684E+03  0.12699999809E+01 0. -1.
</event>
<event>
 5   0  0.5384960E-04  0.1297619E+04  0.7818609E-02  0.9031455E-01
        2   -1    0    0  501    0  0.00000000000E+00  0.00000000000E+00  0.80238691046E+03  0.80238691047E+03  0.25500000920E-02 0.  1.
       -2   -1    0    0    0  501  0.00000000000E+00  0.00000000000E+00 -0.52462698180E+03  0.52462698181E+03  0.25500000920E-02 0. -1.
    10030    2    1    2    0    0  0.00000000000E+00  0.00000000000E+00  0.27775992866E+03  0.13270138923E+04  0.12976190860E+04 0.  0.
        3    1    3    3  502    0  0.37896741313E+01 -0.60641812607E+03  0.37474838847E+03  0.71287703717E+03  0.10100000352E+00 0.  1.
       -3    1    3    3    0  502 -0.37896741313E+01  0.60641812607E+03 -0.96988459816E+02  0.61413685510E+03  0.10100000352E+00 0. -1.
</event>
<event>
 5   0  0.2255875E-04  0.1306826E+04  0.7818609E-02  0.9024169E-01
        3   -1    0    0  501    0  0.00000000000E+00  0.00000000000E+00  0.17590623285E+04  0.17590623314E+04  0.10100000352E+00 0. -1.
       -3   -1    0    0    0  501  0.00000000000E+00  0.00000000000E+00 -0.24271379300E+03  0.24271381401E+03  0.10100000352E+00 0.  1.
    10030    2    1    2    0    0  0.00000000000E+00  0.00000000000E+00  0.15163485355E+04  0.20017761454E+04  0.13068262529E+04 0.  0.
        1    1    3    3  502    0  0.17992644365E+03  0.80896860723E+02  0.17123553616E+04  0.17236817315E+04  0.50400001928E-02 0. -1.
       -1    1    3    3    0  502 -0.17992644365E+03 -0.80896860723E+02 -0.19600682602E+03  0.27809441396E+03  0.50400001928E-02 0.  1.
</event>
<event>
 5   0  0.5787604E-04  0.1303854E+04  0.7818609E-02  0.9026515E-01
       -2   -1    0    0    0  501  0.00000000000E+00  0.00000000000E+00  0.21624080756E+03  0.21624080758E+03  0.25500000920E-02 0.  1.
        2   -1    0    0  501    0  0.00000000000E+00  0.00000000000E+00 -0.19654420618E+04  0.19654420618E+04  0.25500000920E-02 0. -1.
    10030    2    1    2    0    0  0.00000000000E+00  0.00000000000E+00 -0.17492012543E+04  0.21816828694E+04  0.13038539469E+04 0.  0.
        4    1    3    3  502    0  0.47267063016E+02  0.42073357210E+03 -0.17040979008E+04  0.17559049469E+04  0.12699999809E+01 0. -1.
       -4    1    3    3    0  502 -0.47267063016E+02 -0.42073357210E+03 -0.45103353443E+02  0.42577792255E+03  0.12699999809E+01 0.  1.
</event>
<event>
 5   0  0.3403833E-04  0.1301377E+04  0.7818609E-02  0.9028474E-01
        1   -1    0    0  501    0  0.00000000000E+00  0.00000000000E+00  0.87350310239E+03  0.87350310240E+03  0.50400001928E-02 0. -1.
       -1   -1    0    0    0  501  0.00000000000E+00  0.00000000000E+00 -0.48470979703E+03  0.48470979706E+03  0.50400001928E-02 0.  1.
    10030    2    1    2    0    0  0.00000000000E+00  0.00000000000E+00  0.38879330535E+03  0.13582128995E+04  0.13013769807E+04 0.  0.
        1    1    3    3  502    0 -0.13751227907E+03  0.61836170190E+03  0.39191848509E+02  0.63467851885E+03  0.50400001928E-02 0.  1.
       -1    1    3    3    0  502  0.13751227907E+03 -0.61836170190E+03  0.34960145684E+03  0.72353438061E+03  0.50400001928E-02 0. -1.
</event>
<event>
 5   0  0.6007125E-04  0.1293252E+04  0.7818609E-02  0.9034934E-01
       -2   -1    0    0    0  501  0.00000000000E+00  0.00000000000E+00  0.23208488609E+03  0.23208488611E+03  0.25500000920E-02 0.  1.
        2   -1    0    0  501    0  0.00000000000E+00  0.00000000000E+00 -0.18016032517E+04  0.18016032517E+04  0.25500000920E-02 0. -1.
    10030    2    1    2    0    0  0.00000000000E+00  0.00000000000E+00 -0.15695183656E+04  0.20336881378E+04  0.12932515385E+04 0.  0.
        5    1    3    3  502    0  0.67781810936E+02  0.64252097719E+03 -0.74389690840E+03  0.98530821592E+03  0.46999998093E+01 0.  1.
       -5    1    3    3    0  502 -0.67781810936E+02 -0.64252097719E+03 -0.82562145722E+03  0.10483799219E+04  0.46999998093E+01 0. -1.
</event>
<event>
 5   0  0.2255875E-04  0.1299010E+04  0.7818609E-02  0.9030351E-01
       -3   -1    0    0    0  501  0.00000000000E+00  0.00000000000E+00  0.12138536639E+04  0.12138536681E+04  0.10100000352E+00 0. -1.
        3   -1    0    0  501    0  0.00000000000E+00  0.00000000000E+00 -0.34753485609E+03  0.34753487077E+03  0.10100000352E+00 0.  1.
    10030    2    1    2    0    0  0.00000000000E+00  0.00000000000E+00  0.86631880781E+03  0.15613885389E+04  0.12990095814E+04 0.  0.
        4    1    3    3  502    0  0.40198350882E+03 -0.50902858138E+03  0.47399188017E+03  0.80334970803E+03  0.12699999809E+01 0.  1.
       -4    1    3    3    0  502 -0.40198350882E+03  0.50902858138E+03  0.39232692764E+03  0.75803883085E+03  0.12699999809E+01 0. -1.
</event>
<event>
 5   0  0.5957913E-04  0.1301462E+04  0.7818609E-02  0.9028406E-01
       -2   -1    0    0    0  501  0.00000000000E+00  0.00000000000E+00  0.24557757443E+03  0.24557757444E+03  0.25500000920E-02 0. -1.
        2   -1    0    0  501    0  0.00000000000E+00  0.00000000000E+00 -0.17243070760E+04  0.17243070760E+04  0.25500000920E-02 0.  1.
    10030    2    1    2    0    0  0.00000000000E+00  0.00000000000E+00 -0.14787295016E+04  0.19698846505E+04  0.13014624840E+04 0.  0.
        1    1    3    3  502    0 -0.39039153733E+03  0.74866033149E+02  0.40452571708E+02  0.39955836360E+03  0.50400001928E-02 0. -1.
       -1    1    3    3    0  502  0.39039153733E+03 -0.74866033149E+02 -0.15191820733E+04  0.15703262869E+04  0.50400001928E-02 0.  1.
</event>
<event>
 5   0  0.5384960E-04  0.1297293E+04  0.7818609E-02  0.9031715E-01
       -2   -1    0    0    0  501  0.00000000000E+00  0.00000000000E+00  0.64250344588E+03  0.64250344589E+03  0.25500000920E-02 0.  1.
        2   -1    0    0  501    0  0.00000000000E+00  0.00000000000E+00 -0.65484790714E+03  0.65484790715E+03  0.25500000920E-02 0. -1.
    10030    2    1    2    0    0  0.00000000000E+00  0.00000000000E+00 -0.12344461258E+02  0.12973513530E+04  0.12972926222E+04 0.  0.
        3    1    3    3  502    0 -0.17639006300E+03 -0.34656761202E+03 -0.52534837271E+03  0.65361570279E+03  0.10100000352E+00 0. -1.
       -3    1    3    3    0  502  0.17639006300E+03  0.34656761202E+03  0.51300391145E+03  0.64373565024E+03  0.10100000352E+00 0.  1.
</event>
<event>
 5   0  0.3403833E-04  0.1307811E+04  0.7818609E-02  0.9023393E-01
        1   -1    0    0  501    0  0.00000000000E+00  0.00000000000E+00  0.14464753565E+04  0.14464753565E+04  0.50400001928E-02 0.  1.
       -1   -1    0    0    0  501  0.00000000000E+00  0.00000000000E+00 -0.29561007301E+03  0.29561007305E+03  0.50400001928E-02 0. -1.
    10030    2    1    2    0    0  0.00000000000E+00  0.00000000000E+00  0.11508652835E+04  0.17420854296E+04  0.13078114326E+04 0.  0.
        1    1    3    3  502    0 -0.65338243108E+03 -0.40593969116E+01  0.60985054251E+03  0.89378004239E+03  0.50400001928E-02 0. -1.
       -1    1    3    3    0  502  0.65338243108E+03  0.40593969116E+01  0.54101474101E+03  0.84830538720E+03  0.50400001928E-02 0.  1.
</event>
<event>
 5   0  0.2255875E-04  0.1299607E+04  0.7818609E-02  0.9029877E-01
       -4   -1    0    0    0  501  0.00000000000E+00  0.00000000000E+00  0.48478882142E+03  0.48479048492E+03  0.12699999809E+01 0. -1.
        4   -1    0    0  501    0  0.00000000000E+00  0.00000000000E+00 -0.87098277205E+03  0.87098369795E+03  0.12699999809E+01 0.  1.
    10030    2    1    2    0    0  0.00000000000E+00  0.00000000000E+00 -0.38619395063E+03  0.13557741829E+04  0.12996068126E+04 0.  0.
        3    1    3    3  502    0 -0.52583191591E+03 -0.11119156173E+02 -0.59119342580E+03  0.79128535708E+03  0.10100000352E+00 0.  1.
       -3    1    3    3    0  502  0.52583191591E+03  0.11119156173E+02  0.20499947517E+03  0.56448882579E+03  0.10100000352E+00 0. -1.
</event>
<event>
 5   0  0.5957913E-04  0.1292288E+04  0.7818609E-02  0.9035704E-01
        2   -1    0    0  501    0  0.00000000000E+00  0.00000000000E+00  0.10498334559E+04  0.10498334559E+04  0.25500000920E-02 0. -1.
       -2   -1    0    0    0  501  0.00000000000E+00  0.00000000000E+00 -0.39768392960E+03  0.39768392961E+03  0.25500000920E-02 0.  1.
    10030    2    1    2    0    0  0.00000000000E+00  0.00000000000E+00  0.65214952630E+03  0.14475173855E+04  0.12922877299E+04 0.  0.
        1    1    3    3  502    0  0.29576378274E+03 -0.57419506307E+03  0.34629001360E+03  0.73286626282E+03  0.50400001928E-02 0.  1.
       -1    1    3    3    0  502 -0.29576378274E+03  0.57419506307E+03  0.30585951270E+03  0.71465112270E+03  0.50400001928E-02 0. -1.
</event>
<event>
 5   0  0.5384960E-04  0.1293592E+04  0.7818609E-02  0.9034662E-01
       -2   -1    0    0    0  501  0.00000000000E+00  0.00000000000E+00  0.73398472180E+03  0.73398472180E+03  0.25500000920E-02 0.  1.
        2   -1    0    0  501    0  0.00000000000E+00  0.00000000000E+00 -0.56996462790E+03  0.56996462791E+03  0.25500000920E-02 0. -1.
    10030    2    1    2    0    0  0.00000000000E+00  0.00000000000E+00  0.16402009390E+03  0.13039493497E+04  0.12935924070E+04 0.  0.
        3    1    3    3  502    0  0.61802412460E+03 -0.12102000185E+03 -0.66634695626E+02  0.63327707388E+03  0.10100000352E+00 0. -1.
       -3    1    3    3    0  502 -0.61802412460E+03  0.12102000185E+03  0.23065478952E+03  0.67067227583E+03  0.10100000352E+00 0.  1.
</event>
<event>
 5   0  0.3337520E-04  0.1295394E+04  0.7818609E-02  0.9033226E-01
        1   -1    0    0  501    0  0.00000000000E+00  0.00000000000E+00  0.60766417875E+03  0.60766417877E+03  0.50400001928E-02 0.  1.
       -1   -1    0    0    0  501  0.00000000000E+00  0.00000000000E+00 -0.69036697502E+03  0.69036697504E+03  0.50400001928E-02 0. -1.
    10030    2    1    2    0    0  0.00000000000E+00  0.00000000000E+00 -0.82702796278E+02  0.12980311538E+04  0.12953938103E+04 0.  0.
        5    1    3    3  502    0 -0.28325624328E+03  0.41954979482E+03  0.36349227929E+03  0.62322135457E+03  0.46999998093E+01 0.  1.
       -5    1    3    3    0  502  0.28325624328E+03 -0.41954979482E+03 -0.44619507557E+03  0.67480979924E+03  0.46999998093E+01 0. -1.
</event>
<event>
 5   0  0.5384960E-04  0.1299073E+04  0.7818609E-02  0.9030300E-01
       -2   -1    0    0    0  501  0.00000000000E+00  0.00000000000E+00  0.23549391779E+03  0.23549391781E+03  0.25500000920E-02 0. -1.
        2   -1    0    0  501    0  0.00000000000E+00  0.00000000000E+00 -0.17915441685E+04  0.17915441685E+04  0.25500000920E-02 0.  1.
    10030    2    1    2    0    0  0.00000000000E+00  0.00000000000E+00 -0.15560502507E+04  0.20270380863E+04  0.12990731390E+04 0.  0.
        3    1    3    3  502    0 -0.26247880780E+03 -0.58354917441E+03 -0.95229143886E+03  0.11472941028E+04  0.10100000352E+00 0.  1.
       -3    1    3    3    0  502  0.26247880780E+03  0.58354917441E+03 -0.60375881182E+03  0.87974398352E+03  0.10100000352E+00 0. -1.
</event>
<event>
 5   0  0.3263679E-04  0.1296246E+04  0.7818609E-02  0.9032547E-01
        1   -1    0    0  501    0  0.00000000000E+00  0.00000000000E+00  0.76122834433E+03  0.76122834435E+03  0.50400001928E-02 0.  1.
       -1   -1    0    0    0  501  0.00000000000E+00  0.00000000000E+00 -0.55182312225E+03  0.55182312227E+03  0.50400001928E-02 0. -1.
    10030    2    1    2    0    0  0.00000000000E+00  0.00000000000E+00  0.20940522208E+03  0.13130514666E+04  0.12962459670E+04 0.  0.
        2    1    3    3  502    0 -0.33565929005E+02  0.39699267343E+03  0.62253822166E+03  0.73911006744E+03  0.25500000920E-02 0.  1.
       -2    1    3    3    0  502  0.33565929005E+02 -0.39699267343E+03 -0.41313299958E+03  0.57394139919E+03  0.25500000920E-02 0. -1.
</event>
<event>
 5   0  0.3274879E-04  0.1301075E+04  0.7818609E-02  0.9028713E-01
        1   -1    0    0  501    0  0.00000000000E+00  0.00000000000E+00  0.17207442630E+04  0.17207442630E+04  0.50400001928E-02 0. -1.
       -1   -1    0    0    0  501  0.00000000000E+00  0.00000000000E+00 -0.24593948389E+03  0.24593948394E+03  0.50400001928E-02 0.  1.
    10030    2    1    2    0    0  0.00000000000E+00  0.00000000000E+00  0.14748047791E+04  0.19666837470E+04  0.13010748726E+04 0.  0.
        4    1    3    3  502    0  0.57410947642E+03  0.85513821371E+02  0.11814146421E+04  0.13163040963E+04  0.12699999809E+01 0. -1.
       -4    1    3    3    0  502 -0.57410947642E+03 -0.85513821371E+02  0.29339013706E+03  0.65037965065E+03  0.12699999809E+01 0.  1.
</event>
<event>
 5   0  0.5384960E-04  0.1290479E+04  0.7818609E-02  0.9037150E-01
       -2   -1    0    0    0  501  0.00000000000E+00  0.00000000000E+00  0.33658297245E+03  0.33658297246E+03  0.25500000920E-02 0.  1.
        2   -1    0    0  501    0  0.00000000000E+00  0.00000000000E+00 -0.12369425066E+04  0.12369425066E+04  0.25500000920E-02 0. -1.
    10030    2    1    2    0    0  0.00000000000E+00  0.00000000000E+00 -0.90035953419E+03  0.15735254791E+04  0.12904786486E+04 0.  0.
        3    1    3    3  502    0 -0.28677978285E+03  0.44288775092E+02  0.25253126368E+03  0.38467673284E+03  0.10100000352E+00 0.  1.
       -3    1    3    3    0  502  0.28677978285E+03 -0.44288775092E+02 -0.11528907979E+04  0.11888487463E+04  0.10100000352E+00 0. -1.
</event>
<event>
 5   0  0.3335747E-04  0.1288959E+04  0.7818609E-02  0.9038367E-01
        1   -1    0    0  501    0  0.00000000000E+00  0.00000000000E+00  0.58772514234E+03  0.58772514237E+03  0.50400001928E-02 0.  1.
       -1   -1    0    0    0  501  0.00000000000E+00  0.00000000000E+00 -0.70671433298E+03  0.70671433300E+03  0.50400001928E-02 0. -1.
    10030    2    1    2    0    0  0.00000000000E+00  0.00000000000E+00 -0.11898919063E+03  0.12944394754E+04  0.12889589318E+04 0.  0.
        3    1    3    3  502    0 -0.16855455643E+02  0.64425746194E+03 -0.58078592080E+02  0.64708957394E+03  0.10100000352E+00 0.  1.
       -3    1    3    3    0  502  0.16855455643E+02 -0.64425746194E+03 -0.60910598554E+02  0.64734990142E+03  0.10100000352E+00 0. -1.
</event>
<event>
 5   0  0.3403833E-04  0.1296105E+04  0.7818609E-02  0.9032660E-01
       -1   -1    0    0    0  501  0.00000000000E+00  0.00000000000E+00  0.30524427615E+03  0.30524427619E+03  0.50400001928E-02 0. -1.
        1   -1    0    0  501    0  0.00000000000E+00  0.00000000000E+00 -0.13758554439E+04  0.13758554439E+04  0.50400001928E-02 0.  1.
    10030    2    1    2    0    0  0.00000000000E+00  0.00000000000E+00 -0.10706111677E+04  0.16810997201E+04  0.12961049326E+04 0.  0.
        1    1    3    3  502    0  0.27697313816E+03 -0.73872984510E+02  0.21854202315E+03  0.36046075100E+03  0.50400001928E-02 0. -1.
       -1    1    3    3    0  502 -0.27697313816E+03  0.73872984510E+02 -0.12891531909E+04  0.13206389691E+04  0.50400001928E-02 0.  1.
</event>
<event>
 5   0  0.3274879E-04  0.1284097E+04  0.7818609E-02  0.9042272E-01
        1   -1    0    0  501    0  0.00000000000E+00  0.00000000000E+00  0.13525708970E+04  0.13525708970E+04  0.50400001928E-02 0. -1.
       -1   -1    0    0    0  501  0.00000000000E+00  0.00000000000E+00 -0.30477258412E+03  0.30477258416E+03  0.50400001928E-02 0.  1.
    10030    2    1    2    0    0  0.00000000000E+00  0.00000000000E+00  0.10477983129E+04  0.16573434812E+04  0.12840973912E+04 0.  0.
        4    1    3    3  502    0  0.54646105990E+03 -0.31024855626E+03  0.69391035977E+03  0.93615546623E+03  0.12699999809E+01 0. -1.
       -4    1    3    3    0  502 -0.54646105990E+03  0.31024855626E+03  0.35388795311E+03  0.72118801495E+03  0.12699999809E+01 0.  1.
</event>
<event>
 5   0  0.6052864E-04  0.1238295E+04  0.7818609E-02  0.9079982E-01
       -2   -1    0    0    0  501  0.00000000000E+00  0.00000000000E+00  0.19947743354E+03  0.19947743355E+03  0.25500000920E-02 0. -1.
        2   -1    0    0  501    0  0.00000000000E+00  0.00000000000E+00 -0.19217386820E+04  0.19217386820E+04  0.25500000920E-02 0.  1.
    10030    2    1    2    0    0  0.00000000000E+00  0.00000000000E+00 -0.17222612484E+04  0.21212161155E+04  0.12382947956E+04 0.  0.
        2    1    3    3  502    0 -0.32105350939E+03  0.19094015795E+03 -0.17069675249E+04  0.17473613338E+04  0.25500000920E-02 0.  1.
       -2    1    3    3    0  502  0.32105350939E+03 -0.19094015795E+03 -0.15293723499E+02  0.37385478169E+03  0.25500000920E-02 0. -1.
</event>
<event>
 5   0  0.6052864E-04  0.1300661E+04  0.7818609E-02  0.9029041E-01
        2   -1    0    0  501    0  0.00000000000E+00  0.00000000000E+00  0.64233491306E+03  0.64233491307E+03  0.25500000920E-02 0. -1.
       -2   -1    0    0    0  501  0.00000000000E+00  0.00000000000E+00 -0.65842587270E+03  0.65842587271E+03  0.25500000920E-02 0.  1.
    10030    2    1    2    0    0  0.00000000000E+00  0.00000000000E+00 -0.16090959638E+02  0.13007607858E+04  0.13006612560E+04 0.  0.
        2    1    3    3  502    0  0.36873005092E+03  0.47298853086E+03  0.24346914275E+03  0.64726905091E+03  0.25500000920E-02 0. -1.
       -2    1    3    3    0  502 -0.36873005092E+03 -0.47298853086E+03 -0.25956010239E+03  0.65349173487E+03  0.25500000920E-02 0.  1.
</event>
<event>
 5   0  0.6052864E-04  0.1295343E+04  0.7818609E-02  0.9033267E-01
        2   -1    0    0  501    0  0.00000000000E+00  0.00000000000E+00  0.15491125915E+04  0.15491125915E+04  0.25500000920E-02 0. -1.
       -2   -1    0    0    0  501  0.00000000000E+00  0.00000000000E+00 -0.27078606051E+03  0.27078606052E+03  0.25500000920E-02 0.  1.
    10030    2    1    2    0    0  0.00000000000E+00  0.00000000000E+00  0.12783265309E+04  0.18198986520E+04  0.12953425739E+04 0.  0.
        2    1    3    3  502    0 -0.30627924359E+03  0.12536925282E+03  0.14213509181E+04  0.14593707058E+04  0.25500000920E-02 0. -1.
       -2    1    3    3    0  502  0.30627924359E+03 -0.12536925282E+03 -0.14302438718E+03  0.36052794613E+03  0.25500000920E-02 0.  1.
</event>
<event>
 5   0  0.2255875E-04  0.1300128E+04  0.7818609E-02  0.9029464E-01
        4   -1    0    0  501    0  0.00000000000E+00  0.00000000000E+00  0.58452640390E+03  0.58452778356E+03  0.12699999809E+01 0.  1.
       -4   -1    0    0    0  501  0.00000000000E+00  0.00000000000E+00 -0.72294715665E+03  0.72294827215E+03  0.12699999809E+01 0. -1.
    10030    2    1    2    0    0  0.00000000000E+00  0.00000000000E+00 -0.13842075275E+03  0.13074760557E+04  0.13001281981E+04 0.  0.
        5    1    3    3  502    0 -0.55250924277E+03 -0.12140506868E+03  0.25284253739E+03  0.61964271380E+03  0.46999998093E+01 0.  1.
       -5    1    3    3    0  502  0.55250924277E+03  0.12140506868E+03 -0.39126329013E+03  0.68783334192E+03  0.46999998093E+01 0. -1.
</event>
<event>
 5   0  0.3274879E-04  0.1293733E+04  0.7818609E-02  0.9034550E-01
       -1   -1    0    0    0  501  0.00000000000E+00  0.00000000000E+00  0.68279833541E+03  0.68279833543E+03  0.50400001928E-02 0.  1.
        1   -1    0    0  501    0  0.00000000000E+00  0.00000000000E+00 -0.61282557466E+03  0.61282557468E+03  0.50400001928E-02 0. -1.
    10030    2    1    2    0    0  0.00000000000E+00  0.00000000000E+00  0.69972760746E+02  0.12956239101E+04  0.12937330208E+04 0.  0.
        4    1    3    3  502    0  0.42921055161E+03 -0.47377572565E+03  0.13387042241E+03  0.65315238553E+03  0.12699999809E+01 0.  1.
       -4    1    3    3    0  502 -0.42921055161E+03  0.47377572565E+03 -0.63897661663E+02  0.64247152458E+03  0.12699999809E+01 0. -1.
</event>
<event>
 5   0  0.3335747E-04  0.1300512E+04  0.7818609E-02  0.9029160E-01
       -1   -1    0    0    0  501  0.00000000000E+00  0.00000000000E+00  0.32107912836E+04  0.32107912836E+04  0.50400001928E-02 0.  1.
        1   -1    0    0  501    0  0.00000000000E+00  0.00000000000E+00 -0.13169109959E+03  0.13169109968E+03  0.50400001928E-02 0. -1.
    10030    2    1    2    0    0  0.00000000000E+00  0.00000000000E+00  0.30791001841E+04  0.33424823833E+04  0.13005116452E+04 0.  0.
        3    1    3    3  502    0  0.27602324133E+03  0.37380938379E+03  0.27086347957E+04  0.27482039138E+04  0.10100000352E+00 0.  1.
       -3    1    3    3    0  502 -0.27602324133E+03 -0.37380938379E+03  0.37046538834E+03  0.59427846951E+03  0.10100000352E+00 0. -1.
</event>
<event>
 5   0  0.6007125E-04  0.1294666E+04  0.7818609E-02  0.9033806E-01
        2   -1    0    0  501    0  0.00000000000E+00  0.00000000000E+00  0.21177332573E+04  0.21177332573E+04  0.25500000920E-02 0. -1.
       -2   -1    0    0    0  501  0.00000000000E+00  0.00000000000E+00 -0.19787181134E+03  0.19787181136E+03  0.25500000920E-02 0.  1.
    10030    2    1    2    0    0  0.00000000000E+00  0.00000000000E+00  0.19198614460E+04  0.23156050686E+04  0.12946655407E+04 0.  0.
        5    1    3    3  502    0  0.49082989602E+03 -0.40563289090E+03  0.75161293691E+03  0.98508686212E+03  0.46999998093E+01 0.  1.
       -5    1    3    3    0  502 -0.49082989602E+03  0.40563289090E+03  0.11682485090E+04  0.13305182065E+04  0.46999998093E+01 0. -1.
</event>
<event>
 5   0  0.3263679E-04  0.1298775E+04  0.7818609E-02  0.9030537E-01
       -1   -1    0    0    0  501  0.00000000000E+00  0.00000000000E+00  0.40964360890E+03  0.40964360893E+03  0.50400001928E-02 0.  1.
        1   -1    0    0  501    0  0.00000000000E+00  0.00000000000E+00 -0.10294415763E+04  0.10294415763E+04  0.50400001928E-02 0. -1.
    10030    2    1    2    0    0  0.00000000000E+00  0.00000000000E+00 -0.61979796737E+03  0.14390851852E+04  0.12987750575E+04 0.  0.
        2    1    3    3  502    0  0.76283101704E+02  0.55177754744E+03 -0.67976717267E+03  0.87884070372E+03  0.25500000920E-02 0. -1.
       -2    1    3    3    0  502 -0.76283101704E+02 -0.55177754744E+03  0.59969205292E+02  0.56024448151E+03  0.25500000920E-02 0.  1.
</event>
<event>
 5   0  0.5384960E-04  0.1300116E+04  0.7818609E-02  0.9029473E-01
        2   -1    0    0  501    0  0.00000000000E+00  0.00000000000E+00  0.13003331399E+04  0.13003331399E+04  0.25500000920E-02 0.  1.
       -2   -1    0    0    0  501  0.00000000000E+00  0.00000000000E+00 -0.32497460732E+03  0.32497460733E+03  0.25500000920E-02 0. -1.
    10030    2    1    2    0    0  0.00000000000E+00  0.00000000000E+00  0.97535853255E+03  0.16253077472E+04  0.13001157664E+04 0.  0.
        3    1    3    3  502    0 -0.93539364205E+02 -0.38534080945E+02  0.12904318471E+04  0.12943913049E+04  0.10100000352E+00 0.  1.
       -3    1    3    3    0  502  0.93539364205E+02  0.38534080945E+02 -0.31507331453E+03  0.33091644230E+03  0.10100000352E+00 0. -1.
</event>
<event>
 5   0  0.3274879E-04  0.1299606E+04  0.7818609E-02  0.9029878E-01
       -1   -1    0    0    0  501  0.00000000000E+00  0.00000000000E+00  0.25327891047E+04  0.25327891047E+04  0.50400001928E-02 0.  1.
        1   -1    0    0  501    0  0.00000000000E+00  0.00000000000E+00 -0.16671107960E+03  0.16671107967E+03  0.50400001928E-02 0. -1.
    10030    2    1    2    0    0  0.00000000000E+00  0.00000000000E+00  0.23660780251E+04  0.26995001844E+04  0.12996061036E+04 0.  0.
        4    1    3    3  502    0  0.46743450804E+03 -0.12523918909E+03  0.28225069706E+03  0.56022044115E+03  0.12699999809E+01 0. -1.
       -4    1    3    3    0  502 -0.46743450804E+03  0.12523918909E+03  0.20838273280E+04  0.21392797432E+04  0.12699999809E+01 0.  1.
</event>
<event>
 5   0  0.3337520E-04  0.1298240E+04  0.7818609E-02  0.9030962E-01
        1   -1    0    0  501    0  0.00000000000E+00  0.00000000000E+00  0.14761765478E+04  0.14761765478E+04  0.50400001928E-02 0. -1.
       -1   -1    0    0    0  501  0.00000000000E+00  0.00000000000E+00 -0.28543782112E+03  0.28543782117E+03  0.50400001928E-02 0.  1.
    10030    2    1    2    0    0  0.00000000000E+00  0.00000000000E+00  0.11907387267E+04  0.17616143690E+04  0.12982397582E+04 0.  0.
        5    1    3    3  502    0  0.26245627242E+03 -0.11650059529E+03 -0.19454164682E+03  0.34687782572E+03  0.46999998093E+01 0.  1.
       -5    1    3    3    0  502 -0.26245627242E+03  0.11650059529E+03  0.13852803735E+04  0.14147365433E+04  0.46999998093E+01 0. -1.
</event>
<event>
 5   0  0.3335747E-04  0.1302116E+04  0.7818609E-02  0.9027889E-01
        1   -1    0    0  501    0  0.00000000000E+00  0.00000000000E+00  0.10681341744E+04  0.10681341744E+04  0.50400001928E-02 0. -1.
       -1   -1    0    0    0  501  0.00000000000E+00  0.00000000000E+00 -0.39683843464E+03  0.39683843467E+03  0.50400001928E-02 0.  1.
    10030    2    1    2    0    0  0.00000000000E+00  0.00000000000E+00  0.67129573977E+03  0.14649726091E+04  0.13021162679E+04 0.  0.
        3    1    3    3  502    0 -0.16620801867E+03 -0.51319604441E+03 -0.74472966481E+02  0.54455625825E+03  0.10100000352E+00 0.  1.
       -3    1    3    3    0  502  0.16620801867E+03  0.51319604441E+03  0.74576870625E+03  0.92041635084E+03  0.10100000352E+00 0. -1.
</event>
<event>
 5   0  0.3403833E-04  0.1294443E+04  0.7818609E-02  0.9033983E-01
       -1   -1    0    0    0  501  0.00000000000E+00  0.00000000000E+00  0.72333752121E+03  0.72333752123E+03  0.50400001928E-02 0.  1.
        1   -1    0    0  501    0  0.00000000000E+00  0.00000000000E+00 -0.57911523139E+03  0.57911523142E+03  0.50400001928E-02 0. -1.
    10030    2    1    2    0    0  0.00000000000E+00  0.00000000000E+00  0.14422228982E+03  0.13024527526E+04  0.12944431637E+04 0.  0.
        1    1    3    3  502    0 -0.22996706712E+03 -0.44005961567E+03 -0.34561849592E+03  0.60497062908E+03  0.50400001928E-02 0.  1.
       -1    1    3    3    0  502  0.22996706712E+03  0.44005961567E+03  0.48984078573E+03  0.69748212357E+03  0.50400001928E-02 0. -1.
</event>
<event>
 5   0  0.5787604E-04  0.1299473E+04  0.7818609E-02  0.9029983E-01
       -2   -1    0    0    0  501  0.00000000000E+00  0.00000000000E+00  0.19588160473E+03  0.19588160475E+03  0.25500000920E-02 0.  1.
        2   -1    0    0  501    0  0.00000000000E+00  0.00000000000E+00 -0.21551672542E+04  0.21551672542E+04  0.25500000920E-02 0. -1.
    10030    2    1    2    0    0  0.00000000000E+00  0.00000000000E+00 -0.19592856494E+04  0.23510488589E+04  0.12994731551E+04 0.  0.
        4    1    3    3  502    0 -0.63521243930E+03 -0.13653121301E+03 -0.98781289894E+03  0.11823330966E+04  0.12699999809E+01 0.  1.
       -4    1    3    3    0  502  0.63521243930E+03  0.13653121301E+03 -0.97147275050E+03  0.11687157623E+04  0.12699999809E+01 0. -1.
</event>
<event>
 5   0  0.6052864E-04  0.1297054E+04  0.7818609E-02  0.9031905E-01
       -2   -1    0    0    0  501  0.00000000000E+00  0.00000000000E+00  0.27576087750E+03  0.27576087751E+03  0.25500000920E-02 0.  1.
        2   -1    0    0  501    0  0.00000000000E+00  0.00000000000E+00 -0.15251874645E+04  0.15251874645E+04  0.25500000920E-02 0. -1.
    10030    2    1    2    0    0  0.00000000000E+00  0.00000000000E+00 -0.12494265870E+04  0.18009483420E+04  0.12970536359E+04 0.  0.
        2    1    3    3  502    0 -0.61141310776E+03 -0.99039444508E+02 -0.35780401701E+03  0.71530309275E+03  0.25500000920E-02 0.  1.
       -2    1    3    3    0  502  0.61141310776E+03  0.99039444508E+02 -0.89162257001E+03  0.10856452493E+04  0.25500000920E-02 0. -1.
</event>
<event>
 5   0  0.3335747E-04  0.1297332E+04  0.7818609E-02  0.9031683E-01
        1   -1    0    0  501    0  0.00000000000E+00  0.00000000000E+00  0.11616250590E+04  0.11616250590E+04  0.50400001928E-02 0.  1.
       -1   -1    0    0    0  501  0.00000000000E+00  0.00000000000E+00 -0.36222348369E+03  0.36222348373E+03  0.50400001928E-02 0. -1.
    10030    2    1    2    0    0  0.00000000000E+00  0.00000000000E+00  0.79940157534E+03  0.15238485428E+04  0.12973324565E+04 0.  0.
        3    1    3    3  502    0 -0.21088848136E+03 -0.24151039488E+03  0.10620412725E+04  0.11093840170E+04  0.10100000352E+00 0.  1.
       -3    1    3    3    0  502  0.21088848136E+03  0.24151039488E+03 -0.26263969718E+03  0.41446452579E+03  0.10100000352E+00 0. -1.
</event>
<event>
 5   0  0.5384960E-04  0.1291137E+04  0.7818609E-02  0.9036623E-01
       -2   -1    0    0    0  501  0.00000000000E+00  0.00000000000E+00  0.67801719095E+03  0.67801719095E+03  0.25500000920E-02 0. -1.
        2   -1    0    0  501    0  0.00000000000E+00  0.00000000000E+00 -0.61467268768E+03  0.61467268768E+03  0.25500000920E-02 0.  1.
    10030    2    1    2    0    0  0.00000000000E+00  0.00000000000E+00  0.63344503270E+02  0.12926898786E+04  0.12911369394E+04 0.  0.
        3    1    3    3  502    0  0.43469761538E+03  0.33916281611E+03 -0.30453695449E+03  0.62986998619E+03  0.10100000352E+00 0.  1.
       -3    1    3    3    0  502 -0.43469761538E+03 -0.33916281611E+03  0.36788145776E+03  0.66281989244E+03  0.10100000352E+00 0. -1.
</event>
<event>
 5   0  0.3403833E-04  0.1297717E+04  0.7818609E-02  0.9031378E-01
       -1   -1    0    0    0  501  0.00000000000E+00  0.00000000000E+00  0.77764148653E+03  0.77764148655E+03  0.50400001928E-02 0. -1.
        1   -1    0    0  501    0  0.00000000000E+00  0.00000000000E+00 -0.54140276320E+03  0.54140276322E+03  0.50400001928E-02 0.  1.
    10030    2    1    2    0    0  0.00000000000E+00  0.00000000000E+00  0.23623872333E+03  0.13190442498E+04  0.12977168406E+04 0.  0.
        1    1    3    3  502    0 -0.57505288796E+03  0.23445457337E+03  0.30925900606E+03  0.69375493063E+03  0.50400001928E-02 0.  1.
       -1    1    3    3    0  502  0.57505288796E+03 -0.23445457337E+03 -0.73020282723E+02  0.62528931914E+03  0.50400001928E-02 0. -1.
</event>
<event>
 5   0  0.3274879E-04  0.1300751E+04  0.7818609E-02  0.9028970E-01
       -1   -1    0    0    0  501  0.00000000000E+00  0.00000000000E+00  0.11213804498E+04  0.11213804498E+04  0.50400001928E-02 0.  1.
        1   -1    0    0  501    0  0.00000000000E+00  0.00000000000E+00 -0.37720309820E+03  0.37720309824E+03  0.50400001928E-02 0. -1.
    10030    2    1    2    0    0  0.00000000000E+00  0.00000000000E+00  0.74417735161E+03  0.14985835481E+04  0.13007508293E+04 0.  0.
        4    1    3    3  502    0  0.47628291060E+03  0.34075002016E+02  0.88081233773E+03  0.10019174137E+04  0.12699999809E+01 0.  1.
       -4    1    3    3    0  502 -0.47628291060E+03 -0.34075002016E+02 -0.13663498612E+03  0.49666613436E+03  0.12699999809E+01 0. -1.
</event>
<event>
 5   0  0.3337520E-04  0.1303375E+04  0.7818609E-02  0.9026893E-01
       -1   -1    0    0    0  501  0.00000000000E+00  0.00000000000E+00  0.37949705289E+03  0.37949705292E+03  0.50400001928E-02 0. -1.
        1   -1    0    0  501    0  0.00000000000E+00  0.00000000000E+00 -0.11191040932E+04  0.11191040932E+04  0.50400001928E-02 0.  1.
    10030    2    1    2    0    0  0.00000000000E+00  0.00000000000E+00 -0.73960704030E+03  0.14986011461E+04  0.13033751651E+04 0.  0.
        5    1    3    3  502    0 -0.28558071152E+03 -0.53921616623E+03 -0.63291139657E+03  0.87915262760E+03  0.46999998093E+01 0.  1.
       -5    1    3    3    0  502  0.28558071152E+03  0.53921616623E+03 -0.10669564373E+03  0.61944851852E+03  0.46999998093E+01 0. -1.
</event>
<event>
 5   0  0.5384960E-04  0.1317748E+04  0.7818609E-02  0.9015608E-01
        2   -1    0    0  501    0  0.00000000000E+00  0.00000000000E+00  0.11474471882E+04  0.11474471882E+04  0.25500000920E-02 0.  1.
       -2   -1    0    0    0  501  0.00000000000E+00  0.00000000000E+00 -0.37833093063E+03  0.37833093064E+03  0.25500000920E-02 0. -1.
    10030    2    1    2    0    0  0.00000000000E+00  0.00000000000E+00  0.76911625757E+03  0.15257781188E+04  0.13177477188E+04 0.  0.
        3    1    3    3  502    0 -0.27651813924E+03 -0.30393187438E+03 -0.21180342003E+03  0.46227433903E+03  0.10100000352E+00 0. -1.
       -3    1    3    3    0  502  0.27651813924E+03  0.30393187438E+03  0.98091967759E+03  0.10635037798E+04  0.10100000352E+00 0.  1.
</event>
<event>
 5   0  0.3403833E-04  0.1300804E+04  0.7818609E-02  0.9028928E-01
        1   -1    0    0  501    0  0.00000000000E+00  0.00000000000E+00  0.98367677851E+03  0.98367677852E+03  0.50400001928E-02 0. -1.
       -1   -1    0    0    0  501  0.00000000000E+00  0.00000000000E+00 -0.43004232208E+03  0.43004232211E+03  0.50400001928E-02 0.  1.
    10030    2    1    2    0    0  0.00000000000E+00  0.00000000000E+00  0.55363445643E+03  0.14137191006E+04  0.13008038223E+04 0.  0.
        1    1    3    3  502    0 -0.16472125157E+03  0.60231699816E+03  0.79079211410E+02  0.62942225786E+03  0.50400001928E-02 0.  1.
       -1    1    3    3    0  502  0.16472125157E+03 -0.60231699816E+03  0.47455524502E+03  0.78429684278E+03  0.50400001928E-02 0. -1.
</event>
<event>
 5   0  0.5957913E-04  0.1281607E+04  0.7818609E-02  0.9044280E-01
       -2   -1    0    0    0  501  0.00000000000E+00  0.00000000000E+00  0.28548188395E+03  0.28548188396E+03  0.25500000920E-02 0.  1.
        2   -1    0    0  501    0  0.00000000000E+00  0.00000000000E+00 -0.14383715943E+04  0.14383715943E+04  0.25500000920E-02 0. -1.
    10030    2    1    2    0    0  0.00000000000E+00  0.00000000000E+00 -0.11528897103E+04  0.17238534783E+04  0.12816068548E+04 0.  0.
        1    1    3    3  502    0 -0.42085167318E+03 -0.54219146834E+02 -0.12223220167E+04  0.12938805816E+04  0.50400001928E-02 0. -1.
       -1    1    3    3    0  502  0.42085167318E+03  0.54219146834E+02  0.69432306396E+02  0.42997289670E+03  0.50400001928E-02 0.  1.
</event>
<event>
 5   0  0.3274879E-04  0.1299043E+04  0.7818609E-02  0.9030324E-01
       -1   -1    0    0    0  501  0.00000000000E+00  0.00000000000E+00  0.36706696970E+03  0.36706696973E+03  0.50400001928E-02 0.  1.
        1   -1    0    0  501    0  0.00000000000E+00  0.00000000000E+00 -0.11493227635E+04  0.11493227635E+04  0.50400001928E-02 0. -1.
    10030    2    1    2    0    0  0.00000000000E+00  0.00000000000E+00 -0.78225579376E+03  0.15163897332E+04  0.12990433773E+04 0.  0.
        4    1    3    3  502    0  0.59278793640E+03  0.18584114015E+02 -0.81990752854E+02  0.59872113984E+03  0.12699999809E+01 0.  1.
       -4    1    3    3    0  502 -0.59278793640E+03 -0.18584114015E+02 -0.70026504091E+03  0.91766859337E+03  0.12699999809E+01 0. -1.
</event>
<event>
 5   0  0.3337520E-04  0.1302290E+04  0.7818609E-02  0.9027751E-01
        1   -1    0    0  501    0  0.00000000000E+00  0.00000000000E+00  0.36413176257E+03  0.36413176260E+03  0.50400001928E-02 0. -1.
       -1   -1    0    0    0  501  0.00000000000E+00  0.00000000000E+00 -0.11643863074E+04  0.11643863074E+04  0.50400001928E-02 0.  1.
    10030    2    1    2    0    0  0.00000000000E+00  0.00000000000E+00 -0.80025454481E+03  0.15285180700E+04  0.13022903493E+04 0.  0.
        5    1    3    3  502    0  0.80298607057E+02 -0.78275077164E+02 -0.11529474552E+04  0.11583975045E+04  0.46999998093E+01 0.  1.
       -5    1    3    3    0  502 -0.80298607057E+02  0.78275077164E+02  0.35269291036E+03  0.37012056551E+03  0.46999998093E+01 0. -1.
</event>
<event>
 5   0  0.3263679E-04  0.1297288E+04  0.7818609E-02  0.9031719E-01
       -1   -1    0    0    0  501  0.00000000000E+00  0.00000000000E+00  0.61067809651E+03  0.61067809653E+03  0.50400001928E-02 0. -1.
        1   -1    0    0  501    0  0.00000000000E+00  0.00000000000E+00 -0.68897023768E+03  0.68897023770E+03  0.50400001928E-02 0.  1.
    10030    2    1    2    0    0  0.00000000000E+00  0.00000000000E+00 -0.78292141167E+02  0.12996483342E+04  0.12972879917E+04 0.  0.
        2    1    3    3  502    0  0.55609879707E+03  0.33181668679E+03 -0.76507994148E+02  0.65207488750E+03  0.25500000920E-02 0.  1.
       -2    1    3    3    0  502 -0.55609879707E+03 -0.33181668679E+03 -0.17841470191E+01  0.64757344673E+03  0.25500000920E-02 0. -1.
</event>
<event>
 5   0  0.3263679E-04  0.1300579E+04  0.7818609E-02  0.9029106E-01
        1   -1    0    0  501    0  0.00000000000E+00  0.00000000000E+00  0.58880779570E+03  0.58880779573E+03  0.50400001928E-02 0.  1.
       -1   -1    0    0    0  501  0.00000000000E+00  0.00000000000E+00 -0.71819139406E+03  0.71819139408E+03  0.50400001928E-02 0. -1.
    10030    2    1    2    0    0  0.00000000000E+00  0.00000000000E+00 -0.12938359836E+03  0.13069991898E+04  0.13005793965E+04 0.  0.
        2    1    3    3  502    0 -0.42408073676E+03  0.33651857736E+03  0.29734675988E+03  0.61766035959E+03  0.25500000920E-02 0.  1.
       -2    1    3    3    0  502  0.42408073676E+03 -0.33651857736E+03 -0.42673035823E+03  0.68933883021E+03  0.25500000920E-02 0. -1.
</event>
<event>
 5   0  0.3337520E-04  0.1299543E+04  0.7818609E-02  0.9029928E-01
        1   -1    0    0  501    0  0.00000000000E+00  0.00000000000E+00  0.10220957837E+04  0.10220957837E+04  0.50400001928E-02 0.  1.
       -1   -1    0    0    0  501  0.00000000000E+00  0.00000000000E+00 -0.41307564476E+03  0.41307564479E+03  0.50400001928E-02 0. -1.
    10030    2    1    2    0    0  0.00000000000E+00  0.00000000000E+00  0.60902013896E+03  0.14351714285E+04  0.12995428041E+04 0.  0.
        5    1    3    3  502    0 -0.16941281934E+03  0.23187763912E+02  0.99678346670E+03  0.10113544113E+04  0.46999998093E+01 0.  1.
       -5    1    3    3    0  502  0.16941281934E+03 -0.23187763912E+02 -0.38776332774E+03  0.42381701723E+03  0.46999998093E+01 0. -1.
</event>
<event>
 5   0  0.6052864E-04  0.1297858E+04  0.7818609E-02  0.9031265E-01
       -2   -1    0    0    0  501  0.00000000000E+00  0.00000000000E+00  0.42703715608E+03  0.42703715609E+03  0.25500000920E-02 0. -1.
        2   -1    0    0  501    0  0.00000000000E+00  0.00000000000E+00 -0.98611760337E+03  0.98611760337E+03  0.25500000920E-02 0.  1.
    10030    2    1    2    0    0  0.00000000000E+00  0.00000000000E+00 -0.55908044729E+03  0.14131547595E+04  0.12978580152E+04 0.  0.
        2    1    3    3  502    0  0.31006415438E+02  0.49186685178E+03 -0.73919736367E+03  0.88842959211E+03  0.25500000920E-02 0.  1.
       -2    1    3    3    0  502 -0.31006415438E+02 -0.49186685178E+03  0.18011691638E+03  0.52472516735E+03  0.25500000920E-02 0. -1.
</event>
<event>
 5   0  0.3274879E-04  0.1307728E+04  0.7818609E-02  0.9023459E-01
       -1   -1    0    0    0  501  0.00000000000E+00  0.00000000000E+00  0.36818327121E+03  0.36818327125E+03  0.50400001928E-02 0. -1.
        1   -1    0    0  501    0  0.00000000000E+00  0.00000000000E+00 -0.11612097387E+04  0.11612097387E+04  0.50400001928E-02 0.  1.
    10030    2    1    2    0    0  0.00000000000E+00  0.00000000000E+00 -0.79302646744E+03  0.15293930099E+04  0.13077278007E+04 0.  0.
        4    1    3    3  502    0  0.45806007164E+03  0.33243775361E+03 -0.13596630966E+02  0.56614518503E+03  0.12699999809E+01 0. -1.
       -4    1    3    3    0  502 -0.45806007164E+03 -0.33243775361E+03 -0.77942983648E+03  0.96324782489E+03  0.12699999809E+01 0.  1.
</event>
<event>
 5   0  0.3403833E-04  0.1299493E+04  0.7818609E-02  0.9029967E-01
       -1   -1    0    0    0  501  0.00000000000E+00  0.00000000000E+00  0.40530720315E+03  0.40530720318E+03  0.50400001928E-02 0.  1.
        1   -1    0    0  501    0  0.00000000000E+00  0.00000000000E+00 -0.10416061216E+04  0.10416061216E+04  0.50400001928E-02 0. -1.
    10030    2    1    2    0    0  0.00000000000E+00  0.00000000000E+00 -0.63629891845E+03  0.14469133248E+04  0.12994929226E+04 0.  0.
        1    1    3    3  502    0 -0.37883083488E+03  0.20096545858E+03 -0.86165475293E+03  0.96247017111E+03  0.50400001928E-02 0. -1.
       -1    1    3    3    0  502  0.37883083488E+03 -0.20096545858E+03  0.22535583448E+03  0.48444315369E+03  0.50400001928E-02 0.  1.
</event>
<event>
 5   0  0.3403833E-04  0.1298923E+04  0.7818609E-02  0.9030420E-01
       -1   -1    0    0    0  501  0.00000000000E+00  0.00000000000E+00  0.24044698279E+03  0.24044698284E+03  0.50400001928E-02 0. -1.
        1   -1    0    0  501    0  0.00000000000E+00  0.00000000000E+00 -0.17542326086E+04  0.17542326086E+04  0.50400001928E-02 0.  1.
    10030    2    1    2    0    0  0.00000000000E+00  0.00000000000E+00 -0.15137856258E+04  0.19946795914E+04  0.12989225349E+04 0.  0.
        1    1    3    3  502    0 -0.32732238863E+02  0.16347920484E+03 -0.17208099592E+04  0.17288677698E+04  0.50400001928E-02 0.  1.
       -1    1    3    3    0  502  0.32732238863E+02 -0.16347920484E+03  0.20702433338E+03  0.26581182162E+03  0.50400001928E-02 0. -1.
</event>
<event>
 5   0  0.2255875E-04  0.1303359E+04  0.7818609E-02  0.9026905E-01
        3   -1    0    0  501    0  0.00000000000E+00  0.00000000000E+00  0.19162584705E+04  0.19162584731E+04  0.10100000352E+00 0.  1.
       -3   -1    0    0    0  501  0.00000000000E+00  0.00000000000E+00 -0.22162270610E+03  0.22162272912E+03  0.10100000352E+00 0. -1.
    10030    2    1    2    0    0  0.00000000000E+00  0.00000000000E+00  0.16946357644E+04  0.21378812022E+04  0.13033593753E+04 0.  0.
        3    1    3    3  502    0 -0.16693955091E+03 -0.39599211672E+03  0.43732370403E+02  0.43196192029E+03  0.10100000352E+00 0. -1.
       -3    1    3    3    0  502  0.16693955091E+03  0.39599211672E+03  0.16509033940E+04  0.17059192819E+04  0.10100000352E+00 0.  1.
</event>
<event>
 5   0  0.5787604E-04  0.1299562E+04  0.7818609E-02  0.9029913E-01
        2   -1    0    0  501    0  0.00000000000E+00  0.00000000000E+00  0.19289631016E+04  0.19289631016E+04  0.25500000920E-02 0. -1.
       -2   -1    0    0    0  501  0.00000000000E+00  0.00000000000E+00 -0.21888202237E+03  0.21888202239E+03  0.25500000920E-02 0.  1.
    10030    2    1    2    0    0  0.00000000000E+00  0.00000000000E+00  0.17100810792E+04  0.21478451239E+04  0.12995619951E+04 0.  0.
        4    1    3    3  502    0  0.56606506279E+02  0.60295180818E+03  0.12442561267E+04  0.13838099947E+04  0.12699999809E+01 0. -1.
       -4    1    3    3    0  502 -0.56606506279E+02 -0.60295180818E+03  0.46582495246E+03  0.76403512928E+03  0.12699999809E+01 0.  1.
</event>
<event>
 5   0  0.3403833E-04  0.1305541E+04  0.7818609E-02  0.9025183E-01
       -1   -1    0    0    0  501  0.00000000000E+00  0.00000000000E+00  0.23661108939E+03  0.23661108945E+03  0.50400001928E-02 0.  1.
        1   -1    0    0  501    0  0.00000000000E+00  0.00000000000E+00 -0.18008848385E+04  0.18008848385E+04  0.50400001928E-02 0. -1.
    10030    2    1    2    0    0  0.00000000000E+00  0.00000000000E+00 -0.15642737491E+04  0.20374959280E+04  0.13055409968E+04 0.  0.
        1    1    3    3  502    0 -0.56221842280E+03 -0.30453980853E+03 -0.57701182318E+03  0.86126459003E+03  0.50400001928E-02 0.  1.
       -1    1    3    3    0  502  0.56221842280E+03  0.30453980853E+03 -0.98726192596E+03  0.11762313380E+04  0.50400001928E-02 0. -1.
</event>
<event>
 5   0  0.5787604E-04  0.1305740E+04  0.7818609E-02  0.9025026E-01
        2   -1    0    0  501    0  0.00000000000E+00  0.00000000000E+00  0.66185168777E+03  0.66185168778E+03  0.25500000920E-02 0. -1.
       -2   -1    0    0    0  501  0.00000000000E+00  0.00000000000E+00 -0.64401013537E+03  0.64401013538E+03  0.25500000920E-02 0.  1.
    10030    2    1    2    0    0  0.00000000000E+00  0.00000000000E+00  0.17841552396E+02  0.13058618232E+04  0.13057399359E+04 0.  0.
        4    1    3    3  502    0  0.22058257019E+03  0.10866491239E+03 -0.59592725403E+03  0.64466707567E+03  0.12699999809E+01 0.  1.
       -4    1    3    3    0  502 -0.22058257019E+03 -0.10866491239E+03  0.61376880643E+03  0.66119474748E+03  0.12699999809E+01 0. -1.
</event>
<event>
 5   0  0.5384960E-04  0.1301831E+04  0.7818609E-02  0.9028115E-01
       -2   -1    0    0    0  501  0.00000000000E+00  0.00000000000E+00  0.64625290807E+03  0.64625290808E+03  0.25500000920E-02 0.  1.
        2   -1    0    0  501    0  0.00000000000E+00  0.00000000000E+00 -0.65561143236E+03  0.65561143236E+03  0.25500000920E-02 0. -1.
    10030    2    1    2    0    0  0.00000000000E+00  0.00000000000E+00 -0.93585242818E+01  0.13018643404E+04  0.13018307029E+04 0.  0.
        3    1    3    3  502    0 -0.40003585376E+02  0.25335405437E+03 -0.60294401666E+03  0.65523282971E+03  0.10100000352E+00 0. -1.
       -3    1    3    3    0  502  0.40003585376E+02 -0.25335405437E+03  0.59358549237E+03  0.64663151073E+03  0.10100000352E+00 0.  1.
</event>
<event>
 5   0  0.5957913E-04  0.1282945E+04  0.7818609E-02  0.9043200E-01
        2   -1    0    0  501    0  0.00000000000E+00  0.00000000000E+00  0.11305480279E+04  0.11305480279E+04  0.25500000920E-02 0. -1.
       -2   -1    0    0    0  501  0.00000000000E+00  0.00000000000E+00 -0.36397140140E+03  0.36397140141E+03  0.25500000920E-02 0.  1.
    10030    2    1    2    0    0  0.00000000000E+00  0.00000000000E+00  0.76657662650E+03  0.14945194293E+04  0.12829452834E+04 0.  0.
        1    1    3    3  502    0  0.68211764157E+02  0.81306195514E+01  0.11262508696E+04  0.11283439073E+04  0.50400001928E-02 0. -1.
       -1    1    3    3    0  502 -0.68211764157E+02 -0.81306195514E+01 -0.35967424312E+03  0.36617552203E+03  0.50400001928E-02 0.  1.
</event>
<event>
 5   0  0.5787604E-04  0.1315442E+04  0.7818609E-02  0.9017409E-01
        2   -1    0    0  501    0  0.00000000000E+00  0.00000000000E+00  0.84849777993E+03  0.84849777993E+03  0.25500000920E-02 0.  1.
       -2   -1    0    0    0  501  0.00000000000E+00  0.00000000000E+00 -0.50983841882E+03  0.50983841882E+03  0.25500000920E-02 0. -1.
    10030    2    1    2    0    0  0.00000000000E+00  0.00000000000E+00  0.33865936111E+03  0.13583361988E+04  0.13154417760E+04 0.  0.
        4    1    3    3  502    0 -0.36051292745E+03  0.51282170905E+03 -0.36259191959E+02  0.62791083606E+03  0.12699999809E+01 0. -1.
       -4    1    3    3    0  502  0.36051292745E+03 -0.51282170905E+03  0.37491855307E+03  0.73042536270E+03  0.12699999809E+01 0.  1.
</event>
<event>
 5   0  0.3403833E-04  0.1301840E+04  0.7818609E-02  0.9028107E-01
       -1   -1    0    0    0  501  0.00000000000E+00  0.00000000000E+00  0.60912204461E+03  0.60912204463E+03  0.50400001928E-02 0.  1.
        1   -1    0    0  501    0  0.00000000000E+00  0.00000000000E+00 -0.69558615779E+03  0.69558615780E+03  0.50400001928E-02 0. -1.
    10030    2    1    2    0    0  0.00000000000E+00  0.00000000000E+00 -0.86464113174E+02  0.13047082024E+04  0.13018400250E+04 0.  0.
        1    1    3    3  502    0 -0.44261097393E+03  0.38134043659E+03  0.24440524696E+03  0.63329213447E+03  0.50400001928E-02 0.  1.
       -1    1    3    3    0  502  0.44261097393E+03 -0.38134043659E+03 -0.33086936014E+03  0.67141606796E+03  0.50400001928E-02 0. -1.
</event>
<event>
 5   0  0.5384960E-04  0.1297975E+04  0.7818609E-02  0.9031172E-01
        2   -1    0    0  501    0  0.00000000000E+00  0.00000000000E+00  0.81812839455E+03  0.81812839455E+03  0.25500000920E-02 0.  1.
       -2   -1    0    0    0  501  0.00000000000E+00  0.00000000000E+00 -0.51481508855E+03  0.51481508855E+03  0.25500000920E-02 0. -1.
    10030    2    1    2    0    0  0.00000000000E+00  0.00000000000E+00  0.30331330600E+03  0.13329434831E+04  0.12979751028E+04 0.  0.
        3    1    3    3  502    0 -0.40314240275E+03  0.48144248141E+03 -0.16693268735E+02  0.62816346219E+03  0.10100000352E+00 0. -1.
       -3    1    3    3    0  502  0.40314240275E+03 -0.48144248141E+03  0.32000657474E+03  0.70478002092E+03  0.10100000352E+00 0.  1.
</event>
<event>
 5   0  0.3403833E-04  0.1299033E+04  0.7818609E-02  0.9030332E-01
       -1   -1    0    0    0  501  0.00000000000E+00  0.00000000000E+00  0.33545009316E+03  0.33545009320E+03  0.50400001928E-02 0. -1.
        1   -1    0    0  501    0  0.00000000000E+00  0.00000000000E+00 -0.12576293497E+04  0.12576293497E+04  0.50400001928E-02 0.  1.
    10030    2    1    2    0    0  0.00000000000E+00  0.00000000000E+00 -0.92217925652E+03  0.15930794429E+04  0.12990333061E+04 0.  0.
        1    1    3    3  502    0  0.19760420508E+01  0.57148790453E+03 -0.82564939859E+02  0.57742471292E+03  0.50400001928E-02 0. -1.
       -1    1    3    3    0  502 -0.19760420508E+01 -0.57148790453E+03 -0.83961431666E+03  0.10156547300E+04  0.50400001928E-02 0.  1.
</event>
<event>
 5   0  0.5787604E-04  0.1296497E+04  0.7818609E-02  0.9032347E-01
        2   -1    0    0  501    0  0.00000000000E+00  0.00000000000E+00  0.16380625561E+04  0.16380625561E+04  0.25500000920E-02 0.  1.
       -2   -1    0    0    0  501  0.00000000000E+00  0.00000000000E+00 -0.25653865160E+03  0.25653865161E+03  0.25500000920E-02 0. -1.
    10030    2    1    2    0    0  0.00000000000E+00  0.00000000000E+00  0.13815239045E+04  0.18946012077E+04  0.12964973728E+04 0.  0.
        4    1    3    3  502    0 -0.51706495616E+03 -0.11063797615E+03  0.12387634993E+04  0.13468977507E+04  0.12699999809E+01 0.  1.
       -4    1    3    3    0  502  0.51706495616E+03  0.11063797615E+03  0.14276040518E+03  0.54770345703E+03  0.12699999809E+01 0. -1.
</event>
<event>
 5   0  0.6052864E-04  0.1251614E+04  0.7818609E-02  0.9068841E-01
        2   -1    0    0  501    0  0.00000000000E+00  0.00000000000E+00  0.11480577348E+04  0.11480577348E+04  0.25500000920E-02 0.  1.
       -2   -1    0    0    0  501  0.00000000000E+00  0.00000000000E+00 -0.34112766653E+03  0.34112766654E+03  0.25500000920E-02 0. -1.
    10030    2    1    2    0    0  0.00000000000E+00  0.00000000000E+00  0.80693006831E+03  0.14891854014E+04  0.12516137681E+04 0.  0.
        2    1    3    3  502    0  0.29519362313E+03  0.14018282279E+03  0.10384768276E+04  0.10886802195E+04  0.25500000920E-02 0.  1.
       -2    1    3    3    0  502 -0.29519362313E+03 -0.14018282279E+03 -0.23154675929E+03  0.40050518185E+03  0.25500000920E-02 0. -1.
</event>
<event>
 5   0  0.5957913E-04  0.1271731E+04  0.7818609E-02  0.9052288E-01
        2   -1    0    0  501    0  0.00000000000E+00  0.00000000000E+00  0.10711408939E+04  0.10711408939E+04  0.25500000920E-02 0.  1.
       -2   -1    0    0    0  501  0.00000000000E+00  0.00000000000E+00 -0.37747154765E+03  0.37747154766E+03  0.25500000920E-02 0. -1.
    10030    2    1    2    0    0  0.00000000000E+00  0.00000000000E+00  0.69366934628E+03  0.14486124416E+04  0.12717314355E+04 0.  0.
        1    1    3    3  502    0 -0.62163555300E+03 -0.11279393810E+03  0.26491558146E+03  0.68507919144E+03  0.50400001928E-02 0.  1.
       -1    1    3    3    0  502  0.62163555300E+03  0.11279393810E+03  0.42875376482E+03  0.76353325016E+03  0.50400001928E-02 0. -1.
</event>
<event>
 5   0  0.5384960E-04  0.1334683E+04  0.7818609E-02  0.9002505E-01
        2   -1    0    0  501    0  0.00000000000E+00  0.00000000000E+00  0.32661500236E+03  0.32661500237E+03  0.25500000920E-02 0.  1.
       -2   -1    0    0    0  501  0.00000000000E+00  0.00000000000E+00 -0.13635150884E+04  0.13635150884E+04  0.25500000920E-02 0. -1.
    10030    2    1    2    0    0  0.00000000000E+00  0.00000000000E+00 -0.10369000861E+04  0.16901300908E+04  0.13346827096E+04 0.  0.
        3    1    3    3  502    0 -0.39773994700E+03 -0.10949796741E+03 -0.11827020245E+04  0.12525857093E+04  0.10100000352E+00 0. -1.
       -3    1    3    3    0  502  0.39773994700E+03  0.10949796741E+03  0.14580193842E+03  0.43754438147E+03  0.10100000352E+00 0.  1.
</event>
<event>
 5   0  0.2255875E-04  0.1303214E+04  0.7818609E-02  0.9027020E-01
       -3   -1    0    0    0  501  0.00000000000E+00  0.00000000000E+00  0.11238782986E+04  0.11238783032E+04  0.10100000352E+00 0.  1.
        3   -1    0    0  501    0  0.00000000000E+00  0.00000000000E+00 -0.37779175786E+03  0.37779177136E+03  0.10100000352E+00 0. -1.
    10030    2    1    2    0    0  0.00000000000E+00  0.00000000000E+00  0.74608654078E+03  0.15016700745E+04  0.13032144438E+04 0.  0.
        3    1    3    3  502    0 -0.55870339414E+03  0.21266707562E+02  0.75865360352E+03  0.94242084856E+03  0.10100000352E+00 0. -1.
       -3    1    3    3    0  502  0.55870339414E+03 -0.21266707562E+02 -0.12567062739E+02  0.55924922597E+03  0.10100000352E+00 0.  1.
</event>
<event>
 5   0  0.6052864E-04  0.1302694E+04  0.7818609E-02  0.9027431E-01
        2   -1    0    0  501    0  0.00000000000E+00  0.00000000000E+00  0.68706216548E+03  0.68706216548E+03  0.25500000920E-02 0. -1.
       -2   -1    0    0    0  501  0.00000000000E+00  0.00000000000E+00 -0.61748874246E+03  0.61748874247E+03  0.25500000920E-02 0.  1.
    10030    2    1    2    0    0  0.00000000000E+00  0.00000000000E+00  0.69573423011E+02  0.13045509079E+04  0.13026943656E+04 0.  0.
        2    1    3    3  502    0  0.33928892820E+02 -0.29554785419E+03  0.61505486719E+03  0.68322192115E+03  0.25500000920E-02 0. -1.
       -2    1    3    3    0  502 -0.33928892820E+02  0.29554785419E+03 -0.54548144418E+03  0.62132898680E+03  0.25500000920E-02 0.  1.
</event>
<event>
 5   0  0.3263679E-04  0.1299692E+04  0.7818609E-02  0.9029810E-01
        1   -1    0    0  501    0  0.00000000000E+00  0.00000000000E+00  0.20864389690E+03  0.20864389696E+03  0.50400001928E-02 0.  1.
       -1   -1    0    0    0  501  0.00000000000E+00  0.00000000000E+00 -0.20240214425E+04  0.20240214425E+04  0.50400001928E-02 0. -1.
    10030    2    1    2    0    0  0.00000000000E+00  0.00000000000E+00 -0.18153775456E+04  0.22326653395E+04  0.12996918423E+04 0.  0.
        2    1    3    3  502    0  0.16205575758E+03 -0.12145892297E+03 -0.19684272320E+04  0.19788178557E+04  0.25500000920E-02 0. -1.
       -2    1    3    3    0  502 -0.16205575758E+03  0.12145892297E+03  0.15304968633E+03  0.25384748379E+03  0.25500000920E-02 0.  1.
</event>
<event>
 5   0  0.3263679E-04  0.1301998E+04  0.7818609E-02  0.9027982E-01
        1   -1    0    0  501    0  0.00000000000E+00  0.00000000000E+00  0.80925085746E+03  0.80925085747E+03  0.50400001928E-02 0. -1.
       -1   -1    0    0    0  501  0.00000000000E+00  0.00000000000E+00 -0.52369412830E+03  0.52369412833E+03  0.50400001928E-02 0.  1.
    10030    2    1    2    0    0  0.00000000000E+00  0.00000000000E+00  0.28555672916E+03  0.13329449858E+04  0.13019983447E+04 0.  0.
        2    1    3    3  502    0  0.17565048273E+03 -0.49953530010E+03 -0.24491958229E+03  0.58341598360E+03  0.25500000920E-02 0.  1.
       -2    1    3    3    0  502 -0.17565048273E+03  0.49953530010E+03  0.53047631144E+03  0.74952900220E+03  0.25500000920E-02 0. -1.
</event>
<event>
 5   0  0.3274879E-04  0.1296291E+04  0.7818609E-02  0.9032512E-01
        1   -1    0    0  501    0  0.00000000000E+00  0.00000000000E+00  0.27882848186E+04  0.27882848186E+04  0.50400001928E-02 0.  1.
       -1   -1    0    0    0  501  0.00000000000E+00  0.00000000000E+00 -0.15066344664E+03  0.15066344673E+03  0.50400001928E-02 0. -1.
    10030    2    1    2    0    0  0.00000000000E+00  0.00000000000E+00  0.26376213719E+04  0.29389482653E+04  0.12962910184E+04 0.  0.
        4    1    3    3  502    0  0.58511069332E+03 -0.26706766058E+03  0.15003469846E+04  0.16323977290E+04  0.12699999809E+01 0.  1.
       -4    1    3    3    0  502 -0.58511069332E+03  0.26706766058E+03  0.11372743873E+04  0.13065505362E+04  0.12699999809E+01 0. -1.
</event>
<event>
 5   0  0.3337520E-04  0.1309993E+04  0.7818609E-02  0.9021678E-01
       -1   -1    0    0    0  501  0.00000000000E+00  0.00000000000E+00  0.10509276436E+04  0.10509276436E+04  0.50400001928E-02 0. -1.
        1   -1    0    0  501    0  0.00000000000E+00  0.00000000000E+00 -0.40822995741E+03  0.40822995744E+03  0.50400001928E-02 0.  1.
    10030    2    1    2    0    0  0.00000000000E+00  0.00000000000E+00  0.64269768622E+03  0.14591576011E+04  0.13099925912E+04 0.  0.
        5    1    3    3  502    0 -0.13704529687E+03 -0.19961838399E+03  0.99922562902E+03  0.10281550760E+04  0.46999998093E+01 0. -1.
       -5    1    3    3    0  502  0.13704529687E+03  0.19961838399E+03 -0.35652794280E+03  0.43100252507E+03  0.46999998093E+01 0.  1.
</event>
<event>
 5   0  0.3337520E-04  0.1267715E+04  0.7818609E-02  0.9055567E-01
        1   -1    0    0  501    0  0.00000000000E+00  0.00000000000E+00  0.17925877240E+04  0.17925877240E+04  0.50400001928E-02 0.  1.
       -1   -1    0    0    0  501  0.00000000000E+00  0.00000000000E+00 -0.22413145135E+03  0.22413145140E+03  0.50400001928E-02 0. -1.
    10030    2    1    2    0    0  0.00000000000E+00  0.00000000000E+00  0.15684562726E+04  0.20167191754E+04  0.12677149337E+04 0.  0.
        5    1    3    3  502    0 -0.46233202767E+03 -0.54901736467E+02  0.14684480502E+04  0.15404956574E+04  0.46999998093E+01 0.  1.
       -5    1    3    3    0  502  0.46233202767E+03  0.54901736467E+02  0.10000822242E+03  0.47622351793E+03  0.46999998093E+01 0. -1.
</event>
<event>
 5   0  0.5384960E-04  0.1308420E+04  0.7818609E-02  0.9022915E-01
       -2   -1    0    0    0  501  0.00000000000E+00  0.00000000000E+00  0.30810840500E+03  0.30810840501E+03  0.25500000920E-02 0.  1.
        2   -1    0    0  501    0  0.00000000000E+00  0.00000000000E+00 -0.13890911625E+04  0.13890911625E+04  0.25500000920E-02 0. -1.
    10030    2    1    2    0    0  0.00000000000E+00  0.00000000000E+00 -0.10809827575E+04  0.16971995676E+04  0.13084199059E+04 0.  0.
        3    1    3    3  502    0 -0.61155946617E+03  0.79803033715E+02 -0.25743857752E+03  0.66831739185E+03  0.10100000352E+00 0.  1.
       -3    1    3    3    0  502  0.61155946617E+03 -0.79803033715E+02 -0.82354418002E+03  0.10288821757E+04  0.10100000352E+00 0. -1.
</event>
<event>
 5   0  0.5384960E-04  0.1302137E+04  0.7818609E-02  0.9027872E-01
        2   -1    0    0  501    0  0.00000000000E+00  0.00000000000E+00  0.13356518226E+04  0.13356518226E+04  0.25500000920E-02 0.  1.
       -2   -1    0    0    0  501  0.00000000000E+00  0.00000000000E+00 -0.31736585019E+03  0.31736585020E+03  0.25500000920E-02 0. -1.
    10030    2    1    2    0    0  0.00000000000E+00  0.00000000000E+00  0.10182859724E+04  0.16530176728E+04  0.13021371298E+04 0.  0.
        3    1    3    3  502    0 -0.12572404646E+03 -0.44527330185E+03 -0.72343293658E+02  0.46830375990E+03  0.10100000352E+00 0. -1.
       -3    1    3    3    0  502  0.12572404646E+03  0.44527330185E+03  0.10906292660E+04  0.11847139129E+04  0.10100000352E+00 0.  1.
</event>
<event>
 5   0  0.3337520E-04  0.1301707E+04  0.7818609E-02  0.9028213E-01
       -1   -1    0    0    0  501  0.00000000000E+00  0.00000000000E+00  0.58172887447E+03  0.58172887450E+03  0.50400001928E-02 0.  1.
        1   -1    0    0  501    0  0.00000000000E+00  0.00000000000E+00 -0.72819162199E+03  0.72819162201E+03  0.50400001928E-02 0. -1.
    10030    2    1    2    0    0  0.00000000000E+00  0.00000000000E+00 -0.14646274752E+03  0.13099204965E+04  0.13017067146E+04 0.  0.
        5    1    3    3  502    0 -0.25513177203E+03  0.76143716473E+02 -0.67086254233E+03  0.72178163412E+03  0.46999998093E+01 0. -1.
       -5    1    3    3    0  502  0.25513177203E+03 -0.76143716473E+02  0.52439979481E+03  0.58813886239E+03  0.46999998093E+01 0.  1.
</event>
<event>
 5   0  0.5957913E-04  0.1295981E+04  0.7818609E-02  0.9032758E-01
        2   -1    0    0  501    0  0.00000000000E+00  0.00000000000E+00  0.13155565975E+04  0.13155565975E+04  0.25500000920E-02 0. -1.
       -2   -1    0    0    0  501  0.00000000000E+00  0.00000000000E+00 -0.31917436146E+03  0.31917436147E+03  0.25500000920E-02 0.  1.
    10030    2    1    2    0    0  0.00000000000E+00  0.00000000000E+00  0.99638223601E+03  0.16347309590E+04  0.12959813841E+04 0.  0.
        1    1    3    3  502    0 -0.13979611525E+03  0.63141170992E+03  0.54971116237E+03  0.84876737881E+03  0.50400001928E-02 0.  1.
       -1    1    3    3    0  502  0.13979611525E+03 -0.63141170992E+03  0.44667107364E+03  0.78596358015E+03  0.50400001928E-02 0. -1.
</event>
<event>
 5   0  0.3263679E-04  0.1278116E+04  0.7818609E-02  0.9047101E-01
       -1   -1    0    0    0  501  0.00000000000E+00  0.00000000000E+00  0.32085813478E+03  0.32085813482E+03  0.50400001928E-02 0. -1.
        1   -1    0    0  501    0  0.00000000000E+00  0.00000000000E+00 -0.12728220477E+04  0.12728220477E+04  0.50400001928E-02 0.  1.
    10030    2    1    2    0    0  0.00000000000E+00  0.00000000000E+00 -0.95196391287E+03  0.15936801825E+04  0.12781162829E+04 0.  0.
        2    1    3    3  502    0 -0.30991955046E+03 -0.25870014046E+02 -0.11720992635E+04  0.12126566163E+04  0.25500000920E-02 0.  1.
       -2    1    3    3    0  502  0.30991955046E+03  0.25870014046E+02  0.22013535067E+03  0.38102356621E+03  0.25500000920E-02 0. -1.
</event>
<event>
 5   0  0.5384960E-04  0.1301191E+04  0.7818609E-02  0.9028621E-01
       -2   -1    0    0    0  501  0.00000000000E+00  0.00000000000E+00  0.56897156153E+03  0.56897156153E+03  0.25500000920E-02 0. -1.
        2   -1    0    0  501    0  0.00000000000E+00  0.00000000000E+00 -0.74392963175E+03  0.74392963176E+03  0.25500000920E-02 0.  1.
    10030    2    1    2    0    0  0.00000000000E+00  0.00000000000E+00 -0.17495807023E+03  0.13129011933E+04  0.13011914606E+04 0.  0.
        3    1    3    3  502    0  0.21779967317E+03 -0.43679070508E+03  0.34656890800E+03  0.59860908435E+03  0.10100000352E+00 0. -1.
       -3    1    3    3    0  502 -0.21779967317E+03  0.43679070508E+03 -0.52152697823E+03  0.71429210894E+03  0.10100000352E+00 0.  1.
</event>
<event>
 5   0  0.5787604E-04  0.1303189E+04  0.7818609E-02  0.9027040E-01
       -2   -1    0    0    0  501  0.00000000000E+00  0.00000000000E+00  0.58980177549E+03  0.58980177550E+03  0.25500000920E-02 0. -1.
        2   -1    0    0  501    0  0.00000000000E+00  0.00000000000E+00 -0.71986120038E+03  0.71986120038E+03  0.25500000920E-02 0.  1.
    10030    2    1    2    0    0  0.00000000000E+00  0.00000000000E+00 -0.13005942489E+03  0.13096629759E+04  0.13031890333E+04 0.  0.
        4    1    3    3  502    0  0.27929760713E+03  0.22682710180E+03  0.48091491335E+03  0.60061506329E+03  0.12699999809E+01 0. -1.
       -4    1    3    3    0  502 -0.27929760713E+03 -0.22682710180E+03 -0.61097433824E+03  0.70904791259E+03  0.12699999809E+01 0.  1.
</event>
<event>
 5   0  0.6007125E-04  0.1301147E+04  0.7818609E-02  0.9028656E-01
        2   -1    0    0  501    0  0.00000000000E+00  0.00000000000E+00  0.10317550287E+04  0.10317550287E+04  0.25500000920E-02 0. -1.
       -2   -1    0    0    0  501  0.00000000000E+00  0.00000000000E+00 -0.41021908823E+03  0.41021908824E+03  0.25500000920E-02 0.  1.
    10030    2    1    2    0    0  0.00000000000E+00  0.00000000000E+00  0.62153594042E+03  0.14419741169E+04  0.13011465823E+04 0.  0.
        5    1    3    3  502    0  0.37427569610E+03 -0.45528788921E+03  0.55423838248E+01  0.58942528515E+03  0.46999998093E+01 0.  1.
       -5    1    3    3    0  502 -0.37427569610E+03  0.45528788921E+03  0.61599355659E+03  0.85254883175E+03  0.46999998093E+01 0. -1.
</event>
<event>
 5   0  0.3403833E-04  0.1294059E+04  0.7818609E-02  0.9034290E-01
       -1   -1    0    0    0  501  0.00000000000E+00  0.00000000000E+00  0.28899035933E+03  0.28899035937E+03  0.50400001928E-02 0.  1.
        1   -1    0    0  501    0  0.00000000000E+00  0.00000000000E+00 -0.14486533553E+04  0.14486533554E+04  0.50400001928E-02 0. -1.
    10030    2    1    2    0    0  0.00000000000E+00  0.00000000000E+00 -0.11596629960E+04  0.17376437147E+04  0.12940585052E+04 0.  0.
        1    1    3    3  502    0  0.19110775412E+03 -0.39295974058E+03 -0.12205913914E+04  0.12964501055E+04  0.50400001928E-02 0.  1.
       -1    1    3    3    0  502 -0.19110775412E+03  0.39295974058E+03  0.60928395375E+02  0.44119360918E+03  0.50400001928E-02 0. -1.
</event>
<event>
 5   0  0.3403833E-04  0.1230855E+04  0.7818609E-02  0.9086269E-01
       -1   -1    0    0    0  501  0.00000000000E+00  0.00000000000E+00  0.61740800461E+03  0.61740800464E+03  0.50400001928E-02 0. -1.
        1   -1    0    0  501    0  0.00000000000E+00  0.00000000000E+00 -0.61345372174E+03  0.61345372176E+03  0.50400001928E-02 0.  1.
    10030    2    1    2    0    0  0.00000000000E+00  0.00000000000E+00  0.39542828747E+01  0.12308617264E+04  0.12308553746E+04 0.  0.
        1    1    3    3  502    0 -0.39567774551E+03  0.33423758860E+03  0.33435754783E+03  0.61649867295E+03  0.50400001928E-02 0. -1.
       -1    1    3    3    0  502  0.39567774551E+03 -0.33423758860E+03 -0.33040326496E+03  0.61436305345E+03  0.50400001928E-02 0.  1.
</event>
<event>
 5   0  0.3274879E-04  0.1303273E+04  0.7818609E-02  0.9026974E-01
       -1   -1    0    0    0  501  0.00000000000E+00  0.00000000000E+00  0.27135510342E+03  0.27135510346E+03  0.50400001928E-02 0. -1.
        1   -1    0    0  501    0  0.00000000000E+00  0.00000000000E+00 -0.15648493109E+04  0.15648493109E+04  0.50400001928E-02 0.  1.
    10030    2    1    2    0    0  0.00000000000E+00  0.00000000000E+00 -0.12934942075E+04  0.18362044144E+04  0.13032725680E+04 0.  0.
        4    1    3    3  502    0 -0.42896771276E+03  0.36423967707E+03 -0.11096456500E+04  0.12441860482E+04  0.12699999809E+01 0.  1.
       -4    1    3    3    0  502  0.42896771276E+03 -0.36423967707E+03 -0.18384855746E+03  0.59201836620E+03  0.12699999809E+01 0. -1.
</event>
<event>
 5   0  0.3337520E-04  0.1302505E+04  0.7818609E-02  0.9027581E-01
        1   -1    0    0  501    0  0.00000000000E+00  0.00000000000E+00  0.62993889993E+03  0.62993889995E+03  0.50400001928E-02 0.  1.
       -1   -1    0    0    0  501  0.00000000000E+00  0.00000000000E+00 -0.67328752819E+03  0.67328752821E+03  0.50400001928E-02 0. -1.
    10030    2    1    2    0    0  0.00000000000E+00  0.00000000000E+00 -0.43348628260E+02  0.13032264282E+04  0.13025052858E+04 0.  0.
        5    1    3    3  502    0  0.60410034295E+03 -0.19091436684E+03 -0.17249726626E+03  0.65662996937E+03  0.46999998093E+01 0. -1.
       -5    1    3    3    0  502 -0.60410034295E+03  0.19091436684E+03  0.12914863800E+03  0.64659645878E+03  0.46999998093E+01 0.  1.
</event>
<event>
 5   0  0.5384960E-04  0.1372806E+04  0.7818609E-02  0.8973741E-01
        2   -1    0    0  501    0  0.00000000000E+00  0.00000000000E+00  0.55535181016E+03  0.55535181016E+03  0.25500000920E-02 0.  1.
       -2   -1    0    0    0  501  0.00000000000E+00  0.00000000000E+00 -0.84837966214E+03  0.84837966214E+03  0.25500000920E-02 0. -1.
    10030    2    1    2    0    0  0.00000000000E+00  0.00000000000E+00 -0.29302785198E+03  0.14037314723E+04  0.13728061496E+04 0.  0.
        3    1    3    3  502    0 -0.67874717712E+03  0.23104091011E+02 -0.24834469463E+03  0.72312282983E+03  0.10100000352E+00 0. -1.
       -3    1    3    3    0  502  0.67874717712E+03 -0.23104091011E+02 -0.44683157355E+02  0.68060864248E+03  0.10100000352E+00 0.  1.
</event>
<event>
 5   0  0.3263679E-04  0.1290336E+04  0.7818609E-02  0.9037264E-01
        1   -1    0    0  501    0  0.00000000000E+00  0.00000000000E+00  0.88409946041E+03  0.88409946042E+03  0.50400001928E-02 0. -1.
       -1   -1    0    0    0  501  0.00000000000E+00  0.00000000000E+00 -0.47080899439E+03  0.47080899442E+03  0.50400001928E-02 0.  1.
    10030    2    1    2    0    0  0.00000000000E+00  0.00000000000E+00  0.41329046602E+03  0.13549084548E+04  0.12903363560E+04 0.  0.
        2    1    3    3  502    0 -0.56979962727E+03 -0.25711302784E+03  0.37420276952E+03  0.72856464163E+03  0.25500000920E-02 0. -1.
       -2    1    3    3    0  502  0.56979962727E+03  0.25711302784E+03  0.39087696505E+02  0.62634381321E+03  0.25500000920E-02 0.  1.
</event>
<event>
 5   0  0.3274879E-04  0.1296377E+04  0.7818609E-02  0.9032443E-01
       -1   -1    0    0    0  501  0.00000000000E+00  0.00000000000E+00  0.36868533131E+03  0.36868533135E+03  0.50400001928E-02 0. -1.
        1   -1    0    0  501    0  0.00000000000E+00  0.00000000000E+00 -0.11395856689E+04  0.11395856689E+04  0.50400001928E-02 0.  1.
    10030    2    1    2    0    0  0.00000000000E+00  0.00000000000E+00 -0.77090033758E+03  0.15082710002E+04  0.12963772906E+04 0.  0.
        4    1    3    3  502    0 -0.44469442115E+03 -0.26224014440E+03 -0.84146328968E+03  0.98721076894E+03  0.12699999809E+01 0.  1.
       -4    1    3    3    0  502  0.44469442115E+03  0.26224014440E+03  0.70562952101E+02  0.52106023130E+03  0.12699999809E+01 0. -1.
</event>
<event>
 5   0  0.3335747E-04  0.1301431E+04  0.7818609E-02  0.9028431E-01
        1   -1    0    0  501    0  0.00000000000E+00  0.00000000000E+00  0.16811959175E+04  0.16811959175E+04  0.50400001928E-02 0.  1.
       -1   -1    0    0    0  501  0.00000000000E+00  0.00000000000E+00 -0.25186266991E+03  0.25186266996E+03  0.50400001928E-02 0. -1.
    10030    2    1    2    0    0  0.00000000000E+00  0.00000000000E+00  0.14293332476E+04  0.19330585875E+04  0.13014307396E+04 0.  0.
        3    1    3    3  502    0  0.52741929167E+03 -0.20765197913E+03  0.11893695884E+04  0.13175319661E+04  0.10100000352E+00 0.  1.
       -3    1    3    3    0  502 -0.52741929167E+03  0.20765197913E+03  0.23996365915E+03  0.61552662134E+03  0.10100000352E+00 0. -1.
</event>
<event>
 5   0  0.3274879E-04  0.1297313E+04  0.7818609E-02  0.9031699E-01
        1   -1    0    0  501    0  0.00000000000E+00  0.00000000000E+00  0.14656148200E+04  0.14656148200E+04  0.50400001928E-02 0.  1.
       -1   -1    0    0    0  501  0.00000000000E+00  0.00000000000E+00 -0.28708449439E+03  0.28708449443E+03  0.50400001928E-02 0. -1.
    10030    2    1    2    0    0  0.00000000000E+00  0.00000000000E+00  0.11785303256E+04  0.17526993145E+04  0.12973130534E+04 0.  0.
        4    1    3    3  502    0 -0.23336560811E+03  0.58743658721E+03  0.39249565660E+03  0.74404012283E+03  0.12699999809E+01 0. -1.
       -4    1    3    3    0  502  0.23336560811E+03 -0.58743658721E+03  0.78603466905E+03  0.10086591916E+04  0.12699999809E+01 0.  1.
</event>
<event>
 5   0  0.6052864E-04  0.1299082E+04  0.7818609E-02  0.9030293E-01
       -2   -1    0    0    0  501  0.00000000000E+00  0.00000000000E+00  0.19512943340E+03  0.19512943341E+03  0.25500000920E-02 0. -1.
        2   -1    0    0  501    0  0.00000000000E+00  0.00000000000E+00 -0.21621740938E+04  0.21621740938E+04  0.25500000920E-02 0.  1.
    10030    2    1    2    0    0  0.00000000000E+00  0.00000000000E+00 -0.19670446604E+04  0.23573035272E+04  0.12990824544E+04 0.  0.
        2    1    3    3  502    0 -0.78266575118E+02  0.61111127348E+03 -0.61022268870E+03  0.86715302869E+03  0.25500000920E-02 0. -1.
       -2    1    3    3    0  502  0.78266575118E+02 -0.61111127348E+03 -0.13568219717E+04  0.14901504986E+04  0.25500000920E-02 0.  1.
</event>
<event>
 5   0  0.6007125E-04  0.1299829E+04  0.7818609E-02  0.9029701E-01
        2   -1    0    0  501    0  0.00000000000E+00  0.00000000000E+00  0.68930491214E+03  0.68930491214E+03  0.25500000920E-02 0. -1.
       -2   -1    0    0    0  501  0.00000000000E+00  0.00000000000E+00 -0.61277467870E+03  0.61277467871E+03  0.25500000920E-02 0.  1.
    10030    2    1    2    0    0  0.00000000000E+00  0.00000000000E+00  0.76530233434E+02  0.13020795908E+04  0.12998285980E+04 0.  0.
        5    1    3    3  502    0  0.62176264910E+03  0.85241114189E+02 -0.13088127851E+03  0.64109815038E+03  0.46999998093E+01 0.  1.
       -5    1    3    3    0  502 -0.62176264910E+03 -0.85241114189E+02  0.20741151194E+03  0.66098144047E+03  0.46999998093E+01 0. -1.
</event>
<event>
 5   0  0.5384960E-04  0.1293679E+04  0.7818609E-02  0.9034593E-01
       -2   -1    0    0    0  501  0.00000000000E+00  0.00000000000E+00  0.37614081866E+03  0.37614081867E+03  0.25500000920E-02 0.  1.
        2   -1    0    0  501    0  0.00000000000E+00  0.00000000000E+00 -0.11123535253E+04  0.11123535253E+04  0.25500000920E-02 0. -1.
    10030    2    1    2    0    0  0.00000000000E+00  0.00000000000E+00 -0.73621270665E+03  0.14884943440E+04  0.12936793508E+04 0.  0.
        3    1    3    3  502    0  0.30331289990E+03  0.30389708943E+03  0.18853351408E+03  0.46893182057E+03  0.10100000352E+00 0.  1.
       -3    1    3    3    0  502 -0.30331289990E+03 -0.30389708943E+03 -0.92474622073E+03  0.10195625234E+04  0.10100000352E+00 0. -1.
</event>
<event>
 5   0  0.6007125E-04  0.1295188E+04  0.7818609E-02  0.9033389E-01
       -2   -1    0    0    0  501  0.00000000000E+00  0.00000000000E+00  0.31140648319E+03  0.31140648320E+03  0.25500000920E-02 0.  1.
        2   -1    0    0  501    0  0.00000000000E+00  0.00000000000E+00 -0.13467230213E+04  0.13467230213E+04  0.25500000920E-02 0. -1.
    10030    2    1    2    0    0  0.00000000000E+00  0.00000000000E+00 -0.10353165381E+04  0.16581295045E+04  0.12951884495E+04 0.  0.
        5    1    3    3  502    0 -0.58394300376E+03 -0.27806226487E+03 -0.55910536650E+03  0.85494383186E+03  0.46999998093E+01 0. -1.
       -5    1    3    3    0  502  0.58394300376E+03  0.27806226487E+03 -0.47621117160E+03  0.80318567265E+03  0.46999998093E+01 0.  1.
</event>
<event>
 5   0  0.3274879E-04  0.1298162E+04  0.7818609E-02  0.9031024E-01
        1   -1    0    0  501    0  0.00000000000E+00  0.00000000000E+00  0.55262860870E+03  0.55262860872E+03  0.50400001928E-02 0.  1.
       -1   -1    0    0    0  501  0.00000000000E+00  0.00000000000E+00 -0.76236708707E+03  0.76236708708E+03  0.50400001928E-02 0. -1.
    10030    2    1    2    0    0  0.00000000000E+00  0.00000000000E+00 -0.20973847837E+03  0.13149956958E+04  0.12981615657E+04 0.  0.
        4    1    3    3  502    0  0.44142320459E+02  0.26814626172E+03 -0.70196473767E+03  0.75273306555E+03  0.12699999809E+01 0. -1.
       -4    1    3    3    0  502 -0.44142320459E+02 -0.26814626172E+03  0.49222625931E+03  0.56226263026E+03  0.12699999809E+01 0.  1.
</event>
<event>
 5   0  0.3335747E-04  0.1222260E+04  0.7818609E-02  0.9093592E-01
        1   -1    0    0  501    0  0.00000000000E+00  0.00000000000E+00  0.10548032853E+04  0.10548032853E+04  0.50400001928E-02 0. -1.
       -1   -1    0    0    0  501  0.00000000000E+00  0.00000000000E+00 -0.35407538490E+03  0.35407538494E+03  0.50400001928E-02 0.  1.
    10030    2    1    2    0    0  0.00000000000E+00  0.00000000000E+00  0.70072790040E+03  0.14088786703E+04  0.12222600039E+04 0.  0.
        3    1    3    3  502    0 -0.23007816921E+03  0.32722806319E+03 -0.18220279478E+03  0.43955891290E+03  0.10100000352E+00 0.  1.
       -3    1    3    3    0  502  0.23007816921E+03 -0.32722806319E+03  0.88293069519E+03  0.96931975735E+03  0.10100000352E+00 0. -1.
</event>
<event>
 5   0  0.3335747E-04  0.1300140E+04  0.7818609E-02  0.9029454E-01
        1   -1    0    0  501    0  0.00000000000E+00  0.00000000000E+00  0.70507246419E+03  0.70507246421E+03  0.50400001928E-02 0. -1.
       -1   -1    0    0    0  501  0.00000000000E+00  0.00000000000E+00 -0.59935817526E+03  0.59935817529E+03  0.50400001928E-02 0.  1.
    10030    2    1    2    0    0  0.00000000000E+00  0.00000000000E+00  0.10571428892E+03  0.13044306395E+04  0.13001399088E+04 0.  0.
        3    1    3    3  502    0 -0.49450060738E+03 -0.38261890064E+03  0.23138499776E+03  0.66668365903E+03  0.10100000352E+00 0. -1.
       -3    1    3    3    0  502  0.49450060738E+03  0.38261890064E+03 -0.12567070884E+03  0.63774698046E+03  0.10100000352E+00 0.  1.
</event>
<event>
 5   0  0.3337520E-04  0.1301644E+04  0.7818609E-02  0.9028263E-01
       -1   -1    0    0    0  501  0.00000000000E+00  0.00000000000E+00  0.60384967653E+03  0.60384967655E+03  0.50400001928E-02 0. -1.
        1   -1    0    0  501    0  0.00000000000E+00  0.00000000000E+00 -0.70144779170E+03  0.70144779172E+03  0.50400001928E-02 0.  1.
    10030    2    1    2    0    0  0.00000000000E+00  0.00000000000E+00 -0.97598115171E+02  0.13052974683E+04  0.13016436104E+04 0.  0.
        5    1    3    3  502    0 -0.40981327165E+03 -0.47896893912E+03  0.11348466251E+03  0.64051465314E+03  0.46999998093E+01 0.  1.
       -5    1    3    3    0  502  0.40981327165E+03  0.47896893912E+03 -0.21108277768E+03  0.66478281513E+03  0.46999998093E+01 0. -1.
</event>
<event>
 5   0  0.6052864E-04  0.1299804E+04  0.7818609E-02  0.9029721E-01
        2   -1    0    0  501    0  0.00000000000E+00  0.00000000000E+00  0.85843460317E+03  0.85843460317E+03  0.25500000920E-02 0. -1.
       -2   -1    0    0    0  501  0.00000000000E+00  0.00000000000E+00 -0.49202616581E+03  0.49202616582E+03  0.25500000920E-02 0.  1.
    10030    2    1    2    0    0  0.00000000000E+00  0.00000000000E+00  0.36640843736E+03  0.13504607690E+04  0.12998035027E+04 0.  0.
        2    1    3    3  502    0  0.48348823327E+03 -0.37961654767E+03 -0.35974007530E+02  0.61576271745E+03  0.25500000920E-02 0.  1.
       -2    1    3    3    0  502 -0.48348823327E+03  0.37961654767E+03  0.40238244489E+03  0.73469805154E+03  0.25500000920E-02 0. -1.
</event>
<event>
 5   0  0.5384960E-04  0.1303215E+04  0.7818609E-02  0.9027020E-01
        2   -1    0    0  501    0  0.00000000000E+00  0.00000000000E+00  0.13452578997E+04  0.13452578997E+04  0.25500000920E-02 0.  1.
       -2   -1    0    0    0  501  0.00000000000E+00  0.00000000000E+00 -0.31562150920E+03  0.31562150921E+03  0.25500000920E-02 0. -1.
    10030    2    1    2    0    0  0.00000000000E+00  0.00000000000E+00  0.10296363905E+04  0.16608794089E+04  0.13032149916E+04 0.  0.
        3    1    3    3  502    0  0.62615030749E+02 -0.64622249768E+03  0.58541109486E+03  0.87420267603E+03  0.10100000352E+00 0. -1.
       -3    1    3    3    0  502 -0.62615030749E+02  0.64622249768E+03  0.44422529563E+03  0.78667673289E+03  0.10100000352E+00 0.  1.
</event>
<event>
 5   0  0.5384960E-04  0.1299212E+04  0.7818609E-02  0.9030190E-01
       -2   -1    0    0    0  501  0.00000000000E+00  0.00000000000E+00  0.41002129164E+03  0.41002129165E+03  0.25500000920E-02 0.  1.
        2   -1    0    0  501    0  0.00000000000E+00  0.00000000000E+00 -0.10291852373E+04  0.10291852374E+04  0.25500000920E-02 0. -1.
    10030    2    1    2    0    0  0.00000000000E+00  0.00000000000E+00 -0.61916394571E+03  0.14392065290E+04  0.12992118540E+04 0.  0.
        3    1    3    3  502    0 -0.14663044842E+03  0.57209148639E+03 -0.98764063417E+01  0.59066632781E+03  0.10100000352E+00 0.  1.
       -3    1    3    3    0  502  0.14663044842E+03 -0.57209148639E+03 -0.60928753937E+03  0.84854020119E+03  0.10100000352E+00 0. -1.
</event>
<event>
 5   0  0.3263679E-04  0.1289867E+04  0.7818609E-02  0.9037640E-01
       -1   -1    0    0    0  501  0.00000000000E+00  0.00000000000E+00  0.29410564153E+03  0.29410564157E+03  0.50400001928E-02 0.  1.
        1   -1    0    0  501    0  0.00000000000E+00  0.00000000000E+00 -0.14142505327E+04  0.14142505327E+04  0.50400001928E-02 0. -1.
    10030    2    1    2    0    0  0.00000000000E+00  0.00000000000E+00 -0.11201448911E+04  0.17083561742E+04  0.12898667532E+04 0.  0.
        2    1    3    3  502    0  0.57406528859E+03 -0.40699341502E+02 -0.17454397853E+03  0.60139254436E+03  0.25500000920E-02 0.  1.
       -2    1    3    3    0  502 -0.57406528859E+03  0.40699341502E+02 -0.94560091261E+03  0.11069636299E+04  0.25500000920E-02 0. -1.
</event>
<event>
 5   0  0.5787604E-04  0.1311915E+04  0.7818609E-02  0.9020169E-01
        2   -1    0    0  501    0  0.00000000000E+00  0.00000000000E+00  0.69785581468E+03  0.69785581469E+03  0.25500000920E-02 0.  1.
       -2   -1    0    0    0  501  0.00000000000E+00  0.00000000000E+00 -0.61657502480E+03  0.61657502481E+03  0.25500000920E-02 0. -1.
    10030    2    1    2    0    0  0.00000000000E+00  0.00000000000E+00  0.81280789877E+02  0.13144308395E+04  0.13119153422E+04 0.  0.
        4    1    3    3  502    0  0.18919693449E+03  0.27545214402E+03  0.60617773210E+03  0.69218669407E+03  0.12699999809E+01 0.  1.
       -4    1    3    3    0  502 -0.18919693449E+03 -0.27545214402E+03 -0.52489694222E+03  0.62224414542E+03  0.12699999809E+01 0. -1.
</event>
<event>
 5   0  0.5384960E-04  0.1292798E+04  0.7818609E-02  0.9035296E-01
        2   -1    0    0  501    0  0.00000000000E+00  0.00000000000E+00  0.99137039327E+03  0.99137039328E+03  0.25500000920E-02 0. -1.
       -2   -1    0    0    0  501  0.00000000000E+00  0.00000000000E+00 -0.42146858881E+03  0.42146858882E+03  0.25500000920E-02 0.  1.
    10030    2    1    2    0    0  0.00000000000E+00  0.00000000000E+00  0.56990180447E+03  0.14128389821E+04  0.12927977114E+04 0.  0.
        3    1    3    3  502    0  0.13193182255E+03  0.62822176841E+03  0.20198843306E+03  0.67295462953E+03  0.10100000352E+00 0.  1.
       -3    1    3    3    0  502 -0.13193182255E+03 -0.62822176841E+03  0.36791337141E+03  0.73988435257E+03  0.10100000352E+00 0. -1.
</event>
<event>
 5   0  0.5384960E-04  0.1301483E+04  0.7818609E-02  0.9028390E-01
        2   -1    0    0  501    0  0.00000000000E+00  0.00000000000E+00  0.15710885863E+04  0.15710885863E+04  0.25500000920E-02 0.  1.
       -2   -1    0    0    0  501  0.00000000000E+00  0.00000000000E+00 -0.26953564236E+03  0.26953564237E+03  0.25500000920E-02 0. -1.
    10030    2    1    2    0    0  0.00000000000E+00  0.00000000000E+00  0.13015529439E+04  0.18406242287E+04  0.13014828025E+04 0.  0.
        3    1    3    3  502    0  0.19636868715E+03 -0.51757301984E+03  0.11345701797E+04  0.12624151437E+04  0.10100000352E+00 0.  1.
       -3    1    3    3    0  502 -0.19636868715E+03  0.51757301984E+03  0.16698276420E+03  0.57820908494E+03  0.10100000352E+00 0. -1.
</event>
<event>
 5   0  0.2255875E-04  0.1307950E+04  0.7818609E-02  0.9023285E-01
        3   -1    0    0  501    0  0.00000000000E+00  0.00000000000E+00  0.52310625725E+03  0.52310626700E+03  0.10100000352E+00 0.  1.
       -3   -1    0    0    0  501  0.00000000000E+00  0.00000000000E+00 -0.81758366426E+03  0.81758367050E+03  0.10100000352E+00 0. -1.
    10030    2    1    2    0    0  0.00000000000E+00  0.00000000000E+00 -0.29447740701E+03  0.13406899375E+04  0.13079497564E+04 0.  0.
        5    1    3    3  502    0  0.10970789856E+02  0.65290824919E+03 -0.11097646045E+03  0.66238010603E+03  0.46999998093E+01 0.  1.
       -5    1    3    3    0  502 -0.10970789856E+02 -0.65290824919E+03 -0.18350094655E+03  0.67830983147E+03  0.46999998093E+01 0. -1.
</event>
<event>
 5   0  0.5384960E-04  0.1293386E+04  0.7818609E-02  0.9034827E-01
        2   -1    0    0  501    0  0.00000000000E+00  0.00000000000E+00  0.39190056684E+03  0.39190056685E+03  0.25500000920E-02 0.  1.
       -2   -1    0    0    0  501  0.00000000000E+00  0.00000000000E+00 -0.10671371581E+04  0.10671371581E+04  0.25500000920E-02 0. -1.
    10030    2    1    2    0    0  0.00000000000E+00  0.00000000000E+00 -0.67523659121E+03  0.14590377249E+04  0.12933857230E+04 0.  0.
        3    1    3    3  502    0  0.25684923007E+03 -0.43473031839E+03  0.11817151783E+03  0.51858123234E+03  0.10100000352E+00 0.  1.
       -3    1    3    3    0  502 -0.25684923007E+03  0.43473031839E+03 -0.79340810904E+03  0.94045649256E+03  0.10100000352E+00 0. -1.
</event>
<event>
 5   0  0.6007125E-04  0.1302142E+04  0.7818609E-02  0.9027868E-01
       -2   -1    0    0    0  501  0.00000000000E+00  0.00000000000E+00  0.31584164707E+03  0.31584164708E+03  0.25500000920E-02 0.  1.
        2   -1    0    0  501    0  0.00000000000E+00  0.00000000000E+00 -0.13421085273E+04  0.13421085273E+04  0.25500000920E-02 0. -1.
    10030    2    1    2    0    0  0.00000000000E+00  0.00000000000E+00 -0.10262668802E+04  0.16579501744E+04  0.13021424927E+04 0.  0.
        5    1    3    3  502    0  0.39825795075E+03 -0.32470142711E+03 -0.41029077840E+01  0.51388650104E+03  0.46999998093E+01 0.  1.
       -5    1    3    3    0  502 -0.39825795075E+03  0.32470142711E+03 -0.10221639725E+04  0.11440636734E+04  0.46999998093E+01 0. -1.
</event>
<event>
 5   0  0.3335747E-04  0.1300392E+04  0.7818609E-02  0.9029254E-01
        1   -1    0    0  501    0  0.00000000000E+00  0.00000000000E+00  0.68390071960E+03  0.68390071961E+03  0.50400001928E-02 0.  1.
       -1   -1    0    0    0  501  0.00000000000E+00  0.00000000000E+00 -0.61815268025E+03  0.61815268027E+03  0.50400001928E-02 0. -1.
    10030    2    1    2    0    0  0.00000000000E+00  0.00000000000E+00  0.65748039344E+02  0.13020533999E+04  0.13003923452E+04 0.  0.
        3    1    3    3  502    0 -0.19196006615E+03  0.42231255064E+01 -0.58911875288E+03  0.61961876745E+03  0.10100000352E+00 0. -1.
       -3    1    3    3    0  502  0.19196006615E+03 -0.42231255064E+01  0.65486679222E+03  0.68243463243E+03  0.10100000352E+00 0.  1.
</event>
<event>
 5   0  0.2255875E-04  0.1298805E+04  0.7818609E-02  0.9030514E-01
       -3   -1    0    0    0  501  0.00000000000E+00  0.00000000000E+00  0.34579270964E+03  0.34579272439E+03  0.10100000352E+00 0.  1.
        3   -1    0    0  501    0  0.00000000000E+00  0.00000000000E+00 -0.12195843169E+04  0.12195843210E+04  0.10100000352E+00 0. -1.
    10030    2    1    2    0    0  0.00000000000E+00  0.00000000000E+00 -0.87379160722E+03  0.15653770454E+04  0.12988046510E+04 0.  0.
        3    1    3    3  502    0 -0.38187924166E+02  0.58649164296E+03 -0.10399384605E+03  0.59686304546E+03  0.10100000352E+00 0.  1.
       -3    1    3    3    0  502  0.38187924166E+02 -0.58649164296E+03 -0.76979776117E+03  0.96851399996E+03  0.10100000352E+00 0. -1.
</event>
<event>
 5   0  0.3263679E-04  0.1299064E+04  0.7818609E-02  0.9030308E-01
        1   -1    0    0  501    0  0.00000000000E+00  0.00000000000E+00  0.68765281127E+03  0.68765281129E+03  0.50400001928E-02 0. -1.
       -1   -1    0    0    0  501  0.00000000000E+00  0.00000000000E+00 -0.61352466692E+03  0.61352466694E+03  0.50400001928E-02 0.  1.
    10030    2    1    2    0    0  0.00000000000E+00  0.00000000000E+00  0.74128144348E+02  0.13011774782E+04  0.12990642202E+04 0.  0.
        2    1    3    3  502    0 -0.63507422684E+03  0.47261868565E+01  0.17348531094E+03  0.65836066374E+03  0.25500000920E-02 0.  1.
       -2    1    3    3    0  502  0.63507422684E+03 -0.47261868565E+01 -0.99357166591E+02  0.64281681450E+03  0.25500000920E-02 0. -1.
</event>
<event>
 5   0  0.3274879E-04  0.1311152E+04  0.7818609E-02  0.9020768E-01
        1   -1    0    0  501    0  0.00000000000E+00  0.00000000000E+00  0.98375600863E+03  0.98375600864E+03  0.50400001928E-02 0. -1.
       -1   -1    0    0    0  501  0.00000000000E+00  0.00000000000E+00 -0.43687650757E+03  0.43687650760E+03  0.50400001928E-02 0.  1.
    10030    2    1    2    0    0  0.00000000000E+00  0.00000000000E+00  0.54687950106E+03  0.14206325162E+04  0.13111519963E+04 0.  0.
        4    1    3    3  502    0 -0.54637163199E+03 -0.21759568256E+03  0.58729653517E+03  0.83113697694E+03  0.12699999809E+01 0. -1.
       -4    1    3    3    0  502  0.54637163199E+03  0.21759568256E+03 -0.40417034106E+02  0.58949553930E+03  0.12699999809E+01 0.  1.
</event>
<event>
 5   0  0.5384960E-04  0.1305098E+04  0.7818609E-02  0.9025532E-01
        2   -1    0    0  501    0  0.00000000000E+00  0.00000000000E+00  0.62950944447E+03  0.62950944447E+03  0.25500000920E-02 0. -1.
       -2   -1    0    0    0  501  0.00000000000E+00  0.00000000000E+00 -0.67643145132E+03  0.67643145133E+03  0.25500000920E-02 0.  1.
    10030    2    1    2    0    0  0.00000000000E+00  0.00000000000E+00 -0.46922006855E+02  0.13059408958E+04  0.13050976778E+04 0.  0.
        3    1    3    3  502    0  0.29758611501E+02  0.40637336601E+03 -0.53349129940E+03  0.67129566087E+03  0.10100000352E+00 0.  1.
       -3    1    3    3    0  502 -0.29758611501E+02 -0.40637336601E+03  0.48656929255E+03  0.63464523493E+03  0.10100000352E+00 0. -1.
</event>
<event>
 5   0  0.5384960E-04  0.1300647E+04  0.7818609E-02  0.9029052E-01
        2   -1    0    0  501    0  0.00000000000E+00  0.00000000000E+00  0.15644443943E+04  0.15644443943E+04  0.25500000920E-02 0. -1.
       -2   -1    0    0    0  501  0.00000000000E+00  0.00000000000E+00 -0.27033270687E+03  0.27033270688E+03  0.25500000920E-02 0.  1.
    10030    2    1    2    0    0  0.00000000000E+00  0.00000000000E+00  0.12941116874E+04  0.18347771012E+04  0.13006467435E+04 0.  0.
        3    1    3    3  502    0 -0.22564268015E+03 -0.24835172799E+03 -0.13878379117E+03  0.36311726865E+03  0.10100000352E+00 0.  1.
       -3    1    3    3    0  502  0.22564268015E+03  0.24835172799E+03  0.14328954786E+04  0.14716598325E+04  0.10100000352E+00 0. -1.
</event>
<event>
 5   0  0.5957913E-04  0.1300640E+04  0.7818609E-02  0.9029058E-01
       -2   -1    0    0    0  501  0.00000000000E+00  0.00000000000E+00  0.23322328369E+03  0.23322328370E+03  0.25500000920E-02 0.  1.
        2   -1    0    0  501    0  0.00000000000E+00  0.00000000000E+00 -0.18133517296E+04  0.18133517296E+04  0.25500000920E-02 0. -1.
    10030    2    1    2    0    0  0.00000000000E+00  0.00000000000E+00 -0.15801284459E+04  0.20465750133E+04  0.13006396040E+04 0.  0.
        1    1    3    3  502    0  0.18229320235E+02  0.45007505469E+03 -0.15281346561E+04  0.15931401038E+04  0.50400001928E-02 0. -1.
       -1    1    3    3    0  502 -0.18229320235E+02 -0.45007505469E+03 -0.51993789767E+02  0.45343490952E+03  0.50400001928E-02 0.  1.
</event>
<event>
 5   0  0.3403833E-04  0.1355593E+04  0.7818609E-02  0.8986605E-01
        1   -1    0    0  501    0  0.00000000000E+00  0.00000000000E+00  0.14803094503E+04  0.14803094503E+04  0.50400001928E-02 0. -1.
       -1   -1    0    0    0  501  0.00000000000E+00  0.00000000000E+00 -0.31034588394E+03  0.31034588398E+03  0.50400001928E-02 0.  1.
    10030    2    1    2    0    0  0.00000000000E+00  0.00000000000E+00  0.11699635664E+04  0.17906553343E+04  0.13555927779E+04 0.  0.
        1    1    3    3  502    0 -0.13485197610E+03 -0.33025707590E+03  0.13462749720E+04  0.13927351119E+04  0.50400001928E-02 0. -1.
       -1    1    3    3    0  502  0.13485197610E+03  0.33025707590E+03 -0.17631140561E+03  0.39792022242E+03  0.50400001928E-02 0.  1.
</event>
<event>
 5   0  0.6052864E-04  0.1300560E+04  0.7818609E-02  0.9029121E-01
        2   -1    0    0  501    0  0.00000000000E+00  0.00000000000E+00  0.22507268635E+04  0.22507268635E+04  0.25500000920E-02 0. -1.
       -2   -1    0    0    0  501  0.00000000000E+00  0.00000000000E+00 -0.18787895045E+03  0.18787895047E+03  0.25500000920E-02 0.  1.
    10030    2    1    2    0    0  0.00000000000E+00  0.00000000000E+00  0.20628479130E+04  0.24386058139E+04  0.13005601883E+04 0.  0.
        2    1    3    3  502    0 -0.40160453801E+03  0.49262683475E+03  0.77367005068E+03  0.10012655745E+04  0.25500000920E-02 0.  1.
       -2    1    3    3    0  502  0.40160453801E+03 -0.49262683475E+03  0.12891778623E+04  0.14373402395E+04  0.25500000920E-02 0. -1.
</event>
<event>
 5   0  0.5384960E-04  0.1299297E+04  0.7818609E-02  0.9030123E-01
        2   -1    0    0  501    0  0.00000000000E+00  0.00000000000E+00  0.32669378237E+03  0.32669378238E+03  0.25500000920E-02 0.  1.
       -2   -1    0    0    0  501  0.00000000000E+00  0.00000000000E+00 -0.12918612678E+04  0.12918612678E+04  0.25500000920E-02 0. -1.
    10030    2    1    2    0    0  0.00000000000E+00  0.00000000000E+00 -0.96516748547E+03  0.16185550502E+04  0.12992968004E+04 0.  0.
        3    1    3    3  502    0  0.21160322674E+03  0.33694911201E+03 -0.11223198347E+04  0.11907612906E+04  0.10100000352E+00 0. -1.
       -3    1    3    3    0  502 -0.21160322674E+03 -0.33694911201E+03  0.15715234927E+03  0.42779375958E+03  0.10100000352E+00 0.  1.
</event>
<event>
 5   0  0.3403833E-04  0.1299938E+04  0.7818609E-02  0.9029615E-01
       -1   -1    0    0    0  501  0.00000000000E+00  0.00000000000E+00  0.15828302383E+03  0.15828302391E+03  0.50400001928E-02 0. -1.
        1   -1    0    0  501    0  0.00000000000E+00  0.00000000000E+00 -0.26690136629E+04  0.26690136629E+04  0.50400001928E-02 0.  1.
    10030    2    1    2    0    0  0.00000000000E+00  0.00000000000E+00 -0.25107306391E+04  0.28272966868E+04  0.12999377729E+04 0.  0.
        1    1    3    3  502    0 -0.52919594254E+03  0.35005855290E+03 -0.15619497729E+04  0.16859052255E+04  0.50400001928E-02 0. -1.
       -1    1    3    3    0  502  0.52919594254E+03 -0.35005855290E+03 -0.94878086615E+03  0.11413914614E+04  0.50400001928E-02 0.  1.
</event>
<event>
 5   0  0.5787604E-04  0.1312425E+04  0.7818609E-02  0.9019770E-01
       -2   -1    0    0    0  501  0.00000000000E+00  0.00000000000E+00  0.31220322212E+03  0.31220322213E+03  0.25500000920E-02 0. -1.
        2   -1    0    0  501    0  0.00000000000E+00  0.00000000000E+00 -0.13792764403E+04  0.13792764403E+04  0.25500000920E-02 0.  1.
    10030    2    1    2    0    0  0.00000000000E+00  0.00000000000E+00 -0.10670732182E+04  0.16914796625E+04  0.13124245485E+04 0.  0.
        4    1    3    3  502    0  0.16466179656E+03  0.13554877369E+03 -0.13333595037E+04  0.13503096520E+04  0.12699999809E+01 0.  1.
       -4    1    3    3    0  502 -0.16466179656E+03 -0.13554877369E+03  0.26628628549E+03  0.34117001046E+03  0.12699999809E+01 0. -1.
</event>
<event>
 5   0  0.3337520E-04  0.1301794E+04  0.7818609E-02  0.9028144E-01
        1   -1    0    0  501    0  0.00000000000E+00  0.00000000000E+00  0.13887679282E+04  0.13887679282E+04  0.50400001928E-02 0. -1.
       -1   -1    0    0    0  501  0.00000000000E+00  0.00000000000E+00 -0.30506681091E+03  0.30506681095E+03  0.50400001928E-02 0.  1.
    10030    2    1    2    0    0  0.00000000000E+00  0.00000000000E+00  0.10837011172E+04  0.16938347391E+04  0.13017941511E+04 0.  0.
        5    1    3    3  502    0  0.55466118271E+03  0.27564190040E+03  0.80213805523E+03  0.10134471049E+04  0.46999998093E+01 0.  1.
       -5    1    3    3    0  502 -0.55466118271E+03 -0.27564190040E+03  0.28156306202E+03  0.68038763419E+03  0.46999998093E+01 0. -1.
</event>
<event>
 5   0  0.6007125E-04  0.1292193E+04  0.7818609E-02  0.9035780E-01
        2   -1    0    0  501    0  0.00000000000E+00  0.00000000000E+00  0.10067186023E+04  0.10067186023E+04  0.25500000920E-02 0.  1.
       -2   -1    0    0    0  501  0.00000000000E+00  0.00000000000E+00 -0.41465449995E+03  0.41465449996E+03  0.25500000920E-02 0. -1.
    10030    2    1    2    0    0  0.00000000000E+00  0.00000000000E+00  0.59206410234E+03  0.14213731023E+04  0.12921925532E+04 0.  0.
        5    1    3    3  502    0  0.42714519003E+03 -0.19241783479E+03  0.78541448794E+03  0.91453575347E+03  0.46999998093E+01 0.  1.
       -5    1    3    3    0  502 -0.42714519003E+03  0.19241783479E+03 -0.19335038560E+03  0.50683734878E+03  0.46999998093E+01 0. -1.
</event>
<event>
 5   0  0.5787604E-04  0.1302092E+04  0.7818609E-02  0.9027908E-01
       -2   -1    0    0    0  501  0.00000000000E+00  0.00000000000E+00  0.27608346286E+03  0.27608346288E+03  0.25500000920E-02 0. -1.
        2   -1    0    0  501    0  0.00000000000E+00  0.00000000000E+00 -0.15352633624E+04  0.15352633624E+04  0.25500000920E-02 0.  1.
    10030    2    1    2    0    0  0.00000000000E+00  0.00000000000E+00 -0.12591798995E+04  0.18113468253E+04  0.13020918946E+04 0.  0.
        4    1    3    3  502    0  0.37851284111E+03 -0.40427611436E+03 -0.15345776551E+03  0.57468430135E+03  0.12699999809E+01 0. -1.
       -4    1    3    3    0  502 -0.37851284111E+03  0.40427611436E+03 -0.11057221340E+04  0.12366625239E+04  0.12699999809E+01 0.  1.
</event>
<event>
 5   0  0.5384960E-04  0.1252692E+04  0.7818609E-02  0.9067946E-01
       -2   -1    0    0    0  501  0.00000000000E+00  0.00000000000E+00  0.41764046478E+03  0.41764046479E+03  0.25500000920E-02 0.  1.
        2   -1    0    0  501    0  0.00000000000E+00  0.00000000000E+00 -0.93934630906E+03  0.93934630906E+03  0.25500000920E-02 0. -1.
    10030    2    1    2    0    0  0.00000000000E+00  0.00000000000E+00 -0.52170584427E+03  0.13569867739E+04  0.12526915488E+04 0.  0.
        3    1    3    3  502    0 -0.10529050129E+02 -0.17075306383E+03  0.39184109704E+03  0.42755926517E+03  0.10100000352E+00 0.  1.
       -3    1    3    3    0  502  0.10529050129E+02  0.17075306383E+03 -0.91354694131E+03  0.92942750868E+03  0.10100000352E+00 0. -1.
</event>
<event>
 5   0  0.5384960E-04  0.1300072E+04  0.7818609E-02  0.9029508E-01
       -2   -1    0    0    0  501  0.00000000000E+00  0.00000000000E+00  0.95366242574E+03  0.95366242575E+03  0.25500000920E-02 0.  1.
        2   -1    0    0  501    0  0.00000000000E+00  0.00000000000E+00 -0.44307770985E+03  0.44307770986E+03  0.25500000920E-02 0. -1.
    10030    2    1    2    0    0  0.00000000000E+00  0.00000000000E+00  0.51058471590E+03  0.13967401356E+04  0.13000716343E+04 0.  0.
        3    1    3    3  502    0  0.47495245057E+03  0.47954817449E+02 -0.21872534729E+03  0.52509073746E+03  0.10100000352E+00 0. -1.
       -3    1    3    3    0  502 -0.47495245057E+03 -0.47954817449E+02  0.72931006318E+03  0.87164939814E+03  0.10100000352E+00 0.  1.
</event>
<event>
 5   0  0.5787604E-04  0.1298065E+04  0.7818609E-02  0.9031101E-01
       -2   -1    0    0    0  501  0.00000000000E+00  0.00000000000E+00  0.30745561024E+03  0.30745561025E+03  0.25500000920E-02 0. -1.
        2   -1    0    0  501    0  0.00000000000E+00  0.00000000000E+00 -0.13700948992E+04  0.13700948992E+04  0.25500000920E-02 0.  1.
    10030    2    1    2    0    0  0.00000000000E+00  0.00000000000E+00 -0.10626392890E+04  0.16775505095E+04  0.12980652731E+04 0.  0.
        4    1    3    3  502    0  0.61402022093E+03  0.20654592861E+03 -0.58235831418E+03  0.87110554546E+03  0.12699999809E+01 0.  1.
       -4    1    3    3    0  502 -0.61402022093E+03 -0.20654592861E+03 -0.48028097478E+03  0.80644496401E+03  0.12699999809E+01 0. -1.
</event>
<event>
 5   0  0.5384960E-04  0.1290418E+04  0.7818609E-02  0.9037199E-01
       -2   -1    0    0    0  501  0.00000000000E+00  0.00000000000E+00  0.65697109239E+03  0.65697109239E+03  0.25500000920E-02 0. -1.
        2   -1    0    0  501    0  0.00000000000E+00  0.00000000000E+00 -0.63365703677E+03  0.63365703678E+03  0.25500000920E-02 0.  1.
    10030    2    1    2    0    0  0.00000000000E+00  0.00000000000E+00  0.23314055614E+02  0.12906281292E+04  0.12904175381E+04 0.  0.
        3    1    3    3  502    0  0.93250720312E+02  0.57004453324E+02  0.64764533593E+03  0.65680263085E+03  0.10100000352E+00 0. -1.
       -3    1    3    3    0  502 -0.93250720312E+02 -0.57004453324E+02 -0.62433128032E+03  0.63382549832E+03  0.10100000352E+00 0.  1.
</event>
<event>
 5   0  0.2255875E-04  0.1313881E+04  0.7818609E-02  0.9018630E-01
        3   -1    0    0  501    0  0.00000000000E+00  0.00000000000E+00  0.36484279846E+03  0.36484281244E+03  0.10100000352E+00 0. -1.
       -3   -1    0    0    0  501  0.00000000000E+00  0.00000000000E+00 -0.11828944061E+04  0.11828944104E+04  0.10100000352E+00 0.  1.
    10030    2    1    2    0    0  0.00000000000E+00  0.00000000000E+00 -0.81805160764E+03  0.15477372229E+04  0.13138805418E+04 0.  0.
        3    1    3    3  502    0  0.52501769790E+03 -0.51590352541E+02 -0.87019825254E+03  0.10176198487E+04  0.10100000352E+00 0.  1.
       -3    1    3    3    0  502 -0.52501769790E+03  0.51590352541E+02  0.52146644895E+02  0.53011737413E+03  0.10100000352E+00 0. -1.
</event>
<event>
 5   0  0.3337520E-04  0.1285010E+04  0.7818609E-02  0.9041537E-01
        1   -1    0    0  501    0  0.00000000000E+00  0.00000000000E+00  0.56582377168E+03  0.56582377170E+03  0.50400001928E-02 0. -1.
       -1   -1    0    0    0  501  0.00000000000E+00  0.00000000000E+00 -0.72957844890E+03  0.72957844892E+03  0.50400001928E-02 0.  1.
    10030    2    1    2    0    0  0.00000000000E+00  0.00000000000E+00 -0.16375467722E+03  0.12954022206E+04  0.12850102408E+04 0.  0.
        5    1    3    3  502    0 -0.20450856914E+03  0.18428128698E+03  0.50334077781E+03  0.57372238599E+03  0.46999998093E+01 0. -1.
       -5    1    3    3    0  502  0.20450856914E+03 -0.18428128698E+03 -0.66709545504E+03  0.72167983463E+03  0.46999998093E+01 0.  1.
</event>
<event>
 5   0  0.5957913E-04  0.1300603E+04  0.7818609E-02  0.9029087E-01
       -2   -1    0    0    0  501  0.00000000000E+00  0.00000000000E+00  0.19876894787E+03  0.19876894789E+03  0.25500000920E-02 0. -1.
        2   -1    0    0  501    0  0.00000000000E+00  0.00000000000E+00 -0.21275569935E+04  0.21275569935E+04  0.25500000920E-02 0.  1.
    10030    2    1    2    0    0  0.00000000000E+00  0.00000000000E+00 -0.19287880456E+04  0.23263259414E+04  0.13006033449E+04 0.  0.
        1    1    3    3  502    0  0.26153302102E+02  0.28557270647E+03  0.79566404775E+02  0.29760137547E+03  0.50400001928E-02 0. -1.
       -1    1    3    3    0  502 -0.26153302102E+02 -0.28557270647E+03 -0.20083544504E+04  0.20287245659E+04  0.50400001928E-02 0.  1.
</event>
<event>
 5   0  0.3403833E-04  0.1304011E+04  0.7818609E-02  0.9026390E-01
       -1   -1    0    0    0  501  0.00000000000E+00  0.00000000000E+00  0.11886388127E+04  0.11886388127E+04  0.50400001928E-02 0.  1.
        1   -1    0    0  501    0  0.00000000000E+00  0.00000000000E+00 -0.35764539443E+03  0.35764539446E+03  0.50400001928E-02 0. -1.
    10030    2    1    2    0    0  0.00000000000E+00  0.00000000000E+00  0.83099341827E+03  0.15462842072E+04  0.13040110383E+04 0.  0.
        1    1    3    3  502    0 -0.17577394244E+03  0.46628018203E+02  0.11579575371E+04  0.11721502927E+04  0.50400001928E-02 0.  1.
       -1    1    3    3    0  502  0.17577394244E+03 -0.46628018203E+02 -0.32696411883E+03  0.37413391446E+03  0.50400001928E-02 0. -1.
</event>
<event>
 5   0  0.5787604E-04  0.1338295E+04  0.7818609E-02  0.8999736E-01
       -2   -1    0    0    0  501  0.00000000000E+00  0.00000000000E+00  0.63161364132E+03  0.63161364132E+03  0.25500000920E-02 0.  1.
        2   -1    0    0  501    0  0.00000000000E+00  0.00000000000E+00 -0.70891201410E+03  0.70891201411E+03  0.25500000920E-02 0. -1.
    10030    2    1    2    0    0  0.00000000000E+00  0.00000000000E+00 -0.77298372784E+02  0.13405256554E+04  0.13382951821E+04 0.  0.
        4    1    3    3  502    0  0.41099206730E+03  0.19526870045E+03 -0.53009153094E+03  0.69860073635E+03  0.12699999809E+01 0. -1.
       -4    1    3    3    0  502 -0.41099206730E+03 -0.19526870045E+03  0.45279315815E+03  0.64192491908E+03  0.12699999809E+01 0.  1.
</event>
<event>
 5   0  0.5787604E-04  0.1297719E+04  0.7818609E-02  0.9031376E-01
        2   -1    0    0  501    0  0.00000000000E+00  0.00000000000E+00  0.44613816813E+03  0.44613816814E+03  0.25500000920E-02 0. -1.
       -2   -1    0    0    0  501  0.00000000000E+00  0.00000000000E+00 -0.94369620643E+03  0.94369620643E+03  0.25500000920E-02 0.  1.
    10030    2    1    2    0    0  0.00000000000E+00  0.00000000000E+00 -0.49755803830E+03  0.13898343746E+04  0.12977193792E+04 0.  0.
        4    1    3    3  502    0  0.75238761195E+02  0.12639567105E+03  0.42804492191E+03  0.45261551555E+03  0.12699999809E+01 0. -1.
       -4    1    3    3    0  502 -0.75238761195E+02 -0.12639567105E+03 -0.92560296021E+03  0.93721885902E+03  0.12699999809E+01 0.  1.
</event>
<event>
 5   0  0.2255875E-04  0.1300723E+04  0.7818609E-02  0.9028992E-01
        3   -1    0    0  501    0  0.00000000000E+00  0.00000000000E+00  0.67322650463E+03  0.67322651220E+03  0.10100000352E+00 0. -1.
       -3   -1    0    0    0  501  0.00000000000E+00  0.00000000000E+00 -0.62827321424E+03  0.62827322236E+03  0.10100000352E+00 0.  1.
    10030    2    1    2    0    0  0.00000000000E+00  0.00000000000E+00  0.44953290382E+02  0.13014997346E+04  0.13007231684E+04 0.  0.
        2    1    3    3  502    0  0.43120160397E+03 -0.39689584431E+03 -0.25966520220E+03  0.64100479853E+03  0.25500000920E-02 0.  1.
       -2    1    3    3    0  502 -0.43120160397E+03  0.39689584431E+03  0.30461849258E+03  0.66049493603E+03  0.25500000920E-02 0. -1.
</event>
<event>
 5   0  0.5787604E-04  0.1291104E+04  0.7818609E-02  0.9036650E-01
        2   -1    0    0  501    0  0.00000000000E+00  0.00000000000E+00  0.11644931686E+04  0.11644931686E+04  0.25500000920E-02 0.  1.
       -2   -1    0    0    0  501  0.00000000000E+00  0.00000000000E+00 -0.35787016381E+03  0.35787016381E+03  0.25500000920E-02 0. -1.
    10030    2    1    2    0    0  0.00000000000E+00  0.00000000000E+00  0.80662300477E+03  0.15223633324E+04  0.12911039633E+04 0.  0.
        4    1    3    3  502    0 -0.54172598403E+03 -0.34304722863E+03  0.31517449501E+03  0.71448234271E+03  0.12699999809E+01 0. -1.
       -4    1    3    3    0  502  0.54172598403E+03  0.34304722863E+03  0.49144850975E+03  0.80788098968E+03  0.12699999809E+01 0.  1.
</event>
<event>
 5   0  0.5957913E-04  0.1302275E+04  0.7818609E-02  0.9027763E-01
       -2   -1    0    0    0  501  0.00000000000E+00  0.00000000000E+00  0.50397064290E+03  0.50397064291E+03  0.25500000920E-02 0.  1.
        2   -1    0    0  501    0  0.00000000000E+00  0.00000000000E+00 -0.84127912682E+03  0.84127912682E+03  0.25500000920E-02 0. -1.
    10030    2    1    2    0    0  0.00000000000E+00  0.00000000000E+00 -0.33730848392E+03  0.13452497697E+04  0.13022749056E+04 0.  0.
        1    1    3    3  502    0  0.23893706179E+03 -0.32566329563E+03 -0.69622545528E+03  0.80490830920E+03  0.50400001928E-02 0. -1.
       -1    1    3    3    0  502 -0.23893706179E+03  0.32566329563E+03  0.35891697136E+03  0.54034146053E+03  0.50400001928E-02 0.  1.
</event>
<event>
 5   0  0.3274879E-04  0.1294521E+04  0.7818609E-02  0.9033921E-01
       -1   -1    0    0    0  501  0.00000000000E+00  0.00000000000E+00  0.28885722185E+03  0.28885722189E+03  0.50400001928E-02 0. -1.
        1   -1    0    0  501    0  0.00000000000E+00  0.00000000000E+00 -0.14503573395E+04  0.14503573395E+04  0.50400001928E-02 0.  1.
    10030    2    1    2    0    0  0.00000000000E+00  0.00000000000E+00 -0.11615001176E+04  0.17392145614E+04  0.12945210571E+04 0.  0.
        4    1    3    3  502    0 -0.60478802993E+03  0.41315088311E+01 -0.27098513838E+03  0.66273689246E+03  0.12699999809E+01 0. -1.
       -4    1    3    3    0  502  0.60478802993E+03 -0.41315088311E+01 -0.89051497924E+03  0.10764776689E+04  0.12699999809E+01 0.  1.
</event>
<event>
 5   0  0.2255875E-04  0.1231737E+04  0.7818609E-02  0.9085522E-01
       -3   -1    0    0    0  501  0.00000000000E+00  0.00000000000E+00  0.64638944675E+03  0.64638945464E+03  0.10100000352E+00 0.  1.
        3   -1    0    0  501    0  0.00000000000E+00  0.00000000000E+00 -0.58678886877E+03  0.58678887746E+03  0.10100000352E+00 0. -1.
    10030    2    1    2    0    0  0.00000000000E+00  0.00000000000E+00  0.59600577981E+02  0.12331783321E+04  0.12317372162E+04 0.  0.
        4    1    3    3  502    0 -0.46514845241E+03  0.40319017374E+03  0.10617219376E+02  0.61566203166E+03  0.12699999809E+01 0.  1.
       -4    1    3    3    0  502  0.46514845241E+03 -0.40319017374E+03  0.48983358605E+02  0.61751630043E+03  0.12699999809E+01 0. -1.
</event>
<event>
 5   0  0.3335747E-04  0.1302511E+04  0.7818609E-02  0.9027576E-01
        1   -1    0    0  501    0  0.00000000000E+00  0.00000000000E+00  0.78598174305E+03  0.78598174307E+03  0.50400001928E-02 0.  1.
       -1   -1    0    0    0  501  0.00000000000E+00  0.00000000000E+00 -0.53962299807E+03  0.53962299809E+03  0.50400001928E-02 0. -1.
    10030    2    1    2    0    0  0.00000000000E+00  0.00000000000E+00  0.24635874498E+03  0.13256047412E+04  0.13025111510E+04 0.  0.
        3    1    3    3  502    0 -0.95840160653E+02 -0.26210144396E+03 -0.47568477254E+03  0.55150568115E+03  0.10100000352E+00 0. -1.
       -3    1    3    3    0  502  0.95840160653E+02  0.26210144396E+03  0.72204351752E+03  0.77409906001E+03  0.10100000352E+00 0.  1.
</event>
<event>
 5   0  0.5787604E-04  0.1297768E+04  0.7818609E-02  0.9031337E-01
       -2   -1    0    0    0  501  0.00000000000E+00  0.00000000000E+00  0.30004818549E+03  0.30004818550E+03  0.25500000920E-02 0. -1.
        2   -1    0    0  501    0  0.00000000000E+00  0.00000000000E+00 -0.14032758000E+04  0.14032758000E+04  0.25500000920E-02 0.  1.
    10030    2    1    2    0    0  0.00000000000E+00  0.00000000000E+00 -0.11032276146E+04  0.17033239855E+04  0.12977678645E+04 0.  0.
        4    1    3    3  502    0 -0.37821055432E+02  0.64759884441E+03 -0.53153426706E+03  0.83865665530E+03  0.12699999809E+01 0. -1.
       -4    1    3    3    0  502  0.37821055432E+02 -0.64759884441E+03 -0.57169334750E+03  0.86466733024E+03  0.12699999809E+01 0.  1.
</event>
<event>
 5   0  0.5957913E-04  0.1298192E+04  0.7818609E-02  0.9031000E-01
        2   -1    0    0  501    0  0.00000000000E+00  0.00000000000E+00  0.17895704685E+04  0.17895704685E+04  0.25500000920E-02 0. -1.
       -2   -1    0    0    0  501  0.00000000000E+00  0.00000000000E+00 -0.23543391612E+03  0.23543391613E+03  0.25500000920E-02 0.  1.
    10030    2    1    2    0    0  0.00000000000E+00  0.00000000000E+00  0.15541365524E+04  0.20250043846E+04  0.12981919482E+04 0.  0.
        1    1    3    3  502    0  0.17680129851E+03  0.21708942815E+03  0.16905408997E+04  0.17135679305E+04  0.50400001928E-02 0. -1.
       -1    1    3    3    0  502 -0.17680129851E+03 -0.21708942815E+03 -0.13640434730E+03  0.31143645412E+03  0.50400001928E-02 0.  1.
</event>
<event>
 5   0  0.6052864E-04  0.1298297E+04  0.7818609E-02  0.9030917E-01
       -2   -1    0    0    0  501  0.00000000000E+00  0.00000000000E+00  0.31629525637E+03  0.31629525638E+03  0.25500000920E-02 0.  1.
        2   -1    0    0  501    0  0.00000000000E+00  0.00000000000E+00 -0.13322795450E+04  0.13322795450E+04  0.25500000920E-02 0. -1.
    10030    2    1    2    0    0  0.00000000000E+00  0.00000000000E+00 -0.10159842886E+04  0.16485748014E+04  0.12982968848E+04 0.  0.
        2    1    3    3  502    0  0.21431565354E+03 -0.15685674680E+03 -0.12601354939E+04  0.12878185825E+04  0.25500000920E-02 0. -1.
       -2    1    3    3    0  502 -0.21431565354E+03  0.15685674680E+03  0.24415120533E+03  0.36075621885E+03  0.25500000920E-02 0.  1.
</event>
<event>
 5   0  0.6007125E-04  0.1318573E+04  0.7818609E-02  0.9014965E-01
       -2   -1    0    0    0  501  0.00000000000E+00  0.00000000000E+00  0.27279141175E+03  0.27279141176E+03  0.25500000920E-02 0.  1.
        2   -1    0    0  501    0  0.00000000000E+00  0.00000000000E+00 -0.15933747052E+04  0.15933747052E+04  0.25500000920E-02 0. -1.
    10030    2    1    2    0    0  0.00000000000E+00  0.00000000000E+00 -0.13205832934E+04  0.18661661169E+04  0.13185733734E+04 0.  0.
        5    1    3    3  502    0  0.48982789069E+03  0.41919710446E+03 -0.46531358222E+03  0.79510778809E+03  0.46999998093E+01 0.  1.
       -5    1    3    3    0  502 -0.48982789069E+03 -0.41919710446E+03 -0.85526971121E+03  0.10710583288E+04  0.46999998093E+01 0. -1.
</event>
<event>
 5   0  0.6052864E-04  0.1293265E+04  0.7818609E-02  0.9034923E-01
        2   -1    0    0  501    0  0.00000000000E+00  0.00000000000E+00  0.19555820483E+04  0.19555820483E+04  0.25500000920E-02 0. -1.
       -2   -1    0    0    0  501  0.00000000000E+00  0.00000000000E+00 -0.21381536529E+03  0.21381536530E+03  0.25500000920E-02 0.  1.
    10030    2    1    2    0    0  0.00000000000E+00  0.00000000000E+00  0.17417666830E+04  0.21693974136E+04  0.12932648453E+04 0.  0.
        2    1    3    3  502    0  0.47034933252E+03  0.38364052338E+03  0.49682547017E+03  0.78437497002E+03  0.25500000920E-02 0.  1.
       -2    1    3    3    0  502 -0.47034933252E+03 -0.38364052338E+03  0.12449412128E+04  0.13850224435E+04  0.25500000920E-02 0. -1.
</event>
<event>
 5   0  0.3335747E-04  0.1297129E+04  0.7818609E-02  0.9031845E-01
        1   -1    0    0  501    0  0.00000000000E+00  0.00000000000E+00  0.81969833778E+03  0.81969833780E+03  0.50400001928E-02 0. -1.
       -1   -1    0    0    0  501  0.00000000000E+00  0.00000000000E+00 -0.51315902605E+03  0.51315902607E+03  0.50400001928E-02 0.  1.
    10030    2    1    2    0    0  0.00000000000E+00  0.00000000000E+00  0.30653931173E+03  0.13328573639E+04  0.12971285221E+04 0.  0.
        3    1    3    3  502    0 -0.59748484861E+02  0.27458901221E+03  0.75389260100E+03  0.80456390120E+03  0.10100000352E+00 0. -1.
       -3    1    3    3    0  502  0.59748484861E+02 -0.27458901221E+03 -0.44735328927E+03  0.52829346266E+03  0.10100000352E+00 0.  1.
</event>
<event>
 5   0  0.5957913E-04  0.1301001E+04  0.7818609E-02  0.9028772E-01
       -2   -1    0    0    0  501  0.00000000000E+00  0.00000000000E+00  0.24616479655E+03  0.24616479657E+03  0.25500000920E-02 0.  1.
        2   -1    0    0  501    0  0.00000000000E+00  0.00000000000E+00 -0.17189736262E+04  0.17189736262E+04  0.25500000920E-02 0. -1.
    10030    2    1    2    0    0  0.00000000000E+00  0.00000000000E+00 -0.14728088297E+04  0.19651384228E+04  0.13010008347E+04 0.  0.
        1    1    3    3  502    0  0.19579528153E+03 -0.23245653528E+03 -0.16051337972E+04  0.16336542902E+04  0.50400001928E-02 0. -1.
       -1    1    3    3    0  502 -0.19579528153E+03  0.23245653528E+03  0.13232496755E+03  0.33148413254E+03  0.50400001928E-02 0.  1.
</event>
<event>
 5   0  0.3263679E-04  0.1305832E+04  0.7818609E-02  0.9024953E-01
        1   -1    0    0  501    0  0.00000000000E+00  0.00000000000E+00  0.12262090575E+04  0.12262090575E+04  0.50400001928E-02 0. -1.
       -1   -1    0    0    0  501  0.00000000000E+00  0.00000000000E+00 -0.34765606998E+03  0.34765607001E+03  0.50400001928E-02 0.  1.
    10030    2    1    2    0    0  0.00000000000E+00  0.00000000000E+00  0.87855298751E+03  0.15738651275E+04  0.13058315694E+04 0.  0.
        2    1    3    3  502    0  0.32714730436E+03  0.13524932848E+03  0.11005027540E+04  0.11560380838E+04  0.25500000920E-02 0. -1.
       -2    1    3    3    0  502 -0.32714730436E+03 -0.13524932848E+03 -0.22194976650E+03  0.41782704372E+03  0.25500000920E-02 0.  1.
</event>
<event>
 5   0  0.3274879E-04  0.1309465E+04  0.7818609E-02  0.9022093E-01
        1   -1    0    0  501    0  0.00000000000E+00  0.00000000000E+00  0.18592670027E+04  0.18592670027E+04  0.50400001928E-02 0.  1.
       -1   -1    0    0    0  501  0.00000000000E+00  0.00000000000E+00 -0.23056111949E+03  0.23056111954E+03  0.50400001928E-02 0. -1.
    10030    2    1    2    0    0  0.00000000000E+00  0.00000000000E+00  0.16287058832E+04  0.20898281223E+04  0.13094650536E+04 0.  0.
        4    1    3    3  502    0 -0.78227076655E+02  0.48750334046E+03  0.12810956353E+03  0.51009083079E+03  0.12699999809E+01 0.  1.
       -4    1    3    3    0  502  0.78227076655E+02 -0.48750334046E+03  0.15005963197E+04  0.15797372915E+04  0.12699999809E+01 0. -1.
</event>
<event>
 5   0  0.5384960E-04  0.1303891E+04  0.7818609E-02  0.9026486E-01
        2   -1    0    0  501    0  0.00000000000E+00  0.00000000000E+00  0.11852434863E+04  0.11852434863E+04  0.25500000920E-02 0.  1.
       -2   -1    0    0    0  501  0.00000000000E+00  0.00000000000E+00 -0.35860363966E+03  0.35860363967E+03  0.25500000920E-02 0. -1.
    10030    2    1    2    0    0  0.00000000000E+00  0.00000000000E+00  0.82663984666E+03  0.15438471260E+04  0.13038905293E+04 0.  0.
        3    1    3    3  502    0  0.29650051603E+03  0.55664040710E+03  0.21778793010E+03  0.66722761598E+03  0.10100000352E+00 0. -1.
       -3    1    3    3    0  502 -0.29650051603E+03 -0.55664040710E+03  0.60885191655E+03  0.87661951001E+03  0.10100000352E+00 0.  1.
</event>
<event>
 5   0  0.6007125E-04  0.1299405E+04  0.7818609E-02  0.9030037E-01
        2   -1    0    0  501    0  0.00000000000E+00  0.00000000000E+00  0.10899422748E+04  0.10899422748E+04  0.25500000920E-02 0. -1.
       -2   -1    0    0    0  501  0.00000000000E+00  0.00000000000E+00 -0.38728072502E+03  0.38728072503E+03  0.25500000920E-02 0.  1.
    10030    2    1    2    0    0  0.00000000000E+00  0.00000000000E+00  0.70266154979E+03  0.14772229998E+04  0.12994054555E+04 0.  0.
        5    1    3    3  502    0 -0.14943365463E+03  0.80319415086E+01 -0.36740061109E+03  0.39673697616E+03  0.46999998093E+01 0.  1.
       -5    1    3    3    0  502  0.14943365463E+03 -0.80319415086E+01  0.10700621609E+04  0.10804860237E+04  0.46999998093E+01 0. -1.
</event>
<event>
 5   0  0.2255875E-04  0.1313880E+04  0.7818609E-02  0.9018630E-01
       -3   -1    0    0    0  501  0.00000000000E+00  0.00000000000E+00  0.28569215257E+04  0.28569215275E+04  0.10100000352E+00 0.  1.
        3   -1    0    0  501    0  0.00000000000E+00  0.00000000000E+00 -0.15106123256E+03  0.15106126632E+03  0.10100000352E+00 0. -1.
    10030    2    1    2    0    0  0.00000000000E+00  0.00000000000E+00  0.27058602931E+04  0.30079827938E+04  0.13138799648E+04 0.  0.
        3    1    3    3  502    0 -0.40680931121E+03  0.42418871357E+02  0.17600374931E+03  0.44527576433E+03  0.10100000352E+00 0. -1.
       -3    1    3    3    0  502  0.40680931121E+03 -0.42418871357E+02  0.25298565438E+04  0.25627070295E+04  0.10100000352E+00 0.  1.
</event>
<event>
 5   0  0.2255875E-04  0.1294198E+04  0.7818609E-02  0.9034178E-01
       -3   -1    0    0    0  501  0.00000000000E+00  0.00000000000E+00  0.45763264074E+03  0.45763265188E+03  0.10100000352E+00 0. -1.
        3   -1    0    0  501    0  0.00000000000E+00  0.00000000000E+00 -0.91500776307E+03  0.91500776864E+03  0.10100000352E+00 0.  1.
    10030    2    1    2    0    0  0.00000000000E+00  0.00000000000E+00 -0.45737512233E+03  0.13726404205E+04  0.12941984861E+04 0.  0.
        2    1    3    3  502    0 -0.24687787629E+03  0.45468781763E+03 -0.64089232057E+03  0.82367023977E+03  0.25500000920E-02 0.  1.
       -2    1    3    3    0  502  0.24687787629E+03 -0.45468781763E+03  0.18351719824E+03  0.54897018076E+03  0.25500000920E-02 0. -1.
</event>
<event>
 5   0  0.6007125E-04  0.1301788E+04  0.7818609E-02  0.9028149E-01
       -2   -1    0    0    0  501  0.00000000000E+00  0.00000000000E+00  0.30245675366E+03  0.30245675367E+03  0.25500000920E-02 0.  1.
        2   -1    0    0  501    0  0.00000000000E+00  0.00000000000E+00 -0.14007389176E+04  0.14007389176E+04  0.25500000920E-02 0. -1.
    10030    2    1    2    0    0  0.00000000000E+00  0.00000000000E+00 -0.10982821640E+04  0.17031956713E+04  0.13017879178E+04 0.  0.
        5    1    3    3  502    0  0.23107512022E+02  0.64619085834E+03 -0.45172141941E+03  0.78877811409E+03  0.46999998093E+01 0.  1.
       -5    1    3    3    0  502 -0.23107512022E+02 -0.64619085834E+03 -0.64656074456E+03  0.91441755721E+03  0.46999998093E+01 0. -1.
</event>
<event>
 5   0  0.5957913E-04  0.1273350E+04  0.7818609E-02  0.9050970E-01
       -2   -1    0    0    0  501  0.00000000000E+00  0.00000000000E+00  0.74701614735E+03  0.74701614736E+03  0.25500000920E-02 0. -1.
        2   -1    0    0  501    0  0.00000000000E+00  0.00000000000E+00 -0.54263199189E+03  0.54263199190E+03  0.25500000920E-02 0.  1.
    10030    2    1    2    0    0  0.00000000000E+00  0.00000000000E+00  0.20438415546E+03  0.12896481393E+04  0.12733496928E+04 0.  0.
        1    1    3    3  502    0 -0.28340800880E+02 -0.39115398404E+03  0.61015954468E+03  0.72532703673E+03  0.50400001928E-02 0. -1.
       -1    1    3    3    0  502  0.28340800880E+02  0.39115398404E+03 -0.40577538922E+03  0.56432110252E+03  0.50400001928E-02 0.  1.
</event>
<event>
 5   0  0.3274879E-04  0.1306258E+04  0.7818609E-02  0.9024617E-01
       -1   -1    0    0    0  501  0.00000000000E+00  0.00000000000E+00  0.45282967172E+03  0.45282967175E+03  0.50400001928E-02 0. -1.
        1   -1    0    0  501    0  0.00000000000E+00  0.00000000000E+00 -0.94202594987E+03  0.94202594989E+03  0.50400001928E-02 0.  1.
    10030    2    1    2    0    0  0.00000000000E+00  0.00000000000E+00 -0.48919627815E+03  0.13948556216E+04  0.13062577107E+04 0.  0.
        4    1    3    3  502    0 -0.40995574091E+03  0.50709194583E+03 -0.28411833609E+03  0.71128812223E+03  0.12699999809E+01 0.  1.
       -4    1    3    3    0  502  0.40995574091E+03 -0.50709194583E+03 -0.20507794206E+03  0.68356749941E+03  0.12699999809E+01 0. -1.
</event>
<event>
 5   0  0.3337520E-04  0.1289949E+04  0.7818609E-02  0.9037574E-01
        1   -1    0    0  501    0  0.00000000000E+00  0.00000000000E+00  0.16591409987E+04  0.16591409987E+04  0.50400001928E-02 0. -1.
       -1   -1    0    0    0  501  0.00000000000E+00  0.00000000000E+00 -0.25072746938E+03  0.25072746944E+03  0.50400001928E-02 0.  1.
    10030    2    1    2    0    0  0.00000000000E+00  0.00000000000E+00  0.14084135293E+04  0.19098684681E+04  0.12899491835E+04 0.  0.
        5    1    3    3  502    0  0.22819444158E+03 -0.52638215430E+03  0.26795329631E+03  0.63322344755E+03  0.46999998093E+01 0.  1.
       -5    1    3    3    0  502 -0.22819444158E+03  0.52638215430E+03  0.11404602330E+04  0.12766450206E+04  0.46999998093E+01 0. -1.
</event>
<event>
 5   0  0.6007125E-04  0.1299987E+04  0.7818609E-02  0.9029575E-01
        2   -1    0    0  501    0  0.00000000000E+00  0.00000000000E+00  0.45802744805E+03  0.45802744806E+03  0.25500000920E-02 0.  1.
       -2   -1    0    0    0  501  0.00000000000E+00  0.00000000000E+00 -0.92241573232E+03  0.92241573232E+03  0.25500000920E-02 0. -1.
    10030    2    1    2    0    0  0.00000000000E+00  0.00000000000E+00 -0.46438828427E+03  0.13804431804E+04  0.12999872675E+04 0.  0.
        5    1    3    3  502    0 -0.24201192665E+03 -0.42860811404E+03  0.21857143097E+03  0.53858170086E+03  0.46999998093E+01 0.  1.
       -5    1    3    3    0  502  0.24201192665E+03  0.42860811404E+03 -0.68295971524E+03  0.84186147952E+03  0.46999998093E+01 0. -1.
</event>
<event>
 5   0  0.6052864E-04  0.1302943E+04  0.7818609E-02  0.9027234E-01
        2   -1    0    0  501    0  0.00000000000E+00  0.00000000000E+00  0.48143133094E+03  0.48143133094E+03  0.25500000920E-02 0. -1.
       -2   -1    0    0    0  501  0.00000000000E+00  0.00000000000E+00 -0.88156971036E+03  0.88156971037E+03  0.25500000920E-02 0.  1.
    10030    2    1    2    0    0  0.00000000000E+00  0.00000000000E+00 -0.40013837943E+03  0.13630010413E+04  0.13029432512E+04 0.  0.
        2    1    3    3  502    0  0.56993478062E+03  0.35935734041E+02 -0.52804633028E+03  0.77778529047E+03  0.25500000920E-02 0.  1.
       -2    1    3    3    0  502 -0.56993478062E+03 -0.35935734041E+02  0.12790795085E+03  0.58521575085E+03  0.25500000920E-02 0. -1.
</event>
<event>
 5   0  0.5384960E-04  0.1290896E+04  0.7818609E-02  0.9036816E-01
       -2   -1    0    0    0  501  0.00000000000E+00  0.00000000000E+00  0.24589756871E+03  0.24589756873E+03  0.25500000920E-02 0.  1.
        2   -1    0    0  501    0  0.00000000000E+00  0.00000000000E+00 -0.16942137868E+04  0.16942137868E+04  0.25500000920E-02 0. -1.
    10030    2    1    2    0    0  0.00000000000E+00  0.00000000000E+00 -0.14483162181E+04  0.19401113555E+04  0.12908958921E+04 0.  0.
        3    1    3    3  502    0 -0.59184521514E+03 -0.22852665748E+03 -0.54571003451E+03  0.83684206624E+03  0.10100000352E+00 0. -1.
       -3    1    3    3    0  502  0.59184521514E+03  0.22852665748E+03 -0.90260618359E+03  0.11032692893E+04  0.10100000352E+00 0.  1.
</event>
<event>
 5   0  0.3403833E-04  0.1302600E+04  0.7818609E-02  0.9027506E-01
       -1   -1    0    0    0  501  0.00000000000E+00  0.00000000000E+00  0.55371609881E+03  0.55371609883E+03  0.50400001928E-02 0. -1.
        1   -1    0    0  501    0  0.00000000000E+00  0.00000000000E+00 -0.76608099146E+03  0.76608099148E+03  0.50400001928E-02 0.  1.
    10030    2    1    2    0    0  0.00000000000E+00  0.00000000000E+00 -0.21236489265E+03  0.13197970903E+04  0.13025995209E+04 0.  0.
        1    1    3    3  502    0 -0.61904246601E+03  0.96017934894E+02 -0.28674399962E+03  0.68895220436E+03  0.50400001928E-02 0. -1.
       -1    1    3    3    0  502  0.61904246601E+03 -0.96017934894E+02  0.74379106972E+02  0.63084488595E+03  0.50400001928E-02 0.  1.
</event>
<event>
 5   0  0.5384960E-04  0.1289445E+04  0.7818609E-02  0.9037977E-01
       -2   -1    0    0    0  501  0.00000000000E+00  0.00000000000E+00  0.47957588515E+03  0.47957588515E+03  0.25500000920E-02 0. -1.
        2   -1    0    0  501    0  0.00000000000E+00  0.00000000000E+00 -0.86673954947E+03  0.86673954947E+03  0.25500000920E-02 0.  1.
    10030    2    1    2    0    0  0.00000000000E+00  0.00000000000E+00 -0.38716366432E+03  0.13463154346E+04  0.12894454415E+04 0.  0.
        3    1    3    3  502    0 -0.57580350257E+03  0.29000442694E+03 -0.18951984766E+03  0.67198960116E+03  0.10100000352E+00 0.  1.
       -3    1    3    3    0  502  0.57580350257E+03 -0.29000442694E+03 -0.19764381666E+03  0.67432583346E+03  0.10100000352E+00 0. -1.
</event>
<event>
 5   0  0.6007125E-04  0.1301705E+04  0.7818609E-02  0.9028214E-01
        2   -1    0    0  501    0  0.00000000000E+00  0.00000000000E+00  0.38594436536E+03  0.38594436537E+03  0.25500000920E-02 0.  1.
       -2   -1    0    0    0  501  0.00000000000E+00  0.00000000000E+00 -0.10975910234E+04  0.10975910234E+04  0.25500000920E-02 0. -1.
    10030    2    1    2    0    0  0.00000000000E+00  0.00000000000E+00 -0.71164665809E+03  0.14835353888E+04  0.13017051448E+04 0.  0.
        5    1    3    3  502    0  0.11999776185E+03  0.63691732396E+03 -0.42347731910E+03  0.77422107321E+03  0.46999998093E+01 0.  1.
       -5    1    3    3    0  502 -0.11999776185E+03 -0.63691732396E+03 -0.28816933898E+03  0.70931431561E+03  0.46999998093E+01 0. -1.
</event>
<event>
 5   0  0.3274879E-04  0.1299713E+04  0.7818609E-02  0.9029793E-01
        1   -1    0    0  501    0  0.00000000000E+00  0.00000000000E+00  0.10239105533E+04  0.10239105534E+04  0.50400001928E-02 0. -1.
       -1   -1    0    0    0  501  0.00000000000E+00  0.00000000000E+00 -0.41245143170E+03  0.41245143173E+03  0.50400001928E-02 0.  1.
    10030    2    1    2    0    0  0.00000000000E+00  0.00000000000E+00  0.61145912164E+03  0.14363619851E+04  0.12997128509E+04 0.  0.
        4    1    3    3  502    0 -0.12948690857E+03  0.13096288678E+03 -0.38300604450E+03  0.42498632947E+03  0.12699999809E+01 0.  1.
       -4    1    3    3    0  502  0.12948690857E+03 -0.13096288678E+03  0.99446516614E+03  0.10113756556E+04  0.12699999809E+01 0. -1.
</event>
<event>
 5   0  0.3263679E-04  0.1298020E+04  0.7818609E-02  0.9031137E-01
       -1   -1    0    0    0  501  0.00000000000E+00  0.00000000000E+00  0.36530174320E+03  0.36530174323E+03  0.50400001928E-02 0. -1.
        1   -1    0    0  501    0  0.00000000000E+00  0.00000000000E+00 -0.11530568602E+04  0.11530568602E+04  0.50400001928E-02 0.  1.
    10030    2    1    2    0    0  0.00000000000E+00  0.00000000000E+00 -0.78775511699E+03  0.15183586034E+04  0.12980195392E+04 0.  0.
        2    1    3    3  502    0 -0.15716615567E+03  0.60084203339E+03 -0.61427951502E+03  0.87352828927E+03  0.25500000920E-02 0.  1.
       -2    1    3    3    0  502  0.15716615567E+03 -0.60084203339E+03 -0.17347560198E+03  0.64483031416E+03  0.25500000920E-02 0. -1.
</event>
<event>
 5   0  0.5787604E-04  0.1289260E+04  0.7818609E-02  0.9038126E-01
       -2   -1    0    0    0  501  0.00000000000E+00  0.00000000000E+00  0.37183388939E+03  0.37183388940E+03  0.25500000920E-02 0.  1.
        2   -1    0    0  501    0  0.00000000000E+00  0.00000000000E+00 -0.11175629447E+04  0.11175629447E+04  0.25500000920E-02 0. -1.
    10030    2    1    2    0    0  0.00000000000E+00  0.00000000000E+00 -0.74572905535E+03  0.14893968341E+04  0.12892599061E+04 0.  0.
        4    1    3    3  502    0  0.53340623308E+03  0.31103835334E+03 -0.58675164843E+03  0.85178998384E+03  0.12699999809E+01 0. -1.
       -4    1    3    3    0  502 -0.53340623308E+03 -0.31103835334E+03 -0.15897740692E+03  0.63760685030E+03  0.12699999809E+01 0.  1.
</event>
<event>
 5   0  0.5787604E-04  0.1295503E+04  0.7818609E-02  0.9033139E-01
       -2   -1    0    0    0  501  0.00000000000E+00  0.00000000000E+00  0.38787683809E+03  0.38787683809E+03  0.25500000920E-02 0.  1.
        2   -1    0    0  501    0  0.00000000000E+00  0.00000000000E+00 -0.10817397064E+04  0.10817397064E+04  0.25500000920E-02 0. -1.
    10030    2    1    2    0    0  0.00000000000E+00  0.00000000000E+00 -0.69386286828E+03  0.14696165445E+04  0.12955026468E+04 0.  0.
        4    1    3    3  502    0  0.46661698143E+03  0.41269035316E+03 -0.54838042686E+03  0.82992014099E+03  0.12699999809E+01 0. -1.
       -4    1    3    3    0  502 -0.46661698143E+03 -0.41269035316E+03 -0.14548244142E+03  0.63969640347E+03  0.12699999809E+01 0.  1.
</event>
<event>
 5   0  0.6052864E-04  0.1300168E+04  0.7818609E-02  0.9029432E-01
       -2   -1    0    0    0  501  0.00000000000E+00  0.00000000000E+00  0.78766962168E+03  0.78766962168E+03  0.25500000920E-02 0.  1.
        2   -1    0    0  501    0  0.00000000000E+00  0.00000000000E+00 -0.53653145882E+03  0.53653145882E+03  0.25500000920E-02 0. -1.
    10030    2    1    2    0    0  0.00000000000E+00  0.00000000000E+00  0.25113816286E+03  0.13242010805E+04  0.13001684986E+04 0.  0.
        2    1    3    3  502    0 -0.19282779418E+01  0.28365425026E+03 -0.47017547444E+03  0.54911604304E+03  0.25500000920E-02 0. -1.
       -2    1    3    3    0  502  0.19282779418E+01 -0.28365425026E+03  0.72131363730E+03  0.77508503747E+03  0.25500000920E-02 0.  1.
</event>
<event>
 5   0  0.5957913E-04  0.1255538E+04  0.7818609E-02  0.9065587E-01
       -2   -1    0    0    0  501  0.00000000000E+00  0.00000000000E+00  0.20679296016E+04  0.20679296016E+04  0.25500000920E-02 0.  1.
        2   -1    0    0  501    0  0.00000000000E+00  0.00000000000E+00 -0.19057414510E+03  0.19057414511E+03  0.25500000920E-02 0. -1.
    10030    2    1    2    0    0  0.00000000000E+00  0.00000000000E+00  0.18773554565E+04  0.22585037467E+04  0.12555379978E+04 0.  0.
        1    1    3    3  502    0 -0.14295979913E+03 -0.52066881395E+03  0.36260037414E+03  0.65039414922E+03  0.50400001928E-02 0. -1.
       -1    1    3    3    0  502  0.14295979913E+03  0.52066881395E+03  0.15147550824E+04  0.16081095975E+04  0.50400001928E-02 0.  1.
</event>
<event>
 5   0  0.5787604E-04  0.1303125E+04  0.7818609E-02  0.9027091E-01
       -2   -1    0    0    0  501  0.00000000000E+00  0.00000000000E+00  0.13712470780E+04  0.13712470780E+04  0.25500000920E-02 0.  1.
        2   -1    0    0  501    0  0.00000000000E+00  0.00000000000E+00 -0.30959668039E+03  0.30959668040E+03  0.25500000920E-02 0. -1.
    10030    2    1    2    0    0  0.00000000000E+00  0.00000000000E+00  0.10616503976E+04  0.16808437584E+04  0.13031247728E+04 0.  0.
        4    1    3    3  502    0 -0.23701218390E+03  0.86804609223E+02 -0.24397178031E+03  0.35104651827E+03  0.12699999809E+01 0. -1.
       -4    1    3    3    0  502  0.23701218390E+03 -0.86804609223E+02  0.13056221779E+04  0.13297972401E+04  0.12699999809E+01 0.  1.
</event>
<event>
 5   0  0.5384960E-04  0.1300024E+04  0.7818609E-02  0.9029546E-01
        2   -1    0    0  501    0  0.00000000000E+00  0.00000000000E+00  0.54805236364E+03  0.54805236365E+03  0.25500000920E-02 0.  1.
       -2   -1    0    0    0  501  0.00000000000E+00  0.00000000000E+00 -0.77094066616E+03  0.77094066617E+03  0.25500000920E-02 0. -1.
    10030    2    1    2    0    0  0.00000000000E+00  0.00000000000E+00 -0.22288830252E+03  0.13189930298E+04  0.13000243910E+04 0.  0.
        3    1    3    3  502    0  0.10396600510E+03  0.51588916961E+03 -0.49854123354E+03  0.72490960628E+03  0.10100000352E+00 0. -1.
       -3    1    3    3    0  502 -0.10396600510E+03 -0.51588916961E+03  0.27565293102E+03  0.59408342354E+03  0.10100000352E+00 0.  1.
</event>
<event>
 5   0  0.3403833E-04  0.1300120E+04  0.7818609E-02  0.9029470E-01
       -1   -1    0    0    0  501  0.00000000000E+00  0.00000000000E+00  0.31304879756E+03  0.31304879760E+03  0.50400001928E-02 0.  1.
        1   -1    0    0  501    0  0.00000000000E+00  0.00000000000E+00 -0.13498781885E+04  0.13498781885E+04  0.50400001928E-02 0. -1.
    10030    2    1    2    0    0  0.00000000000E+00  0.00000000000E+00 -0.10368293910E+04  0.16629269861E+04  0.13001196004E+04 0.  0.
        1    1    3    3  502    0 -0.25138818945E+03 -0.30105181771E+03 -0.11814913355E+04  0.12448895512E+04  0.50400001928E-02 0. -1.
       -1    1    3    3    0  502  0.25138818945E+03  0.30105181771E+03  0.14466194460E+03  0.41803743490E+03  0.50400001928E-02 0.  1.
</event>
<event>
 5   0  0.3403833E-04  0.1299699E+04  0.7818609E-02  0.9029804E-01
       -1   -1    0    0    0  501  0.00000000000E+00  0.00000000000E+00  0.47138922088E+03  0.47138922090E+03  0.50400001928E-02 0.  1.
        1   -1    0    0  501    0  0.00000000000E+00  0.00000000000E+00 -0.89587173416E+03  0.89587173417E+03  0.50400001928E-02 0. -1.
    10030    2    1    2    0    0  0.00000000000E+00  0.00000000000E+00 -0.42448251328E+03  0.13672609551E+04  0.12996988556E+04 0.  0.
        1    1    3    3  502    0  0.16102462714E+02 -0.61149058640E+03 -0.44301727304E+03  0.75527765146E+03  0.50400001928E-02 0.  1.
       -1    1    3    3    0  502 -0.16102462714E+02  0.61149058640E+03  0.18534759752E+02  0.61198330362E+03  0.50400001928E-02 0. -1.
</event>
<event>
 5   0  0.3274879E-04  0.1299279E+04  0.7818609E-02  0.9030137E-01
       -1   -1    0    0    0  501  0.00000000000E+00  0.00000000000E+00  0.20343240101E+03  0.20343240107E+03  0.50400001928E-02 0.  1.
        1   -1    0    0  501    0  0.00000000000E+00  0.00000000000E+00 -0.20745539842E+04  0.20745539842E+04  0.50400001928E-02 0. -1.
    10030    2    1    2    0    0  0.00000000000E+00  0.00000000000E+00 -0.18711215832E+04  0.22779863853E+04  0.12992790279E+04 0.  0.
        4    1    3    3  502    0  0.82745471293E+02 -0.58778438159E+03 -0.13984126451E+04  0.15191763660E+04  0.12699999809E+01 0. -1.
       -4    1    3    3    0  502 -0.82745471293E+02  0.58778438159E+03 -0.47270893813E+03  0.75881001927E+03  0.12699999809E+01 0.  1.
</event>
<event>
 5   0  0.3403833E-04  0.1300012E+04  0.7818609E-02  0.9029556E-01
       -1   -1    0    0    0  501  0.00000000000E+00  0.00000000000E+00  0.34673276880E+03  0.34673276884E+03  0.50400001928E-02 0.  1.
        1   -1    0    0  501    0  0.00000000000E+00  0.00000000000E+00 -0.12185398312E+04  0.12185398313E+04  0.50400001928E-02 0. -1.
    10030    2    1    2    0    0  0.00000000000E+00  0.00000000000E+00 -0.87180706245E+03  0.15652726001E+04  0.13000118301E+04 0.  0.
        1    1    3    3  502    0  0.33865660881E+03  0.23228490280E+03  0.17075244585E+03  0.44474821253E+03  0.50400001928E-02 0. -1.
       -1    1    3    3    0  502 -0.33865660881E+03 -0.23228490280E+03 -0.10425595083E+04  0.11205243876E+04  0.50400001928E-02 0.  1.
</event>
<event>
 5   0  0.5957913E-04  0.1300163E+04  0.7818609E-02  0.9029436E-01
       -2   -1    0    0    0  501  0.00000000000E+00  0.00000000000E+00  0.43971797682E+03  0.43971797682E+03  0.25500000920E-02 0.  1.
        2   -1    0    0  501    0  0.00000000000E+00  0.00000000000E+00 -0.96108374854E+03  0.96108374854E+03  0.25500000920E-02 0. -1.
    10030    2    1    2    0    0  0.00000000000E+00  0.00000000000E+00 -0.52136577172E+03  0.14008017254E+04  0.13001627613E+04 0.  0.
        1    1    3    3  502    0  0.35167530338E+03 -0.53805380637E+03 -0.36529875647E+03  0.73933794645E+03  0.50400001928E-02 0. -1.
       -1    1    3    3    0  502 -0.35167530338E+03  0.53805380637E+03 -0.15606701526E+03  0.66146377892E+03  0.50400001928E-02 0.  1.
</event>
<event>
 5   0  0.5787604E-04  0.1309126E+04  0.7818609E-02  0.9022359E-01
       -2   -1    0    0    0  501  0.00000000000E+00  0.00000000000E+00  0.31084819137E+03  0.31084819138E+03  0.25500000920E-02 0. -1.
        2   -1    0    0  501    0  0.00000000000E+00  0.00000000000E+00 -0.13783349767E+04  0.13783349767E+04  0.25500000920E-02 0.  1.
    10030    2    1    2    0    0  0.00000000000E+00  0.00000000000E+00 -0.10674867853E+04  0.16891831681E+04  0.13091263264E+04 0.  0.
        4    1    3    3  502    0  0.24254806274E+03  0.11970179766E+02 -0.13180570169E+04  0.13402420530E+04  0.12699999809E+01 0.  1.
       -4    1    3    3    0  502 -0.24254806274E+03 -0.11970179766E+02  0.25057023158E+03  0.34894111508E+03  0.12699999809E+01 0. -1.
</event>
<event>
 5   0  0.6052864E-04  0.1212016E+04  0.7818609E-02  0.9102403E-01
        2   -1    0    0  501    0  0.00000000000E+00  0.00000000000E+00  0.86692714616E+03  0.86692714616E+03  0.25500000920E-02 0.  1.
       -2   -1    0    0    0  501  0.00000000000E+00  0.00000000000E+00 -0.42361797994E+03  0.42361797994E+03  0.25500000920E-02 0. -1.
    10030    2    1    2    0    0  0.00000000000E+00  0.00000000000E+00  0.44330916622E+03  0.12905451261E+04  0.12120163801E+04 0.  0.
        2    1    3    3  502    0 -0.49780110178E+03  0.21203454345E+03  0.51224979345E+03  0.74509357496E+03  0.25500000920E-02 0.  1.
       -2    1    3    3    0  502  0.49780110178E+03 -0.21203454345E+03 -0.68940627229E+02  0.54545155114E+03  0.25500000920E-02 0. -1.
</event>
<event>
 5   0  0.3337520E-04  0.1305229E+04  0.7818609E-02  0.9025429E-01
       -1   -1    0    0    0  501  0.00000000000E+00  0.00000000000E+00  0.24153126437E+03  0.24153126442E+03  0.50400001928E-02 0. -1.
        1   -1    0    0  501    0  0.00000000000E+00  0.00000000000E+00 -0.17633556275E+04  0.17633556275E+04  0.50400001928E-02 0.  1.
    10030    2    1    2    0    0  0.00000000000E+00  0.00000000000E+00 -0.15218243632E+04  0.20048868920E+04  0.13052287375E+04 0.  0.
        5    1    3    3  502    0 -0.63350532277E+03  0.13934940797E+03 -0.87099589318E+03  0.10860033091E+04  0.46999998093E+01 0.  1.
       -5    1    3    3    0  502  0.63350532277E+03 -0.13934940797E+03 -0.65082846997E+03  0.91888358283E+03  0.46999998093E+01 0. -1.
</event>
<event>
 5   0  0.3335747E-04  0.1292981E+04  0.7818609E-02  0.9035150E-01
        1   -1    0    0  501    0  0.00000000000E+00  0.00000000000E+00  0.60097978442E+03  0.60097978444E+03  0.50400001928E-02 0. -1.
       -1   -1    0    0    0  501  0.00000000000E+00  0.00000000000E+00 -0.69544809049E+03  0.69544809051E+03  0.50400001928E-02 0.  1.
    10030    2    1    2    0    0  0.00000000000E+00  0.00000000000E+00 -0.94468306072E+02  0.12964278749E+04  0.12929814284E+04 0.  0.
        3    1    3    3  502    0 -0.26157387600E+03  0.48953653807E+03  0.28513595404E+03  0.62399474132E+03  0.10100000352E+00 0. -1.
       -3    1    3    3    0  502  0.26157387600E+03 -0.48953653807E+03 -0.37960426011E+03  0.67243313363E+03  0.10100000352E+00 0.  1.
</event>
<event>
 5   0  0.5957913E-04  0.1299509E+04  0.7818609E-02  0.9029955E-01
        2   -1    0    0  501    0  0.00000000000E+00  0.00000000000E+00  0.12547274037E+04  0.12547274037E+04  0.25500000920E-02 0. -1.
       -2   -1    0    0    0  501  0.00000000000E+00  0.00000000000E+00 -0.33647217778E+03  0.33647217779E+03  0.25500000920E-02 0.  1.
    10030    2    1    2    0    0  0.00000000000E+00  0.00000000000E+00  0.91825522588E+03  0.15911995815E+04  0.12995089258E+04 0.  0.
        1    1    3    3  502    0  0.50996508203E+03 -0.33784651743E+03  0.19092787608E+03  0.64082611380E+03  0.50400001928E-02 0.  1.
       -1    1    3    3    0  502 -0.50996508203E+03  0.33784651743E+03  0.72732734980E+03  0.95037346766E+03  0.50400001928E-02 0. -1.
</event>
<event>
 5   0  0.3274879E-04  0.1300371E+04  0.7818609E-02  0.9029271E-01
       -1   -1    0    0    0  501  0.00000000000E+00  0.00000000000E+00  0.38943138564E+03  0.38943138567E+03  0.50400001928E-02 0.  1.
        1   -1    0    0  501    0  0.00000000000E+00  0.00000000000E+00 -0.10855341754E+04  0.10855341754E+04  0.50400001928E-02 0. -1.
    10030    2    1    2    0    0  0.00000000000E+00  0.00000000000E+00 -0.69610278972E+03  0.14749655610E+04  0.13003708365E+04 0.  0.
        4    1    3    3  502    0 -0.31076164435E+03  0.22961069483E+03  0.24507892422E+03  0.45755782452E+03  0.12699999809E+01 0.  1.
       -4    1    3    3    0  502  0.31076164435E+03 -0.22961069483E+03 -0.94118171394E+03  0.10174077365E+04  0.12699999809E+01 0. -1.
</event>
<event>
 5   0  0.3335747E-04  0.1300153E+04  0.7818609E-02  0.9029444E-01
        1   -1    0    0  501    0  0.00000000000E+00  0.00000000000E+00  0.83247221524E+03  0.83247221526E+03  0.50400001928E-02 0. -1.
       -1   -1    0    0    0  501  0.00000000000E+00  0.00000000000E+00 -0.50764354974E+03  0.50764354977E+03  0.50400001928E-02 0.  1.
    10030    2    1    2    0    0  0.00000000000E+00  0.00000000000E+00  0.32482866550E+03  0.13401157650E+04  0.13001525302E+04 0.  0.
        3    1    3    3  502    0  0.39670326942E+03 -0.35932438287E+03 -0.21785880722E+03  0.57788404216E+03  0.10100000352E+00 0.  1.
       -3    1    3    3    0  502 -0.39670326942E+03  0.35932438287E+03  0.54268747272E+03  0.76223172286E+03  0.10100000352E+00 0. -1.
</event>
<event>
 5   0  0.3403833E-04  0.1296717E+04  0.7818609E-02  0.9032172E-01
       -1   -1    0    0    0  501  0.00000000000E+00  0.00000000000E+00  0.27905755728E+03  0.27905755732E+03  0.50400001928E-02 0. -1.
        1   -1    0    0  501    0  0.00000000000E+00  0.00000000000E+00 -0.15063883956E+04  0.15063883956E+04  0.50400001928E-02 0.  1.
    10030    2    1    2    0    0  0.00000000000E+00  0.00000000000E+00 -0.12273308384E+04  0.17854459530E+04  0.12967174959E+04 0.  0.
        1    1    3    3  502    0 -0.46857911397E+03  0.38769115869E+02  0.10223757993E+01  0.47018132212E+03  0.50400001928E-02 0.  1.
       -1    1    3    3    0  502  0.46857911397E+03 -0.38769115869E+02 -0.12283532142E+04  0.13152646308E+04  0.50400001928E-02 0. -1.
</event>
<event>
 5   0  0.2255875E-04  0.1308202E+04  0.7818609E-02  0.9023086E-01
       -3   -1    0    0    0  501  0.00000000000E+00  0.00000000000E+00  0.36387495266E+03  0.36387496668E+03  0.10100000352E+00 0. -1.
        3   -1    0    0  501    0  0.00000000000E+00  0.00000000000E+00 -0.11758101375E+04  0.11758101418E+04  0.10100000352E+00 0.  1.
    10030    2    1    2    0    0  0.00000000000E+00  0.00000000000E+00 -0.81193518481E+03  0.15396851085E+04  0.13082016240E+04 0.  0.
        3    1    3    3  502    0  0.53435167459E+03  0.37159025036E+03 -0.32935890183E+03  0.72944384480E+03  0.10100000352E+00 0. -1.
       -3    1    3    3    0  502 -0.53435167459E+03 -0.37159025036E+03 -0.48257628298E+03  0.81024126369E+03  0.10100000352E+00 0.  1.
</event>
<event>
 5   0  0.3337520E-04  0.1281316E+04  0.7818609E-02  0.9044514E-01
        1   -1    0    0  501    0  0.00000000000E+00  0.00000000000E+00  0.75075333835E+03  0.75075333837E+03  0.50400001928E-02 0. -1.
       -1   -1    0    0    0  501  0.00000000000E+00  0.00000000000E+00 -0.54670770016E+03  0.54670770018E+03  0.50400001928E-02 0.  1.
    10030    2    1    2    0    0  0.00000000000E+00  0.00000000000E+00  0.20404563820E+03  0.12974610386E+04  0.12813159345E+04 0.  0.
        5    1    3    3  502    0 -0.30105477415E+03 -0.54895570556E+03 -0.35460565172E+02  0.62710914950E+03  0.46999998093E+01 0.  1.
       -5    1    3    3    0  502  0.30105477415E+03  0.54895570556E+03  0.23950620337E+03  0.67035188905E+03  0.46999998093E+01 0. -1.
</event>
<event>
 5   0  0.3335747E-04  0.1305447E+04  0.7818609E-02  0.9025257E-01
        1   -1    0    0  501    0  0.00000000000E+00  0.00000000000E+00  0.27240114703E+03  0.27240114707E+03  0.50400001928E-02 0. -1.
       -1   -1    0    0    0  501  0.00000000000E+00  0.00000000000E+00 -0.15640455464E+04  0.15640455465E+04  0.50400001928E-02 0.  1.
    10030    2    1    2    0    0  0.00000000000E+00  0.00000000000E+00 -0.12916443994E+04  0.18364466935E+04  0.13054467448E+04 0.  0.
        3    1    3    3  502    0  0.13627268611E+03  0.11658431648E+03  0.23706301206E+03  0.29725583209E+03  0.10100000352E+00 0. -1.
       -3    1    3    3    0  502 -0.13627268611E+03 -0.11658431648E+03 -0.15287074115E+04  0.15391908614E+04  0.10100000352E+00 0.  1.
</event>
<event>
 5   0  0.5787604E-04  0.1297852E+04  0.7818609E-02  0.9031270E-01
        2   -1    0    0  501    0  0.00000000000E+00  0.00000000000E+00  0.76822215354E+03  0.76822215355E+03  0.25500000920E-02 0. -1.
       -2   -1    0    0    0  501  0.00000000000E+00  0.00000000000E+00 -0.54815536964E+03  0.54815536965E+03  0.25500000920E-02 0.  1.
    10030    2    1    2    0    0  0.00000000000E+00  0.00000000000E+00  0.22006678390E+03  0.13163775232E+04  0.12978522236E+04 0.  0.
        4    1    3    3  502    0  0.31968354169E+03  0.50212856779E+03 -0.15205939716E+03  0.61437312652E+03  0.12699999809E+01 0.  1.
       -4    1    3    3    0  502 -0.31968354169E+03 -0.50212856779E+03  0.37212618106E+03  0.70200439668E+03  0.12699999809E+01 0. -1.
</event>
<event>
 5   0  0.5957913E-04  0.1278094E+04  0.7818609E-02  0.9047119E-01
       -2   -1    0    0    0  501  0.00000000000E+00  0.00000000000E+00  0.87903880894E+03  0.87903880895E+03  0.25500000920E-02 0.  1.
        2   -1    0    0  501    0  0.00000000000E+00  0.00000000000E+00 -0.46457692078E+03  0.46457692079E+03  0.25500000920E-02 0. -1.
    10030    2    1    2    0    0  0.00000000000E+00  0.00000000000E+00  0.41446188816E+03  0.13436157297E+04  0.12780941172E+04 0.  0.
        1    1    3    3  502    0 -0.40852211973E+03  0.47842835250E+03  0.32522172864E+03  0.70820419625E+03  0.50400001928E-02 0.  1.
       -1    1    3    3    0  502  0.40852211973E+03 -0.47842835250E+03  0.89240159520E+02  0.63541153348E+03  0.50400001928E-02 0. -1.
</event>
<event>
 5   0  0.3274879E-04  0.1302005E+04  0.7818609E-02  0.9027977E-01
       -1   -1    0    0    0  501  0.00000000000E+00  0.00000000000E+00  0.85418065661E+03  0.85418065662E+03  0.50400001928E-02 0.  1.
        1   -1    0    0  501    0  0.00000000000E+00  0.00000000000E+00 -0.49615303306E+03  0.49615303309E+03  0.50400001928E-02 0. -1.
    10030    2    1    2    0    0  0.00000000000E+00  0.00000000000E+00  0.35802762355E+03  0.13503336897E+04  0.13020051053E+04 0.  0.
        4    1    3    3  502    0  0.84188484975E+01  0.79506684015E+02  0.84906828611E+03  0.85282516214E+03  0.12699999809E+01 0.  1.
       -4    1    3    3    0  502 -0.84188484975E+01 -0.79506684015E+02 -0.49104066256E+03  0.49750852757E+03  0.12699999809E+01 0. -1.
</event>
<event>
 5   0  0.6007125E-04  0.1297382E+04  0.7818609E-02  0.9031644E-01
       -2   -1    0    0    0  501  0.00000000000E+00  0.00000000000E+00  0.48083912019E+03  0.48083912020E+03  0.25500000920E-02 0. -1.
        2   -1    0    0  501    0  0.00000000000E+00  0.00000000000E+00 -0.87513724441E+03  0.87513724441E+03  0.25500000920E-02 0.  1.
    10030    2    1    2    0    0  0.00000000000E+00  0.00000000000E+00 -0.39429812422E+03  0.13559763646E+04  0.12973823225E+04 0.  0.
        5    1    3    3  502    0 -0.53130777597E+03  0.36397877171E+03 -0.27817202867E+03  0.70154847772E+03  0.46999998093E+01 0. -1.
       -5    1    3    3    0  502  0.53130777597E+03 -0.36397877171E+03 -0.11612609555E+03  0.65442788688E+03  0.46999998093E+01 0.  1.
</event>
<event>
 5   0  0.3274879E-04  0.1305308E+04  0.7818609E-02  0.9025366E-01
       -1   -1    0    0    0  501  0.00000000000E+00  0.00000000000E+00  0.10261182776E+04  0.10261182776E+04  0.50400001928E-02 0.  1.
        1   -1    0    0  501    0  0.00000000000E+00  0.00000000000E+00 -0.41511539522E+03  0.41511539525E+03  0.50400001928E-02 0. -1.
    10030    2    1    2    0    0  0.00000000000E+00  0.00000000000E+00  0.61100288234E+03  0.14412336728E+04  0.13053083840E+04 0.  0.
        4    1    3    3  502    0 -0.33734204486E+03 -0.14016271497E+03  0.90266336234E+03  0.97378026295E+03  0.12699999809E+01 0.  1.
       -4    1    3    3    0  502  0.33734204486E+03  0.14016271497E+03 -0.29166048000E+03  0.46745340986E+03  0.12699999809E+01 0. -1.
</event>
<event>
 5   0  0.3403833E-04  0.1285736E+04  0.7818609E-02  0.9040954E-01
        1   -1    0    0  501    0  0.00000000000E+00  0.00000000000E+00  0.59161064253E+03  0.59161064255E+03  0.50400001928E-02 0.  1.
       -1   -1    0    0    0  501  0.00000000000E+00  0.00000000000E+00 -0.69856623967E+03  0.69856623969E+03  0.50400001928E-02 0. -1.
    10030    2    1    2    0    0  0.00000000000E+00  0.00000000000E+00 -0.10695559714E+03  0.12901768822E+04  0.12857359323E+04 0.  0.
        1    1    3    3  502    0 -0.20351242102E+03 -0.47234530596E+03 -0.44049354083E+03  0.67717202623E+03  0.50400001928E-02 0.  1.
       -1    1    3    3    0  502  0.20351242102E+03  0.47234530596E+03  0.33353794369E+03  0.61300485600E+03  0.50400001928E-02 0. -1.
</event>
<event>
 5   0  0.3403833E-04  0.1318534E+04  0.7818609E-02  0.9014995E-01
       -1   -1    0    0    0  501  0.00000000000E+00  0.00000000000E+00  0.40525839277E+03  0.40525839280E+03  0.50400001928E-02 0. -1.
        1   -1    0    0  501    0  0.00000000000E+00  0.00000000000E+00 -0.10724836870E+04  0.10724836870E+04  0.50400001928E-02 0.  1.
    10030    2    1    2    0    0  0.00000000000E+00  0.00000000000E+00 -0.66722529424E+03  0.14777420798E+04  0.13185340577E+04 0.  0.
        1    1    3    3  502    0  0.24754831400E+03  0.52367803090E+03  0.19225194662E+02  0.57955884598E+03  0.50400001928E-02 0. -1.
       -1    1    3    3    0  502 -0.24754831400E+03 -0.52367803090E+03 -0.68645048890E+03  0.89818323384E+03  0.50400001928E-02 0.  1.
</event>
<event>
 5   0  0.3335747E-04  0.1299852E+04  0.7818609E-02  0.9029682E-01
        1   -1    0    0  501    0  0.00000000000E+00  0.00000000000E+00  0.10549683729E+04  0.10549683729E+04  0.50400001928E-02 0.  1.
       -1   -1    0    0    0  501  0.00000000000E+00  0.00000000000E+00 -0.40039489065E+03  0.40039489068E+03  0.50400001928E-02 0. -1.
    10030    2    1    2    0    0  0.00000000000E+00  0.00000000000E+00  0.65457348228E+03  0.14553632636E+04  0.12998522168E+04 0.  0.
        3    1    3    3  502    0  0.31668983056E+03 -0.26088599652E+03  0.89162177906E+03  0.98150056498E+03  0.10100000352E+00 0.  1.
       -3    1    3    3    0  502 -0.31668983056E+03  0.26088599652E+03 -0.23704829678E+03  0.47386269865E+03  0.10100000352E+00 0. -1.
</event>
<event>
 5   0  0.6007125E-04  0.1302288E+04  0.7818609E-02  0.9027753E-01
        2   -1    0    0  501    0  0.00000000000E+00  0.00000000000E+00  0.15010139506E+04  0.15010139506E+04  0.25500000920E-02 0. -1.
       -2   -1    0    0    0  501  0.00000000000E+00  0.00000000000E+00 -0.28246815346E+03  0.28246815347E+03  0.25500000920E-02 0.  1.
    10030    2    1    2    0    0  0.00000000000E+00  0.00000000000E+00  0.12185457971E+04  0.17834821040E+04  0.13022882000E+04 0.  0.
        5    1    3    3  502    0  0.17650899880E+03 -0.32531513331E+03 -0.12437615853E+03  0.39048288238E+03  0.46999998093E+01 0.  1.
       -5    1    3    3    0  502 -0.17650899880E+03  0.32531513331E+03  0.13429219556E+04  0.13929992217E+04  0.46999998093E+01 0. -1.
</event>
<event>
 5   0  0.5957913E-04  0.1301392E+04  0.7818609E-02  0.9028462E-01
       -2   -1    0    0    0  501  0.00000000000E+00  0.00000000000E+00  0.44959858569E+03  0.44959858569E+03  0.25500000920E-02 0. -1.
        2   -1    0    0  501    0  0.00000000000E+00  0.00000000000E+00 -0.94174108508E+03  0.94174108508E+03  0.25500000920E-02 0.  1.
    10030    2    1    2    0    0  0.00000000000E+00  0.00000000000E+00 -0.49214249939E+03  0.13913396708E+04  0.13013922697E+04 0.  0.
        1    1    3    3  502    0 -0.19895430173E+03  0.13599505314E+03 -0.89227045554E+03  0.92424241112E+03  0.50400001928E-02 0.  1.
       -1    1    3    3    0  502  0.19895430173E+03 -0.13599505314E+03  0.40012795615E+03  0.46709725965E+03  0.50400001928E-02 0. -1.
</event>
<event>
 5   0  0.3274879E-04  0.1301839E+04  0.7818609E-02  0.9028108E-01
       -1   -1    0    0    0  501  0.00000000000E+00  0.00000000000E+00  0.32987375309E+03  0.32987375313E+03  0.50400001928E-02 0. -1.
        1   -1    0    0  501    0  0.00000000000E+00  0.00000000000E+00 -0.12844185047E+04  0.12844185048E+04  0.50400001928E-02 0.  1.
    10030    2    1    2    0    0  0.00000000000E+00  0.00000000000E+00 -0.95454475165E+03  0.16142922579E+04  0.13018386271E+04 0.  0.
        4    1    3    3  502    0 -0.16487006085E+03 -0.27141212460E+03 -0.11818418658E+04  0.12237640651E+04  0.12699999809E+01 0.  1.
       -4    1    3    3    0  502  0.16487006085E+03  0.27141212460E+03  0.22729711417E+03  0.39052819278E+03  0.12699999809E+01 0. -1.
</event>
<event>
 5   0  0.3335747E-04  0.1299228E+04  0.7818609E-02  0.9030178E-01
       -1   -1    0    0    0  501  0.00000000000E+00  0.00000000000E+00  0.32869468909E+03  0.32869468913E+03  0.50400001928E-02 0.  1.
        1   -1    0    0  501    0  0.00000000000E+00  0.00000000000E+00 -0.12838611067E+04  0.12838611067E+04  0.50400001928E-02 0. -1.
    10030    2    1    2    0    0  0.00000000000E+00  0.00000000000E+00 -0.95516641760E+03  0.16125557958E+04  0.12992279667E+04 0.  0.
        3    1    3    3  502    0  0.54250634031E+03  0.29241940289E+03 -0.73247890328E+03  0.95726046112E+03  0.10100000352E+00 0. -1.
       -3    1    3    3    0  502 -0.54250634031E+03 -0.29241940289E+03 -0.22268751432E+03  0.65529533472E+03  0.10100000352E+00 0.  1.
</event>
<event>
 5   0  0.6007125E-04  0.1295811E+04  0.7818609E-02  0.9032894E-01
        2   -1    0    0  501    0  0.00000000000E+00  0.00000000000E+00  0.39460006792E+03  0.39460006792E+03  0.25500000920E-02 0.  1.
       -2   -1    0    0    0  501  0.00000000000E+00  0.00000000000E+00 -0.10638149159E+04  0.10638149159E+04  0.25500000920E-02 0. -1.
    10030    2    1    2    0    0  0.00000000000E+00  0.00000000000E+00 -0.66921484797E+03  0.14584149838E+04  0.12958108474E+04 0.  0.
        5    1    3    3  502    0  0.41699242535E+02 -0.45648231562E+03 -0.84993235864E+03  0.96567180530E+03  0.46999998093E+01 0. -1.
       -5    1    3    3    0  502 -0.41699242535E+02  0.45648231562E+03  0.18071751067E+03  0.49274317851E+03  0.46999998093E+01 0.  1.
</event>
<event>
 5   0  0.3335747E-04  0.1303800E+04  0.7818609E-02  0.9026557E-01
        1   -1    0    0  501    0  0.00000000000E+00  0.00000000000E+00  0.13559338897E+04  0.13559338898E+04  0.50400001928E-02 0.  1.
       -1   -1    0    0    0  501  0.00000000000E+00  0.00000000000E+00 -0.31341766351E+03  0.31341766355E+03  0.50400001928E-02 0. -1.
    10030    2    1    2    0    0  0.00000000000E+00  0.00000000000E+00  0.10425162262E+04  0.16693515533E+04  0.13038000332E+04 0.  0.
        3    1    3    3  502    0 -0.65725575321E+02 -0.15367771877E+03 -0.28551658459E+03  0.33084199064E+03  0.10100000352E+00 0. -1.
       -3    1    3    3    0  502  0.65725575321E+02  0.15367771877E+03  0.13280328108E+04  0.13385095627E+04  0.10100000352E+00 0.  1.
</event>
<event>
 5   0  0.3403833E-04  0.1297887E+04  0.7818609E-02  0.9031242E-01
       -1   -1    0    0    0  501  0.00000000000E+00  0.00000000000E+00  0.35853244025E+03  0.35853244029E+03  0.50400001928E-02 0. -1.
        1   -1    0    0  501    0  0.00000000000E+00  0.00000000000E+00 -0.11745878011E+04  0.11745878011E+04  0.50400001928E-02 0.  1.
    10030    2    1    2    0    0  0.00000000000E+00  0.00000000000E+00 -0.81605536083E+03  0.15331202414E+04  0.12978872534E+04 0.  0.
        1    1    3    3  502    0  0.32640165016E+03 -0.41972501006E+03 -0.84750835810E+03  0.10004886498E+04  0.50400001928E-02 0.  1.
       -1    1    3    3    0  502 -0.32640165016E+03  0.41972501006E+03  0.31452997270E+02  0.53263159159E+03  0.50400001928E-02 0. -1.
</event>
<event>
 5   0  0.5787604E-04  0.1306165E+04  0.7818609E-02  0.9024690E-01
        2   -1    0    0  501    0  0.00000000000E+00  0.00000000000E+00  0.46488348107E+03  0.46488348107E+03  0.25500000920E-02 0. -1.
       -2   -1    0    0    0  501  0.00000000000E+00  0.00000000000E+00 -0.91747024619E+03  0.91747024620E+03  0.25500000920E-02 0.  1.
    10030    2    1    2    0    0  0.00000000000E+00  0.00000000000E+00 -0.45258676513E+03  0.13823537273E+04  0.13061650154E+04 0.  0.
        4    1    3    3  502    0 -0.60036816748E+03 -0.25553197547E+03 -0.25578685871E+03  0.70083311637E+03  0.12699999809E+01 0. -1.
       -4    1    3    3    0  502  0.60036816748E+03  0.25553197547E+03 -0.19679990642E+03  0.68152061090E+03  0.12699999809E+01 0.  1.
</event>
<event>
 5   0  0.6052864E-04  0.1299731E+04  0.7818609E-02  0.9029779E-01
       -2   -1    0    0    0  501  0.00000000000E+00  0.00000000000E+00  0.48055326793E+03  0.48055326794E+03  0.25500000920E-02 0. -1.
        2   -1    0    0  501    0  0.00000000000E+00  0.00000000000E+00 -0.87883074734E+03  0.87883074734E+03  0.25500000920E-02 0.  1.
    10030    2    1    2    0    0  0.00000000000E+00  0.00000000000E+00 -0.39827747941E+03  0.13593840153E+04  0.12997307223E+04 0.  0.
        2    1    3    3  502    0  0.51726773200E+03 -0.35341831813E+03 -0.18423736687E+02  0.62674544134E+03  0.25500000920E-02 0. -1.
       -2    1    3    3    0  502 -0.51726773200E+03  0.35341831813E+03 -0.37985374272E+03  0.73263857394E+03  0.25500000920E-02 0.  1.
</event>
<event>
 5   0  0.3263679E-04  0.1303351E+04  0.7818609E-02  0.9026912E-01
       -1   -1    0    0    0  501  0.00000000000E+00  0.00000000000E+00  0.35249270255E+03  0.35249270258E+03  0.50400001928E-02 0. -1.
        1   -1    0    0  501    0  0.00000000000E+00  0.00000000000E+00 -0.12047928160E+04  0.12047928160E+04  0.50400001928E-02 0.  1.
    10030    2    1    2    0    0  0.00000000000E+00  0.00000000000E+00 -0.85230011346E+03  0.15572855186E+04  0.13033505680E+04 0.  0.
        2    1    3    3  502    0 -0.29677597149E+03 -0.58001040719E+03 -0.44273311050E+03  0.78771864066E+03  0.25500000920E-02 0.  1.
       -2    1    3    3    0  502  0.29677597149E+03  0.58001040719E+03 -0.40956700296E+03  0.76956687794E+03  0.25500000920E-02 0. -1.
</event>
<event>
 5   0  0.6052864E-04  0.1303967E+04  0.7818609E-02  0.9026425E-01
       -2   -1    0    0    0  501  0.00000000000E+00  0.00000000000E+00  0.81485121649E+03  0.81485121649E+03  0.25500000920E-02 0.  1.
        2   -1    0    0  501    0  0.00000000000E+00  0.00000000000E+00 -0.52166887174E+03  0.52166887175E+03  0.25500000920E-02 0. -1.
    10030    2    1    2    0    0  0.00000000000E+00  0.00000000000E+00  0.29318234475E+03  0.13365200882E+04  0.13039670467E+04 0.  0.
        2    1    3    3  502    0 -0.47462113383E+03 -0.19048621621E+03  0.56107791191E+03  0.75918287815E+03  0.25500000920E-02 0.  1.
       -2    1    3    3    0  502  0.47462113383E+03  0.19048621621E+03 -0.26789556716E+03  0.57733721009E+03  0.25500000920E-02 0. -1.
</event>
<event>
 5   0  0.3263679E-04  0.1317261E+04  0.7818609E-02  0.9015988E-01
       -1   -1    0    0    0  501  0.00000000000E+00  0.00000000000E+00  0.10047021731E+04  0.10047021732E+04  0.50400001928E-02 0. -1.
        1   -1    0    0  501    0  0.00000000000E+00  0.00000000000E+00 -0.43176381973E+03  0.43176381976E+03  0.50400001928E-02 0.  1.
    10030    2    1    2    0    0  0.00000000000E+00  0.00000000000E+00  0.57293835342E+03  0.14364659929E+04  0.13172608671E+04 0.  0.
        2    1    3    3  502    0 -0.40553927023E+03 -0.34083526020E+03 -0.14030769823E+03  0.54801188352E+03  0.25500000920E-02 0.  1.
       -2    1    3    3    0  502  0.40553927023E+03  0.34083526020E+03  0.71324605165E+03  0.88845410939E+03  0.25500000920E-02 0. -1.
</event>
<event>
 5   0  0.2255875E-04  0.1299754E+04  0.7818609E-02  0.9029760E-01
       -3   -1    0    0    0  501  0.00000000000E+00  0.00000000000E+00  0.57655931541E+03  0.57655932426E+03  0.10100000352E+00 0. -1.
        3   -1    0    0  501    0  0.00000000000E+00  0.00000000000E+00 -0.73251786876E+03  0.73251787573E+03  0.10100000352E+00 0.  1.
    10030    2    1    2    0    0  0.00000000000E+00  0.00000000000E+00 -0.15595855335E+03  0.13090772000E+04  0.12997538402E+04 0.  0.
        2    1    3    3  502    0  0.43923482679E+03  0.25939322742E+03 -0.48351869220E+03  0.70285304667E+03  0.25500000920E-02 0.  1.
       -2    1    3    3    0  502 -0.43923482679E+03 -0.25939322742E+03  0.32756013885E+03  0.60622415332E+03  0.25500000920E-02 0. -1.
</event>
<event>
 5   0  0.3403833E-04  0.1298184E+04  0.7818609E-02  0.9031006E-01
       -1   -1    0    0    0  501  0.00000000000E+00  0.00000000000E+00  0.58625614025E+03  0.58625614027E+03  0.50400001928E-02 0.  1.
        1   -1    0    0  501    0  0.00000000000E+00  0.00000000000E+00 -0.71866273021E+03  0.71866273022E+03  0.50400001928E-02 0. -1.
    10030    2    1    2    0    0  0.00000000000E+00  0.00000000000E+00 -0.13240658996E+03  0.13049188705E+04  0.12981840214E+04 0.  0.
        1    1    3    3  502    0  0.42654068625E+03 -0.14093530526E+03  0.40475777821E+03  0.60467228838E+03  0.50400001928E-02 0.  1.
       -1    1    3    3    0  502 -0.42654068625E+03  0.14093530526E+03 -0.53716436817E+03  0.70024658211E+03  0.50400001928E-02 0. -1.
</event>
<event>
 5   0  0.6052864E-04  0.1322527E+04  0.7818609E-02  0.9011890E-01
       -2   -1    0    0    0  501  0.00000000000E+00  0.00000000000E+00  0.67916106103E+03  0.67916106103E+03  0.25500000920E-02 0.  1.
        2   -1    0    0  501    0  0.00000000000E+00  0.00000000000E+00 -0.64383733967E+03  0.64383733968E+03  0.25500000920E-02 0. -1.
    10030    2    1    2    0    0  0.00000000000E+00  0.00000000000E+00  0.35323721359E+02  0.13229984007E+04  0.13225267494E+04 0.  0.
        2    1    3    3  502    0 -0.52846410444E+03  0.54005388191E+02  0.41160219839E+03  0.67201730734E+03  0.25500000920E-02 0.  1.
       -2    1    3    3    0  502  0.52846410444E+03 -0.54005388191E+02 -0.37627847703E+03  0.65098109337E+03  0.25500000920E-02 0. -1.
</event>
<event>
 5   0  0.5787604E-04  0.1298218E+04  0.7818609E-02  0.9030980E-01
        2   -1    0    0  501    0  0.00000000000E+00  0.00000000000E+00  0.97105775289E+03  0.97105775290E+03  0.25500000920E-02 0. -1.
       -2   -1    0    0    0  501  0.00000000000E+00  0.00000000000E+00 -0.43390053645E+03  0.43390053646E+03  0.25500000920E-02 0.  1.
    10030    2    1    2    0    0  0.00000000000E+00  0.00000000000E+00  0.53715721645E+03  0.14049582894E+04  0.12982179785E+04 0.  0.
        4    1    3    3  502    0  0.28357161662E+03  0.39895487400E+03  0.72996902446E+03  0.87888238281E+03  0.12699999809E+01 0. -1.
       -4    1    3    3    0  502 -0.28357161662E+03 -0.39895487400E+03 -0.19281180801E+03  0.52607590655E+03  0.12699999809E+01 0.  1.
</event>
<event>
 5   0  0.5957913E-04  0.1304615E+04  0.7818609E-02  0.9025913E-01
       -2   -1    0    0    0  501  0.00000000000E+00  0.00000000000E+00  0.38625092865E+03  0.38625092866E+03  0.25500000920E-02 0.  1.
        2   -1    0    0  501    0  0.00000000000E+00  0.00000000000E+00 -0.11016294000E+04  0.11016294000E+04  0.25500000920E-02 0. -1.
    10030    2    1    2    0    0  0.00000000000E+00  0.00000000000E+00 -0.71537847137E+03  0.14878803287E+04  0.13046154664E+04 0.  0.
        1    1    3    3  502    0 -0.10998924548E+03 -0.21730359980E+03 -0.10478287203E+04  0.10757618304E+04  0.50400001928E-02 0. -1.
       -1    1    3    3    0  502  0.10998924548E+03  0.21730359980E+03  0.33245024893E+03  0.41211849830E+03  0.50400001928E-02 0.  1.
</event>
<event>
 5   0  0.5957913E-04  0.1293580E+04  0.7818609E-02  0.9034672E-01
       -2   -1    0    0    0  501  0.00000000000E+00  0.00000000000E+00  0.66759172723E+03  0.66759172724E+03  0.25500000920E-02 0. -1.
        2   -1    0    0  501    0  0.00000000000E+00  0.00000000000E+00 -0.62663680355E+03  0.62663680355E+03  0.25500000920E-02 0.  1.
    10030    2    1    2    0    0  0.00000000000E+00  0.00000000000E+00  0.40954923687E+02  0.12942285308E+04  0.12935803741E+04 0.  0.
        1    1    3    3  502    0  0.28156379922E+03 -0.43977288751E+03 -0.36136698802E+03  0.63503107457E+03  0.50400001928E-02 0.  1.
       -1    1    3    3    0  502 -0.28156379922E+03  0.43977288751E+03  0.40232191170E+03  0.65919745622E+03  0.50400001928E-02 0. -1.
</event>
<event>
 5   0  0.3263679E-04  0.1307723E+04  0.7818609E-02  0.9023463E-01
        1   -1    0    0  501    0  0.00000000000E+00  0.00000000000E+00  0.77024702990E+03  0.77024702992E+03  0.50400001928E-02 0.  1.
       -1   -1    0    0    0  501  0.00000000000E+00  0.00000000000E+00 -0.55506180962E+03  0.55506180965E+03  0.50400001928E-02 0. -1.
    10030    2    1    2    0    0  0.00000000000E+00  0.00000000000E+00  0.21518522028E+03  0.13253088396E+04  0.13077227692E+04 0.  0.
        2    1    3    3  502    0  0.37042580632E+03  0.52319428855E+03  0.23811575836E+03  0.68384695360E+03  0.25500000920E-02 0.  1.
       -2    1    3    3    0  502 -0.37042580632E+03 -0.52319428855E+03 -0.22930538074E+02  0.64146188597E+03  0.25500000920E-02 0. -1.
</event>
<event>
 5   0  0.6007125E-04  0.1252199E+04  0.7818609E-02  0.9068355E-01
       -2   -1    0    0    0  501  0.00000000000E+00  0.00000000000E+00  0.45272828998E+03  0.45272828999E+03  0.25500000920E-02 0.  1.
        2   -1    0    0  501    0  0.00000000000E+00  0.00000000000E+00 -0.86586219348E+03  0.86586219349E+03  0.25500000920E-02 0. -1.
    10030    2    1    2    0    0  0.00000000000E+00  0.00000000000E+00 -0.41313390350E+03  0.13185904835E+04  0.12521985629E+04 0.  0.
        5    1    3    3  502    0  0.40458411313E+01  0.15918746903E+03  0.43102896035E+03  0.45952701094E+03  0.46999998093E+01 0.  1.
       -5    1    3    3    0  502 -0.40458411313E+01 -0.15918746903E+03 -0.84416286386E+03  0.85906347253E+03  0.46999998093E+01 0. -1.
</event>
<event>
 5   0  0.5957913E-04  0.1286373E+04  0.7818609E-02  0.9040442E-01
       -2   -1    0    0    0  501  0.00000000000E+00  0.00000000000E+00  0.48282088279E+03  0.48282088280E+03  0.25500000920E-02 0.  1.
        2   -1    0    0  501    0  0.00000000000E+00  0.00000000000E+00 -0.85681624891E+03  0.85681624892E+03  0.25500000920E-02 0. -1.
    10030    2    1    2    0    0  0.00000000000E+00  0.00000000000E+00 -0.37399536612E+03  0.13396371317E+04  0.12863728506E+04 0.  0.
        1    1    3    3  502    0  0.39939320374E+03 -0.26847045726E+03  0.25740048014E+03  0.54575298883E+03  0.50400001928E-02 0.  1.
       -1    1    3    3    0  502 -0.39939320374E+03  0.26847045726E+03 -0.63139584626E+03  0.79388414288E+03  0.50400001928E-02 0. -1.
</event>
<event>
 5   0  0.6007125E-04  0.1299824E+04  0.7818609E-02  0.9029705E-01
       -2   -1    0    0    0  501  0.00000000000E+00  0.00000000000E+00  0.43245089384E+03  0.43245089385E+03  0.25500000920E-02 0. -1.
        2   -1    0    0  501    0  0.00000000000E+00  0.00000000000E+00 -0.97672507993E+03  0.97672507994E+03  0.25500000920E-02 0.  1.
    10030    2    1    2    0    0  0.00000000000E+00  0.00000000000E+00 -0.54427418609E+03  0.14091759738E+04  0.12998240402E+04 0.  0.
        5    1    3    3  502    0  0.13612355483E+02  0.34521584422E+03  0.32463023502E+03  0.47409509047E+03  0.46999998093E+01 0. -1.
       -5    1    3    3    0  502 -0.13612355483E+02 -0.34521584422E+03 -0.86890442111E+03  0.93508088331E+03  0.46999998093E+01 0.  1.
</event>
<event>
 5   0  0.5787604E-04  0.1299868E+04  0.7818609E-02  0.9029670E-01
       -2   -1    0    0    0  501  0.00000000000E+00  0.00000000000E+00  0.95600372335E+03  0.95600372335E+03  0.25500000920E-02 0.  1.
        2   -1    0    0  501    0  0.00000000000E+00  0.00000000000E+00 -0.44185412985E+03  0.44185412986E+03  0.25500000920E-02 0. -1.
    10030    2    1    2    0    0  0.00000000000E+00  0.00000000000E+00  0.51414959350E+03  0.13978578532E+04  0.12998679830E+04 0.  0.
        4    1    3    3  502    0 -0.31961182763E+03 -0.42368967610E+03  0.66052018384E+03  0.84732118358E+03  0.12699999809E+01 0.  1.
       -4    1    3    3    0  502  0.31961182763E+03  0.42368967610E+03 -0.14637059034E+03  0.55053666963E+03  0.12699999809E+01 0. -1.
</event>
<event>
 5   0  0.3403833E-04  0.1296714E+04  0.7818609E-02  0.9032175E-01
       -1   -1    0    0    0  501  0.00000000000E+00  0.00000000000E+00  0.31858746674E+03  0.31858746678E+03  0.50400001928E-02 0. -1.
        1   -1    0    0  501    0  0.00000000000E+00  0.00000000000E+00 -0.13194709954E+04  0.13194709954E+04  0.50400001928E-02 0.  1.
    10030    2    1    2    0    0  0.00000000000E+00  0.00000000000E+00 -0.10008835286E+04  0.16380584622E+04  0.12967141889E+04 0.  0.
        1    1    3    3  502    0 -0.28884978437E+03  0.36393761892E+03  0.70790617382E+02  0.46999585097E+03  0.50400001928E-02 0. -1.
       -1    1    3    3    0  502  0.28884978437E+03 -0.36393761892E+03 -0.10716741460E+04  0.11680626112E+04  0.50400001928E-02 0.  1.
</event>
<event>
 5   0  0.5384960E-04  0.1298324E+04  0.7818609E-02  0.9030895E-01
       -2   -1    0    0    0  501  0.00000000000E+00  0.00000000000E+00  0.48160013624E+03  0.48160013624E+03  0.25500000920E-02 0. -1.
        2   -1    0    0  501    0  0.00000000000E+00  0.00000000000E+00 -0.87502304501E+03  0.87502304502E+03  0.25500000920E-02 0.  1.
    10030    2    1    2    0    0  0.00000000000E+00  0.00000000000E+00 -0.39342290878E+03  0.13566231813E+04  0.12983238698E+04 0.  0.
        3    1    3    3  502    0 -0.36071920780E+03  0.15071292823E+03  0.34480516887E+03  0.52127089723E+03  0.10100000352E+00 0. -1.
       -3    1    3    3    0  502  0.36071920780E+03 -0.15071292823E+03 -0.73822807765E+03  0.83535228403E+03  0.10100000352E+00 0.  1.
</event>
<event>
 5   0  0.5957913E-04  0.1302615E+04  0.7818609E-02  0.9027494E-01
       -2   -1    0    0    0  501  0.00000000000E+00  0.00000000000E+00  0.47985760246E+03  0.47985760247E+03  0.25500000920E-02 0. -1.
        2   -1    0    0  501    0  0.00000000000E+00  0.00000000000E+00 -0.88401479539E+03  0.88401479540E+03  0.25500000920E-02 0.  1.
    10030    2    1    2    0    0  0.00000000000E+00  0.00000000000E+00 -0.40415719293E+03  0.13638723979E+04  0.13026146326E+04 0.  0.
        1    1    3    3  502    0 -0.42102241451E+03  0.68024054374E+02  0.31332460059E+03  0.52920643501E+03  0.50400001928E-02 0. -1.
       -1    1    3    3    0  502  0.42102241451E+03 -0.68024054374E+02 -0.71748179352E+03  0.83466596286E+03  0.50400001928E-02 0.  1.
</event>
<event>
 5   0  0.3274879E-04  0.1314578E+04  0.7818609E-02  0.9018084E-01
       -1   -1    0    0    0  501  0.00000000000E+00  0.00000000000E+00  0.64796680822E+03  0.64796680824E+03  0.50400001928E-02 0.  1.
        1   -1    0    0  501    0  0.00000000000E+00  0.00000000000E+00 -0.66674486409E+03  0.66674486411E+03  0.50400001928E-02 0. -1.
    10030    2    1    2    0    0  0.00000000000E+00  0.00000000000E+00 -0.18778055871E+02  0.13147116724E+04  0.13145775618E+04 0.  0.
        4    1    3    3  502    0  0.92322209407E+02  0.15533570274E+03  0.62263616823E+03  0.64832860633E+03  0.12699999809E+01 0.  1.
       -4    1    3    3    0  502 -0.92322209407E+02 -0.15533570274E+03 -0.64141422410E+03  0.66638306602E+03  0.12699999809E+01 0. -1.
</event>
<event>
 5   0  0.5384960E-04  0.1320955E+04  0.7818609E-02  0.9013111E-01
        2   -1    0    0  501    0  0.00000000000E+00  0.00000000000E+00  0.10247372891E+04  0.10247372891E+04  0.25500000920E-02 0.  1.
       -2   -1    0    0    0  501  0.00000000000E+00  0.00000000000E+00 -0.42569961043E+03  0.42569961044E+03  0.25500000920E-02 0. -1.
    10030    2    1    2    0    0  0.00000000000E+00  0.00000000000E+00  0.59903767870E+03  0.14504368996E+04  0.13209546015E+04 0.  0.
        3    1    3    3  502    0  0.26377667572E+03 -0.46827840547E+03  0.72103258278E+03  0.89930572961E+03  0.10100000352E+00 0.  1.
       -3    1    3    3    0  502 -0.26377667572E+03  0.46827840547E+03 -0.12199490408E+03  0.55113116996E+03  0.10100000352E+00 0. -1.
</event>
<event>
 5   0  0.5957913E-04  0.1288777E+04  0.7818609E-02  0.9038513E-01
       -2   -1    0    0    0  501  0.00000000000E+00  0.00000000000E+00  0.24445842694E+03  0.24445842695E+03  0.25500000920E-02 0. -1.
        2   -1    0    0  501    0  0.00000000000E+00  0.00000000000E+00 -0.16985983945E+04  0.16985983945E+04  0.25500000920E-02 0.  1.
    10030    2    1    2    0    0  0.00000000000E+00  0.00000000000E+00 -0.14541399676E+04  0.19430568215E+04  0.12887772368E+04 0.  0.
        1    1    3    3  502    0  0.62198674730E+03  0.13697176700E+03 -0.87485219810E+03  0.10821252919E+04  0.50400001928E-02 0.  1.
       -1    1    3    3    0  502 -0.62198674730E+03 -0.13697176700E+03 -0.57928776950E+03  0.86093152962E+03  0.50400001928E-02 0. -1.
</event>
<event>
 5   0  0.3263679E-04  0.1294756E+04  0.7818609E-02  0.9033734E-01
       -1   -1    0    0    0  501  0.00000000000E+00  0.00000000000E+00  0.51448477715E+03  0.51448477718E+03  0.50400001928E-02 0. -1.
        1   -1    0    0  501    0  0.00000000000E+00  0.00000000000E+00 -0.81459833869E+03  0.81459833871E+03  0.50400001928E-02 0.  1.
    10030    2    1    2    0    0  0.00000000000E+00  0.00000000000E+00 -0.30011356154E+03  0.13290831159E+04  0.12947562624E+04 0.  0.
        2    1    3    3  502    0  0.28560521518E+03  0.27823343435E+03 -0.67359236196E+03  0.78275848959E+03  0.25500000920E-02 0.  1.
       -2    1    3    3    0  502 -0.28560521518E+03 -0.27823343435E+03  0.37347880042E+03  0.54632462630E+03  0.25500000920E-02 0. -1.
</event>
<event>
 5   0  0.6007125E-04  0.1301905E+04  0.7818609E-02  0.9028056E-01
       -2   -1    0    0    0  501  0.00000000000E+00  0.00000000000E+00  0.23103937259E+03  0.23103937260E+03  0.25500000920E-02 0. -1.
        2   -1    0    0  501    0  0.00000000000E+00  0.00000000000E+00 -0.18340553613E+04  0.18340553613E+04  0.25500000920E-02 0.  1.
    10030    2    1    2    0    0  0.00000000000E+00  0.00000000000E+00 -0.16030159887E+04  0.20650947339E+04  0.13019047584E+04 0.  0.
        5    1    3    3  502    0  0.45577266964E+03 -0.23473070911E+03 -0.14377536880E+04  0.15264288354E+04  0.46999998093E+01 0.  1.
       -5    1    3    3    0  502 -0.45577266964E+03  0.23473070911E+03 -0.16526230073E+03  0.53866589852E+03  0.46999998093E+01 0. -1.
</event>
<event>
 5   0  0.3403833E-04  0.1298037E+04  0.7818609E-02  0.9031124E-01
        1   -1    0    0  501    0  0.00000000000E+00  0.00000000000E+00  0.69499924001E+03  0.69499924003E+03  0.50400001928E-02 0.  1.
       -1   -1    0    0    0  501  0.00000000000E+00  0.00000000000E+00 -0.60607943311E+03  0.60607943313E+03  0.50400001928E-02 0. -1.
    10030    2    1    2    0    0  0.00000000000E+00  0.00000000000E+00  0.88919806894E+02  0.13010786732E+04  0.12980365872E+04 0.  0.
        1    1    3    3  502    0  0.26221315745E+03  0.57202936486E+03 -0.11481943794E+03  0.63965368564E+03  0.50400001928E-02 0. -1.
       -1    1    3    3    0  502 -0.26221315745E+03 -0.57202936486E+03  0.20373924484E+03  0.66142498752E+03  0.50400001928E-02 0.  1.
</event>
<event>
 5   0  0.5957913E-04  0.1305225E+04  0.7818609E-02  0.9025432E-01
        2   -1    0    0  501    0  0.00000000000E+00  0.00000000000E+00  0.14968878394E+04  0.14968878394E+04  0.25500000920E-02 0. -1.
       -2   -1    0    0    0  501  0.00000000000E+00  0.00000000000E+00 -0.28452561290E+03  0.28452561291E+03  0.25500000920E-02 0.  1.
    10030    2    1    2    0    0  0.00000000000E+00  0.00000000000E+00  0.12123622265E+04  0.17814134523E+04  0.13052247775E+04 0.  0.
        1    1    3    3  502    0 -0.57359339915E+03  0.40458709524E+02  0.10274186227E+04  0.11773849502E+04  0.50400001928E-02 0. -1.
       -1    1    3    3    0  502  0.57359339915E+03 -0.40458709524E+02  0.18494360379E+03  0.60402850208E+03  0.50400001928E-02 0.  1.
</event>
<event>
 5   0  0.6052864E-04  0.1294933E+04  0.7818609E-02  0.9033593E-01
       -2   -1    0    0    0  501  0.00000000000E+00  0.00000000000E+00  0.31988818679E+03  0.31988818680E+03  0.25500000920E-02 0.  1.
        2   -1    0    0  501    0  0.00000000000E+00  0.00000000000E+00 -0.13104978096E+04  0.13104978096E+04  0.25500000920E-02 0. -1.
    10030    2    1    2    0    0  0.00000000000E+00  0.00000000000E+00 -0.99060962280E+03  0.16303859964E+04  0.12949328448E+04 0.  0.
        2    1    3    3  502    0  0.16400896690E+03  0.45135021307E+03  0.51472347021E+02  0.48297552585E+03  0.25500000920E-02 0.  1.
       -2    1    3    3    0  502 -0.16400896690E+03 -0.45135021307E+03 -0.10420819698E+04  0.11474104705E+04  0.25500000920E-02 0. -1.
</event>
<event>
 5   0  0.3337520E-04  0.1298844E+04  0.7818609E-02  0.9030482E-01
       -1   -1    0    0    0  501  0.00000000000E+00  0.00000000000E+00  0.11770641825E+04  0.11770641825E+04  0.50400001928E-02 0.  1.
        1   -1    0    0  501    0  0.00000000000E+00  0.00000000000E+00 -0.35830595453E+03  0.35830595456E+03  0.50400001928E-02 0. -1.
    10030    2    1    2    0    0  0.00000000000E+00  0.00000000000E+00  0.81875822800E+03  0.15353701371E+04  0.12988442639E+04 0.  0.
        5    1    3    3  502    0 -0.43503728561E+03 -0.40970309617E+03  0.70985926503E+03  0.92792043464E+03  0.46999998093E+01 0.  1.
       -5    1    3    3    0  502  0.43503728561E+03  0.40970309617E+03  0.10889896297E+03  0.60744970245E+03  0.46999998093E+01 0. -1.
</event>
<event>
 5   0  0.3335747E-04  0.1287512E+04  0.7818609E-02  0.9039528E-01
        1   -1    0    0  501    0  0.00000000000E+00  0.00000000000E+00  0.39088613277E+03  0.39088613281E+03  0.50400001928E-02 0. -1.
       -1   -1    0    0    0  501  0.00000000000E+00  0.00000000000E+00 -0.10602104978E+04  0.10602104978E+04  0.50400001928E-02 0.  1.
    10030    2    1    2    0    0  0.00000000000E+00  0.00000000000E+00 -0.66932436506E+03  0.14510966306E+04  0.12875116799E+04 0.  0.
        3    1    3    3  502    0 -0.14689418432E+03 -0.31750269179E+03 -0.94372647180E+03  0.10064817557E+04  0.10100000352E+00 0.  1.
       -3    1    3    3    0  502  0.14689418432E+03  0.31750269179E+03  0.27440210674E+03  0.44461487500E+03  0.10100000352E+00 0. -1.
</event>
<event>
 5   0  0.5384960E-04  0.1300667E+04  0.7818609E-02  0.9029037E-01
        2   -1    0    0  501    0  0.00000000000E+00  0.00000000000E+00  0.54054479803E+03  0.54054479803E+03  0.25500000920E-02 0.  1.
       -2   -1    0    0    0  501  0.00000000000E+00  0.00000000000E+00 -0.78242089037E+03  0.78242089038E+03  0.25500000920E-02 0. -1.
    10030    2    1    2    0    0  0.00000000000E+00  0.00000000000E+00 -0.24187609234E+03  0.13229656884E+04  0.13006668169E+04 0.  0.
        3    1    3    3  502    0  0.25724534959E+03  0.56292006658E+03  0.82183790156E+02  0.62434634364E+03  0.10100000352E+00 0. -1.
       -3    1    3    3    0  502 -0.25724534959E+03 -0.56292006658E+03 -0.32405988250E+03  0.69861934477E+03  0.10100000352E+00 0.  1.
</event>
<event>
 5   0  0.6007125E-04  0.1298628E+04  0.7818609E-02  0.9030654E-01
        2   -1    0    0  501    0  0.00000000000E+00  0.00000000000E+00  0.56757152367E+03  0.56757152368E+03  0.25500000920E-02 0. -1.
       -2   -1    0    0    0  501  0.00000000000E+00  0.00000000000E+00 -0.74282967093E+03  0.74282967094E+03  0.25500000920E-02 0.  1.
    10030    2    1    2    0    0  0.00000000000E+00  0.00000000000E+00 -0.17525814726E+03  0.13104011946E+04  0.12986284583E+04 0.  0.
        5    1    3    3  502    0 -0.91759884462E+02 -0.12760819578E+03 -0.72332685407E+03  0.74022128843E+03  0.46999998093E+01 0.  1.
       -5    1    3    3    0  502  0.91759884462E+02  0.12760819578E+03  0.54806870681E+03  0.57017990618E+03  0.46999998093E+01 0. -1.
</event>
<event>
 5   0  0.3337520E-04  0.1302204E+04  0.7818609E-02  0.9027819E-01
        1   -1    0    0  501    0  0.00000000000E+00  0.00000000000E+00  0.14753859619E+04  0.14753859619E+04  0.50400001928E-02 0. -1.
       -1   -1    0    0    0  501  0.00000000000E+00  0.00000000000E+00 -0.28733775160E+03  0.28733775165E+03  0.50400001928E-02 0.  1.
    10030    2    1    2    0    0  0.00000000000E+00  0.00000000000E+00  0.11880482103E+04  0.17627237135E+04  0.13022044157E+04 0.  0.
        5    1    3    3  502    0 -0.29454547848E+03  0.55746527646E+03  0.81391313460E+03  0.10295636231E+04  0.46999998093E+01 0. -1.
       -5    1    3    3    0  502  0.29454547848E+03 -0.55746527646E+03  0.37413507569E+03  0.73316009044E+03  0.46999998093E+01 0.  1.
</event>
<event>
 5   0  0.5957913E-04  0.1304063E+04  0.7818609E-02  0.9026349E-01
       -2   -1    0    0    0  501  0.00000000000E+00  0.00000000000E+00  0.31752555953E+03  0.31752555954E+03  0.25500000920E-02 0.  1.
        2   -1    0    0  501    0  0.00000000000E+00  0.00000000000E+00 -0.13389316322E+04  0.13389316322E+04  0.25500000920E-02 0. -1.
    10030    2    1    2    0    0  0.00000000000E+00  0.00000000000E+00 -0.10214060727E+04  0.16564571918E+04  0.13040629060E+04 0.  0.
        1    1    3    3  502    0 -0.25500142799E+03 -0.58740296483E+03 -0.66667257258E+03  0.92440266682E+03  0.50400001928E-02 0. -1.
       -1    1    3    3    0  502  0.25500142799E+03  0.58740296483E+03 -0.35473350012E+03  0.73205452495E+03  0.50400001928E-02 0.  1.
</event>
<event>
 5   0  0.3274879E-04  0.1301387E+04  0.7818609E-02  0.9028466E-01
       -1   -1    0    0    0  501  0.00000000000E+00  0.00000000000E+00  0.23252843608E+03  0.23252843614E+03  0.50400001928E-02 0. -1.
        1   -1    0    0  501    0  0.00000000000E+00  0.00000000000E+00 -0.18208604576E+04  0.18208604576E+04  0.50400001928E-02 0.  1.
    10030    2    1    2    0    0  0.00000000000E+00  0.00000000000E+00 -0.15883320215E+04  0.20533888937E+04  0.13013866982E+04 0.  0.
        4    1    3    3  502    0 -0.40484211781E+02  0.26768288979E+03  0.13944360752E+03  0.30453116995E+03  0.12699999809E+01 0. -1.
       -4    1    3    3    0  502  0.40484211781E+02 -0.26768288979E+03 -0.17277756290E+04  0.17488577238E+04  0.12699999809E+01 0.  1.
</event>
<event>
 5   0  0.5384960E-04  0.1298001E+04  0.7818609E-02  0.9031152E-01
        2   -1    0    0  501    0  0.00000000000E+00  0.00000000000E+00  0.14463305627E+04  0.14463305627E+04  0.25500000920E-02 0.  1.
       -2   -1    0    0    0  501  0.00000000000E+00  0.00000000000E+00 -0.29122091878E+03  0.29122091879E+03  0.25500000920E-02 0. -1.
    10030    2    1    2    0    0  0.00000000000E+00  0.00000000000E+00  0.11551096439E+04  0.17375514815E+04  0.12980011022E+04 0.  0.
        3    1    3    3  502    0 -0.48333577174E+03 -0.41177099135E+03  0.75731573176E+03  0.98827928508E+03  0.10100000352E+00 0.  1.
       -3    1    3    3    0  502  0.48333577174E+03  0.41177099135E+03  0.39779391215E+03  0.74927219640E+03  0.10100000352E+00 0. -1.
</event>
<event>
 5   0  0.5787604E-04  0.1302017E+04  0.7818609E-02  0.9027968E-01
       -2   -1    0    0    0  501  0.00000000000E+00  0.00000000000E+00  0.32578057352E+03  0.32578057353E+03  0.25500000920E-02 0.  1.
        2   -1    0    0  501    0  0.00000000000E+00  0.00000000000E+00 -0.13009116674E+04  0.13009116674E+04  0.25500000920E-02 0. -1.
    10030    2    1    2    0    0  0.00000000000E+00  0.00000000000E+00 -0.97513109387E+03  0.16266922409E+04  0.13020165116E+04 0.  0.
        4    1    3    3  502    0 -0.61016160133E+03  0.14632281684E+03 -0.27079971181E+03  0.68340445074E+03  0.12699999809E+01 0.  1.
       -4    1    3    3    0  502  0.61016160133E+03 -0.14632281684E+03 -0.70433138205E+03  0.94328779018E+03  0.12699999809E+01 0. -1.
</event>
<event>
 5   0  0.6052864E-04  0.1354301E+04  0.7818609E-02  0.8987579E-01
        2   -1    0    0  501    0  0.00000000000E+00  0.00000000000E+00  0.18252803008E+04  0.18252803008E+04  0.25500000920E-02 0.  1.
       -2   -1    0    0    0  501  0.00000000000E+00  0.00000000000E+00 -0.25121219111E+03  0.25121219112E+03  0.25500000920E-02 0. -1.
    10030    2    1    2    0    0  0.00000000000E+00  0.00000000000E+00  0.15740681097E+04  0.20764924919E+04  0.13543007993E+04 0.  0.
        2    1    3    3  502    0  0.64542786778E+02 -0.10329689023E+03 -0.23427763473E+03  0.26404929274E+03  0.25500000920E-02 0. -1.
       -2    1    3    3    0  502 -0.64542786778E+02  0.10329689023E+03  0.18083457444E+04  0.18124431992E+04  0.25500000920E-02 0.  1.
</event>
<event>
 5   0  0.5787604E-04  0.1306654E+04  0.7818609E-02  0.9024305E-01
        2   -1    0    0  501    0  0.00000000000E+00  0.00000000000E+00  0.13131271744E+04  0.13131271744E+04  0.25500000920E-02 0. -1.
       -2   -1    0    0    0  501  0.00000000000E+00  0.00000000000E+00 -0.32505309064E+03  0.32505309065E+03  0.25500000920E-02 0.  1.
    10030    2    1    2    0    0  0.00000000000E+00  0.00000000000E+00  0.98807408377E+03  0.16381802651E+04  0.13066538125E+04 0.  0.
        4    1    3    3  502    0  0.40401508341E+03 -0.51335771642E+03  0.50453398955E+03  0.82542140277E+03  0.12699999809E+01 0.  1.
       -4    1    3    3    0  502 -0.40401508341E+03  0.51335771642E+03  0.48354009422E+03  0.81275886230E+03  0.12699999809E+01 0. -1.
</event>
<event>
 5   0  0.5957913E-04  0.1247295E+04  0.7818609E-02  0.9072438E-01
       -2   -1    0    0    0  501  0.00000000000E+00  0.00000000000E+00  0.31537505083E+03  0.31537505084E+03  0.25500000920E-02 0. -1.
        2   -1    0    0  501    0  0.00000000000E+00  0.00000000000E+00 -0.12332499723E+04  0.12332499723E+04  0.25500000920E-02 0.  1.
    10030    2    1    2    0    0  0.00000000000E+00  0.00000000000E+00 -0.91787492145E+03  0.15486250231E+04  0.12472951097E+04 0.  0.
        1    1    3    3  502    0  0.29649689469E+03  0.46011751786E+03 -0.82999896489E+03  0.99424183202E+03  0.50400001928E-02 0.  1.
       -1    1    3    3    0  502 -0.29649689469E+03 -0.46011751786E+03 -0.87875956555E+02  0.55438319109E+03  0.50400001928E-02 0. -1.
</event>
<event>
 5   0  0.3337520E-04  0.1288443E+04  0.7818609E-02  0.9038780E-01
        1   -1    0    0  501    0  0.00000000000E+00  0.00000000000E+00  0.58704473041E+03  0.58704473043E+03  0.50400001928E-02 0. -1.
       -1   -1    0    0    0  501  0.00000000000E+00  0.00000000000E+00 -0.70696762978E+03  0.70696762979E+03  0.50400001928E-02 0.  1.
    10030    2    1    2    0    0  0.00000000000E+00  0.00000000000E+00 -0.11992289937E+03  0.12940123602E+04  0.12884434356E+04 0.  0.
        5    1    3    3  502    0  0.42679999013E+03  0.47439835997E+03 -0.14858966208E+03  0.65521982051E+03  0.46999998093E+01 0.  1.
       -5    1    3    3    0  502 -0.42679999013E+03 -0.47439835997E+03  0.28666762707E+02  0.63879253971E+03  0.46999998093E+01 0. -1.
</event>
<event>
 5   0  0.3403833E-04  0.1292868E+04  0.7818609E-02  0.9035240E-01
       -1   -1    0    0    0  501  0.00000000000E+00  0.00000000000E+00  0.76701262650E+03  0.76701262652E+03  0.50400001928E-02 0. -1.
        1   -1    0    0  501    0  0.00000000000E+00  0.00000000000E+00 -0.54481071206E+03  0.54481071208E+03  0.50400001928E-02 0.  1.
    10030    2    1    2    0    0  0.00000000000E+00  0.00000000000E+00  0.22220191444E+03  0.13118233386E+04  0.12928676579E+04 0.  0.
        1    1    3    3  502    0 -0.32361514028E+03  0.36490758915E+03 -0.31937445511E+03  0.58299601219E+03  0.50400001928E-02 0.  1.
       -1    1    3    3    0  502  0.32361514028E+03 -0.36490758915E+03  0.54157636955E+03  0.72882732640E+03  0.50400001928E-02 0. -1.
</event>
<event>
 5   0  0.5957913E-04  0.1299080E+04  0.7818609E-02  0.9030295E-01
        2   -1    0    0  501    0  0.00000000000E+00  0.00000000000E+00  0.86744504701E+03  0.86744504701E+03  0.25500000920E-02 0. -1.
       -2   -1    0    0    0  501  0.00000000000E+00  0.00000000000E+00 -0.48637364343E+03  0.48637364344E+03  0.25500000920E-02 0.  1.
    10030    2    1    2    0    0  0.00000000000E+00  0.00000000000E+00  0.38107140358E+03  0.13538186905E+04  0.12990803024E+04 0.  0.
        1    1    3    3  502    0 -0.44633023483E+03 -0.68531163683E+02  0.67710867510E+03  0.81386937332E+03  0.50400001928E-02 0. -1.
       -1    1    3    3    0  502  0.44633023483E+03  0.68531163683E+02 -0.29603727152E+03  0.53994931713E+03  0.50400001928E-02 0.  1.
</event>
<event>
 5   0  0.3263679E-04  0.1301897E+04  0.7818609E-02  0.9028062E-01
       -1   -1    0    0    0  501  0.00000000000E+00  0.00000000000E+00  0.48930466652E+03  0.48930466655E+03  0.50400001928E-02 0. -1.
        1   -1    0    0  501    0  0.00000000000E+00  0.00000000000E+00 -0.86599162443E+03  0.86599162445E+03  0.50400001928E-02 0.  1.
    10030    2    1    2    0    0  0.00000000000E+00  0.00000000000E+00 -0.37668695791E+03  0.13552962910E+04  0.13018966826E+04 0.  0.
        2    1    3    3  502    0 -0.28386849815E+03 -0.20489315145E+03  0.38295683161E+03  0.51886266260E+03  0.25500000920E-02 0. -1.
       -2    1    3    3    0  502  0.28386849815E+03  0.20489315145E+03 -0.75964378952E+03  0.83643362840E+03  0.25500000920E-02 0.  1.
</event>
<event>
 5   0  0.3335747E-04  0.1296615E+04  0.7818609E-02  0.9032254E-01
       -1   -1    0    0    0  501  0.00000000000E+00  0.00000000000E+00  0.76599607067E+03  0.76599607068E+03  0.50400001928E-02 0. -1.
        1   -1    0    0  501    0  0.00000000000E+00  0.00000000000E+00 -0.54870064992E+03  0.54870064994E+03  0.50400001928E-02 0.  1.
    10030    2    1    2    0    0  0.00000000000E+00  0.00000000000E+00  0.21729542075E+03  0.13146967206E+04  0.12966148878E+04 0.  0.
        3    1    3    3  502    0 -0.36920395976E+03  0.31741297087E+03  0.54268264463E+03  0.72908642901E+03  0.10100000352E+00 0. -1.
       -3    1    3    3    0  502  0.36920395976E+03 -0.31741297087E+03 -0.32538722389E+03  0.58561029162E+03  0.10100000352E+00 0.  1.
</event>
<event>
 5   0  0.3274879E-04  0.1304138E+04  0.7818609E-02  0.9026290E-01
        1   -1    0    0  501    0  0.00000000000E+00  0.00000000000E+00  0.17528832742E+04  0.17528832742E+04  0.50400001928E-02 0.  1.
       -1   -1    0    0    0  501  0.00000000000E+00  0.00000000000E+00 -0.24256832728E+03  0.24256832733E+03  0.50400001928E-02 0. -1.
    10030    2    1    2    0    0  0.00000000000E+00  0.00000000000E+00  0.15103149469E+04  0.19954516016E+04  0.13041379740E+04 0.  0.
        4    1    3    3  502    0 -0.77654640258E+02 -0.30936022379E+03 -0.11505809298E+03  0.33907811619E+03  0.12699999809E+01 0. -1.
       -4    1    3    3    0  502  0.77654640258E+02  0.30936022379E+03  0.16253730399E+04  0.16563734854E+04  0.12699999809E+01 0.  1.
</event>
<event>
 5   0  0.5957913E-04  0.1311340E+04  0.7818609E-02  0.9020620E-01
       -2   -1    0    0    0  501  0.00000000000E+00  0.00000000000E+00  0.85356449643E+03  0.85356449643E+03  0.25500000920E-02 0.  1.
        2   -1    0    0  501    0  0.00000000000E+00  0.00000000000E+00 -0.50365652944E+03  0.50365652945E+03  0.25500000920E-02 0. -1.
    10030    2    1    2    0    0  0.00000000000E+00  0.00000000000E+00  0.34990796699E+03  0.13572210259E+04  0.13113402792E+04 0.  0.
        1    1    3    3  502    0 -0.20796921030E+03  0.48410026194E+03 -0.22895527837E+03  0.57447782861E+03  0.50400001928E-02 0. -1.
       -1    1    3    3    0  502  0.20796921030E+03 -0.48410026194E+03  0.57886324535E+03  0.78274319728E+03  0.50400001928E-02 0.  1.
</event>
<event>
 5   0  0.3263679E-04  0.1292864E+04  0.7818609E-02  0.9035243E-01
       -1   -1    0    0    0  501  0.00000000000E+00  0.00000000000E+00  0.42840852077E+03  0.42840852080E+03  0.50400001928E-02 0. -1.
        1   -1    0    0  501    0  0.00000000000E+00  0.00000000000E+00 -0.97541145746E+03  0.97541145747E+03  0.50400001928E-02 0.  1.
    10030    2    1    2    0    0  0.00000000000E+00  0.00000000000E+00 -0.54700293668E+03  0.14038199783E+04  0.12928643853E+04 0.  0.
        2    1    3    3  502    0  0.23954753117E+03 -0.43313183626E+03 -0.72498440326E+03  0.87783175623E+03  0.25500000920E-02 0.  1.
       -2    1    3    3    0  502 -0.23954753117E+03  0.43313183626E+03  0.17798146657E+03  0.52598822204E+03  0.25500000920E-02 0. -1.
</event>
<event>
 5   0  0.3335747E-04  0.1299640E+04  0.7818609E-02  0.9029851E-01
        1   -1    0    0  501    0  0.00000000000E+00  0.00000000000E+00  0.39670659047E+03  0.39670659050E+03  0.50400001928E-02 0. -1.
       -1   -1    0    0    0  501  0.00000000000E+00  0.00000000000E+00 -0.10644285387E+04  0.10644285387E+04  0.50400001928E-02 0.  1.
    10030    2    1    2    0    0  0.00000000000E+00  0.00000000000E+00 -0.66772194819E+03  0.14611351292E+04  0.12996396676E+04 0.  0.
        3    1    3    3  502    0  0.54742359190E+03 -0.33398249105E+03 -0.45203640621E+03  0.78457237783E+03  0.10100000352E+00 0.  1.
       -3    1    3    3    0  502 -0.54742359190E+03  0.33398249105E+03 -0.21568554198E+03  0.67656275136E+03  0.10100000352E+00 0. -1.
</event>
<event>
 5   0  0.3337520E-04  0.1300863E+04  0.7818609E-02  0.9028881E-01
        1   -1    0    0  501    0  0.00000000000E+00  0.00000000000E+00  0.69491631935E+03  0.69491631937E+03  0.50400001928E-02 0.  1.
       -1   -1    0    0    0  501  0.00000000000E+00  0.00000000000E+00 -0.60879459722E+03  0.60879459724E+03  0.50400001928E-02 0. -1.
    10030    2    1    2    0    0  0.00000000000E+00  0.00000000000E+00  0.86121722127E+02  0.13037109166E+04  0.13008632530E+04 0.  0.
        5    1    3    3  502    0 -0.83595217022E+02  0.61900121486E+03  0.22480984690E+03  0.66386159821E+03  0.46999998093E+01 0. -1.
       -5    1    3    3    0  502  0.83595217022E+02 -0.61900121486E+03 -0.13868812477E+03  0.63984931840E+03  0.46999998093E+01 0.  1.
</event>
<event>
 5   0  0.5957913E-04  0.1302021E+04  0.7818609E-02  0.9027964E-01
        2   -1    0    0  501    0  0.00000000000E+00  0.00000000000E+00  0.18891511567E+04  0.18891511567E+04  0.25500000920E-02 0. -1.
       -2   -1    0    0    0  501  0.00000000000E+00  0.00000000000E+00 -0.22434124547E+03  0.22434124549E+03  0.25500000920E-02 0.  1.
    10030    2    1    2    0    0  0.00000000000E+00  0.00000000000E+00  0.16648099112E+04  0.21134924021E+04  0.13020207731E+04 0.  0.
        1    1    3    3  502    0  0.38028853145E+03  0.52085858095E+03  0.97669534612E+03  0.11704045573E+04  0.50400001928E-02 0.  1.
       -1    1    3    3    0  502 -0.38028853145E+03 -0.52085858095E+03  0.68811456506E+03  0.94308784488E+03  0.50400001928E-02 0. -1.
</event>
<event>
 5   0  0.2255875E-04  0.1302326E+04  0.7818609E-02  0.9027723E-01
       -3   -1    0    0    0  501  0.00000000000E+00  0.00000000000E+00  0.70166934689E+03  0.70166935416E+03  0.10100000352E+00 0. -1.
        3   -1    0    0  501    0  0.00000000000E+00  0.00000000000E+00 -0.60429190230E+03  0.60429191074E+03  0.10100000352E+00 0.  1.
    10030    2    1    2    0    0  0.00000000000E+00  0.00000000000E+00  0.97377444595E+02  0.13059612649E+04  0.13023257882E+04 0.  0.
        1    1    3    3  502    0 -0.20945962671E+02  0.59191234278E+03  0.32002520861E+03  0.67321251403E+03  0.50400001928E-02 0. -1.
       -1    1    3    3    0  502  0.20945962671E+02 -0.59191234278E+03 -0.22264776401E+03  0.63274875087E+03  0.50400001928E-02 0.  1.
</event>
<event>
 5   0  0.3337520E-04  0.1301933E+04  0.7818609E-02  0.9028034E-01
       -1   -1    0    0    0  501  0.00000000000E+00  0.00000000000E+00  0.48192354110E+03  0.48192354113E+03  0.50400001928E-02 0. -1.
        1   -1    0    0  501    0  0.00000000000E+00  0.00000000000E+00 -0.87930396474E+03  0.87930396475E+03  0.50400001928E-02 0.  1.
    10030    2    1    2    0    0  0.00000000000E+00  0.00000000000E+00 -0.39738042364E+03  0.13612275059E+04  0.13019328407E+04 0.  0.
        5    1    3    3  502    0 -0.52554615732E+03 -0.34729126534E+03 -0.27128000636E+02  0.63052993972E+03  0.46999998093E+01 0.  1.
       -5    1    3    3    0  502  0.52554615732E+03  0.34729126534E+03 -0.37025242300E+03  0.73069756616E+03  0.46999998093E+01 0. -1.
</event>
<event>
 5   0  0.6052864E-04  0.1259921E+04  0.7818609E-02  0.9061966E-01
       -2   -1    0    0    0  501  0.00000000000E+00  0.00000000000E+00  0.16934399794E+03  0.16934399796E+03  0.25500000920E-02 0. -1.
        2   -1    0    0  501    0  0.00000000000E+00  0.00000000000E+00 -0.23434577482E+04  0.23434577482E+04  0.25500000920E-02 0.  1.
    10030    2    1    2    0    0  0.00000000000E+00  0.00000000000E+00 -0.21741137502E+04  0.25128017461E+04  0.12599214327E+04 0.  0.
        2    1    3    3  502    0  0.81705883897E+02  0.61442672764E+03 -0.86270155030E+03  0.10622852818E+04  0.25500000920E-02 0. -1.
       -2    1    3    3    0  502 -0.81705883897E+02 -0.61442672764E+03 -0.13114121999E+04  0.14505164643E+04  0.25500000920E-02 0.  1.
</event>
<event>
 5   0  0.3263679E-04  0.1297604E+04  0.7818609E-02  0.9031468E-01
       -1   -1    0    0    0  501  0.00000000000E+00  0.00000000000E+00  0.41571822327E+03  0.41571822330E+03  0.50400001928E-02 0. -1.
        1   -1    0    0  501    0  0.00000000000E+00  0.00000000000E+00 -0.10125702239E+04  0.10125702239E+04  0.50400001928E-02 0.  1.
    10030    2    1    2    0    0  0.00000000000E+00  0.00000000000E+00 -0.59685200062E+03  0.14282884472E+04  0.12976037831E+04 0.  0.
        2    1    3    3  502    0  0.50226412970E+03  0.14044943903E+03  0.12638135110E+03  0.53662607728E+03  0.25500000920E-02 0. -1.
       -2    1    3    3    0  502 -0.50226412970E+03 -0.14044943903E+03 -0.72323335172E+03  0.89166236993E+03  0.25500000920E-02 0.  1.
</event>
<event>
 5   0  0.6007125E-04  0.1298185E+04  0.7818609E-02  0.9031006E-01
       -2   -1    0    0    0  501  0.00000000000E+00  0.00000000000E+00  0.23228000389E+03  0.23228000390E+03  0.25500000920E-02 0. -1.
        2   -1    0    0  501    0  0.00000000000E+00  0.00000000000E+00 -0.18138504048E+04  0.18138504048E+04  0.25500000920E-02 0.  1.
    10030    2    1    2    0    0  0.00000000000E+00  0.00000000000E+00 -0.15815704010E+04  0.20461304087E+04  0.12981851626E+04 0.  0.
        5    1    3    3  502    0 -0.15286907100E+03 -0.32342934174E+03 -0.16444161836E+04  0.16828850724E+04  0.46999998093E+01 0.  1.
       -5    1    3    3    0  502  0.15286907100E+03  0.32342934174E+03  0.62845782671E+02  0.36324533633E+03  0.46999998093E+01 0. -1.
</event>
<event>
 5   0  0.5787604E-04  0.1301447E+04  0.7818609E-02  0.9028419E-01
       -2   -1    0    0    0  501  0.00000000000E+00  0.00000000000E+00  0.58335953245E+03  0.58335953245E+03  0.25500000920E-02 0. -1.
        2   -1    0    0  501    0  0.00000000000E+00  0.00000000000E+00 -0.72586608528E+03  0.72586608528E+03  0.25500000920E-02 0.  1.
    10030    2    1    2    0    0  0.00000000000E+00  0.00000000000E+00 -0.14250655283E+03  0.13092256177E+04  0.13014467337E+04 0.  0.
        4    1    3    3  502    0  0.51777872546E+03  0.24247389247E+03 -0.38383691191E+03  0.68863690354E+03  0.12699999809E+01 0.  1.
       -4    1    3    3    0  502 -0.51777872546E+03 -0.24247389247E+03  0.24133035909E+03  0.62058871420E+03  0.12699999809E+01 0. -1.
</event>
<event>
 5   0  0.5787604E-04  0.1294158E+04  0.7818609E-02  0.9034211E-01
        2   -1    0    0  501    0  0.00000000000E+00  0.00000000000E+00  0.20187181606E+04  0.20187181606E+04  0.25500000920E-02 0.  1.
       -2   -1    0    0    0  501  0.00000000000E+00  0.00000000000E+00 -0.20741441021E+03  0.20741441023E+03  0.25500000920E-02 0. -1.
    10030    2    1    2    0    0  0.00000000000E+00  0.00000000000E+00  0.18113037504E+04  0.22261325709E+04  0.12941580069E+04 0.  0.
        4    1    3    3  502    0  0.25889757365E+03 -0.58555388537E+03  0.10670915225E+04  0.12444224510E+04  0.12699999809E+01 0.  1.
       -4    1    3    3    0  502 -0.25889757365E+03  0.58555388537E+03  0.74421222792E+03  0.98171011984E+03  0.12699999809E+01 0. -1.
</event>
<event>
 5   0  0.3337520E-04  0.1302382E+04  0.7818609E-02  0.9027679E-01
        1   -1    0    0  501    0  0.00000000000E+00  0.00000000000E+00  0.99139142218E+03  0.99139142219E+03  0.50400001928E-02 0.  1.
       -1   -1    0    0    0  501  0.00000000000E+00  0.00000000000E+00 -0.42773167881E+03  0.42773167884E+03  0.50400001928E-02 0. -1.
    10030    2    1    2    0    0  0.00000000000E+00  0.00000000000E+00  0.56365974336E+03  0.14191231010E+04  0.13023816912E+04 0.  0.
        5    1    3    3  502    0 -0.59591723003E+03  0.23390010344E+03  0.41167885672E+03  0.76113610774E+03  0.46999998093E+01 0.  1.
       -5    1    3    3    0  502  0.59591723003E+03 -0.23390010344E+03  0.15198088664E+03  0.65798699329E+03  0.46999998093E+01 0. -1.
</event>
<event>
 5   0  0.3337520E-04  0.1320278E+04  0.7818609E-02  0.9013638E-01
       -1   -1    0    0    0  501  0.00000000000E+00  0.00000000000E+00  0.54895454304E+03  0.54895454306E+03  0.50400001928E-02 0. -1.
        1   -1    0    0  501    0  0.00000000000E+00  0.00000000000E+00 -0.79384206062E+03  0.79384206064E+03  0.50400001928E-02 0.  1.
    10030    2    1    2    0    0  0.00000000000E+00  0.00000000000E+00 -0.24488751758E+03  0.13427966037E+04  0.13202775552E+04 0.  0.
        5    1    3    3  502    0 -0.86537946910E+01 -0.58346815741E+03  0.19144811863E+03  0.61415344255E+03  0.46999998093E+01 0. -1.
       -5    1    3    3    0  502  0.86537946910E+01  0.58346815741E+03 -0.43633563621E+03  0.72864316115E+03  0.46999998093E+01 0.  1.
</event>
<event>
 5   0  0.3337520E-04  0.1301811E+04  0.7818609E-02  0.9028130E-01
       -1   -1    0    0    0  501  0.00000000000E+00  0.00000000000E+00  0.41760961275E+03  0.41760961278E+03  0.50400001928E-02 0.  1.
        1   -1    0    0  501    0  0.00000000000E+00  0.00000000000E+00 -0.10145309328E+04  0.10145309328E+04  0.50400001928E-02 0. -1.
    10030    2    1    2    0    0  0.00000000000E+00  0.00000000000E+00 -0.59692132005E+03  0.14321405456E+04  0.13018108465E+04 0.  0.
        5    1    3    3  502    0  0.38604959452E+03  0.21398864608E+03  0.22779231858E+03  0.49672614234E+03  0.46999998093E+01 0. -1.
       -5    1    3    3    0  502 -0.38604959452E+03 -0.21398864608E+03 -0.82471363863E+03  0.93541440326E+03  0.46999998093E+01 0.  1.
</event>
<event>
 5   0  0.5787604E-04  0.1310807E+04  0.7818609E-02  0.9021039E-01
       -2   -1    0    0    0  501  0.00000000000E+00  0.00000000000E+00  0.21838531263E+03  0.21838531264E+03  0.25500000920E-02 0.  1.
        2   -1    0    0  501    0  0.00000000000E+00  0.00000000000E+00 -0.19669527261E+04  0.19669527261E+04  0.25500000920E-02 0. -1.
    10030    2    1    2    0    0  0.00000000000E+00  0.00000000000E+00 -0.17485674135E+04  0.21853380388E+04  0.13108067532E+04 0.  0.
        4    1    3    3  502    0  0.34206442417E+02  0.60040071628E+03 -0.43985588370E+03  0.74506772319E+03  0.12699999809E+01 0.  1.
       -4    1    3    3    0  502 -0.34206442417E+02 -0.60040071628E+03 -0.13087115298E+04  0.14402703156E+04  0.12699999809E+01 0. -1.
</event>
<event>
 5   0  0.6007125E-04  0.1310169E+04  0.7818609E-02  0.9021540E-01
        2   -1    0    0  501    0  0.00000000000E+00  0.00000000000E+00  0.11581499516E+04  0.11581499516E+04  0.25500000920E-02 0.  1.
       -2   -1    0    0    0  501  0.00000000000E+00  0.00000000000E+00 -0.37053546619E+03  0.37053546620E+03  0.25500000920E-02 0. -1.
    10030    2    1    2    0    0  0.00000000000E+00  0.00000000000E+00  0.78761448545E+03  0.15286854178E+04  0.13101688933E+04 0.  0.
        5    1    3    3  502    0 -0.83816946926E+00 -0.60477524455E+03  0.68750291256E+03  0.91566158799E+03  0.46999998093E+01 0. -1.
       -5    1    3    3    0  502  0.83816946926E+00  0.60477524455E+03  0.10011157290E+03  0.61302382986E+03  0.46999998093E+01 0.  1.
</event>
<event>
 5   0  0.3335747E-04  0.1295021E+04  0.7818609E-02  0.9033523E-01
        1   -1    0    0  501    0  0.00000000000E+00  0.00000000000E+00  0.20619130507E+04  0.20619130507E+04  0.50400001928E-02 0.  1.
       -1   -1    0    0    0  501  0.00000000000E+00  0.00000000000E+00 -0.20334017536E+03  0.20334017542E+03  0.50400001928E-02 0. -1.
    10030    2    1    2    0    0  0.00000000000E+00  0.00000000000E+00  0.18585728753E+04  0.22652532261E+04  0.12950208668E+04 0.  0.
        3    1    3    3  502    0 -0.77119569766E+02 -0.33043704933E+03  0.18939419480E+04  0.19240977585E+04  0.10100000352E+00 0.  1.
       -3    1    3    3    0  502  0.77119569766E+02  0.33043704933E+03 -0.35369072653E+02  0.34115546765E+03  0.10100000352E+00 0. -1.
</event>
<event>
 5   0  0.5787604E-04  0.1209530E+04  0.7818609E-02  0.9104556E-01
       -2   -1    0    0    0  501  0.00000000000E+00  0.00000000000E+00  0.31030663113E+03  0.31030663114E+03  0.25500000920E-02 0.  1.
        2   -1    0    0  501    0  0.00000000000E+00  0.00000000000E+00 -0.11786421743E+04  0.11786421743E+04  0.25500000920E-02 0. -1.
    10030    2    1    2    0    0  0.00000000000E+00  0.00000000000E+00 -0.86833554314E+03  0.14889488054E+04  0.12095296316E+04 0.  0.
        4    1    3    3  502    0 -0.23576561860E+03 -0.38961805254E+03 -0.92403000054E+03  0.10301556720E+04  0.12699999809E+01 0. -1.
       -4    1    3    3    0  502  0.23576561860E+03  0.38961805254E+03  0.55694457398E+02  0.45879313341E+03  0.12699999809E+01 0.  1.
</event>
<event>
 5   0  0.5957913E-04  0.1298268E+04  0.7818609E-02  0.9030940E-01
       -2   -1    0    0    0  501  0.00000000000E+00  0.00000000000E+00  0.12204118427E+04  0.12204118427E+04  0.25500000920E-02 0.  1.
        2   -1    0    0  501    0  0.00000000000E+00  0.00000000000E+00 -0.34527291373E+03  0.34527291374E+03  0.25500000920E-02 0. -1.
    10030    2    1    2    0    0  0.00000000000E+00  0.00000000000E+00  0.87513892901E+03  0.15656847565E+04  0.12982683126E+04 0.  0.
        1    1    3    3  502    0 -0.30462609099E+03  0.15152719572E+03 -0.22912838024E+03  0.41019185878E+03  0.50400001928E-02 0. -1.
       -1    1    3    3    0  502  0.30462609099E+03 -0.15152719572E+03  0.11042673092E+04  0.11554928977E+04  0.50400001928E-02 0.  1.
</event>
<event>
 5   0  0.3403833E-04  0.1302525E+04  0.7818609E-02  0.9027565E-01
        1   -1    0    0  501    0  0.00000000000E+00  0.00000000000E+00  0.12588968591E+04  0.12588968591E+04  0.50400001928E-02 0.  1.
       -1   -1    0    0    0  501  0.00000000000E+00  0.00000000000E+00 -0.33691618697E+03  0.33691618701E+03  0.50400001928E-02 0. -1.
    10030    2    1    2    0    0  0.00000000000E+00  0.00000000000E+00  0.92198067211E+03  0.15958130461E+04  0.13025248245E+04 0.  0.
        1    1    3    3  502    0  0.52344197447E+02 -0.46922016790E+03  0.10105919879E+04  0.11154387688E+04  0.50400001928E-02 0.  1.
       -1    1    3    3    0  502 -0.52344197447E+02  0.46922016790E+03 -0.88611315774E+02  0.48037427729E+03  0.50400001928E-02 0. -1.
</event>
<event>
 5   0  0.5384960E-04  0.1307955E+04  0.7818609E-02  0.9023281E-01
        2   -1    0    0  501    0  0.00000000000E+00  0.00000000000E+00  0.36503592923E+03  0.36503592924E+03  0.25500000920E-02 0. -1.
       -2   -1    0    0    0  501  0.00000000000E+00  0.00000000000E+00 -0.11716283775E+04  0.11716283775E+04  0.25500000920E-02 0.  1.
    10030    2    1    2    0    0  0.00000000000E+00  0.00000000000E+00 -0.80659244829E+03  0.15366643068E+04  0.13079548211E+04 0.  0.
        3    1    3    3  502    0 -0.19392327799E+03  0.65119400975E+02  0.32647998132E+03  0.38527387990E+03  0.10100000352E+00 0. -1.
       -3    1    3    3    0  502  0.19392327799E+03 -0.65119400975E+02 -0.11330724296E+04  0.11513904269E+04  0.10100000352E+00 0.  1.
</event>
<event>
 5   0  0.3335747E-04  0.1305331E+04  0.7818609E-02  0.9025349E-01
        1   -1    0    0  501    0  0.00000000000E+00  0.00000000000E+00  0.66715081011E+03  0.66715081013E+03  0.50400001928E-02 0.  1.
       -1   -1    0    0    0  501  0.00000000000E+00  0.00000000000E+00 -0.63849422941E+03  0.63849422943E+03  0.50400001928E-02 0. -1.
    10030    2    1    2    0    0  0.00000000000E+00  0.00000000000E+00  0.28656580702E+02  0.13056450396E+04  0.13053305212E+04 0.  0.
        3    1    3    3  502    0  0.13611996402E+03  0.53297571669E+03 -0.33701148381E+03  0.64511123816E+03  0.10100000352E+00 0. -1.
       -3    1    3    3    0  502 -0.13611996402E+03 -0.53297571669E+03  0.36566806451E+03  0.66053380139E+03  0.10100000352E+00 0.  1.
</event>
<event>
 5   0  0.3337520E-04  0.1306706E+04  0.7818609E-02  0.9024264E-01
       -1   -1    0    0    0  501  0.00000000000E+00  0.00000000000E+00  0.41816479385E+03  0.41816479388E+03  0.50400001928E-02 0. -1.
        1   -1    0    0  501    0  0.00000000000E+00  0.00000000000E+00 -0.10208173717E+04  0.10208173717E+04  0.50400001928E-02 0.  1.
    10030    2    1    2    0    0  0.00000000000E+00  0.00000000000E+00 -0.60265257781E+03  0.14389821656E+04  0.13067056070E+04 0.  0.
        5    1    3    3  502    0 -0.53222113295E+03  0.29727135602E+03 -0.42553391365E+02  0.61111576201E+03  0.46999998093E+01 0. -1.
       -5    1    3    3    0  502  0.53222113295E+03 -0.29727135602E+03 -0.56009918644E+03  0.82786640355E+03  0.46999998093E+01 0.  1.
</event>
<event>
 5   0  0.3403833E-04  0.1297174E+04  0.7818609E-02  0.9031809E-01
        1   -1    0    0  501    0  0.00000000000E+00  0.00000000000E+00  0.99049759277E+03  0.99049759279E+03  0.50400001928E-02 0.  1.
       -1   -1    0    0    0  501  0.00000000000E+00  0.00000000000E+00 -0.42470072341E+03  0.42470072344E+03  0.50400001928E-02 0. -1.
    10030    2    1    2    0    0  0.00000000000E+00  0.00000000000E+00  0.56579686937E+03  0.14151983162E+04  0.12971739193E+04 0.  0.
        1    1    3    3  502    0  0.72532745203E+02  0.21462897417E+02 -0.41987206026E+03  0.42663122495E+03  0.50400001928E-02 0. -1.
       -1    1    3    3    0  502 -0.72532745203E+02 -0.21462897417E+02  0.98566892962E+03  0.98856709127E+03  0.50400001928E-02 0.  1.
</event>
<event>
 5   0  0.3403833E-04  0.1303584E+04  0.7818609E-02  0.9026728E-01
        1   -1    0    0  501    0  0.00000000000E+00  0.00000000000E+00  0.57662459019E+03  0.57662459021E+03  0.50400001928E-02 0.  1.
       -1   -1    0    0    0  501  0.00000000000E+00  0.00000000000E+00 -0.73675809134E+03  0.73675809136E+03  0.50400001928E-02 0. -1.
    10030    2    1    2    0    0  0.00000000000E+00  0.00000000000E+00 -0.16013350115E+03  0.13133826816E+04  0.13035840326E+04 0.  0.
        1    1    3    3  502    0 -0.17075353489E+03  0.12099509438E+03 -0.70198800643E+03  0.73251876682E+03  0.50400001928E-02 0. -1.
       -1    1    3    3    0  502  0.17075353489E+03 -0.12099509438E+03  0.54185450528E+03  0.58086391475E+03  0.50400001928E-02 0.  1.
</event>
<event>
 5   0  0.5384960E-04  0.1298602E+04  0.7818609E-02  0.9030674E-01
       -2   -1    0    0    0  501  0.00000000000E+00  0.00000000000E+00  0.35341245454E+03  0.35341245455E+03  0.25500000920E-02 0. -1.
        2   -1    0    0  501    0  0.00000000000E+00  0.00000000000E+00 -0.11929175738E+04  0.11929175738E+04  0.25500000920E-02 0.  1.
    10030    2    1    2    0    0  0.00000000000E+00  0.00000000000E+00 -0.83950511929E+03  0.15463300284E+04  0.12986022144E+04 0.  0.
        3    1    3    3  502    0 -0.19667857429E+03 -0.35590084830E+03  0.18301925793E+03  0.44591920163E+03  0.10100000352E+00 0. -1.
       -3    1    3    3    0  502  0.19667857429E+03  0.35590084830E+03 -0.10225243772E+04  0.11004108267E+04  0.10100000352E+00 0.  1.
</event>
<event>
 5   0  0.3403833E-04  0.1304153E+04  0.7818609E-02  0.9026278E-01
       -1   -1    0    0    0  501  0.00000000000E+00  0.00000000000E+00  0.30994080477E+03  0.30994080481E+03  0.50400001928E-02 0. -1.
        1   -1    0    0  501    0  0.00000000000E+00  0.00000000000E+00 -0.13718868443E+04  0.13718868443E+04  0.50400001928E-02 0.  1.
    10030    2    1    2    0    0  0.00000000000E+00  0.00000000000E+00 -0.10619460395E+04  0.16818276491E+04  0.13041529245E+04 0.  0.
        1    1    3    3  502    0 -0.12119400358E+03  0.31254918331E+03 -0.12522570007E+04  0.12963497114E+04  0.50400001928E-02 0.  1.
       -1    1    3    3    0  502  0.12119400358E+03 -0.31254918331E+03  0.19031096116E+03  0.38547793770E+03  0.50400001928E-02 0. -1.
</event>
<event>
 5   0  0.3263679E-04  0.1299871E+04  0.7818609E-02  0.9029668E-01
       -1   -1    0    0    0  501  0.00000000000E+00  0.00000000000E+00  0.22151768510E+03  0.22151768515E+03  0.50400001928E-02 0. -1.
        1   -1    0    0  501    0  0.00000000000E+00  0.00000000000E+00 -0.19069171084E+04  0.19069171084E+04  0.50400001928E-02 0.  1.
    10030    2    1    2    0    0  0.00000000000E+00  0.00000000000E+00 -0.16853994233E+04  0.21284347936E+04  0.12998705529E+04 0.  0.
        2    1    3    3  502    0  0.43411101084E+03  0.10631302027E+03 -0.70050516390E+02  0.45239573701E+03  0.25500000920E-02 0. -1.
       -2    1    3    3    0  502 -0.43411101084E+03 -0.10631302027E+03 -0.16153489070E+04  0.16760390566E+04  0.25500000920E-02 0.  1.
</event>
<event>
 5   0  0.3335747E-04  0.1282048E+04  0.7818609E-02  0.9043924E-01
       -1   -1    0    0    0  501  0.00000000000E+00  0.00000000000E+00  0.34104386549E+03  0.34104386553E+03  0.50400001928E-02 0. -1.
        1   -1    0    0  501    0  0.00000000000E+00  0.00000000000E+00 -0.12048651710E+04  0.12048651711E+04  0.50400001928E-02 0.  1.
    10030    2    1    2    0    0  0.00000000000E+00  0.00000000000E+00 -0.86382130555E+03  0.15459090366E+04  0.12820481666E+04 0.  0.
        3    1    3    3  502    0 -0.27930668655E+03 -0.19251897759E+03 -0.10877616238E+04  0.11394301832E+04  0.10100000352E+00 0.  1.
       -3    1    3    3    0  502  0.27930668655E+03  0.19251897759E+03  0.22394031829E+03  0.40647885338E+03  0.10100000352E+00 0. -1.
</event>
<event>
 5   0  0.5787604E-04  0.1301372E+04  0.7818609E-02  0.9028478E-01
        2   -1    0    0  501    0  0.00000000000E+00  0.00000000000E+00  0.19149285611E+04  0.19149285611E+04  0.25500000920E-02 0. -1.
       -2   -1    0    0    0  501  0.00000000000E+00  0.00000000000E+00 -0.22110067739E+03  0.22110067741E+03  0.25500000920E-02 0.  1.
    10030    2    1    2    0    0  0.00000000000E+00  0.00000000000E+00  0.16938278837E+04  0.21360292385E+04  0.13013715873E+04 0.  0.
        4    1    3    3  502    0  0.61663262296E+03 -0.11454287009E+03  0.11313707160E+04  0.12935830745E+04  0.12699999809E+01 0. -1.
       -4    1    3    3    0  502 -0.61663262296E+03  0.11454287009E+03  0.56245716769E+03  0.84244616396E+03  0.12699999809E+01 0.  1.
</event>
<event>
 5   0  0.5384960E-04  0.1299153E+04  0.7818609E-02  0.9030237E-01
       -2   -1    0    0    0  501  0.00000000000E+00  0.00000000000E+00  0.40774520137E+03  0.40774520138E+03  0.25500000920E-02 0.  1.
        2   -1    0    0  501    0  0.00000000000E+00  0.00000000000E+00 -0.10348357568E+04  0.10348357568E+04  0.25500000920E-02 0. -1.
    10030    2    1    2    0    0  0.00000000000E+00  0.00000000000E+00 -0.62709055541E+03  0.14425809582E+04  0.12991525146E+04 0.  0.
        3    1    3    3  502    0  0.27380961789E+02 -0.31031250101E+03 -0.94647974729E+03  0.99642736192E+03  0.10100000352E+00 0. -1.
       -3    1    3    3    0  502 -0.27380961789E+02  0.31031250101E+03  0.31938919188E+03  0.44615359624E+03  0.10100000352E+00 0.  1.
</event>
<event>
 5   0  0.3274879E-04  0.1304078E+04  0.7818609E-02  0.9026338E-01
        1   -1    0    0  501    0  0.00000000000E+00  0.00000000000E+00  0.10634556541E+04  0.10634556541E+04  0.50400001928E-02 0. -1.
       -1   -1    0    0    0  501  0.00000000000E+00  0.00000000000E+00 -0.39978605507E+03  0.39978605510E+03  0.50400001928E-02 0.  1.
    10030    2    1    2    0    0  0.00000000000E+00  0.00000000000E+00  0.66366959901E+03  0.14632417092E+04  0.13040778209E+04 0.  0.
        4    1    3    3  502    0  0.53927697752E+03 -0.29667742756E+03  0.90356582299E+02  0.62209571560E+03  0.12699999809E+01 0.  1.
       -4    1    3    3    0  502 -0.53927697752E+03  0.29667742756E+03  0.57331301671E+03  0.84114599359E+03  0.12699999809E+01 0. -1.
</event>
<event>
 5   0  0.3263679E-04  0.1307723E+04  0.7818609E-02  0.9023463E-01
       -1   -1    0    0    0  501  0.00000000000E+00  0.00000000000E+00  0.59456262163E+03  0.59456262165E+03  0.50400001928E-02 0.  1.
        1   -1    0    0  501    0  0.00000000000E+00  0.00000000000E+00 -0.71907416679E+03  0.71907416681E+03  0.50400001928E-02 0. -1.
    10030    2    1    2    0    0  0.00000000000E+00  0.00000000000E+00 -0.12451154516E+03  0.13136367885E+04  0.13077226339E+04 0.  0.
        2    1    3    3  502    0 -0.49326938905E+03  0.42896971754E+03 -0.76635294733E+02  0.65818134062E+03  0.25500000920E-02 0.  1.
       -2    1    3    3    0  502  0.49326938905E+03 -0.42896971754E+03 -0.47876250423E+02  0.65545544784E+03  0.25500000920E-02 0. -1.
</event>
<event>
 5   0  0.3274879E-04  0.1273963E+04  0.7818609E-02  0.9050471E-01
       -1   -1    0    0    0  501  0.00000000000E+00  0.00000000000E+00  0.67696098169E+03  0.67696098170E+03  0.50400001928E-02 0. -1.
        1   -1    0    0  501    0  0.00000000000E+00  0.00000000000E+00 -0.59936353740E+03  0.59936353742E+03  0.50400001928E-02 0.  1.
    10030    2    1    2    0    0  0.00000000000E+00  0.00000000000E+00  0.77597444282E+02  0.12763245191E+04  0.12739634668E+04 0.  0.
        4    1    3    3  502    0  0.59337478575E+03 -0.17243585474E+03  0.19373447183E+03  0.64758197847E+03  0.12699999809E+01 0. -1.
       -4    1    3    3    0  502 -0.59337478575E+03  0.17243585474E+03 -0.11613702755E+03  0.62874254066E+03  0.12699999809E+01 0.  1.
</event>
<event>
 5   0  0.3403833E-04  0.1294006E+04  0.7818609E-02  0.9034332E-01
       -1   -1    0    0    0  501  0.00000000000E+00  0.00000000000E+00  0.28485705933E+03  0.28485705938E+03  0.50400001928E-02 0.  1.
        1   -1    0    0  501    0  0.00000000000E+00  0.00000000000E+00 -0.14695551112E+04  0.14695551112E+04  0.50400001928E-02 0. -1.
    10030    2    1    2    0    0  0.00000000000E+00  0.00000000000E+00 -0.11846980519E+04  0.17544121706E+04  0.12940064104E+04 0.  0.
        1    1    3    3  502    0 -0.21814548819E+03  0.99057021014E+02 -0.14071980134E+04  0.14274473708E+04  0.50400001928E-02 0. -1.
       -1    1    3    3    0  502  0.21814548819E+03 -0.99057021014E+02  0.22249996150E+03  0.32696479983E+03  0.50400001928E-02 0.  1.
</event>
<event>
 5   0  0.2255875E-04  0.1243957E+04  0.7818609E-02  0.9075228E-01
        3   -1    0    0  501    0  0.00000000000E+00  0.00000000000E+00  0.64985821804E+03  0.64985822589E+03  0.10100000352E+00 0.  1.
       -3   -1    0    0    0  501  0.00000000000E+00  0.00000000000E+00 -0.59529465400E+03  0.59529466256E+03  0.10100000352E+00 0. -1.
    10030    2    1    2    0    0  0.00000000000E+00  0.00000000000E+00  0.54563564042E+02  0.12451528885E+04  0.12439568052E+04 0.  0.
        2    1    3    3  502    0  0.14802342175E+03  0.49314391173E+03  0.37655178339E+03  0.63788172622E+03  0.25500000920E-02 0. -1.
       -2    1    3    3    0  502 -0.14802342175E+03 -0.49314391173E+03 -0.32198821935E+03  0.60727116223E+03  0.25500000920E-02 0.  1.
</event>
<event>
 5   0  0.3274879E-04  0.1292888E+04  0.7818609E-02  0.9035224E-01
       -1   -1    0    0    0  501  0.00000000000E+00  0.00000000000E+00  0.94197920471E+03  0.94197920472E+03  0.50400001928E-02 0. -1.
        1   -1    0    0  501    0  0.00000000000E+00  0.00000000000E+00 -0.44362989663E+03  0.44362989666E+03  0.50400001928E-02 0.  1.
    10030    2    1    2    0    0  0.00000000000E+00  0.00000000000E+00  0.49834930808E+03  0.13856091014E+04  0.12928884519E+04 0.  0.
        4    1    3    3  502    0  0.13029023235E+03 -0.14355867961E+03  0.91008880711E+03  0.93050947811E+03  0.12699999809E+01 0. -1.
       -4    1    3    3    0  502 -0.13029023235E+03  0.14355867961E+03 -0.41173949903E+03  0.45509962327E+03  0.12699999809E+01 0.  1.
</event>
<event>
 5   0  0.5787604E-04  0.1292385E+04  0.7818609E-02  0.9035626E-01
        2   -1    0    0  501    0  0.00000000000E+00  0.00000000000E+00  0.78680417225E+03  0.78680417226E+03  0.25500000920E-02 0.  1.
       -2   -1    0    0    0  501  0.00000000000E+00  0.00000000000E+00 -0.53070963625E+03  0.53070963626E+03  0.25500000920E-02 0. -1.
    10030    2    1    2    0    0  0.00000000000E+00  0.00000000000E+00  0.25609453600E+03  0.13175138085E+04  0.12923847044E+04 0.  0.
        4    1    3    3  502    0  0.53117317130E+03 -0.85248354004E+02 -0.23689477355E+03  0.58782052227E+03  0.12699999809E+01 0. -1.
       -4    1    3    3    0  502 -0.53117317130E+03  0.85248354004E+02  0.49298930955E+03  0.72969328625E+03  0.12699999809E+01 0.  1.
</event>
<event>
 5   0  0.2255875E-04  0.1296072E+04  0.7818609E-02  0.9032686E-01
        3   -1    0    0  501    0  0.00000000000E+00  0.00000000000E+00  0.53576739218E+03  0.53576740170E+03  0.10100000352E+00 0. -1.
       -3   -1    0    0    0  501  0.00000000000E+00  0.00000000000E+00 -0.78383051999E+03  0.78383052650E+03  0.10100000352E+00 0.  1.
    10030    2    1    2    0    0  0.00000000000E+00  0.00000000000E+00 -0.24806312781E+03  0.13195979282E+04  0.12960722884E+04 0.  0.
        3    1    3    3  502    0 -0.13150041525E+03 -0.63288376248E+03 -0.77189757062E+02  0.65099345988E+03  0.10100000352E+00 0. -1.
       -3    1    3    3    0  502  0.13150041525E+03  0.63288376248E+03 -0.17087337075E+03  0.66860446831E+03  0.10100000352E+00 0.  1.
</event>
<event>
 5   0  0.5787604E-04  0.1298302E+04  0.7818609E-02  0.9030912E-01
       -2   -1    0    0    0  501  0.00000000000E+00  0.00000000000E+00  0.37125425465E+03  0.37125425465E+03  0.25500000920E-02 0. -1.
        2   -1    0    0  501    0  0.00000000000E+00  0.00000000000E+00 -0.11350638176E+04  0.11350638176E+04  0.25500000920E-02 0.  1.
    10030    2    1    2    0    0  0.00000000000E+00  0.00000000000E+00 -0.76380956292E+03  0.15063180722E+04  0.12983023863E+04 0.  0.
        4    1    3    3  502    0 -0.18220965685E+03 -0.40102033443E+03  0.17133709256E+03  0.47262636391E+03  0.12699999809E+01 0. -1.
       -4    1    3    3    0  502  0.18220965685E+03  0.40102033443E+03 -0.93514665548E+03  0.10336917083E+04  0.12699999809E+01 0.  1.
</event>
<event>
 5   0  0.3403833E-04  0.1287984E+04  0.7818609E-02  0.9039149E-01
        1   -1    0    0  501    0  0.00000000000E+00  0.00000000000E+00  0.17763221910E+04  0.17763221910E+04  0.50400001928E-02 0.  1.
       -1   -1    0    0    0  501  0.00000000000E+00  0.00000000000E+00 -0.23347427217E+03  0.23347427223E+03  0.50400001928E-02 0. -1.
    10030    2    1    2    0    0  0.00000000000E+00  0.00000000000E+00  0.15428479188E+04  0.20097964632E+04  0.12879837433E+04 0.  0.
        1    1    3    3  502    0 -0.70684779373E+02 -0.21845078656E+03 -0.16743649817E+03  0.28416907842E+03  0.50400001928E-02 0. -1.
       -1    1    3    3    0  502  0.70684779373E+02  0.21845078656E+03  0.17102844170E+04  0.17256273848E+04  0.50400001928E-02 0.  1.
</event>
<event>
 5   0  0.3274879E-04  0.1292290E+04  0.7818609E-02  0.9035701E-01
        1   -1    0    0  501    0  0.00000000000E+00  0.00000000000E+00  0.12221089276E+04  0.12221089276E+04  0.50400001928E-02 0.  1.
       -1   -1    0    0    0  501  0.00000000000E+00  0.00000000000E+00 -0.34162556881E+03  0.34162556885E+03  0.50400001928E-02 0. -1.
    10030    2    1    2    0    0  0.00000000000E+00  0.00000000000E+00  0.88048335876E+03  0.15637344964E+04  0.12922904589E+04 0.  0.
        4    1    3    3  502    0  0.59944556221E+03 -0.38874237087E+01  0.73204150113E+03  0.94616936455E+03  0.12699999809E+01 0.  1.
       -4    1    3    3    0  502 -0.59944556221E+03  0.38874237087E+01  0.14844185763E+03  0.61756513188E+03  0.12699999809E+01 0. -1.
</event>
<event>
 5   0  0.5787604E-04  0.1291837E+04  0.7818609E-02  0.9036064E-01
       -2   -1    0    0    0  501  0.00000000000E+00  0.00000000000E+00  0.31828762933E+03  0.31828762934E+03  0.25500000920E-02 0. -1.
        2   -1    0    0  501    0  0.00000000000E+00  0.00000000000E+00 -0.13107968490E+04  0.13107968490E+04  0.25500000920E-02 0.  1.
    10030    2    1    2    0    0  0.00000000000E+00  0.00000000000E+00 -0.99250921970E+03  0.16290844784E+04  0.12918365556E+04 0.  0.
        4    1    3    3  502    0 -0.33031014084E+03  0.19195465430E+03  0.16053588292E+03  0.41439686420E+03  0.12699999809E+01 0. -1.
       -4    1    3    3    0  502  0.33031014084E+03 -0.19195465430E+03 -0.11530451026E+04  0.12146876142E+04  0.12699999809E+01 0.  1.
</event>
<event>
 5   0  0.5787604E-04  0.1301514E+04  0.7818609E-02  0.9028365E-01
        2   -1    0    0  501    0  0.00000000000E+00  0.00000000000E+00  0.13416955386E+04  0.13416955386E+04  0.25500000920E-02 0.  1.
       -2   -1    0    0    0  501  0.00000000000E+00  0.00000000000E+00 -0.31563403378E+03  0.31563403379E+03  0.25500000920E-02 0. -1.
    10030    2    1    2    0    0  0.00000000000E+00  0.00000000000E+00  0.10260615048E+04  0.16573295724E+04  0.13015141566E+04 0.  0.
        4    1    3    3  502    0  0.11802826603E+03  0.59514109047E+02  0.13244188801E+04  0.13309994679E+04  0.12699999809E+01 0.  1.
       -4    1    3    3    0  502 -0.11802826603E+03 -0.59514109047E+02 -0.29835737532E+03  0.32633010444E+03  0.12699999809E+01 0. -1.
</event>
<event>
 5   0  0.6007125E-04  0.1294788E+04  0.7818609E-02  0.9033709E-01
        2   -1    0    0  501    0  0.00000000000E+00  0.00000000000E+00  0.72570538496E+03  0.72570538496E+03  0.25500000920E-02 0. -1.
       -2   -1    0    0    0  501  0.00000000000E+00  0.00000000000E+00 -0.57753316789E+03  0.57753316789E+03  0.25500000920E-02 0.  1.
    10030    2    1    2    0    0  0.00000000000E+00  0.00000000000E+00  0.14817221708E+03  0.13032385529E+04  0.12947879053E+04 0.  0.
        5    1    3    3  502    0 -0.85798141213E+02 -0.55746790266E+03  0.39390994685E+03  0.68798177284E+03  0.46999998093E+01 0. -1.
       -5    1    3    3    0  502  0.85798141213E+02  0.55746790266E+03 -0.24573772977E+03  0.61525678002E+03  0.46999998093E+01 0.  1.
</event>
<event>
 5   0  0.5957913E-04  0.1298602E+04  0.7818609E-02  0.9030674E-01
       -2   -1    0    0    0  501  0.00000000000E+00  0.00000000000E+00  0.51060571412E+03  0.51060571412E+03  0.25500000920E-02 0. -1.
        2   -1    0    0  501    0  0.00000000000E+00  0.00000000000E+00 -0.82567036809E+03  0.82567036809E+03  0.25500000920E-02 0.  1.
    10030    2    1    2    0    0  0.00000000000E+00  0.00000000000E+00 -0.31506465397E+03  0.13362760822E+04  0.12986023378E+04 0.  0.
        1    1    3    3  502    0 -0.54441565567E+03  0.12079540174E+03  0.18470019674E+03  0.58744710224E+03  0.50400001928E-02 0. -1.
       -1    1    3    3    0  502  0.54441565567E+03 -0.12079540174E+03 -0.49976485071E+03  0.74882897998E+03  0.50400001928E-02 0.  1.
</event>
<event>
 5   0  0.3337520E-04  0.1292044E+04  0.7818609E-02  0.9035898E-01
        1   -1    0    0  501    0  0.00000000000E+00  0.00000000000E+00  0.77936738398E+03  0.77936738400E+03  0.50400001928E-02 0. -1.
       -1   -1    0    0    0  501  0.00000000000E+00  0.00000000000E+00 -0.53549160635E+03  0.53549160638E+03  0.50400001928E-02 0.  1.
    10030    2    1    2    0    0  0.00000000000E+00  0.00000000000E+00  0.24387577763E+03  0.13148589904E+04  0.12920444147E+04 0.  0.
        5    1    3    3  502    0 -0.50221892868E+03 -0.40552159253E+03  0.14790288457E+03  0.66224539832E+03  0.46999998093E+01 0. -1.
       -5    1    3    3    0  502  0.50221892868E+03  0.40552159253E+03  0.95972893056E+02  0.65261359205E+03  0.46999998093E+01 0.  1.
</event>
<event>
 5   0  0.6007125E-04  0.1285753E+04  0.7818609E-02  0.9040940E-01
        2   -1    0    0  501    0  0.00000000000E+00  0.00000000000E+00  0.11341993674E+04  0.11341993674E+04  0.25500000920E-02 0.  1.
       -2   -1    0    0    0  501  0.00000000000E+00  0.00000000000E+00 -0.36438960048E+03  0.36438960049E+03  0.25500000920E-02 0. -1.
    10030    2    1    2    0    0  0.00000000000E+00  0.00000000000E+00  0.76980976688E+03  0.14985889678E+04  0.12857534046E+04 0.  0.
        5    1    3    3  502    0 -0.17304803343E+03 -0.18314726662E+03 -0.30441725061E+03  0.39519678088E+03  0.46999998093E+01 0. -1.
       -5    1    3    3    0  502  0.17304803343E+03  0.18314726662E+03  0.10742270175E+04  0.11033921870E+04  0.46999998093E+01 0.  1.
</event>
<event>
 5   0  0.2255875E-04  0.1290538E+04  0.7818609E-02  0.9037103E-01
        4   -1    0    0  501    0  0.00000000000E+00  0.00000000000E+00  0.65728669097E+03  0.65728791791E+03  0.12699999809E+01 0.  1.
       -4   -1    0    0    0  501  0.00000000000E+00  0.00000000000E+00 -0.63346842020E+03  0.63346969327E+03  0.12699999809E+01 0. -1.
    10030    2    1    2    0    0  0.00000000000E+00  0.00000000000E+00  0.23818270776E+02  0.12907576112E+04  0.12905378339E+04 0.  0.
        1    1    3    3  502    0 -0.25672026304E+03  0.43737610156E+03 -0.38711848858E+03  0.63801557340E+03  0.50400001928E-02 0. -1.
       -1    1    3    3    0  502  0.25672026304E+03 -0.43737610156E+03  0.41093675935E+03  0.65274203778E+03  0.50400001928E-02 0.  1.
</event>
<event>
 5   0  0.6007125E-04  0.1329233E+04  0.7818609E-02  0.9006699E-01
       -2   -1    0    0    0  501  0.00000000000E+00  0.00000000000E+00  0.58115435080E+03  0.58115435081E+03  0.25500000920E-02 0.  1.
        2   -1    0    0  501    0  0.00000000000E+00  0.00000000000E+00 -0.76006540354E+03  0.76006540354E+03  0.25500000920E-02 0. -1.
    10030    2    1    2    0    0  0.00000000000E+00  0.00000000000E+00 -0.17891105274E+03  0.13412197544E+04  0.13292333372E+04 0.  0.
        5    1    3    3  502    0 -0.22183469100E+03  0.41001849031E+03 -0.56740130126E+03  0.73436511300E+03  0.46999998093E+01 0. -1.
       -5    1    3    3    0  502  0.22183469100E+03 -0.41001849031E+03  0.38849024852E+03  0.60685464135E+03  0.46999998093E+01 0.  1.
</event>
<event>
 5   0  0.3335747E-04  0.1298251E+04  0.7818609E-02  0.9030953E-01
        1   -1    0    0  501    0  0.00000000000E+00  0.00000000000E+00  0.58874326273E+03  0.58874326275E+03  0.50400001928E-02 0. -1.
       -1   -1    0    0    0  501  0.00000000000E+00  0.00000000000E+00 -0.71570059717E+03  0.71570059719E+03  0.50400001928E-02 0.  1.
    10030    2    1    2    0    0  0.00000000000E+00  0.00000000000E+00 -0.12695733445E+03  0.13044438599E+04  0.12982509846E+04 0.  0.
        3    1    3    3  502    0  0.40495019620E+03  0.20131883401E+03  0.40441417951E+03  0.60668342084E+03  0.10100000352E+00 0. -1.
       -3    1    3    3    0  502 -0.40495019620E+03 -0.20131883401E+03 -0.53137151396E+03  0.69776043910E+03  0.10100000352E+00 0.  1.
</event>
<event>
 5   0  0.3263679E-04  0.1301492E+04  0.7818609E-02  0.9028383E-01
        1   -1    0    0  501    0  0.00000000000E+00  0.00000000000E+00  0.18118023397E+04  0.18118023397E+04  0.50400001928E-02 0.  1.
       -1   -1    0    0    0  501  0.00000000000E+00  0.00000000000E+00 -0.23372862622E+03  0.23372862627E+03  0.50400001928E-02 0. -1.
    10030    2    1    2    0    0  0.00000000000E+00  0.00000000000E+00  0.15780737135E+04  0.20455309660E+04  0.13014915626E+04 0.  0.
        2    1    3    3  502    0 -0.59210488113E+03  0.26896286625E+03  0.75248525427E+03  0.99456687637E+03  0.25500000920E-02 0. -1.
       -2    1    3    3    0  502  0.59210488113E+03 -0.26896286625E+03  0.82558845924E+03  0.10509640896E+04  0.25500000920E-02 0.  1.
</event>
<event>
 5   0  0.3335747E-04  0.1304421E+04  0.7818609E-02  0.9026067E-01
        1   -1    0    0  501    0  0.00000000000E+00  0.00000000000E+00  0.84095759269E+03  0.84095759271E+03  0.50400001928E-02 0.  1.
       -1   -1    0    0    0  501  0.00000000000E+00  0.00000000000E+00 -0.50582643027E+03  0.50582643030E+03  0.50400001928E-02 0. -1.
    10030    2    1    2    0    0  0.00000000000E+00  0.00000000000E+00  0.33513116242E+03  0.13467840230E+04  0.13044210626E+04 0.  0.
        3    1    3    3  502    0  0.62283538298E+03  0.14652381101E+03  0.29810517373E+03  0.70587523423E+03  0.10100000352E+00 0.  1.
       -3    1    3    3    0  502 -0.62283538298E+03 -0.14652381101E+03  0.37025988688E+02  0.64090878877E+03  0.10100000352E+00 0. -1.
</event>
<event>
 5   0  0.3335747E-04  0.1315846E+04  0.7818609E-02  0.9017093E-01
       -1   -1    0    0    0  501  0.00000000000E+00  0.00000000000E+00  0.34477390329E+04  0.34477390329E+04  0.50400001928E-02 0. -1.
        1   -1    0    0  501    0  0.00000000000E+00  0.00000000000E+00 -0.12554973459E+03  0.12554973469E+03  0.50400001928E-02 0.  1.
    10030    2    1    2    0    0  0.00000000000E+00  0.00000000000E+00  0.33221892983E+04  0.35732887676E+04  0.13158460711E+04 0.  0.
        3    1    3    3  502    0  0.93532252056E+01  0.42215556341E+03  0.30312128284E+04  0.30604826456E+04  0.10100000352E+00 0. -1.
       -3    1    3    3    0  502 -0.93532252056E+01 -0.42215556341E+03  0.29097646988E+03  0.51280612201E+03  0.10100000352E+00 0.  1.
</event>
<event>
 5   0  0.6052864E-04  0.1302542E+04  0.7818609E-02  0.9027552E-01
       -2   -1    0    0    0  501  0.00000000000E+00  0.00000000000E+00  0.29985562138E+03  0.29985562139E+03  0.25500000920E-02 0. -1.
        2   -1    0    0  501    0  0.00000000000E+00  0.00000000000E+00 -0.14145263464E+04  0.14145263464E+04  0.25500000920E-02 0.  1.
    10030    2    1    2    0    0  0.00000000000E+00  0.00000000000E+00 -0.11146707251E+04  0.17143819678E+04  0.13025416332E+04 0.  0.
        2    1    3    3  502    0  0.51053618158E+03  0.38139675382E+03 -0.38054021062E+03  0.74224088303E+03  0.25500000920E-02 0. -1.
       -2    1    3    3    0  502 -0.51053618158E+03 -0.38139675382E+03 -0.73413051445E+03  0.97214108481E+03  0.25500000920E-02 0.  1.
</event>
<event>
 5   0  0.3337520E-04  0.1296962E+04  0.7818609E-02  0.9031978E-01
       -1   -1    0    0    0  501  0.00000000000E+00  0.00000000000E+00  0.25285544342E+03  0.25285544347E+03  0.50400001928E-02 0. -1.
        1   -1    0    0  501    0  0.00000000000E+00  0.00000000000E+00 -0.16631155550E+04  0.16631155550E+04  0.50400001928E-02 0.  1.
    10030    2    1    2    0    0  0.00000000000E+00  0.00000000000E+00 -0.14102601115E+04  0.19159709984E+04  0.12969623297E+04 0.  0.
        5    1    3    3  502    0  0.62579753872E+03  0.15306708278E+03 -0.81422504317E+03  0.10382854146E+04  0.46999998093E+01 0.  1.
       -5    1    3    3    0  502 -0.62579753872E+03 -0.15306708278E+03 -0.59603506837E+03  0.87768558381E+03  0.46999998093E+01 0. -1.
</event>
<event>
 5   0  0.3263679E-04  0.1305178E+04  0.7818609E-02  0.9025469E-01
       -1   -1    0    0    0  501  0.00000000000E+00  0.00000000000E+00  0.48589564269E+03  0.48589564272E+03  0.50400001928E-02 0.  1.
        1   -1    0    0  501    0  0.00000000000E+00  0.00000000000E+00 -0.87646889638E+03  0.87646889639E+03  0.50400001928E-02 0. -1.
    10030    2    1    2    0    0  0.00000000000E+00  0.00000000000E+00 -0.39057325369E+03  0.13623645391E+04  0.13051780227E+04 0.  0.
        2    1    3    3  502    0 -0.14782565428E+03 -0.27738850604E+03 -0.79224996312E+03  0.85232435810E+03  0.25500000920E-02 0. -1.
       -2    1    3    3    0  502  0.14782565428E+03  0.27738850604E+03  0.40167670943E+03  0.51004018101E+03  0.25500000920E-02 0.  1.
</event>
<event>
 5   0  0.3335747E-04  0.1299981E+04  0.7818609E-02  0.9029580E-01
       -1   -1    0    0    0  501  0.00000000000E+00  0.00000000000E+00  0.33268016141E+03  0.33268016145E+03  0.50400001928E-02 0.  1.
        1   -1    0    0  501    0  0.00000000000E+00  0.00000000000E+00 -0.12699511922E+04  0.12699511922E+04  0.50400001928E-02 0. -1.
    10030    2    1    2    0    0  0.00000000000E+00  0.00000000000E+00 -0.93727103079E+03  0.16026313537E+04  0.12999808732E+04 0.  0.
        3    1    3    3  502    0 -0.53863388212E+03 -0.19335380965E+03 -0.88706690427E+02  0.57912092157E+03  0.10100000352E+00 0.  1.
       -3    1    3    3    0  502  0.53863388212E+03  0.19335380965E+03 -0.84856434036E+03  0.10235104321E+04  0.10100000352E+00 0. -1.
</event>
<event>
 5   0  0.5957913E-04  0.1302484E+04  0.7818609E-02  0.9027597E-01
       -2   -1    0    0    0  501  0.00000000000E+00  0.00000000000E+00  0.35832432296E+03  0.35832432297E+03  0.25500000920E-02 0.  1.
        2   -1    0    0  501    0  0.00000000000E+00  0.00000000000E+00 -0.11836101407E+04  0.11836101407E+04  0.25500000920E-02 0. -1.
    10030    2    1    2    0    0  0.00000000000E+00  0.00000000000E+00 -0.82528581776E+03  0.15419344637E+04  0.13024842453E+04 0.  0.
        1    1    3    3  502    0 -0.42922120265E+03  0.48264232820E+03 -0.31400794760E+03  0.71817508238E+03  0.50400001928E-02 0.  1.
       -1    1    3    3    0  502  0.42922120265E+03 -0.48264232820E+03 -0.51127787016E+03  0.82375938132E+03  0.50400001928E-02 0. -1.
</event>
<event>
 5   0  0.6052864E-04  0.1291970E+04  0.7818609E-02  0.9035957E-01
        2   -1    0    0  501    0  0.00000000000E+00  0.00000000000E+00  0.10762730308E+04  0.10762730308E+04  0.25500000920E-02 0.  1.
       -2   -1    0    0    0  501  0.00000000000E+00  0.00000000000E+00 -0.38772397507E+03  0.38772397508E+03  0.25500000920E-02 0. -1.
    10030    2    1    2    0    0  0.00000000000E+00  0.00000000000E+00  0.68854905569E+03  0.14639970059E+04  0.12919703677E+04 0.  0.
        2    1    3    3  502    0  0.33874870307E+02 -0.30247644137E+03 -0.30138008407E+03  0.42833335091E+03  0.25500000920E-02 0. -1.
       -2    1    3    3    0  502 -0.33874870307E+02  0.30247644137E+03  0.98992913976E+03  0.10356636549E+04  0.25500000920E-02 0.  1.
</event>
<event>
 5   0  0.3335747E-04  0.1297725E+04  0.7818609E-02  0.9031371E-01
        1   -1    0    0  501    0  0.00000000000E+00  0.00000000000E+00  0.76340981959E+03  0.76340981961E+03  0.50400001928E-02 0.  1.
       -1   -1    0    0    0  501  0.00000000000E+00  0.00000000000E+00 -0.55150267479E+03  0.55150267481E+03  0.50400001928E-02 0. -1.
    10030    2    1    2    0    0  0.00000000000E+00  0.00000000000E+00  0.21190714481E+03  0.13149124944E+04  0.12977250209E+04 0.  0.
        3    1    3    3  502    0  0.44648266454E+03  0.40435962962E+03  0.35033051371E+03  0.69683926327E+03  0.10100000352E+00 0.  1.
       -3    1    3    3    0  502 -0.44648266454E+03 -0.40435962962E+03 -0.13842336890E+03  0.61807323115E+03  0.10100000352E+00 0. -1.
</event>
<event>
 5   0  0.5957913E-04  0.1303249E+04  0.7818609E-02  0.9026993E-01
       -2   -1    0    0    0  501  0.00000000000E+00  0.00000000000E+00  0.49030757023E+03  0.49030757024E+03  0.25500000920E-02 0.  1.
        2   -1    0    0  501    0  0.00000000000E+00  0.00000000000E+00 -0.86601629758E+03  0.86601629758E+03  0.25500000920E-02 0. -1.
    10030    2    1    2    0    0  0.00000000000E+00  0.00000000000E+00 -0.37570872734E+03  0.13563238678E+04  0.13032487815E+04 0.  0.
        1    1    3    3  502    0 -0.24205467948E+03  0.14486664920E+03 -0.79917526749E+03  0.84750098649E+03  0.50400001928E-02 0. -1.
       -1    1    3    3    0  502  0.24205467948E+03 -0.14486664920E+03  0.42346654015E+03  0.50882288132E+03  0.50400001928E-02 0.  1.
</event>
<event>
 5   0  0.3403833E-04  0.1302423E+04  0.7818609E-02  0.9027646E-01
       -1   -1    0    0    0  501  0.00000000000E+00  0.00000000000E+00  0.27391607263E+03  0.27391607268E+03  0.50400001928E-02 0. -1.
        1   -1    0    0  501    0  0.00000000000E+00  0.00000000000E+00 -0.15481988828E+04  0.15481988828E+04  0.50400001928E-02 0.  1.
    10030    2    1    2    0    0  0.00000000000E+00  0.00000000000E+00 -0.12742828102E+04  0.18221149555E+04  0.13024232149E+04 0.  0.
        1    1    3    3  502    0 -0.59256166113E+03  0.46590731052E+02 -0.10093344948E+04  0.11713480016E+04  0.50400001928E-02 0.  1.
       -1    1    3    3    0  502  0.59256166113E+03 -0.46590731052E+02 -0.26494831544E+03  0.65076695394E+03  0.50400001928E-02 0. -1.
</event>
<event>
 5   0  0.3335747E-04  0.1299296E+04  0.7818609E-02  0.9030124E-01
       -1   -1    0    0    0  501  0.00000000000E+00  0.00000000000E+00  0.10792064569E+04  0.10792064569E+04  0.50400001928E-02 0. -1.
        1   -1    0    0  501    0  0.00000000000E+00  0.00000000000E+00 -0.39106746440E+03  0.39106746443E+03  0.50400001928E-02 0.  1.
    10030    2    1    2    0    0  0.00000000000E+00  0.00000000000E+00  0.68813899248E+03  0.14702739213E+04  0.12992960135E+04 0.  0.
        3    1    3    3  502    0 -0.35918354275E+03  0.42146592314E+03 -0.40332704820E+02  0.55522344964E+03  0.10100000352E+00 0.  1.
       -3    1    3    3    0  502  0.35918354275E+03 -0.42146592314E+03  0.72847169730E+03  0.91505047168E+03  0.10100000352E+00 0. -1.
</event>
<event>
 5   0  0.5787604E-04  0.1285524E+04  0.7818609E-02  0.9041124E-01
       -2   -1    0    0    0  501  0.00000000000E+00  0.00000000000E+00  0.12272517402E+04  0.12272517402E+04  0.25500000920E-02 0. -1.
        2   -1    0    0  501    0  0.00000000000E+00  0.00000000000E+00 -0.33664062852E+03  0.33664062853E+03  0.25500000920E-02 0.  1.
    10030    2    1    2    0    0  0.00000000000E+00  0.00000000000E+00  0.89061111172E+03  0.15638923688E+04  0.12855237021E+04 0.  0.
        4    1    3    3  502    0 -0.21744952554E+03  0.42472596040E+03  0.96921648395E+03  0.10803048844E+04  0.12699999809E+01 0. -1.
       -4    1    3    3    0  502  0.21744952554E+03 -0.42472596040E+03 -0.78605372233E+02  0.48358748437E+03  0.12699999809E+01 0.  1.
</event>
<event>
 5   0  0.6007125E-04  0.1298309E+04  0.7818609E-02  0.9030908E-01
       -2   -1    0    0    0  501  0.00000000000E+00  0.00000000000E+00  0.33669854290E+03  0.33669854291E+03  0.25500000920E-02 0. -1.
        2   -1    0    0  501    0  0.00000000000E+00  0.00000000000E+00 -0.12515684279E+04  0.12515684279E+04  0.25500000920E-02 0.  1.
    10030    2    1    2    0    0  0.00000000000E+00  0.00000000000E+00 -0.91486988502E+03  0.15882669708E+04  0.12983085396E+04 0.  0.
        5    1    3    3  502    0 -0.63297240156E+03  0.34652367788E+02 -0.28649890129E+03  0.69567130037E+03  0.46999998093E+01 0. -1.
       -5    1    3    3    0  502  0.63297240156E+03 -0.34652367788E+02 -0.62837098373E+03  0.89259567046E+03  0.46999998093E+01 0.  1.
</event>
<event>
 5   0  0.2255875E-04  0.1299500E+04  0.7818609E-02  0.9029961E-01
        3   -1    0    0  501    0  0.00000000000E+00  0.00000000000E+00  0.50550902765E+03  0.50550903774E+03  0.10100000352E+00 0.  1.
       -3   -1    0    0    0  501  0.00000000000E+00  0.00000000000E+00 -0.83514886761E+03  0.83514887372E+03  0.10100000352E+00 0. -1.
    10030    2    1    2    0    0  0.00000000000E+00  0.00000000000E+00 -0.32963983996E+03  0.13406579115E+04  0.12995003699E+04 0.  0.
        4    1    3    3  502    0 -0.26263654872E+03  0.52909569214E+03 -0.44404582284E+03  0.73898478593E+03  0.12699999809E+01 0. -1.
       -4    1    3    3    0  502  0.26263654872E+03 -0.52909569214E+03  0.11440598288E+03  0.60167312553E+03  0.12699999809E+01 0.  1.
</event>
<event>
 5   0  0.5957913E-04  0.1307855E+04  0.7818609E-02  0.9023359E-01
       -2   -1    0    0    0  501  0.00000000000E+00  0.00000000000E+00  0.34530467816E+03  0.34530467817E+03  0.25500000920E-02 0.  1.
        2   -1    0    0  501    0  0.00000000000E+00  0.00000000000E+00 -0.12383873469E+04  0.12383873469E+04  0.25500000920E-02 0. -1.
    10030    2    1    2    0    0  0.00000000000E+00  0.00000000000E+00 -0.89308266877E+03  0.15836920251E+04  0.13078546468E+04 0.  0.
        1    1    3    3  502    0 -0.92483252569E+02 -0.38677706085E+03 -0.10751313908E+04  0.11463233202E+04  0.50400001928E-02 0. -1.
       -1    1    3    3    0  502  0.92483252569E+02  0.38677706085E+03  0.18204872207E+03  0.43736870491E+03  0.50400001928E-02 0.  1.
</event>
<event>
 5   0  0.6007125E-04  0.1283238E+04  0.7818609E-02  0.9042964E-01
       -2   -1    0    0    0  501  0.00000000000E+00  0.00000000000E+00  0.41495118010E+03  0.41495118011E+03  0.25500000920E-02 0. -1.
        2   -1    0    0  501    0  0.00000000000E+00  0.00000000000E+00 -0.99210396621E+03  0.99210396621E+03  0.25500000920E-02 0.  1.
    10030    2    1    2    0    0  0.00000000000E+00  0.00000000000E+00 -0.57715278611E+03  0.14070551463E+04  0.12832376422E+04 0.  0.
        5    1    3    3  502    0 -0.45988855908E+03  0.16107622268E+03 -0.74623333233E+03  0.89125154281E+03  0.46999998093E+01 0.  1.
       -5    1    3    3    0  502  0.45988855908E+03 -0.16107622268E+03  0.16908054623E+03  0.51580360351E+03  0.46999998093E+01 0. -1.
</event>
<event>
 5   0  0.5787604E-04  0.1301157E+04  0.7818609E-02  0.9028648E-01
        2   -1    0    0  501    0  0.00000000000E+00  0.00000000000E+00  0.13689804382E+04  0.13689804382E+04  0.25500000920E-02 0.  1.
       -2   -1    0    0    0  501  0.00000000000E+00  0.00000000000E+00 -0.30917356253E+03  0.30917356254E+03  0.25500000920E-02 0. -1.
    10030    2    1    2    0    0  0.00000000000E+00  0.00000000000E+00  0.10598068757E+04  0.16781540008E+04  0.13011572682E+04 0.  0.
        4    1    3    3  502    0 -0.64112510355E+02 -0.38414391091E+03 -0.14221545841E+03  0.41461284083E+03  0.12699999809E+01 0. -1.
       -4    1    3    3    0  502  0.64112510355E+02  0.38414391091E+03  0.12020223341E+04  0.12635411599E+04  0.12699999809E+01 0.  1.
</event>
<event>
 5   0  0.3335747E-04  0.1313048E+04  0.7818609E-02  0.9019282E-01
        1   -1    0    0  501    0  0.00000000000E+00  0.00000000000E+00  0.76421866684E+03  0.76421866685E+03  0.50400001928E-02 0. -1.
       -1   -1    0    0    0  501  0.00000000000E+00  0.00000000000E+00 -0.56400560739E+03  0.56400560741E+03  0.50400001928E-02 0.  1.
    10030    2    1    2    0    0  0.00000000000E+00  0.00000000000E+00  0.20021305945E+03  0.13282242743E+04  0.13130477728E+04 0.  0.
        3    1    3    3  502    0  0.19156611033E+03  0.21157279779E+03 -0.49796565146E+03  0.57396029795E+03  0.10100000352E+00 0.  1.
       -3    1    3    3    0  502 -0.19156611033E+03 -0.21157279779E+03  0.69817871091E+03  0.75426397631E+03  0.10100000352E+00 0. -1.
</event>
<event>
 5   0  0.3335747E-04  0.1305618E+04  0.7818609E-02  0.9025122E-01
       -1   -1    0    0    0  501  0.00000000000E+00  0.00000000000E+00  0.37970821311E+03  0.37970821315E+03  0.50400001928E-02 0.  1.
        1   -1    0    0  501    0  0.00000000000E+00  0.00000000000E+00 -0.11223336860E+04  0.11223336860E+04  0.50400001928E-02 0. -1.
    10030    2    1    2    0    0  0.00000000000E+00  0.00000000000E+00 -0.74262547286E+03  0.15020418991E+04  0.13056175833E+04 0.  0.
        3    1    3    3  502    0  0.15852531220E+03 -0.60592528920E+03 -0.58308090773E+03  0.85572138331E+03  0.10100000352E+00 0.  1.
       -3    1    3    3    0  502 -0.15852531220E+03  0.60592528920E+03 -0.15954456513E+03  0.64632051582E+03  0.10100000352E+00 0. -1.
</event>
<event>
 5   0  0.5384960E-04  0.1298968E+04  0.7818609E-02  0.9030384E-01
        2   -1    0    0  501    0  0.00000000000E+00  0.00000000000E+00  0.74824792622E+03  0.74824792622E+03  0.25500000920E-02 0.  1.
       -2   -1    0    0    0  501  0.00000000000E+00  0.00000000000E+00 -0.56375654485E+03  0.56375654485E+03  0.25500000920E-02 0. -1.
    10030    2    1    2    0    0  0.00000000000E+00  0.00000000000E+00  0.18449138137E+03  0.13120044711E+04  0.12989683069E+04 0.  0.
        3    1    3    3  502    0  0.26193412708E+03  0.29298800051E+03 -0.43002993460E+03  0.58256090688E+03  0.10100000352E+00 0. -1.
       -3    1    3    3    0  502 -0.26193412708E+03 -0.29298800051E+03  0.61452131597E+03  0.72944356420E+03  0.10100000352E+00 0.  1.
</event>
<event>
 5   0  0.5787604E-04  0.1300840E+04  0.7818609E-02  0.9028899E-01
       -2   -1    0    0    0  501  0.00000000000E+00  0.00000000000E+00  0.37880721102E+03  0.37880721103E+03  0.25500000920E-02 0.  1.
        2   -1    0    0  501    0  0.00000000000E+00  0.00000000000E+00 -0.11167850583E+04  0.11167850583E+04  0.25500000920E-02 0. -1.
    10030    2    1    2    0    0  0.00000000000E+00  0.00000000000E+00 -0.73797784729E+03  0.14955922693E+04  0.13008400874E+04 0.  0.
        4    1    3    3  502    0  0.47059386845E+03  0.44787260768E+03 -0.40527613109E+03  0.76570151957E+03  0.12699999809E+01 0. -1.
       -4    1    3    3    0  502 -0.47059386845E+03 -0.44787260768E+03 -0.33270171620E+03  0.72989074977E+03  0.12699999809E+01 0.  1.
</event>
<event>
 5   0  0.3263679E-04  0.1312661E+04  0.7818609E-02  0.9019584E-01
       -1   -1    0    0    0  501  0.00000000000E+00  0.00000000000E+00  0.54913716057E+03  0.54913716060E+03  0.50400001928E-02 0.  1.
        1   -1    0    0  501    0  0.00000000000E+00  0.00000000000E+00 -0.78444886549E+03  0.78444886550E+03  0.50400001928E-02 0. -1.
    10030    2    1    2    0    0  0.00000000000E+00  0.00000000000E+00 -0.23531170492E+03  0.13335860261E+04  0.13126614531E+04 0.  0.
        2    1    3    3  502    0  0.59907814651E+03  0.27651640266E+02  0.15326100960E+03  0.61898964120E+03  0.25500000920E-02 0.  1.
       -2    1    3    3    0  502 -0.59907814651E+03 -0.27651640266E+02 -0.38857271452E+03  0.71459638490E+03  0.25500000920E-02 0. -1.
</event>
<event>
 5   0  0.3403833E-04  0.1308589E+04  0.7818609E-02  0.9022781E-01
       -1   -1    0    0    0  501  0.00000000000E+00  0.00000000000E+00  0.59734440544E+03  0.59734440546E+03  0.50400001928E-02 0.  1.
        1   -1    0    0  501    0  0.00000000000E+00  0.00000000000E+00 -0.71667461390E+03  0.71667461392E+03  0.50400001928E-02 0. -1.
    10030    2    1    2    0    0  0.00000000000E+00  0.00000000000E+00 -0.11933020846E+03  0.13140190194E+04  0.13085894255E+04 0.  0.
        1    1    3    3  502    0  0.39096134384E+03 -0.42454579310E+03  0.24985347044E+03  0.62890115243E+03  0.50400001928E-02 0.  1.
       -1    1    3    3    0  502 -0.39096134384E+03  0.42454579310E+03 -0.36918367890E+03  0.68511786695E+03  0.50400001928E-02 0. -1.
</event>
<event>
 5   0  0.3263679E-04  0.1307056E+04  0.7818609E-02  0.9023988E-01
        1   -1    0    0  501    0  0.00000000000E+00  0.00000000000E+00  0.15559240672E+04  0.15559240672E+04  0.50400001928E-02 0.  1.
       -1   -1    0    0    0  501  0.00000000000E+00  0.00000000000E+00 -0.27449865404E+03  0.27449865408E+03  0.50400001928E-02 0. -1.
    10030    2    1    2    0    0  0.00000000000E+00  0.00000000000E+00  0.12814254132E+04  0.18304227213E+04  0.13070563297E+04 0.  0.
        2    1    3    3  502    0 -0.41682163743E+03 -0.35003172343E+03  0.13416345163E+03  0.56059104220E+03  0.25500000920E-02 0. -1.
       -2    1    3    3    0  502  0.41682163743E+03  0.35003172343E+03  0.11472619615E+04  0.12698316791E+04  0.25500000920E-02 0.  1.
</event>
<event>
 5   0  0.2255875E-04  0.1303590E+04  0.7818609E-02  0.9026723E-01
        3   -1    0    0  501    0  0.00000000000E+00  0.00000000000E+00  0.64052276578E+03  0.64052277374E+03  0.10100000352E+00 0. -1.
       -3   -1    0    0    0  501  0.00000000000E+00  0.00000000000E+00 -0.66326605290E+03  0.66326606059E+03  0.10100000352E+00 0.  1.
    10030    2    1    2    0    0  0.00000000000E+00  0.00000000000E+00 -0.22743287124E+02  0.13037888343E+04  0.13035904523E+04 0.  0.
        1    1    3    3  502    0 -0.41160381413E+03  0.47167806484E+03  0.17014735369E+03  0.64872800052E+03  0.50400001928E-02 0. -1.
       -1    1    3    3    0  502  0.41160381413E+03 -0.47167806484E+03 -0.19289064082E+03  0.65506083382E+03  0.50400001928E-02 0.  1.
</event>
<event>
 5   0  0.5787604E-04  0.1327104E+04  0.7818609E-02  0.9008343E-01
        2   -1    0    0  501    0  0.00000000000E+00  0.00000000000E+00  0.18358587764E+04  0.18358587764E+04  0.25500000920E-02 0.  1.
       -2   -1    0    0    0  501  0.00000000000E+00  0.00000000000E+00 -0.23983408266E+03  0.23983408267E+03  0.25500000920E-02 0. -1.
    10030    2    1    2    0    0  0.00000000000E+00  0.00000000000E+00  0.15960246937E+04  0.20756928591E+04  0.13271043750E+04 0.  0.
        4    1    3    3  502    0 -0.32013845486E+03  0.36940062049E+03  0.14998531606E+04  0.15775000998E+04  0.12699999809E+01 0.  1.
       -4    1    3    3    0  502  0.32013845486E+03 -0.36940062049E+03  0.96171533169E+02  0.49819275927E+03  0.12699999809E+01 0. -1.
</event>
<event>
 5   0  0.5787604E-04  0.1304045E+04  0.7818609E-02  0.9026363E-01
       -2   -1    0    0    0  501  0.00000000000E+00  0.00000000000E+00  0.38596561459E+03  0.38596561459E+03  0.25500000920E-02 0.  1.
        2   -1    0    0  501    0  0.00000000000E+00  0.00000000000E+00 -0.11014805460E+04  0.11014805460E+04  0.25500000920E-02 0. -1.
    10030    2    1    2    0    0  0.00000000000E+00  0.00000000000E+00 -0.71551493142E+03  0.14874461606E+04  0.13040454224E+04 0.  0.
        4    1    3    3  502    0 -0.26798207767E+03  0.20579664301E+03 -0.99382691448E+03  0.10496952896E+04  0.12699999809E+01 0. -1.
       -4    1    3    3    0  502  0.26798207767E+03 -0.20579664301E+03  0.27831198306E+03  0.43775087098E+03  0.12699999809E+01 0.  1.
</event>
<event>
 5   0  0.6007125E-04  0.1318940E+04  0.7818609E-02  0.9014679E-01
        2   -1    0    0  501    0  0.00000000000E+00  0.00000000000E+00  0.20327881922E+04  0.20327881922E+04  0.25500000920E-02 0.  1.
       -2   -1    0    0    0  501  0.00000000000E+00  0.00000000000E+00 -0.21394281607E+03  0.21394281608E+03  0.25500000920E-02 0. -1.
    10030    2    1    2    0    0  0.00000000000E+00  0.00000000000E+00  0.18188453761E+04  0.22467310083E+04  0.13189396200E+04 0.  0.
        5    1    3    3  502    0 -0.69394169207E+02  0.22551486265E+03 -0.13954876982E+03  0.27416865822E+03  0.46999998093E+01 0. -1.
       -5    1    3    3    0  502  0.69394169207E+02 -0.22551486265E+03  0.19583941460E+04  0.19725623501E+04  0.46999998093E+01 0.  1.
</event>
<event>
 5   0  0.3335747E-04  0.1299872E+04  0.7818609E-02  0.9029667E-01
        1   -1    0    0  501    0  0.00000000000E+00  0.00000000000E+00  0.12909127454E+04  0.12909127454E+04  0.50400001928E-02 0.  1.
       -1   -1    0    0    0  501  0.00000000000E+00  0.00000000000E+00 -0.32722329560E+03  0.32722329563E+03  0.50400001928E-02 0. -1.
    10030    2    1    2    0    0  0.00000000000E+00  0.00000000000E+00  0.96368944976E+03  0.16181360410E+04  0.12998718751E+04 0.  0.
        3    1    3    3  502    0 -0.61452645285E+03 -0.16770897660E+03  0.32122792816E+03  0.71341184047E+03  0.10100000352E+00 0. -1.
       -3    1    3    3    0  502  0.61452645285E+03  0.16770897660E+03  0.64246152161E+03  0.90472420054E+03  0.10100000352E+00 0.  1.
</event>
<event>
 5   0  0.3263679E-04  0.1304411E+04  0.7818609E-02  0.9026074E-01
       -1   -1    0    0    0  501  0.00000000000E+00  0.00000000000E+00  0.83300570503E+03  0.83300570504E+03  0.50400001928E-02 0.  1.
        1   -1    0    0  501    0  0.00000000000E+00  0.00000000000E+00 -0.51064752420E+03  0.51064752423E+03  0.50400001928E-02 0. -1.
    10030    2    1    2    0    0  0.00000000000E+00  0.00000000000E+00  0.32235818082E+03  0.13436532293E+04  0.13044114396E+04 0.  0.
        2    1    3    3  502    0  0.28755708712E+03  0.30573754885E+03 -0.35304615504E+03  0.54845794253E+03  0.25500000920E-02 0. -1.
       -2    1    3    3    0  502 -0.28755708712E+03 -0.30573754885E+03  0.67540433587E+03  0.79519528673E+03  0.25500000920E-02 0.  1.
</event>
<event>
 5   0  0.5957913E-04  0.1294972E+04  0.7818609E-02  0.9033562E-01
       -2   -1    0    0    0  501  0.00000000000E+00  0.00000000000E+00  0.41506610533E+03  0.41506610534E+03  0.25500000920E-02 0.  1.
        2   -1    0    0  501    0  0.00000000000E+00  0.00000000000E+00 -0.10100517772E+04  0.10100517772E+04  0.25500000920E-02 0. -1.
    10030    2    1    2    0    0  0.00000000000E+00  0.00000000000E+00 -0.59498567185E+03  0.14251178825E+04  0.12949722118E+04 0.  0.
        1    1    3    3  502    0  0.31364047871E+03  0.33500170841E+03  0.20518641840E+03  0.50269072087E+03  0.50400001928E-02 0.  1.
       -1    1    3    3    0  502 -0.31364047871E+03 -0.33500170841E+03 -0.80017209025E+03  0.92242716166E+03  0.50400001928E-02 0. -1.
</event>
<event>
 5   0  0.3263679E-04  0.1280547E+04  0.7818609E-02  0.9045136E-01
        1   -1    0    0  501    0  0.00000000000E+00  0.00000000000E+00  0.89450956942E+03  0.89450956943E+03  0.50400001928E-02 0. -1.
       -1   -1    0    0    0  501  0.00000000000E+00  0.00000000000E+00 -0.45829585387E+03  0.45829585390E+03  0.50400001928E-02 0.  1.
    10030    2    1    2    0    0  0.00000000000E+00  0.00000000000E+00  0.43621371554E+03  0.13528054233E+04  0.12805468003E+04 0.  0.
        2    1    3    3  502    0 -0.26998123708E+03 -0.45801891246E+03 -0.15878605862E+03  0.55487314312E+03  0.25500000920E-02 0.  1.
       -2    1    3    3    0  502  0.26998123708E+03  0.45801891246E+03  0.59499977416E+03  0.79793228021E+03  0.25500000920E-02 0. -1.
</event>
<event>
 5   0  0.5787604E-04  0.1295895E+04  0.7818609E-02  0.9032827E-01
        2   -1    0    0  501    0  0.00000000000E+00  0.00000000000E+00  0.17869704607E+04  0.17869704608E+04  0.25500000920E-02 0. -1.
       -2   -1    0    0    0  501  0.00000000000E+00  0.00000000000E+00 -0.23494293664E+03  0.23494293665E+03  0.25500000920E-02 0.  1.
    10030    2    1    2    0    0  0.00000000000E+00  0.00000000000E+00  0.15520275241E+04  0.20219133974E+04  0.12958951929E+04 0.  0.
        4    1    3    3  502    0  0.19667980915E+02 -0.27533658921E+03  0.16906383837E+04  0.17130256344E+04  0.12699999809E+01 0. -1.
       -4    1    3    3    0  502 -0.19667980915E+02  0.27533658921E+03 -0.13861085958E+03  0.30888776299E+03  0.12699999809E+01 0.  1.
</event>
<event>
 5   0  0.2255875E-04  0.1294741E+04  0.7818609E-02  0.9033746E-01
        3   -1    0    0  501    0  0.00000000000E+00  0.00000000000E+00  0.39855752369E+03  0.39855753649E+03  0.10100000352E+00 0.  1.
       -3   -1    0    0    0  501  0.00000000000E+00  0.00000000000E+00 -0.10515137097E+04  0.10515137146E+04  0.10100000352E+00 0. -1.
    10030    2    1    2    0    0  0.00000000000E+00  0.00000000000E+00 -0.65295618603E+03  0.14500712511E+04  0.12947412298E+04 0.  0.
        2    1    3    3  502    0 -0.23386838593E+03  0.28944192622E+03 -0.91976377268E+03  0.99218770812E+03  0.25500000920E-02 0. -1.
       -2    1    3    3    0  502  0.23386838593E+03 -0.28944192622E+03  0.26680758666E+03  0.45788354294E+03  0.25500000920E-02 0.  1.
</event>
<event>
 5   0  0.6052864E-04  0.1303146E+04  0.7818609E-02  0.9027074E-01
        2   -1    0    0  501    0  0.00000000000E+00  0.00000000000E+00  0.69294099204E+03  0.69294099205E+03  0.25500000920E-02 0. -1.
       -2   -1    0    0    0  501  0.00000000000E+00  0.00000000000E+00 -0.61267503111E+03  0.61267503112E+03  0.25500000920E-02 0.  1.
    10030    2    1    2    0    0  0.00000000000E+00  0.00000000000E+00  0.80265960930E+02  0.13056160232E+04  0.13031464137E+04 0.  0.
        2    1    3    3  502    0 -0.60501983461E+03 -0.34448144672E+02  0.27998585211E+03  0.66755355765E+03  0.25500000920E-02 0. -1.
       -2    1    3    3    0  502  0.60501983461E+03  0.34448144672E+02 -0.19971989118E+03  0.63806246551E+03  0.25500000920E-02 0.  1.
</event>
<event>
 5   0  0.3274879E-04  0.1310266E+04  0.7818609E-02  0.9021463E-01
        1   -1    0    0  501    0  0.00000000000E+00  0.00000000000E+00  0.22977188414E+04  0.22977188414E+04  0.50400001928E-02 0.  1.
       -1   -1    0    0    0  501  0.00000000000E+00  0.00000000000E+00 -0.18679364660E+03  0.18679364667E+03  0.50400001928E-02 0. -1.
    10030    2    1    2    0    0  0.00000000000E+00  0.00000000000E+00  0.21109251948E+04  0.24845124881E+04  0.13102660514E+04 0.  0.
        4    1    3    3  502    0  0.42062795557E+02  0.14277483571E+03  0.22652309888E+04  0.22701160715E+04  0.12699999809E+01 0.  1.
       -4    1    3    3    0  502 -0.42062795557E+02 -0.14277483571E+03 -0.15430579401E+03  0.21439641659E+03  0.12699999809E+01 0. -1.
</event>
<event>
 5   0  0.5787604E-04  0.1301811E+04  0.7818609E-02  0.9028130E-01
       -2   -1    0    0    0  501  0.00000000000E+00  0.00000000000E+00  0.40847509111E+03  0.40847509112E+03  0.25500000920E-02 0. -1.
        2   -1    0    0  501    0  0.00000000000E+00  0.00000000000E+00 -0.10372185335E+04  0.10372185335E+04  0.25500000920E-02 0.  1.
    10030    2    1    2    0    0  0.00000000000E+00  0.00000000000E+00 -0.62874344244E+03  0.14456936247E+04  0.13018109463E+04 0.  0.
        4    1    3    3  502    0 -0.46170104308E+03 -0.14592798132E+02 -0.82363616625E+03  0.94432989479E+03  0.12699999809E+01 0.  1.
       -4    1    3    3    0  502  0.46170104308E+03  0.14592798132E+02  0.19489272382E+03  0.50136372988E+03  0.12699999809E+01 0. -1.
</event>
<event>
 5   0  0.3335747E-04  0.1304829E+04  0.7818609E-02  0.9025745E-01
       -1   -1    0    0    0  501  0.00000000000E+00  0.00000000000E+00  0.32628505681E+03  0.32628505685E+03  0.50400001928E-02 0.  1.
        1   -1    0    0  501    0  0.00000000000E+00  0.00000000000E+00 -0.13045176793E+04  0.13045176793E+04  0.50400001928E-02 0. -1.
    10030    2    1    2    0    0  0.00000000000E+00  0.00000000000E+00 -0.97823262249E+03  0.16308027362E+04  0.13048289162E+04 0.  0.
        3    1    3    3  502    0  0.12532821968E+03 -0.49626783113E+03 -0.99472370525E+03  0.11186885996E+04  0.10100000352E+00 0. -1.
       -3    1    3    3    0  502 -0.12532821968E+03  0.49626783113E+03  0.16491082760E+02  0.51211413657E+03  0.10100000352E+00 0.  1.
</event>
<event>
 5   0  0.6007125E-04  0.1207698E+04  0.7818609E-02  0.9106145E-01
       -2   -1    0    0    0  501  0.00000000000E+00  0.00000000000E+00  0.58808682853E+03  0.58808682853E+03  0.25500000920E-02 0.  1.
        2   -1    0    0  501    0  0.00000000000E+00  0.00000000000E+00 -0.62003360936E+03  0.62003360936E+03  0.25500000920E-02 0. -1.
    10030    2    1    2    0    0  0.00000000000E+00  0.00000000000E+00 -0.31946780831E+02  0.12081204379E+04  0.12076979737E+04 0.  0.
        5    1    3    3  502    0  0.18060815830E+03 -0.56417037853E+03 -0.13307836599E+03  0.60715686964E+03  0.46999998093E+01 0. -1.
       -5    1    3    3    0  502 -0.18060815830E+03  0.56417037853E+03  0.10113158516E+03  0.60096356826E+03  0.46999998093E+01 0.  1.
</event>
<event>
 5   0  0.6007125E-04  0.1316042E+04  0.7818609E-02  0.9016940E-01
        2   -1    0    0  501    0  0.00000000000E+00  0.00000000000E+00  0.93380845389E+03  0.93380845389E+03  0.25500000920E-02 0. -1.
       -2   -1    0    0    0  501  0.00000000000E+00  0.00000000000E+00 -0.46368359476E+03  0.46368359477E+03  0.25500000920E-02 0.  1.
    10030    2    1    2    0    0  0.00000000000E+00  0.00000000000E+00  0.47012485913E+03  0.13974920487E+04  0.13160420369E+04 0.  0.
        5    1    3    3  502    0  0.12909826239E+03  0.20222837062E+03 -0.41556251013E+03  0.47987182149E+03  0.46999998093E+01 0.  1.
       -5    1    3    3    0  502 -0.12909826239E+03 -0.20222837062E+03  0.88568736926E+03  0.91762022717E+03  0.46999998093E+01 0. -1.
</event>
<event>
 5   0  0.5957913E-04  0.1301004E+04  0.7818609E-02  0.9028770E-01
        2   -1    0    0  501    0  0.00000000000E+00  0.00000000000E+00  0.44454836656E+03  0.44454836656E+03  0.25500000920E-02 0.  1.
       -2   -1    0    0    0  501  0.00000000000E+00  0.00000000000E+00 -0.95187101587E+03  0.95187101588E+03  0.25500000920E-02 0. -1.
    10030    2    1    2    0    0  0.00000000000E+00  0.00000000000E+00 -0.50732264932E+03  0.13964193824E+04  0.13010037745E+04 0.  0.
        1    1    3    3  502    0  0.12039103466E+03 -0.45920172271E+03 -0.73101712244E+03  0.87163424479E+03  0.50400001928E-02 0. -1.
       -1    1    3    3    0  502 -0.12039103466E+03  0.45920172271E+03  0.22369447312E+03  0.52478513765E+03  0.50400001928E-02 0.  1.
</event>
<event>
 5   0  0.3263679E-04  0.1301382E+04  0.7818609E-02  0.9028470E-01
       -1   -1    0    0    0  501  0.00000000000E+00  0.00000000000E+00  0.12014197213E+04  0.12014197213E+04  0.50400001928E-02 0. -1.
        1   -1    0    0  501    0  0.00000000000E+00  0.00000000000E+00 -0.35241555064E+03  0.35241555067E+03  0.50400001928E-02 0.  1.
    10030    2    1    2    0    0  0.00000000000E+00  0.00000000000E+00  0.84900417068E+03  0.15538352720E+04  0.13013823307E+04 0.  0.
        2    1    3    3  502    0 -0.51555980524E+03  0.28214987235E+03  0.75794034873E+03  0.95910585208E+03  0.25500000920E-02 0. -1.
       -2    1    3    3    0  502  0.51555980524E+03 -0.28214987235E+03  0.91063821948E+02  0.59472941992E+03  0.25500000920E-02 0.  1.
</event>
<event>
 5   0  0.3335747E-04  0.1301704E+04  0.7818609E-02  0.9028215E-01
       -1   -1    0    0    0  501  0.00000000000E+00  0.00000000000E+00  0.46094541724E+03  0.46094541727E+03  0.50400001928E-02 0. -1.
        1   -1    0    0  501    0  0.00000000000E+00  0.00000000000E+00 -0.91899933915E+03  0.91899933916E+03  0.50400001928E-02 0.  1.
    10030    2    1    2    0    0  0.00000000000E+00  0.00000000000E+00 -0.45805392191E+03  0.13799447564E+04  0.13017043195E+04 0.  0.
        3    1    3    3  502    0  0.21312794454E+03  0.20435220967E+03  0.38585761560E+03  0.48586979332E+03  0.10100000352E+00 0. -1.
       -3    1    3    3    0  502 -0.21312794454E+03 -0.20435220967E+03 -0.84391153750E+03  0.89407496312E+03  0.10100000352E+00 0.  1.
</event>
<event>
 5   0  0.3403833E-04  0.1296988E+04  0.7818609E-02  0.9031957E-01
        1   -1    0    0  501    0  0.00000000000E+00  0.00000000000E+00  0.26333820739E+04  0.26333820739E+04  0.50400001928E-02 0.  1.
       -1   -1    0    0    0  501  0.00000000000E+00  0.00000000000E+00 -0.15969746649E+03  0.15969746657E+03  0.50400001928E-02 0. -1.
    10030    2    1    2    0    0  0.00000000000E+00  0.00000000000E+00  0.24736846074E+04  0.27930795405E+04  0.12969879654E+04 0.  0.
        1    1    3    3  502    0 -0.36714486222E+02 -0.29129636539E+03  0.24820546628E+04  0.24993592929E+04  0.50400001928E-02 0.  1.
       -1    1    3    3    0  502  0.36714486222E+02  0.29129636539E+03 -0.83700553455E+01  0.29372024759E+03  0.50400001928E-02 0. -1.
</event>
<event>
 5   0  0.5787604E-04  0.1300197E+04  0.7818609E-02  0.9029409E-01
        2   -1    0    0  501    0  0.00000000000E+00  0.00000000000E+00  0.55433504382E+03  0.55433504383E+03  0.25500000920E-02 0.  1.
       -2   -1    0    0    0  501  0.00000000000E+00  0.00000000000E+00 -0.76240500789E+03  0.76240500789E+03  0.25500000920E-02 0. -1.
    10030    2    1    2    0    0  0.00000000000E+00  0.00000000000E+00 -0.20806996406E+03  0.13167400517E+04  0.13001966212E+04 0.  0.
        4    1    3    3  502    0 -0.58684798057E+01  0.59031203410E+03  0.17168539642E+03  0.61480096364E+03  0.12699999809E+01 0.  1.
       -4    1    3    3    0  502  0.58684798057E+01 -0.59031203410E+03 -0.37975536049E+03  0.70193908808E+03  0.12699999809E+01 0. -1.
</event>
<event>
 5   0  0.3337520E-04  0.1300110E+04  0.7818609E-02  0.9029478E-01
       -1   -1    0    0    0  501  0.00000000000E+00  0.00000000000E+00  0.53667288017E+03  0.53667288019E+03  0.50400001928E-02 0. -1.
        1   -1    0    0  501    0  0.00000000000E+00  0.00000000000E+00 -0.78739061670E+03  0.78739061672E+03  0.50400001928E-02 0.  1.
    10030    2    1    2    0    0  0.00000000000E+00  0.00000000000E+00 -0.25071773654E+03  0.13240634969E+04  0.13001095186E+04 0.  0.
        5    1    3    3  502    0  0.27775849275E+03 -0.31108192925E+02 -0.72305489577E+03  0.77520834120E+03  0.46999998093E+01 0.  1.
       -5    1    3    3    0  502 -0.27775849275E+03  0.31108192925E+02  0.47233715924E+03  0.54885515572E+03  0.46999998093E+01 0. -1.
</event>
<event>
 5   0  0.3274879E-04  0.1289285E+04  0.7818609E-02  0.9038105E-01
       -1   -1    0    0    0  501  0.00000000000E+00  0.00000000000E+00  0.21438066282E+03  0.21438066288E+03  0.50400001928E-02 0.  1.
        1   -1    0    0  501    0  0.00000000000E+00  0.00000000000E+00 -0.19384406714E+04  0.19384406714E+04  0.50400001928E-02 0. -1.
    10030    2    1    2    0    0  0.00000000000E+00  0.00000000000E+00 -0.17240600086E+04  0.21528213343E+04  0.12892853773E+04 0.  0.
        4    1    3    3  502    0 -0.62603647955E+03  0.25168182594E+02 -0.60875438697E+03  0.87357806045E+03  0.12699999809E+01 0.  1.
       -4    1    3    3    0  502  0.62603647955E+03 -0.25168182594E+02 -0.11153056216E+04  0.12792432738E+04  0.12699999809E+01 0. -1.
</event>
<event>
 5   0  0.3263679E-04  0.1302916E+04  0.7818609E-02  0.9027256E-01
       -1   -1    0    0    0  501  0.00000000000E+00  0.00000000000E+00  0.93580092676E+03  0.93580092678E+03  0.50400001928E-02 0.  1.
        1   -1    0    0  501    0  0.00000000000E+00  0.00000000000E+00 -0.45351242056E+03  0.45351242059E+03  0.50400001928E-02 0. -1.
    10030    2    1    2    0    0  0.00000000000E+00  0.00000000000E+00  0.48228850620E+03  0.13893133474E+04  0.13029157202E+04 0.  0.
        2    1    3    3  502    0 -0.37101722109E+03 -0.49584598339E+03  0.25548074582E+02  0.61981426388E+03  0.25500000920E-02 0. -1.
       -2    1    3    3    0  502  0.37101722109E+03  0.49584598339E+03  0.45674043162E+03  0.76949908348E+03  0.25500000920E-02 0.  1.
</event>
<event>
 5   0  0.5384960E-04  0.1300290E+04  0.7818609E-02  0.9029335E-01
       -2   -1    0    0    0  501  0.00000000000E+00  0.00000000000E+00  0.11660343868E+04  0.11660343868E+04  0.25500000920E-02 0.  1.
        2   -1    0    0  501    0  0.00000000000E+00  0.00000000000E+00 -0.36250107689E+03  0.36250107690E+03  0.25500000920E-02 0. -1.
    10030    2    1    2    0    0  0.00000000000E+00  0.00000000000E+00  0.80353330987E+03  0.15285354637E+04  0.13002903074E+04 0.  0.
        3    1    3    3  502    0 -0.61019279893E+03  0.27419388286E+02  0.66357482454E+03  0.90189724065E+03  0.10100000352E+00 0.  1.
       -3    1    3    3    0  502  0.61019279893E+03 -0.27419388286E+02  0.13995848532E+03  0.62663822301E+03  0.10100000352E+00 0. -1.
</event>
<event>
 5   0  0.5787604E-04  0.1302563E+04  0.7818609E-02  0.9027535E-01
       -2   -1    0    0    0  501  0.00000000000E+00  0.00000000000E+00  0.27450232776E+03  0.27450232777E+03  0.25500000920E-02 0. -1.
        2   -1    0    0  501    0  0.00000000000E+00  0.00000000000E+00 -0.15452231772E+04  0.15452231772E+04  0.25500000920E-02 0.  1.
    10030    2    1    2    0    0  0.00000000000E+00  0.00000000000E+00 -0.12707208495E+04  0.18197255050E+04  0.13025626420E+04 0.  0.
        4    1    3    3  502    0 -0.74590567785E+02  0.16344701779E+03  0.23919578689E+03  0.29915701194E+03  0.12699999809E+01 0. -1.
       -4    1    3    3    0  502  0.74590567785E+02 -0.16344701779E+03 -0.15099166364E+04  0.15205684931E+04  0.12699999809E+01 0.  1.
</event>
<event>
 5   0  0.5957913E-04  0.1297432E+04  0.7818609E-02  0.9031604E-01
       -2   -1    0    0    0  501  0.00000000000E+00  0.00000000000E+00  0.84342706700E+03  0.84342706701E+03  0.25500000920E-02 0.  1.
        2   -1    0    0  501    0  0.00000000000E+00  0.00000000000E+00 -0.49895535509E+03  0.49895535510E+03  0.25500000920E-02 0. -1.
    10030    2    1    2    0    0  0.00000000000E+00  0.00000000000E+00  0.34447171191E+03  0.13423824221E+04  0.12974320047E+04 0.  0.
        1    1    3    3  502    0 -0.47917131609E+03  0.41941944892E+03  0.30027562066E+03  0.70404777727E+03  0.50400001928E-02 0. -1.
       -1    1    3    3    0  502  0.47917131609E+03 -0.41941944892E+03  0.44196091257E+02  0.63833464484E+03  0.50400001928E-02 0.  1.
</event>
<event>
 5   0  0.5384960E-04  0.1307822E+04  0.7818609E-02  0.9023385E-01
       -2   -1    0    0    0  501  0.00000000000E+00  0.00000000000E+00  0.26000491957E+03  0.26000491958E+03  0.25500000920E-02 0.  1.
        2   -1    0    0  501    0  0.00000000000E+00  0.00000000000E+00 -0.16445818554E+04  0.16445818554E+04  0.25500000920E-02 0. -1.
    10030    2    1    2    0    0  0.00000000000E+00  0.00000000000E+00 -0.13845769359E+04  0.19045867750E+04  0.13078216592E+04 0.  0.
        3    1    3    3  502    0  0.60388613484E+03  0.52068861045E+02 -0.33494521340E+03  0.69251565781E+03  0.10100000352E+00 0.  1.
       -3    1    3    3    0  502 -0.60388613484E+03 -0.52068861045E+02 -0.10496317225E+04  0.12120711172E+04  0.10100000352E+00 0. -1.
</event>
<event>
 5   0  0.3337520E-04  0.1302965E+04  0.7818609E-02  0.9027217E-01
        1   -1    0    0  501    0  0.00000000000E+00  0.00000000000E+00  0.15301863005E+04  0.15301863005E+04  0.50400001928E-02 0.  1.
       -1   -1    0    0    0  501  0.00000000000E+00  0.00000000000E+00 -0.27737114549E+03  0.27737114553E+03  0.50400001928E-02 0. -1.
    10030    2    1    2    0    0  0.00000000000E+00  0.00000000000E+00  0.12528151550E+04  0.18075574460E+04  0.13029651216E+04 0.  0.
        5    1    3    3  502    0  0.17289139705E+03  0.25215260772E+03 -0.17164354118E+03  0.35065077782E+03  0.46999998093E+01 0. -1.
       -5    1    3    3    0  502 -0.17289139705E+03 -0.25215260772E+03  0.14244586962E+04  0.14569066682E+04  0.46999998093E+01 0.  1.
</event>
<event>
 5   0  0.3274879E-04  0.1296657E+04  0.7818609E-02  0.9032221E-01
        1   -1    0    0  501    0  0.00000000000E+00  0.00000000000E+00  0.58752430440E+03  0.58752430442E+03  0.50400001928E-02 0. -1.
       -1   -1    0    0    0  501  0.00000000000E+00  0.00000000000E+00 -0.71542516897E+03  0.71542516899E+03  0.50400001928E-02 0.  1.
    10030    2    1    2    0    0  0.00000000000E+00  0.00000000000E+00 -0.12790086458E+03  0.13029494734E+04  0.12966567391E+04 0.  0.
        4    1    3    3  502    0  0.27557920869E+03  0.44249904673E+03 -0.45128023173E+03  0.68949602397E+03  0.12699999809E+01 0.  1.
       -4    1    3    3    0  502 -0.27557920869E+03 -0.44249904673E+03  0.32337936715E+03  0.61345344944E+03  0.12699999809E+01 0. -1.
</event>
<event>
 5   0  0.3335747E-04  0.1276965E+04  0.7818609E-02  0.9048034E-01
       -1   -1    0    0    0  501  0.00000000000E+00  0.00000000000E+00  0.26487942603E+03  0.26487942608E+03  0.50400001928E-02 0.  1.
        1   -1    0    0  501    0  0.00000000000E+00  0.00000000000E+00 -0.15390391831E+04  0.15390391831E+04  0.50400001928E-02 0. -1.
    10030    2    1    2    0    0  0.00000000000E+00  0.00000000000E+00 -0.12741597571E+04  0.18039186092E+04  0.12769648633E+04 0.  0.
        3    1    3    3  502    0  0.22740106289E+03 -0.16193827899E+03  0.17409340254E+03  0.32900421367E+03  0.10100000352E+00 0.  1.
       -3    1    3    3    0  502 -0.22740106289E+03  0.16193827899E+03 -0.14482531596E+04  0.14749143955E+04  0.10100000352E+00 0. -1.
</event>
<event>
 5   0  0.3403833E-04  0.1313581E+04  0.7818609E-02  0.9018864E-01
       -1   -1    0    0    0  501  0.00000000000E+00  0.00000000000E+00  0.21338331933E+03  0.21338331939E+03  0.50400001928E-02 0.  1.
        1   -1    0    0  501    0  0.00000000000E+00  0.00000000000E+00 -0.20215911540E+04  0.20215911540E+04  0.50400001928E-02 0. -1.
    10030    2    1    2    0    0  0.00000000000E+00  0.00000000000E+00 -0.18082078347E+04  0.22349744734E+04  0.13135811065E+04 0.  0.
        1    1    3    3  502    0  0.37604797799E+03 -0.52068978963E+03 -0.11376652678E+04  0.13064502288E+04  0.50400001928E-02 0.  1.
       -1    1    3    3    0  502 -0.37604797799E+03  0.52068978963E+03 -0.67054256686E+03  0.92852424458E+03  0.50400001928E-02 0. -1.
</event>
<event>
 5   0  0.5787604E-04  0.1304267E+04  0.7818609E-02  0.9026188E-01
        2   -1    0    0  501    0  0.00000000000E+00  0.00000000000E+00  0.91049912470E+03  0.91049912471E+03  0.25500000920E-02 0. -1.
       -2   -1    0    0    0  501  0.00000000000E+00  0.00000000000E+00 -0.46708254316E+03  0.46708254317E+03  0.25500000920E-02 0.  1.
    10030    2    1    2    0    0  0.00000000000E+00  0.00000000000E+00  0.44341658154E+03  0.13775816679E+04  0.13042672222E+04 0.  0.
        4    1    3    3  502    0 -0.41756883641E+03 -0.36184601741E+03  0.58756064642E+03  0.80655154800E+03  0.12699999809E+01 0. -1.
       -4    1    3    3    0  502  0.41756883641E+03  0.36184601741E+03 -0.14414406488E+03  0.57103011987E+03  0.12699999809E+01 0.  1.
</event>
<event>
 5   0  0.5957913E-04  0.1337770E+04  0.7818609E-02  0.9000138E-01
       -2   -1    0    0    0  501  0.00000000000E+00  0.00000000000E+00  0.56997516783E+03  0.56997516783E+03  0.25500000920E-02 0.  1.
        2   -1    0    0  501    0  0.00000000000E+00  0.00000000000E+00 -0.78495948016E+03  0.78495948017E+03  0.25500000920E-02 0. -1.
    10030    2    1    2    0    0  0.00000000000E+00  0.00000000000E+00 -0.21498431234E+03  0.13549346480E+04  0.13377704010E+04 0.  0.
        1    1    3    3  502    0 -0.46376512814E+03 -0.32081154945E+03 -0.47184272732E+03  0.73527797716E+03  0.50400001928E-02 0. -1.
       -1    1    3    3    0  502  0.46376512814E+03  0.32081154945E+03  0.25685841498E+03  0.61965667084E+03  0.50400001928E-02 0.  1.
</event>
<event>
 5   0  0.6052864E-04  0.1293150E+04  0.7818609E-02  0.9035015E-01
        2   -1    0    0  501    0  0.00000000000E+00  0.00000000000E+00  0.33489472411E+03  0.33489472412E+03  0.25500000920E-02 0.  1.
       -2   -1    0    0    0  501  0.00000000000E+00  0.00000000000E+00 -0.12483302500E+04  0.12483302500E+04  0.25500000920E-02 0. -1.
    10030    2    1    2    0    0  0.00000000000E+00  0.00000000000E+00 -0.91343552588E+03  0.15832249741E+04  0.12931499753E+04 0.  0.
        2    1    3    3  502    0  0.44607596867E+03 -0.53690626199E+02 -0.10259825369E+04  0.11200475968E+04  0.25500000920E-02 0. -1.
       -2    1    3    3    0  502 -0.44607596867E+03  0.53690626199E+02  0.11254701097E+03  0.46317737731E+03  0.25500000920E-02 0.  1.
</event>
<event>
 5   0  0.3335747E-04  0.1277863E+04  0.7818609E-02  0.9047307E-01
        1   -1    0    0  501    0  0.00000000000E+00  0.00000000000E+00  0.66158559548E+03  0.66158559550E+03  0.50400001928E-02 0. -1.
       -1   -1    0    0    0  501  0.00000000000E+00  0.00000000000E+00 -0.61705290013E+03  0.61705290015E+03  0.50400001928E-02 0.  1.
    10030    2    1    2    0    0  0.00000000000E+00  0.00000000000E+00  0.44532695342E+02  0.12786384957E+04  0.12778627632E+04 0.  0.
        3    1    3    3  502    0 -0.51540857889E+03  0.35427755155E+03 -0.10848322341E+03  0.63476547376E+03  0.10100000352E+00 0.  1.
       -3    1    3    3    0  502  0.51540857889E+03 -0.35427755155E+03  0.15301591875E+03  0.64387302189E+03  0.10100000352E+00 0. -1.
</event>
<event>
 5   0  0.5384960E-04  0.1300954E+04  0.7818609E-02  0.9028809E-01
       -2   -1    0    0    0  501  0.00000000000E+00  0.00000000000E+00  0.31896384241E+03  0.31896384242E+03  0.25500000920E-02 0.  1.
        2   -1    0    0  501    0  0.00000000000E+00  0.00000000000E+00 -0.13265456072E+04  0.13265456072E+04  0.25500000920E-02 0. -1.
    10030    2    1    2    0    0  0.00000000000E+00  0.00000000000E+00 -0.10075817648E+04  0.16455094497E+04  0.13009536257E+04 0.  0.
        3    1    3    3  502    0  0.45770112317E+03  0.83045257195E+02  0.71309586110E+02  0.47060801115E+03  0.10100000352E+00 0.  1.
       -3    1    3    3    0  502 -0.45770112317E+03 -0.83045257195E+02 -0.10788913509E+04  0.11749014385E+04  0.10100000352E+00 0. -1.
</event>
<event>
 5   0  0.6007125E-04  0.1325733E+04  0.7818609E-02  0.9009404E-01
       -2   -1    0    0    0  501  0.00000000000E+00  0.00000000000E+00  0.60996800115E+03  0.60996800116E+03  0.25500000920E-02 0. -1.
        2   -1    0    0  501    0  0.00000000000E+00  0.00000000000E+00 -0.72035224529E+03  0.72035224529E+03  0.25500000920E-02 0.  1.
    10030    2    1    2    0    0  0.00000000000E+00  0.00000000000E+00 -0.11038424414E+03  0.13303202464E+04  0.13257327320E+04 0.  0.
        5    1    3    3  502    0  0.44640056126E+03 -0.12443019973E+03 -0.53076605963E+03  0.70462120019E+03  0.46999998093E+01 0.  1.
       -5    1    3    3    0  502 -0.44640056126E+03  0.12443019973E+03  0.42038181549E+03  0.62569904626E+03  0.46999998093E+01 0. -1.
</event>
<event>
 5   0  0.5957913E-04  0.1300806E+04  0.7818609E-02  0.9028927E-01
        2   -1    0    0  501    0  0.00000000000E+00  0.00000000000E+00  0.68123889750E+03  0.68123889750E+03  0.25500000920E-02 0.  1.
       -2   -1    0    0    0  501  0.00000000000E+00  0.00000000000E+00 -0.62096245388E+03  0.62096245388E+03  0.25500000920E-02 0. -1.
    10030    2    1    2    0    0  0.00000000000E+00  0.00000000000E+00  0.60276443619E+02  0.13022013514E+04  0.13008055619E+04 0.  0.
        1    1    3    3  502    0 -0.50253970751E+03 -0.91392634093E+02  0.43321776662E+03  0.66975846731E+03  0.50400001928E-02 0.  1.
       -1    1    3    3    0  502  0.50253970751E+03  0.91392634093E+02 -0.37294132300E+03  0.63244288408E+03  0.50400001928E-02 0. -1.
</event>
<event>
 5   0  0.3335747E-04  0.1303121E+04  0.7818609E-02  0.9027094E-01
        1   -1    0    0  501    0  0.00000000000E+00  0.00000000000E+00  0.61696465020E+03  0.61696465022E+03  0.50400001928E-02 0. -1.
       -1   -1    0    0    0  501  0.00000000000E+00  0.00000000000E+00 -0.68809594602E+03  0.68809594604E+03  0.50400001928E-02 0.  1.
    10030    2    1    2    0    0  0.00000000000E+00  0.00000000000E+00 -0.71131295823E+02  0.13050605963E+04  0.13031206769E+04 0.  0.
        3    1    3    3  502    0 -0.21827700379E+03 -0.26250807637E+03 -0.59134721970E+03  0.68282273321E+03  0.10100000352E+00 0.  1.
       -3    1    3    3    0  502  0.21827700379E+03  0.26250807637E+03  0.52021592388E+03  0.62223786304E+03  0.10100000352E+00 0. -1.
</event>
<event>
 5   0  0.3274879E-04  0.1298453E+04  0.7818609E-02  0.9030793E-01
        1   -1    0    0  501    0  0.00000000000E+00  0.00000000000E+00  0.15608726287E+04  0.15608726287E+04  0.50400001928E-02 0.  1.
       -1   -1    0    0    0  501  0.00000000000E+00  0.00000000000E+00 -0.27003814952E+03  0.27003814957E+03  0.50400001928E-02 0. -1.
    10030    2    1    2    0    0  0.00000000000E+00  0.00000000000E+00  0.12908344792E+04  0.18309107783E+04  0.12984531664E+04 0.  0.
        4    1    3    3  502    0 -0.71233543211E+02 -0.24108414239E+03  0.14894570656E+04  0.15105230036E+04  0.12699999809E+01 0.  1.
       -4    1    3    3    0  502  0.71233543211E+02  0.24108414239E+03 -0.19862258642E+03  0.32038777462E+03  0.12699999809E+01 0. -1.
</event>
<event>
 5   0  0.3335747E-04  0.1299780E+04  0.7818609E-02  0.9029739E-01
       -1   -1    0    0    0  501  0.00000000000E+00  0.00000000000E+00  0.46227796529E+03  0.46227796532E+03  0.50400001928E-02 0.  1.
        1   -1    0    0  501    0  0.00000000000E+00  0.00000000000E+00 -0.91364362080E+03  0.91364362082E+03  0.50400001928E-02 0. -1.
    10030    2    1    2    0    0  0.00000000000E+00  0.00000000000E+00 -0.45136565552E+03  0.13759215861E+04  0.12997804646E+04 0.  0.
        3    1    3    3  502    0  0.63664751762E+03  0.39615352760E+02 -0.94027366458E+02  0.64477173768E+03  0.10100000352E+00 0. -1.
       -3    1    3    3    0  502 -0.63664751762E+03 -0.39615352760E+02 -0.35733828906E+03  0.73114984845E+03  0.10100000352E+00 0.  1.
</event>
<event>
 5   0  0.5787604E-04  0.1309043E+04  0.7818609E-02  0.9022424E-01
        2   -1    0    0  501    0  0.00000000000E+00  0.00000000000E+00  0.13675616653E+04  0.13675616653E+04  0.25500000920E-02 0.  1.
       -2   -1    0    0    0  501  0.00000000000E+00  0.00000000000E+00 -0.31325728566E+03  0.31325728567E+03  0.25500000920E-02 0. -1.
    10030    2    1    2    0    0  0.00000000000E+00  0.00000000000E+00  0.10543043796E+04  0.16808189509E+04  0.13090433992E+04 0.  0.
        4    1    3    3  502    0 -0.30837878179E+03  0.21379289607E+03  0.12157337960E+04  0.12723266684E+04  0.12699999809E+01 0.  1.
       -4    1    3    3    0  502  0.30837878179E+03 -0.21379289607E+03 -0.16142941644E+03  0.40849228250E+03  0.12699999809E+01 0. -1.
</event>
<event>
 5   0  0.6007125E-04  0.1299613E+04  0.7818609E-02  0.9029872E-01
        2   -1    0    0  501    0  0.00000000000E+00  0.00000000000E+00  0.15645114764E+04  0.15645114764E+04  0.25500000920E-02 0.  1.
       -2   -1    0    0    0  501  0.00000000000E+00  0.00000000000E+00 -0.26989151530E+03  0.26989151532E+03  0.25500000920E-02 0. -1.
    10030    2    1    2    0    0  0.00000000000E+00  0.00000000000E+00  0.12946199611E+04  0.18344029917E+04  0.12996128240E+04 0.  0.
        5    1    3    3  502    0 -0.60145132688E+03 -0.22322323751E+02  0.99301011899E+03  0.11611774934E+04  0.46999998093E+01 0.  1.
       -5    1    3    3    0  502  0.60145132688E+03  0.22322323751E+02  0.30160984210E+03  0.67322549832E+03  0.46999998093E+01 0. -1.
</event>
<event>
 5   0  0.6052864E-04  0.1227416E+04  0.7818609E-02  0.9089192E-01
        2   -1    0    0  501    0  0.00000000000E+00  0.00000000000E+00  0.10530519649E+04  0.10530519649E+04  0.25500000920E-02 0.  1.
       -2   -1    0    0    0  501  0.00000000000E+00  0.00000000000E+00 -0.35766283437E+03  0.35766283438E+03  0.25500000920E-02 0. -1.
    10030    2    1    2    0    0  0.00000000000E+00  0.00000000000E+00  0.69538913053E+03  0.14107147993E+04  0.12274160672E+04 0.  0.
        2    1    3    3  502    0  0.36126687703E+02 -0.43030757329E+03  0.84890016623E+03  0.95241862509E+03  0.25500000920E-02 0.  1.
       -2    1    3    3    0  502 -0.36126687703E+02  0.43030757329E+03 -0.15351103569E+03  0.45829617420E+03  0.25500000920E-02 0. -1.
</event>
<event>
 5   0  0.5384960E-04  0.1299421E+04  0.7818609E-02  0.9030024E-01
       -2   -1    0    0    0  501  0.00000000000E+00  0.00000000000E+00  0.23384203588E+03  0.23384203590E+03  0.25500000920E-02 0.  1.
        2   -1    0    0  501    0  0.00000000000E+00  0.00000000000E+00 -0.18051672092E+04  0.18051672092E+04  0.25500000920E-02 0. -1.
    10030    2    1    2    0    0  0.00000000000E+00  0.00000000000E+00 -0.15713251733E+04  0.20390092451E+04  0.12994213717E+04 0.  0.
        3    1    3    3  502    0  0.18089719943E+03  0.53445707109E+02  0.18993002611E+03  0.26768202291E+03  0.10100000352E+00 0.  1.
       -3    1    3    3    0  502 -0.18089719943E+03 -0.53445707109E+02 -0.17612551994E+04  0.17713272221E+04  0.10100000352E+00 0. -1.
</event>
<event>
 5   0  0.6052864E-04  0.1294541E+04  0.7818609E-02  0.9033905E-01
       -2   -1    0    0    0  501  0.00000000000E+00  0.00000000000E+00  0.77400488104E+03  0.77400488105E+03  0.25500000920E-02 0.  1.
        2   -1    0    0  501    0  0.00000000000E+00  0.00000000000E+00 -0.54128744918E+03  0.54128744919E+03  0.25500000920E-02 0. -1.
    10030    2    1    2    0    0  0.00000000000E+00  0.00000000000E+00  0.23271743186E+03  0.13152923302E+04  0.12945410426E+04 0.  0.
        2    1    3    3  502    0 -0.33320743892E+03 -0.84499074211E+02  0.67359512711E+03  0.75623917260E+03  0.25500000920E-02 0.  1.
       -2    1    3    3    0  502  0.33320743892E+03  0.84499074211E+02 -0.44087769525E+03  0.55905315764E+03  0.25500000920E-02 0. -1.
</event>
<event>
 5   0  0.5384960E-04  0.1302001E+04  0.7818609E-02  0.9027980E-01
        2   -1    0    0  501    0  0.00000000000E+00  0.00000000000E+00  0.27643252021E+04  0.27643252021E+04  0.25500000920E-02 0.  1.
       -2   -1    0    0    0  501  0.00000000000E+00  0.00000000000E+00 -0.15331102946E+03  0.15331102948E+03  0.25500000920E-02 0. -1.
    10030    2    1    2    0    0  0.00000000000E+00  0.00000000000E+00  0.26110141727E+04  0.29176362316E+04  0.13020008334E+04 0.  0.
        3    1    3    3  502    0 -0.15353192132E+03  0.62372035915E+03  0.15426855890E+04  0.16710709063E+04  0.10100000352E+00 0. -1.
       -3    1    3    3    0  502  0.15353192132E+03 -0.62372035915E+03  0.10683285837E+04  0.12465653253E+04  0.10100000352E+00 0.  1.
</event>
<event>
 5   0  0.5384960E-04  0.1302666E+04  0.7818609E-02  0.9027454E-01
        2   -1    0    0  501    0  0.00000000000E+00  0.00000000000E+00  0.10696272913E+04  0.10696272913E+04  0.25500000920E-02 0. -1.
       -2   -1    0    0    0  501  0.00000000000E+00  0.00000000000E+00 -0.39661926547E+03  0.39661926548E+03  0.25500000920E-02 0.  1.
    10030    2    1    2    0    0  0.00000000000E+00  0.00000000000E+00  0.67300802579E+03  0.14662465568E+04  0.13026661746E+04 0.  0.
        3    1    3    3  502    0  0.31269564487E+03  0.46841699112E+03  0.70476053048E+03  0.90215323500E+03  0.10100000352E+00 0. -1.
       -3    1    3    3    0  502 -0.31269564487E+03 -0.46841699112E+03 -0.31752504687E+02  0.56409332175E+03  0.10100000352E+00 0.  1.
</event>
<event>
 5   0  0.5787604E-04  0.1296567E+04  0.7818609E-02  0.9032292E-01
        2   -1    0    0  501    0  0.00000000000E+00  0.00000000000E+00  0.15337227471E+04  0.15337227471E+04  0.25500000920E-02 0. -1.
       -2   -1    0    0    0  501  0.00000000000E+00  0.00000000000E+00 -0.27402052900E+03  0.27402052901E+03  0.25500000920E-02 0.  1.
    10030    2    1    2    0    0  0.00000000000E+00  0.00000000000E+00  0.12597022181E+04  0.18077432761E+04  0.12965670341E+04 0.  0.
        4    1    3    3  502    0 -0.40778545138E+03  0.21477582357E+03  0.12655027503E+04  0.13468171564E+04  0.12699999809E+01 0. -1.
       -4    1    3    3    0  502  0.40778545138E+03 -0.21477582357E+03 -0.58005322514E+01  0.46092611970E+03  0.12699999809E+01 0.  1.
</event>
<event>
 5   0  0.3335747E-04  0.1305092E+04  0.7818609E-02  0.9025537E-01
        1   -1    0    0  501    0  0.00000000000E+00  0.00000000000E+00  0.87853107423E+03  0.87853107424E+03  0.50400001928E-02 0. -1.
       -1   -1    0    0    0  501  0.00000000000E+00  0.00000000000E+00 -0.48469155417E+03  0.48469155420E+03  0.50400001928E-02 0.  1.
    10030    2    1    2    0    0  0.00000000000E+00  0.00000000000E+00  0.39383952006E+03  0.13632226284E+04  0.13050924745E+04 0.  0.
        3    1    3    3  502    0  0.38131901629E+03  0.51686525046E+03  0.31721307999E+03  0.71636445168E+03  0.10100000352E+00 0. -1.
       -3    1    3    3    0  502 -0.38131901629E+03 -0.51686525046E+03  0.76626440070E+02  0.64685817676E+03  0.10100000352E+00 0.  1.
</event>
<event>
 5   0  0.3263679E-04  0.1298025E+04  0.7818609E-02  0.9031133E-01
        1   -1    0    0  501    0  0.00000000000E+00  0.00000000000E+00  0.67054203731E+03  0.67054203733E+03  0.50400001928E-02 0. -1.
       -1   -1    0    0    0  501  0.00000000000E+00  0.00000000000E+00 -0.62817389972E+03  0.62817389974E+03  0.50400001928E-02 0.  1.
    10030    2    1    2    0    0  0.00000000000E+00  0.00000000000E+00  0.42368137590E+02  0.12987159371E+04  0.12980246631E+04 0.  0.
        2    1    3    3  502    0 -0.28323609832E+03  0.56051401647E+03  0.18503439305E+03  0.65470327375E+03  0.25500000920E-02 0. -1.
       -2    1    3    3    0  502  0.28323609832E+03 -0.56051401647E+03 -0.14266625546E+03  0.64401266331E+03  0.25500000920E-02 0.  1.
</event>
<event>
 5   0  0.3263679E-04  0.1279490E+04  0.7818609E-02  0.9045990E-01
        1   -1    0    0  501    0  0.00000000000E+00  0.00000000000E+00  0.24684441119E+04  0.24684441119E+04  0.50400001928E-02 0.  1.
       -1   -1    0    0    0  501  0.00000000000E+00  0.00000000000E+00 -0.16580216944E+03  0.16580216952E+03  0.50400001928E-02 0. -1.
    10030    2    1    2    0    0  0.00000000000E+00  0.00000000000E+00  0.23026419424E+04  0.26342462814E+04  0.12794895685E+04 0.  0.
        2    1    3    3  502    0  0.50959408716E+03  0.12162982232E+03  0.39543896471E+03  0.65639311557E+03  0.25500000920E-02 0. -1.
       -2    1    3    3    0  502 -0.50959408716E+03 -0.12162982232E+03  0.19072029777E+04  0.19778531658E+04  0.25500000920E-02 0.  1.
</event>
<event>
 5   0  0.3335747E-04  0.1291490E+04  0.7818609E-02  0.9036341E-01
        1   -1    0    0  501    0  0.00000000000E+00  0.00000000000E+00  0.54697519483E+03  0.54697519485E+03  0.50400001928E-02 0.  1.
       -1   -1    0    0    0  501  0.00000000000E+00  0.00000000000E+00 -0.76235035936E+03  0.76235035937E+03  0.50400001928E-02 0. -1.
    10030    2    1    2    0    0  0.00000000000E+00  0.00000000000E+00 -0.21537516453E+03  0.13093255542E+04  0.12914902034E+04 0.  0.
        3    1    3    3  502    0 -0.49673993406E+03  0.26637375423E+03 -0.42712810561E+03  0.70720857449E+03  0.10100000352E+00 0. -1.
       -3    1    3    3    0  502  0.49673993406E+03 -0.26637375423E+03  0.21175294108E+03  0.60211697973E+03  0.10100000352E+00 0.  1.
</event>
<event>
 5   0  0.5957913E-04  0.1297215E+04  0.7818609E-02  0.9031776E-01
        2   -1    0    0  501    0  0.00000000000E+00  0.00000000000E+00  0.49048868020E+03  0.49048868020E+03  0.25500000920E-02 0. -1.
       -2   -1    0    0    0  501  0.00000000000E+00  0.00000000000E+00 -0.85769942045E+03  0.85769942045E+03  0.25500000920E-02 0.  1.
    10030    2    1    2    0    0  0.00000000000E+00  0.00000000000E+00 -0.36721074025E+03  0.13481881007E+04  0.12972152585E+04 0.  0.
        1    1    3    3  502    0  0.46706738238E+03 -0.32244154950E+03 -0.50990292904E+03  0.76296886541E+03  0.50400001928E-02 0.  1.
       -1    1    3    3    0  502 -0.46706738238E+03  0.32244154950E+03  0.14269218879E+03  0.58521923524E+03  0.50400001928E-02 0. -1.
</event>
<event>
 5   0  0.3335747E-04  0.1301425E+04  0.7818609E-02  0.9028436E-01
        1   -1    0    0  501    0  0.00000000000E+00  0.00000000000E+00  0.20266293960E+04  0.20266293960E+04  0.50400001928E-02 0.  1.
       -1   -1    0    0    0  501  0.00000000000E+00  0.00000000000E+00 -0.20893157462E+03  0.20893157468E+03  0.50400001928E-02 0. -1.
    10030    2    1    2    0    0  0.00000000000E+00  0.00000000000E+00  0.18176978214E+04  0.22355609707E+04  0.13014251741E+04 0.  0.
        3    1    3    3  502    0  0.45640918466E+03 -0.10630597123E+03  0.16843582755E+04  0.17483343827E+04  0.10100000352E+00 0.  1.
       -3    1    3    3    0  502 -0.45640918466E+03  0.10630597123E+03  0.13333954594E+03  0.48722658802E+03  0.10100000352E+00 0. -1.
</event>
<event>
 5   0  0.5384960E-04  0.1298270E+04  0.7818609E-02  0.9030938E-01
       -2   -1    0    0    0  501  0.00000000000E+00  0.00000000000E+00  0.36607473862E+03  0.36607473863E+03  0.25500000920E-02 0. -1.
        2   -1    0    0  501    0  0.00000000000E+00  0.00000000000E+00 -0.11510662146E+04  0.11510662146E+04  0.25500000920E-02 0.  1.
    10030    2    1    2    0    0  0.00000000000E+00  0.00000000000E+00 -0.78499147601E+03  0.15171409533E+04  0.12982700238E+04 0.  0.
        3    1    3    3  502    0 -0.21142447353E+03 -0.25601917874E+03 -0.10443221202E+04  0.10958352197E+04  0.10100000352E+00 0.  1.
       -3    1    3    3    0  502  0.21142447353E+03  0.25601917874E+03  0.25933064418E+03  0.42130573353E+03  0.10100000352E+00 0. -1.
</event>
<event>
 5   0  0.3403833E-04  0.1298045E+04  0.7818609E-02  0.9031117E-01
       -1   -1    0    0    0  501  0.00000000000E+00  0.00000000000E+00  0.41783425185E+03  0.41783425188E+03  0.50400001928E-02 0. -1.
        1   -1    0    0  501    0  0.00000000000E+00  0.00000000000E+00 -0.10081276248E+04  0.10081276248E+04  0.50400001928E-02 0.  1.
    10030    2    1    2    0    0  0.00000000000E+00  0.00000000000E+00 -0.59029337290E+03  0.14259618766E+04  0.12980450715E+04 0.  0.
        1    1    3    3  502    0  0.13980905001E+03  0.61388704360E+03 -0.46823782460E+03  0.78463401224E+03  0.50400001928E-02 0. -1.
       -1    1    3    3    0  502 -0.13980905001E+03 -0.61388704360E+03 -0.12205554831E+03  0.64132786440E+03  0.50400001928E-02 0.  1.
</event>
<event>
 5   0  0.5787604E-04  0.1305333E+04  0.7818609E-02  0.9025347E-01
        2   -1    0    0  501    0  0.00000000000E+00  0.00000000000E+00  0.72105689032E+03  0.72105689033E+03  0.25500000920E-02 0.  1.
       -2   -1    0    0    0  501  0.00000000000E+00  0.00000000000E+00 -0.59076265987E+03  0.59076265988E+03  0.25500000920E-02 0. -1.
    10030    2    1    2    0    0  0.00000000000E+00  0.00000000000E+00  0.13029423045E+03  0.13118195502E+04  0.13053328870E+04 0.  0.
        4    1    3    3  502    0  0.21406570585E+03  0.60308085240E+03  0.19400767267E+03  0.66870862931E+03  0.12699999809E+01 0.  1.
       -4    1    3    3    0  502 -0.21406570585E+03 -0.60308085240E+03 -0.63713442224E+02  0.64311092090E+03  0.12699999809E+01 0. -1.
</event>
<event>
 5   0  0.5787604E-04  0.1304618E+04  0.7818609E-02  0.9025911E-01
       -2   -1    0    0    0  501  0.00000000000E+00  0.00000000000E+00  0.26621683489E+03  0.26621683490E+03  0.25500000920E-02 0. -1.
        2   -1    0    0  501    0  0.00000000000E+00  0.00000000000E+00 -0.15983473040E+04  0.15983473040E+04  0.25500000920E-02 0.  1.
    10030    2    1    2    0    0  0.00000000000E+00  0.00000000000E+00 -0.13321304691E+04  0.18645641389E+04  0.13046178909E+04 0.  0.
        4    1    3    3  502    0  0.51550741592E+03  0.26863934351E+03 -0.24308298777E+03  0.63008407740E+03  0.12699999809E+01 0. -1.
       -4    1    3    3    0  502 -0.51550741592E+03 -0.26863934351E+03 -0.10890474814E+04  0.12344800615E+04  0.12699999809E+01 0.  1.
</event>
<event>
 5   0  0.3337520E-04  0.1267734E+04  0.7818609E-02  0.9055551E-01
       -1   -1    0    0    0  501  0.00000000000E+00  0.00000000000E+00  0.62248696425E+03  0.62248696427E+03  0.50400001928E-02 0.  1.
        1   -1    0    0  501    0  0.00000000000E+00  0.00000000000E+00 -0.64545511111E+03  0.64545511113E+03  0.50400001928E-02 0. -1.
    10030    2    1    2    0    0  0.00000000000E+00  0.00000000000E+00 -0.22968146864E+02  0.12679420754E+04  0.12677340300E+04 0.  0.
        5    1    3    3  502    0 -0.29199906391E+02  0.51347175208E+02  0.61971071993E+03  0.62253725457E+03  0.46999998093E+01 0.  1.
       -5    1    3    3    0  502  0.29199906391E+02 -0.51347175208E+02 -0.64267886679E+03  0.64540482083E+03  0.46999998093E+01 0. -1.
</event>
<event>
 5   0  0.3335747E-04  0.1287875E+04  0.7818609E-02  0.9039236E-01
        1   -1    0    0  501    0  0.00000000000E+00  0.00000000000E+00  0.47054036933E+03  0.47054036936E+03  0.50400001928E-02 0.  1.
       -1   -1    0    0    0  501  0.00000000000E+00  0.00000000000E+00 -0.88123212579E+03  0.88123212580E+03  0.50400001928E-02 0. -1.
    10030    2    1    2    0    0  0.00000000000E+00  0.00000000000E+00 -0.41069175645E+03  0.13517724952E+04  0.12878746678E+04 0.  0.
        3    1    3    3  502    0  0.16433289740E+02  0.62412223990E+03 -0.39863650280E+02  0.62560989775E+03  0.10100000352E+00 0.  1.
       -3    1    3    3    0  502 -0.16433289740E+02 -0.62412223990E+03 -0.37082810617E+03  0.72616259741E+03  0.10100000352E+00 0. -1.
</event>
<event>
 5   0  0.3263679E-04  0.1293539E+04  0.7818609E-02  0.9034704E-01
       -1   -1    0    0    0  501  0.00000000000E+00  0.00000000000E+00  0.99112603850E+03  0.99112603852E+03  0.50400001928E-02 0. -1.
        1   -1    0    0  501    0  0.00000000000E+00  0.00000000000E+00 -0.42205632492E+03  0.42205632495E+03  0.50400001928E-02 0.  1.
    10030    2    1    2    0    0  0.00000000000E+00  0.00000000000E+00  0.56906971358E+03  0.14131823635E+04  0.12935393514E+04 0.  0.
        2    1    3    3  502    0 -0.58307876914E+03  0.17048183809E+03  0.52702421202E+03  0.80423841503E+03  0.25500000920E-02 0. -1.
       -2    1    3    3    0  502  0.58307876914E+03 -0.17048183809E+03  0.42045501559E+02  0.60894394844E+03  0.25500000920E-02 0.  1.
</event>
<event>
 5   0  0.5787604E-04  0.1285148E+04  0.7818609E-02  0.9041426E-01
       -2   -1    0    0    0  501  0.00000000000E+00  0.00000000000E+00  0.58983150873E+03  0.58983150874E+03  0.25500000920E-02 0. -1.
        2   -1    0    0  501    0  0.00000000000E+00  0.00000000000E+00 -0.70003301864E+03  0.70003301865E+03  0.25500000920E-02 0.  1.
    10030    2    1    2    0    0  0.00000000000E+00  0.00000000000E+00 -0.11020150991E+03  0.12898645274E+04  0.12851482896E+04 0.  0.
        4    1    3    3  502    0 -0.46702010652E+02 -0.22195228523E+03  0.54831770250E+03  0.59337830302E+03  0.12699999809E+01 0. -1.
       -4    1    3    3    0  502  0.46702010652E+02  0.22195228523E+03 -0.65851921241E+03  0.69648622437E+03  0.12699999809E+01 0.  1.
</event>
<event>
 5   0  0.3335747E-04  0.1299814E+04  0.7818609E-02  0.9029713E-01
       -1   -1    0    0    0  501  0.00000000000E+00  0.00000000000E+00  0.22891771190E+03  0.22891771195E+03  0.50400001928E-02 0.  1.
        1   -1    0    0  501    0  0.00000000000E+00  0.00000000000E+00 -0.18451132021E+04  0.18451132021E+04  0.50400001928E-02 0. -1.
    10030    2    1    2    0    0  0.00000000000E+00  0.00000000000E+00 -0.16161954902E+04  0.20740309141E+04  0.12998139751E+04 0.  0.
        3    1    3    3  502    0 -0.39678925529E+03 -0.40934683768E+03 -0.13060093667E+04  0.14250147447E+04  0.10100000352E+00 0. -1.
       -3    1    3    3    0  502  0.39678925529E+03  0.40934683768E+03 -0.31018612351E+03  0.64901616933E+03  0.10100000352E+00 0.  1.
</event>
<event>
 5   0  0.6052864E-04  0.1300345E+04  0.7818609E-02  0.9029292E-01
        2   -1    0    0  501    0  0.00000000000E+00  0.00000000000E+00  0.53548575200E+03  0.53548575200E+03  0.25500000920E-02 0.  1.
       -2   -1    0    0    0  501  0.00000000000E+00  0.00000000000E+00 -0.78942157541E+03  0.78942157541E+03  0.25500000920E-02 0. -1.
    10030    2    1    2    0    0  0.00000000000E+00  0.00000000000E+00 -0.25393582341E+03  0.13249073274E+04  0.13003445789E+04 0.  0.
        2    1    3    3  502    0 -0.35911933847E+03 -0.28507058869E+03 -0.59664395658E+03  0.75247322260E+03  0.25500000920E-02 0. -1.
       -2    1    3    3    0  502  0.35911933847E+03  0.28507058869E+03  0.34270813317E+03  0.57243410481E+03  0.25500000920E-02 0.  1.
</event>
<event>
 5   0  0.5787604E-04  0.1284122E+04  0.7818609E-02  0.9042252E-01
        2   -1    0    0  501    0  0.00000000000E+00  0.00000000000E+00  0.35684986842E+03  0.35684986843E+03  0.25500000920E-02 0. -1.
       -2   -1    0    0    0  501  0.00000000000E+00  0.00000000000E+00 -0.11552258822E+04  0.11552258822E+04  0.25500000920E-02 0.  1.
    10030    2    1    2    0    0  0.00000000000E+00  0.00000000000E+00 -0.79837601378E+03  0.15120757506E+04  0.12841218074E+04 0.  0.
        4    1    3    3  502    0 -0.20529568249E+03 -0.45872617991E+03  0.71324962904E+02  0.50760702184E+03  0.12699999809E+01 0. -1.
       -4    1    3    3    0  502  0.20529568249E+03  0.45872617991E+03 -0.86970097669E+03  0.10044687288E+04  0.12699999809E+01 0.  1.
</event>
<event>
 5   0  0.3337520E-04  0.1300343E+04  0.7818609E-02  0.9029293E-01
       -1   -1    0    0    0  501  0.00000000000E+00  0.00000000000E+00  0.44722926084E+03  0.44722926087E+03  0.50400001928E-02 0.  1.
        1   -1    0    0  501    0  0.00000000000E+00  0.00000000000E+00 -0.94520376271E+03  0.94520376273E+03  0.50400001928E-02 0. -1.
    10030    2    1    2    0    0  0.00000000000E+00  0.00000000000E+00 -0.49797450187E+03  0.13924330236E+04  0.13003426936E+04 0.  0.
        5    1    3    3  502    0 -0.46937409693E+03  0.41639951544E+03 -0.66632882294E+02  0.63100129186E+03  0.46999998093E+01 0. -1.
       -5    1    3    3    0  502  0.46937409693E+03 -0.41639951544E+03 -0.43134161958E+03  0.76143173174E+03  0.46999998093E+01 0.  1.
</event>
<event>
 5   0  0.2255875E-04  0.1293806E+04  0.7818609E-02  0.9034491E-01
        4   -1    0    0  501    0  0.00000000000E+00  0.00000000000E+00  0.67708418272E+03  0.67708537378E+03  0.12699999809E+01 0.  1.
       -4   -1    0    0    0  501  0.00000000000E+00  0.00000000000E+00 -0.61806483155E+03  0.61806613635E+03  0.12699999809E+01 0. -1.
    10030    2    1    2    0    0  0.00000000000E+00  0.00000000000E+00  0.59019351162E+02  0.12951515101E+04  0.12938060714E+04 0.  0.
        4    1    3    3  502    0 -0.63980015478E+03  0.80814301421E+02 -0.21599615844E+02  0.64524673240E+03  0.12699999809E+01 0. -1.
       -4    1    3    3    0  502  0.63980015478E+03 -0.80814301421E+02  0.80618967007E+02  0.64990477773E+03  0.12699999809E+01 0.  1.
</event>
<event>
 5   0  0.6052864E-04  0.1295758E+04  0.7818609E-02  0.9032936E-01
       -2   -1    0    0    0  501  0.00000000000E+00  0.00000000000E+00  0.16150998309E+03  0.16150998311E+03  0.25500000920E-02 0.  1.
        2   -1    0    0  501    0  0.00000000000E+00  0.00000000000E+00 -0.25988917331E+04  0.25988917331E+04  0.25500000920E-02 0. -1.
    10030    2    1    2    0    0  0.00000000000E+00  0.00000000000E+00 -0.24373817500E+04  0.27604017162E+04  0.12957576315E+04 0.  0.
        2    1    3    3  502    0 -0.29880607643E+03 -0.17694929427E+03 -0.23838724908E+04  0.24090338678E+04  0.25500000920E-02 0. -1.
       -2    1    3    3    0  502  0.29880607643E+03  0.17694929427E+03 -0.53509259246E+02  0.35136784840E+03  0.25500000920E-02 0.  1.
</event>
<event>
 5   0  0.5384960E-04  0.1297522E+04  0.7818609E-02  0.9031533E-01
       -2   -1    0    0    0  501  0.00000000000E+00  0.00000000000E+00  0.35434317818E+03  0.35434317819E+03  0.25500000920E-02 0. -1.
        2   -1    0    0  501    0  0.00000000000E+00  0.00000000000E+00 -0.11878050846E+04  0.11878050846E+04  0.25500000920E-02 0.  1.
    10030    2    1    2    0    0  0.00000000000E+00  0.00000000000E+00 -0.83346190641E+03  0.15421482628E+04  0.12975216819E+04 0.  0.
        3    1    3    3  502    0 -0.91899862365E+02  0.23113738793E+03  0.29541851479E+03  0.38618931353E+03  0.10100000352E+00 0. -1.
       -3    1    3    3    0  502  0.91899862365E+02 -0.23113738793E+03 -0.11288804212E+04  0.11559589493E+04  0.10100000352E+00 0.  1.
</event>
<event>
 5   0  0.6007125E-04  0.1299749E+04  0.7818609E-02  0.9029764E-01
       -2   -1    0    0    0  501  0.00000000000E+00  0.00000000000E+00  0.38209976025E+03  0.38209976026E+03  0.25500000920E-02 0.  1.
        2   -1    0    0  501    0  0.00000000000E+00  0.00000000000E+00 -0.11053057773E+04  0.11053057773E+04  0.25500000920E-02 0. -1.
    10030    2    1    2    0    0  0.00000000000E+00  0.00000000000E+00 -0.72320601709E+03  0.14874055376E+04  0.12997493182E+04 0.  0.
        5    1    3    3  502    0 -0.38351266074E+03  0.28707539464E+03 -0.86411527524E+03  0.98803418061E+03  0.46999998093E+01 0. -1.
       -5    1    3    3    0  502  0.38351266074E+03 -0.28707539464E+03  0.14090925815E+03  0.49937135699E+03  0.46999998093E+01 0.  1.
</event>
<event>
 5   0  0.3263679E-04  0.1301182E+04  0.7818609E-02  0.9028629E-01
        1   -1    0    0  501    0  0.00000000000E+00  0.00000000000E+00  0.84160747723E+03  0.84160747725E+03  0.50400001928E-02 0.  1.
       -1   -1    0    0    0  501  0.00000000000E+00  0.00000000000E+00 -0.50292847166E+03  0.50292847169E+03  0.50400001928E-02 0. -1.
    10030    2    1    2    0    0  0.00000000000E+00  0.00000000000E+00  0.33867900557E+03  0.13445359489E+04  0.13011815589E+04 0.  0.
        2    1    3    3  502    0 -0.18409958276E+03 -0.19970287688E+03 -0.44153875925E+03  0.51839210192E+03  0.25500000920E-02 0. -1.
       -2    1    3    3    0  502  0.18409958276E+03  0.19970287688E+03  0.78021776482E+03  0.82614384701E+03  0.25500000920E-02 0.  1.
</event>
<event>
 5   0  0.6052864E-04  0.1301432E+04  0.7818609E-02  0.9028431E-01
        2   -1    0    0  501    0  0.00000000000E+00  0.00000000000E+00  0.22153867871E+04  0.22153867871E+04  0.25500000920E-02 0. -1.
       -2   -1    0    0    0  501  0.00000000000E+00  0.00000000000E+00 -0.19113187093E+03  0.19113187095E+03  0.25500000920E-02 0.  1.
    10030    2    1    2    0    0  0.00000000000E+00  0.00000000000E+00  0.20242549162E+04  0.24065186580E+04  0.13014315525E+04 0.  0.
        2    1    3    3  502    0  0.21724087496E+03  0.57113642772E+03  0.14257737883E+04  0.15511999588E+04  0.25500000920E-02 0. -1.
       -2    1    3    3    0  502 -0.21724087496E+03 -0.57113642772E+03  0.59848112783E+03  0.85531869919E+03  0.25500000920E-02 0.  1.
</event>
<event>
 5   0  0.2255875E-04  0.1318743E+04  0.7818609E-02  0.9014832E-01
       -4   -1    0    0    0  501  0.00000000000E+00  0.00000000000E+00  0.86088074900E+03  0.86088168577E+03  0.12699999809E+01 0.  1.
        4   -1    0    0  501    0  0.00000000000E+00  0.00000000000E+00 -0.50502828163E+03  0.50502987847E+03  0.12699999809E+01 0. -1.
    10030    2    1    2    0    0  0.00000000000E+00  0.00000000000E+00  0.35585246737E+03  0.13659115642E+04  0.13187431224E+04 0.  0.
        5    1    3    3  502    0 -0.58437712709E+03  0.13517971247E+03 -0.10568993928E+03  0.60906701979E+03  0.46999998093E+01 0. -1.
       -5    1    3    3    0  502  0.58437712709E+03 -0.13517971247E+03  0.46154240665E+03  0.75684454445E+03  0.46999998093E+01 0.  1.
</event>
<event>
 5   0  0.6007125E-04  0.1303108E+04  0.7818609E-02  0.9027104E-01
       -2   -1    0    0    0  501  0.00000000000E+00  0.00000000000E+00  0.12527836991E+04  0.12527836991E+04  0.25500000920E-02 0. -1.
        2   -1    0    0  501    0  0.00000000000E+00  0.00000000000E+00 -0.33886341883E+03  0.33886341884E+03  0.25500000920E-02 0.  1.
    10030    2    1    2    0    0  0.00000000000E+00  0.00000000000E+00  0.91392028022E+03  0.15916471179E+04  0.13031079270E+04 0.  0.
        5    1    3    3  502    0 -0.10294047351E+03 -0.96485826613E+02 -0.31995974706E+03  0.34971786566E+03  0.46999998093E+01 0.  1.
       -5    1    3    3    0  502  0.10294047351E+03  0.96485826613E+02  0.12338800273E+04  0.12419292522E+04  0.46999998093E+01 0. -1.
</event>
<event>
 5   0  0.3274879E-04  0.1290441E+04  0.7818609E-02  0.9037180E-01
        1   -1    0    0  501    0  0.00000000000E+00  0.00000000000E+00  0.68641591766E+03  0.68641591768E+03  0.50400001928E-02 0.  1.
       -1   -1    0    0    0  501  0.00000000000E+00  0.00000000000E+00 -0.60649707395E+03  0.60649707397E+03  0.50400001928E-02 0. -1.
    10030    2    1    2    0    0  0.00000000000E+00  0.00000000000E+00  0.79918843714E+02  0.12929129916E+04  0.12904406156E+04 0.  0.
        4    1    3    3  502    0  0.30146041792E+03 -0.32786575721E+02 -0.53065283831E+03  0.61118523447E+03  0.12699999809E+01 0. -1.
       -4    1    3    3    0  502 -0.30146041792E+03  0.32786575721E+02  0.61057168203E+03  0.68172775718E+03  0.12699999809E+01 0.  1.
</event>
<event>
 5   0  0.3263679E-04  0.1301473E+04  0.7818609E-02  0.9028398E-01
        1   -1    0    0  501    0  0.00000000000E+00  0.00000000000E+00  0.20397917946E+04  0.20397917946E+04  0.50400001928E-02 0.  1.
       -1   -1    0    0    0  501  0.00000000000E+00  0.00000000000E+00 -0.20759853214E+03  0.20759853220E+03  0.50400001928E-02 0. -1.
    10030    2    1    2    0    0  0.00000000000E+00  0.00000000000E+00  0.18321932625E+04  0.22473903268E+04  0.13014726774E+04 0.  0.
        2    1    3    3  502    0  0.21299267734E+03  0.85213826018E+02  0.19676496605E+04  0.19809776534E+04  0.25500000920E-02 0.  1.
       -2    1    3    3    0  502 -0.21299267734E+03 -0.85213826018E+02 -0.13545639808E+03  0.26641267337E+03  0.25500000920E-02 0. -1.
</event>
<event>
 5   0  0.3403833E-04  0.1302502E+04  0.7818609E-02  0.9027583E-01
       -1   -1    0    0    0  501  0.00000000000E+00  0.00000000000E+00  0.13719053513E+04  0.13719053513E+04  0.50400001928E-02 0. -1.
        1   -1    0    0  501    0  0.00000000000E+00  0.00000000000E+00 -0.30915251818E+03  0.30915251822E+03  0.50400001928E-02 0.  1.
    10030    2    1    2    0    0  0.00000000000E+00  0.00000000000E+00  0.10627528331E+04  0.16810578695E+04  0.13025021982E+04 0.  0.
        1    1    3    3  502    0 -0.55464850068E+03 -0.24510693683E+03  0.22482459697E+03  0.64672905394E+03  0.50400001928E-02 0.  1.
       -1    1    3    3    0  502  0.55464850068E+03  0.24510693683E+03  0.83792823615E+03  0.10343288156E+04  0.50400001928E-02 0. -1.
</event>
<event>
 5   0  0.6007125E-04  0.1300254E+04  0.7818609E-02  0.9029363E-01
       -2   -1    0    0    0  501  0.00000000000E+00  0.00000000000E+00  0.24088320735E+03  0.24088320736E+03  0.25500000920E-02 0. -1.
        2   -1    0    0  501    0  0.00000000000E+00  0.00000000000E+00 -0.17546484013E+04  0.17546484013E+04  0.25500000920E-02 0.  1.
    10030    2    1    2    0    0  0.00000000000E+00  0.00000000000E+00 -0.15137651939E+04  0.19955316086E+04  0.13002543362E+04 0.  0.
        5    1    3    3  502    0  0.50962919750E+03 -0.24430859839E+03 -0.26377350202E+03  0.62370438555E+03  0.46999998093E+01 0. -1.
       -5    1    3    3    0  502 -0.50962919750E+03  0.24430859839E+03 -0.12499916919E+04  0.13718272231E+04  0.46999998093E+01 0.  1.
</event>
<event>
 5   0  0.3337520E-04  0.1304601E+04  0.7818609E-02  0.9025925E-01
       -1   -1    0    0    0  501  0.00000000000E+00  0.00000000000E+00  0.72359663186E+03  0.72359663188E+03  0.50400001928E-02 0. -1.
        1   -1    0    0  501    0  0.00000000000E+00  0.00000000000E+00 -0.58802891145E+03  0.58802891148E+03  0.50400001928E-02 0.  1.
    10030    2    1    2    0    0  0.00000000000E+00  0.00000000000E+00  0.13556772040E+03  0.13116255434E+04  0.13046006895E+04 0.  0.
        5    1    3    3  502    0 -0.36167003676E+02 -0.67912810105E+02  0.71900113010E+03  0.72312164746E+03  0.46999998093E+01 0. -1.
       -5    1    3    3    0  502  0.36167003676E+02  0.67912810105E+02 -0.58343340970E+03  0.58850389590E+03  0.46999998093E+01 0.  1.
</event>
<event>
 5   0  0.3335747E-04  0.1301931E+04  0.7818609E-02  0.9028036E-01
       -1   -1    0    0    0  501  0.00000000000E+00  0.00000000000E+00  0.58385354809E+03  0.58385354811E+03  0.50400001928E-02 0.  1.
        1   -1    0    0  501    0  0.00000000000E+00  0.00000000000E+00 -0.72579121198E+03  0.72579121200E+03  0.50400001928E-02 0. -1.
    10030    2    1    2    0    0  0.00000000000E+00  0.00000000000E+00 -0.14193766389E+03  0.13096447601E+04  0.13019305270E+04 0.  0.
        3    1    3    3  502    0 -0.40128571736E+03  0.26643093209E+03  0.36950708588E+03  0.60708415005E+03  0.10100000352E+00 0.  1.
       -3    1    3    3    0  502  0.40128571736E+03 -0.26643093209E+03 -0.51144474978E+03  0.70256061006E+03  0.10100000352E+00 0. -1.
</event>
<event>
 5   0  0.5957913E-04  0.1300122E+04  0.7818609E-02  0.9029469E-01
       -2   -1    0    0    0  501  0.00000000000E+00  0.00000000000E+00  0.17385183372E+03  0.17385183374E+03  0.25500000920E-02 0.  1.
        2   -1    0    0  501    0  0.00000000000E+00  0.00000000000E+00 -0.24306850010E+04  0.24306850010E+04  0.25500000920E-02 0. -1.
    10030    2    1    2    0    0  0.00000000000E+00  0.00000000000E+00 -0.22568331673E+04  0.26045368347E+04  0.13001216015E+04 0.  0.
        1    1    3    3  502    0  0.28109963082E+03  0.48904236087E+03 -0.17757022215E+04  0.18631419196E+04  0.50400001928E-02 0.  1.
       -1    1    3    3    0  502 -0.28109963082E+03 -0.48904236087E+03 -0.48113094580E+03  0.74139491514E+03  0.50400001928E-02 0. -1.
</event>
<event>
 5   0  0.3403833E-04  0.1306019E+04  0.7818609E-02  0.9024806E-01
       -1   -1    0    0    0  501  0.00000000000E+00  0.00000000000E+00  0.65697660287E+03  0.65697660289E+03  0.50400001928E-02 0.  1.
        1   -1    0    0  501    0  0.00000000000E+00  0.00000000000E+00 -0.64906631161E+03  0.64906631163E+03  0.50400001928E-02 0. -1.
    10030    2    1    2    0    0  0.00000000000E+00  0.00000000000E+00  0.79102912592E+01  0.13060429145E+04  0.13060189592E+04 0.  0.
        1    1    3    3  502    0 -0.16969055894E+03 -0.43247102372E+02 -0.62514794689E+03  0.64921117765E+03  0.50400001928E-02 0. -1.
       -1    1    3    3    0  502  0.16969055894E+03  0.43247102372E+02  0.63305823815E+03  0.65683173688E+03  0.50400001928E-02 0.  1.
</event>
<event>
 5   0  0.5384960E-04  0.1292813E+04  0.7818609E-02  0.9035284E-01
        2   -1    0    0  501    0  0.00000000000E+00  0.00000000000E+00  0.50291902155E+03  0.50291902155E+03  0.25500000920E-02 0.  1.
       -2   -1    0    0    0  501  0.00000000000E+00  0.00000000000E+00 -0.83083271074E+03  0.83083271074E+03  0.25500000920E-02 0. -1.
    10030    2    1    2    0    0  0.00000000000E+00  0.00000000000E+00 -0.32791368919E+03  0.13337517323E+04  0.12928133260E+04 0.  0.
        3    1    3    3  502    0  0.10020736637E+03 -0.30676184842E+03 -0.74177942390E+03  0.80893823735E+03  0.10100000352E+00 0. -1.
       -3    1    3    3    0  502 -0.10020736637E+03  0.30676184842E+03  0.41386573470E+03  0.52481349495E+03  0.10100000352E+00 0.  1.
</event>
<event>
 5   0  0.3403833E-04  0.1296895E+04  0.7818609E-02  0.9032031E-01
       -1   -1    0    0    0  501  0.00000000000E+00  0.00000000000E+00  0.12987999772E+04  0.12987999772E+04  0.50400001928E-02 0.  1.
        1   -1    0    0  501    0  0.00000000000E+00  0.00000000000E+00 -0.32374809429E+03  0.32374809433E+03  0.50400001928E-02 0. -1.
    10030    2    1    2    0    0  0.00000000000E+00  0.00000000000E+00  0.97505188292E+03  0.16225480715E+04  0.12968947799E+04 0.  0.
        1    1    3    3  502    0  0.32921523595E+02  0.62960746429E+03  0.67724285880E+03  0.92528226808E+03  0.50400001928E-02 0.  1.
       -1    1    3    3    0  502 -0.32921523595E+02 -0.62960746429E+03  0.29780902413E+03  0.69726580347E+03  0.50400001928E-02 0. -1.
</event>
<event>
 5   0  0.3274879E-04  0.1298060E+04  0.7818609E-02  0.9031105E-01
       -1   -1    0    0    0  501  0.00000000000E+00  0.00000000000E+00  0.23357478711E+03  0.23357478717E+03  0.50400001928E-02 0. -1.
        1   -1    0    0  501    0  0.00000000000E+00  0.00000000000E+00 -0.18034465967E+04  0.18034465967E+04  0.50400001928E-02 0.  1.
    10030    2    1    2    0    0  0.00000000000E+00  0.00000000000E+00 -0.15698718096E+04  0.20370213839E+04  0.12980595594E+04 0.  0.
        4    1    3    3  502    0  0.45608590859E+03  0.40874448248E+03 -0.44780814899E+03  0.75869635506E+03  0.12699999809E+01 0. -1.
       -4    1    3    3    0  502 -0.45608590859E+03 -0.40874448248E+03 -0.11220636606E+04  0.12783250288E+04  0.12699999809E+01 0.  1.
</event>
<event>
 5   0  0.5957913E-04  0.1300049E+04  0.7818609E-02  0.9029527E-01
        2   -1    0    0  501    0  0.00000000000E+00  0.00000000000E+00  0.19855518915E+04  0.19855518915E+04  0.25500000920E-02 0. -1.
       -2   -1    0    0    0  501  0.00000000000E+00  0.00000000000E+00 -0.21280306602E+03  0.21280306603E+03  0.25500000920E-02 0.  1.
    10030    2    1    2    0    0  0.00000000000E+00  0.00000000000E+00  0.17727488255E+04  0.21983549575E+04  0.13000485072E+04 0.  0.
        1    1    3    3  502    0  0.54067186416E+03  0.24347832542E+02  0.14951566227E+04  0.15900981756E+04  0.50400001928E-02 0. -1.
       -1    1    3    3    0  502 -0.54067186416E+03 -0.24347832542E+02  0.27759220272E+03  0.60825678186E+03  0.50400001928E-02 0.  1.
</event>
<event>
 5   0  0.3403833E-04  0.1299449E+04  0.7818609E-02  0.9030003E-01
        1   -1    0    0  501    0  0.00000000000E+00  0.00000000000E+00  0.11686785030E+04  0.11686785030E+04  0.50400001928E-02 0. -1.
       -1   -1    0    0    0  501  0.00000000000E+00  0.00000000000E+00 -0.36121284936E+03  0.36121284940E+03  0.50400001928E-02 0.  1.
    10030    2    1    2    0    0  0.00000000000E+00  0.00000000000E+00  0.80746565365E+03  0.15298913524E+04  0.12994486402E+04 0.  0.
        1    1    3    3  502    0 -0.50629861439E+03  0.40693821563E+03  0.42057715960E+03  0.77383599391E+03  0.50400001928E-02 0. -1.
       -1    1    3    3    0  502  0.50629861439E+03 -0.40693821563E+03  0.38688849405E+03  0.75605535851E+03  0.50400001928E-02 0.  1.
</event>
<event>
 5   0  0.3403833E-04  0.1299652E+04  0.7818609E-02  0.9029841E-01
       -1   -1    0    0    0  501  0.00000000000E+00  0.00000000000E+00  0.72506129043E+03  0.72506129045E+03  0.50400001928E-02 0. -1.
        1   -1    0    0  501    0  0.00000000000E+00  0.00000000000E+00 -0.58239772786E+03  0.58239772788E+03  0.50400001928E-02 0.  1.
    10030    2    1    2    0    0  0.00000000000E+00  0.00000000000E+00  0.14266356257E+03  0.13074590183E+04  0.12996523353E+04 0.  0.
        1    1    3    3  502    0 -0.46965388418E+03 -0.44458049344E+03  0.73299669503E+01  0.64674594279E+03  0.50400001928E-02 0.  1.
       -1    1    3    3    0  502  0.46965388418E+03  0.44458049344E+03  0.13533359562E+03  0.66071307555E+03  0.50400001928E-02 0. -1.
</event>
<event>
 5   0  0.5384960E-04  0.1300252E+04  0.7818609E-02  0.9029365E-01
       -2   -1    0    0    0  501  0.00000000000E+00  0.00000000000E+00  0.78840553567E+03  0.78840553567E+03  0.25500000920E-02 0.  1.
        2   -1    0    0  501    0  0.00000000000E+00  0.00000000000E+00 -0.53609941573E+03  0.53609941574E+03  0.25500000920E-02 0. -1.
    10030    2    1    2    0    0  0.00000000000E+00  0.00000000000E+00  0.25230611993E+03  0.13245049514E+04  0.13002518941E+04 0.  0.
        3    1    3    3  502    0 -0.35008540186E+03  0.50629716552E+03  0.33926123880E+03  0.70284764122E+03  0.10100000352E+00 0.  1.
       -3    1    3    3    0  502  0.35008540186E+03 -0.50629716552E+03 -0.86955118866E+02  0.62165731019E+03  0.10100000352E+00 0. -1.
</event>
<event>
 5   0  0.6007125E-04  0.1301321E+04  0.7818609E-02  0.9028519E-01
       -2   -1    0    0    0  501  0.00000000000E+00  0.00000000000E+00  0.29240849094E+03  0.29240849095E+03  0.25500000920E-02 0.  1.
        2   -1    0    0  501    0  0.00000000000E+00  0.00000000000E+00 -0.14478334184E+04  0.14478334184E+04  0.25500000920E-02 0. -1.
    10030    2    1    2    0    0  0.00000000000E+00  0.00000000000E+00 -0.11554249274E+04  0.17402419093E+04  0.13013205370E+04 0.  0.
        5    1    3    3  502    0 -0.48957720229E+03 -0.68453463726E+02 -0.11434426719E+04  0.12457347020E+04  0.46999998093E+01 0. -1.
       -5    1    3    3    0  502  0.48957720229E+03  0.68453463726E+02 -0.11982255518E+02  0.49450720737E+03  0.46999998093E+01 0.  1.
</event>
<event>
 5   0  0.6052864E-04  0.1299581E+04  0.7818609E-02  0.9029898E-01
        2   -1    0    0  501    0  0.00000000000E+00  0.00000000000E+00  0.70513219659E+03  0.70513219659E+03  0.25500000920E-02 0.  1.
       -2   -1    0    0    0  501  0.00000000000E+00  0.00000000000E+00 -0.59879198315E+03  0.59879198316E+03  0.25500000920E-02 0. -1.
    10030    2    1    2    0    0  0.00000000000E+00  0.00000000000E+00  0.10634021343E+03  0.13039241797E+04  0.12995807114E+04 0.  0.
        2    1    3    3  502    0 -0.41868527221E+03  0.44248962107E+02 -0.44343074977E+03  0.61146231091E+03  0.25500000920E-02 0. -1.
       -2    1    3    3    0  502  0.41868527221E+03 -0.44248962107E+02  0.54977096320E+03  0.69246186884E+03  0.25500000920E-02 0.  1.
</event>
<event>
 5   0  0.6052864E-04  0.1302321E+04  0.7818609E-02  0.9027727E-01
       -2   -1    0    0    0  501  0.00000000000E+00  0.00000000000E+00  0.32011574543E+03  0.32011574544E+03  0.25500000920E-02 0.  1.
        2   -1    0    0  501    0  0.00000000000E+00  0.00000000000E+00 -0.13245520435E+04  0.13245520435E+04  0.25500000920E-02 0. -1.
    10030    2    1    2    0    0  0.00000000000E+00  0.00000000000E+00 -0.10044362980E+04  0.16446677889E+04  0.13023209509E+04 0.  0.
        2    1    3    3  502    0  0.29825566096E+03 -0.28648316868E+03  0.13297242240E+03  0.43440846027E+03  0.25500000920E-02 0.  1.
       -2    1    3    3    0  502 -0.29825566096E+03  0.28648316868E+03 -0.11374087204E+04  0.12102593286E+04  0.25500000920E-02 0. -1.
</event>
<event>
 5   0  0.5384960E-04  0.1286669E+04  0.7818609E-02  0.9040204E-01
       -2   -1    0    0    0  501  0.00000000000E+00  0.00000000000E+00  0.54961883458E+03  0.54961883459E+03  0.25500000920E-02 0.  1.
        2   -1    0    0  501    0  0.00000000000E+00  0.00000000000E+00 -0.75303016656E+03  0.75303016656E+03  0.25500000920E-02 0. -1.
    10030    2    1    2    0    0  0.00000000000E+00  0.00000000000E+00 -0.20341133197E+03  0.13026490012E+04  0.12866694409E+04 0.  0.
        3    1    3    3  502    0  0.27980048553E+02 -0.54480862149E+03  0.24352818696E+03  0.59741552140E+03  0.10100000352E+00 0.  1.
       -3    1    3    3    0  502 -0.27980048553E+02  0.54480862149E+03 -0.44693951894E+03  0.70523347975E+03  0.10100000352E+00 0. -1.
</event>
<event>
 5   0  0.3263679E-04  0.1275537E+04  0.7818609E-02  0.9049193E-01
       -1   -1    0    0    0  501  0.00000000000E+00  0.00000000000E+00  0.99121543064E+03  0.99121543065E+03  0.50400001928E-02 0. -1.
        1   -1    0    0  501    0  0.00000000000E+00  0.00000000000E+00 -0.41035337918E+03  0.41035337921E+03  0.50400001928E-02 0.  1.
    10030    2    1    2    0    0  0.00000000000E+00  0.00000000000E+00  0.58086205146E+03  0.14015688099E+04  0.12755369089E+04 0.  0.
        2    1    3    3  502    0 -0.36900543012E+03  0.23673676339E+03 -0.21851862762E+03  0.48985680890E+03  0.25500000920E-02 0.  1.
       -2    1    3    3    0  502  0.36900543012E+03 -0.23673676339E+03  0.79938067908E+03  0.91171200096E+03  0.25500000920E-02 0. -1.
</event>
<event>
 5   0  0.5957913E-04  0.1314337E+04  0.7818609E-02  0.9018272E-01
       -2   -1    0    0    0  501  0.00000000000E+00  0.00000000000E+00  0.22179458733E+03  0.22179458734E+03  0.25500000920E-02 0.  1.
        2   -1    0    0  501    0  0.00000000000E+00  0.00000000000E+00 -0.19471640354E+04  0.19471640355E+04  0.25500000920E-02 0. -1.
    10030    2    1    2    0    0  0.00000000000E+00  0.00000000000E+00 -0.17253694481E+04  0.21689586228E+04  0.13143370096E+04 0.  0.
        1    1    3    3  502    0  0.78348268350E+01 -0.47586003017E+02 -0.19442398942E+04  0.19448379312E+04  0.50400001928E-02 0. -1.
       -1    1    3    3    0  502 -0.78348268350E+01  0.47586003017E+02  0.21887044612E+03  0.22412069161E+03  0.50400001928E-02 0.  1.
</event>
<event>
 5   0  0.3403833E-04  0.1298974E+04  0.7818609E-02  0.9030379E-01
       -1   -1    0    0    0  501  0.00000000000E+00  0.00000000000E+00  0.84425090179E+03  0.84425090181E+03  0.50400001928E-02 0.  1.
        1   -1    0    0  501    0  0.00000000000E+00  0.00000000000E+00 -0.49965416000E+03  0.49965416003E+03  0.50400001928E-02 0. -1.
    10030    2    1    2    0    0  0.00000000000E+00  0.00000000000E+00  0.34459674179E+03  0.13439050618E+04  0.12989741725E+04 0.  0.
        1    1    3    3  502    0 -0.51557167395E+03 -0.16238967098E+03 -0.20022414173E+03  0.57643235785E+03  0.50400001928E-02 0. -1.
       -1    1    3    3    0  502  0.51557167395E+03  0.16238967098E+03  0.54482088352E+03  0.76747270399E+03  0.50400001928E-02 0.  1.
</event>
<event>
 5   0  0.3335747E-04  0.1293936E+04  0.7818609E-02  0.9034388E-01
        1   -1    0    0  501    0  0.00000000000E+00  0.00000000000E+00  0.13355037157E+04  0.13355037157E+04  0.50400001928E-02 0. -1.
       -1   -1    0    0    0  501  0.00000000000E+00  0.00000000000E+00 -0.31341530487E+03  0.31341530491E+03  0.50400001928E-02 0.  1.
    10030    2    1    2    0    0  0.00000000000E+00  0.00000000000E+00  0.10220884108E+04  0.16489190206E+04  0.12939355536E+04 0.  0.
        3    1    3    3  502    0  0.23517740727E+03  0.17276619066E+03  0.12468724670E+04  0.12805653160E+04  0.10100000352E+00 0. -1.
       -3    1    3    3    0  502 -0.23517740727E+03 -0.17276619066E+03 -0.22478405619E+03  0.36835370453E+03  0.10100000352E+00 0.  1.
</event>
<event>
 5   0  0.3274879E-04  0.1298369E+04  0.7818609E-02  0.9030860E-01
        1   -1    0    0  501    0  0.00000000000E+00  0.00000000000E+00  0.99020724698E+03  0.99020724700E+03  0.50400001928E-02 0. -1.
       -1   -1    0    0    0  501  0.00000000000E+00  0.00000000000E+00 -0.42560836230E+03  0.42560836233E+03  0.50400001928E-02 0.  1.
    10030    2    1    2    0    0  0.00000000000E+00  0.00000000000E+00  0.56459888468E+03  0.14158156093E+04  0.12983689534E+04 0.  0.
        4    1    3    3  502    0 -0.18187075639E+02  0.17584384577E+03 -0.39885406378E+03  0.43627744029E+03  0.12699999809E+01 0.  1.
       -4    1    3    3    0  502  0.18187075639E+02 -0.17584384577E+03  0.96345294845E+03  0.97953816904E+03  0.12699999809E+01 0. -1.
</event>
<event>
 5   0  0.5787604E-04  0.1305835E+04  0.7818609E-02  0.9024950E-01
        2   -1    0    0  501    0  0.00000000000E+00  0.00000000000E+00  0.17439384610E+04  0.17439384610E+04  0.25500000920E-02 0.  1.
       -2   -1    0    0    0  501  0.00000000000E+00  0.00000000000E+00 -0.24444754544E+03  0.24444754546E+03  0.25500000920E-02 0. -1.
    10030    2    1    2    0    0  0.00000000000E+00  0.00000000000E+00  0.14994909156E+04  0.19883860065E+04  0.13058353284E+04 0.  0.
        4    1    3    3  502    0  0.24026803194E+03  0.58566602060E+03  0.50627431994E+03  0.81058541486E+03  0.12699999809E+01 0.  1.
       -4    1    3    3    0  502 -0.24026803194E+03 -0.58566602060E+03  0.99321659563E+03  0.11778005916E+04  0.12699999809E+01 0. -1.
</event>
<event>
 5   0  0.3335747E-04  0.1283390E+04  0.7818609E-02  0.9042842E-01
       -1   -1    0    0    0  501  0.00000000000E+00  0.00000000000E+00  0.10136431005E+04  0.10136431005E+04  0.50400001928E-02 0.  1.
        1   -1    0    0  501    0  0.00000000000E+00  0.00000000000E+00 -0.40623000075E+03  0.40623000078E+03  0.50400001928E-02 0. -1.
    10030    2    1    2    0    0  0.00000000000E+00  0.00000000000E+00  0.60741309977E+03  0.14198731013E+04  0.12833896330E+04 0.  0.
        3    1    3    3  502    0  0.36480880635E+03 -0.48978679023E+03  0.52161927401E+03  0.80315829217E+03  0.10100000352E+00 0. -1.
       -3    1    3    3    0  502 -0.36480880635E+03  0.48978679023E+03  0.85793825763E+02  0.61671480914E+03  0.10100000352E+00 0.  1.
</event>
<event>
 5   0  0.6007125E-04  0.1296660E+04  0.7818609E-02  0.9032218E-01
       -2   -1    0    0    0  501  0.00000000000E+00  0.00000000000E+00  0.30554252321E+03  0.30554252322E+03  0.25500000920E-02 0.  1.
        2   -1    0    0  501    0  0.00000000000E+00  0.00000000000E+00 -0.13756899054E+04  0.13756899054E+04  0.25500000920E-02 0. -1.
    10030    2    1    2    0    0  0.00000000000E+00  0.00000000000E+00 -0.10701473822E+04  0.16812324286E+04  0.12966599629E+04 0.  0.
        5    1    3    3  502    0 -0.41649506914E+03  0.36331707445E+03 -0.97446602576E+03  0.11203006581E+04  0.46999998093E+01 0. -1.
       -5    1    3    3    0  502  0.41649506914E+03 -0.36331707445E+03 -0.95681356447E+02  0.56093177052E+03  0.46999998093E+01 0.  1.
</event>
<event>
 5   0  0.3335747E-04  0.1296727E+04  0.7818609E-02  0.9032164E-01
        1   -1    0    0  501    0  0.00000000000E+00  0.00000000000E+00  0.14250576770E+04  0.14250576770E+04  0.50400001928E-02 0.  1.
       -1   -1    0    0    0  501  0.00000000000E+00  0.00000000000E+00 -0.29498837820E+03  0.29498837824E+03  0.50400001928E-02 0. -1.
    10030    2    1    2    0    0  0.00000000000E+00  0.00000000000E+00  0.11300692988E+04  0.17200460552E+04  0.12967273469E+04 0.  0.
        3    1    3    3  502    0  0.98212891816E+02  0.25895247177E+03  0.13426490501E+04  0.13709152551E+04  0.10100000352E+00 0.  1.
       -3    1    3    3    0  502 -0.98212891816E+02 -0.25895247177E+03 -0.21257975129E+03  0.34913080015E+03  0.10100000352E+00 0. -1.
</event>
<event>
 5   0  0.5957913E-04  0.1273262E+04  0.7818609E-02  0.9051042E-01
        2   -1    0    0  501    0  0.00000000000E+00  0.00000000000E+00  0.16076412824E+04  0.16076412824E+04  0.25500000920E-02 0. -1.
       -2   -1    0    0    0  501  0.00000000000E+00  0.00000000000E+00 -0.25210787685E+03  0.25210787686E+03  0.25500000920E-02 0.  1.
    10030    2    1    2    0    0  0.00000000000E+00  0.00000000000E+00  0.13555334056E+04  0.18597491593E+04  0.12732620005E+04 0.  0.
        1    1    3    3  502    0  0.55599478000E+03  0.17410629597E+03  0.30293724398E+03  0.65666899691E+03  0.50400001928E-02 0.  1.
       -1    1    3    3    0  502 -0.55599478000E+03 -0.17410629597E+03  0.10525961616E+04  0.12030801624E+04  0.50400001928E-02 0. -1.
</event>
<event>
 5   0  0.3335747E-04  0.1302712E+04  0.7818609E-02  0.9027417E-01
        1   -1    0    0  501    0  0.00000000000E+00  0.00000000000E+00  0.36953796490E+03  0.36953796493E+03  0.50400001928E-02 0.  1.
       -1   -1    0    0    0  501  0.00000000000E+00  0.00000000000E+00 -0.11480946344E+04  0.11480946345E+04  0.50400001928E-02 0. -1.
    10030    2    1    2    0    0  0.00000000000E+00  0.00000000000E+00 -0.77855666955E+03  0.15176325994E+04  0.13027118711E+04 0.  0.
        3    1    3    3  502    0 -0.14298485398E+03  0.55390255394E+03 -0.26425400108E+02  0.57267007928E+03  0.10100000352E+00 0.  1.
       -3    1    3    3    0  502  0.14298485398E+03 -0.55390255394E+03 -0.75213126945E+03  0.94496252011E+03  0.10100000352E+00 0. -1.
</event>
<event>
 5   0  0.6007125E-04  0.1300462E+04  0.7818609E-02  0.9029199E-01
        2   -1    0    0  501    0  0.00000000000E+00  0.00000000000E+00  0.15369190889E+04  0.15369190889E+04  0.25500000920E-02 0.  1.
       -2   -1    0    0    0  501  0.00000000000E+00  0.00000000000E+00 -0.27509594757E+03  0.27509594758E+03  0.25500000920E-02 0. -1.
    10030    2    1    2    0    0  0.00000000000E+00  0.00000000000E+00  0.12618231413E+04  0.18120150365E+04  0.13004617843E+04 0.  0.
        5    1    3    3  502    0  0.51482992796E+03 -0.38437734701E+03  0.77012464445E+03  0.10029505759E+04  0.46999998093E+01 0. -1.
       -5    1    3    3    0  502 -0.51482992796E+03  0.38437734701E+03  0.49169849687E+03  0.80906446063E+03  0.46999998093E+01 0.  1.
</event>
<event>
 5   0  0.5384960E-04  0.1313297E+04  0.7818609E-02  0.9019086E-01
       -2   -1    0    0    0  501  0.00000000000E+00  0.00000000000E+00  0.49610135971E+03  0.49610135971E+03  0.25500000920E-02 0.  1.
        2   -1    0    0  501    0  0.00000000000E+00  0.00000000000E+00 -0.86915211424E+03  0.86915211424E+03  0.25500000920E-02 0. -1.
    10030    2    1    2    0    0  0.00000000000E+00  0.00000000000E+00 -0.37305075453E+03  0.13652534740E+04  0.13132974464E+04 0.  0.
        3    1    3    3  502    0 -0.36750872067E+03 -0.26217234001E+03  0.30919456089E+03  0.54717299121E+03  0.10100000352E+00 0.  1.
       -3    1    3    3    0  502  0.36750872067E+03  0.26217234001E+03 -0.68224531542E+03  0.81808048274E+03  0.10100000352E+00 0. -1.
</event>
<event>
 5   0  0.5384960E-04  0.1304532E+04  0.7818609E-02  0.9025979E-01
        2   -1    0    0  501    0  0.00000000000E+00  0.00000000000E+00  0.72862629519E+03  0.72862629519E+03  0.25500000920E-02 0.  1.
       -2   -1    0    0    0  501  0.00000000000E+00  0.00000000000E+00 -0.58390837535E+03  0.58390837535E+03  0.25500000920E-02 0. -1.
    10030    2    1    2    0    0  0.00000000000E+00  0.00000000000E+00  0.14471791984E+03  0.13125346705E+04  0.13045320943E+04 0.  0.
        3    1    3    3  502    0  0.49283726635E+03  0.31337440278E+03 -0.21986879834E+03  0.62404678198E+03  0.10100000352E+00 0. -1.
       -3    1    3    3    0  502 -0.49283726635E+03 -0.31337440278E+03  0.36458671818E+03  0.68848788856E+03  0.10100000352E+00 0.  1.
</event>
<event>
 5   0  0.3274879E-04  0.1310787E+04  0.7818609E-02  0.9021055E-01
       -1   -1    0    0    0  501  0.00000000000E+00  0.00000000000E+00  0.36848706716E+03  0.36848706719E+03  0.50400001928E-02 0. -1.
        1   -1    0    0  501    0  0.00000000000E+00  0.00000000000E+00 -0.11656870177E+04  0.11656870178E+04  0.50400001928E-02 0.  1.
    10030    2    1    2    0    0  0.00000000000E+00  0.00000000000E+00 -0.79719995058E+03  0.15341740849E+04  0.13107869246E+04 0.  0.
        4    1    3    3  502    0  0.45329099470E+02 -0.53634117667E+03  0.39054028993E+02  0.53966972783E+03  0.12699999809E+01 0. -1.
       -4    1    3    3    0  502 -0.45329099470E+02  0.53634117667E+03 -0.83625397958E+03  0.99450435711E+03  0.12699999809E+01 0.  1.
</event>
<event>
 5   0  0.3274879E-04  0.1300572E+04  0.7818609E-02  0.9029111E-01
       -1   -1    0    0    0  501  0.00000000000E+00  0.00000000000E+00  0.32057489439E+03  0.32057489443E+03  0.50400001928E-02 0.  1.
        1   -1    0    0  501    0  0.00000000000E+00  0.00000000000E+00 -0.13191053177E+04  0.13191053177E+04  0.50400001928E-02 0. -1.
    10030    2    1    2    0    0  0.00000000000E+00  0.00000000000E+00 -0.99853042328E+03  0.16396802121E+04  0.13005722555E+04 0.  0.
        4    1    3    3  502    0  0.31156447619E+03  0.92371549783E+02 -0.12093923351E+04  0.12522924415E+04  0.12699999809E+01 0. -1.
       -4    1    3    3    0  502 -0.31156447619E+03 -0.92371549783E+02  0.21086191182E+03  0.38738777057E+03  0.12699999809E+01 0.  1.
</event>
<event>
 5   0  0.3403833E-04  0.1298898E+04  0.7818609E-02  0.9030439E-01
        1   -1    0    0  501    0  0.00000000000E+00  0.00000000000E+00  0.10657025020E+04  0.10657025020E+04  0.50400001928E-02 0. -1.
       -1   -1    0    0    0  501  0.00000000000E+00  0.00000000000E+00 -0.39578052355E+03  0.39578052358E+03  0.50400001928E-02 0.  1.
    10030    2    1    2    0    0  0.00000000000E+00  0.00000000000E+00  0.66992197848E+03  0.14614830256E+04  0.12988984475E+04 0.  0.
        1    1    3    3  502    0  0.30560528707E+03 -0.20823558315E+03  0.93566712766E+03  0.10060962297E+04  0.50400001928E-02 0. -1.
       -1    1    3    3    0  502 -0.30560528707E+03  0.20823558315E+03 -0.26574514918E+03  0.45538679594E+03  0.50400001928E-02 0.  1.
</event>
<event>
 5   0  0.3337520E-04  0.1292136E+04  0.7818609E-02  0.9035825E-01
        1   -1    0    0  501    0  0.00000000000E+00  0.00000000000E+00  0.13515538543E+04  0.13515538543E+04  0.50400001928E-02 0. -1.
       -1   -1    0    0    0  501  0.00000000000E+00  0.00000000000E+00 -0.30883252945E+03  0.30883252949E+03  0.50400001928E-02 0.  1.
    10030    2    1    2    0    0  0.00000000000E+00  0.00000000000E+00  0.10427213249E+04  0.16603863838E+04  0.12921358993E+04 0.  0.
        5    1    3    3  502    0  0.17934054910E+03 -0.91563201363E+02 -0.26745677489E+03  0.33481647036E+03  0.46999998093E+01 0.  1.
       -5    1    3    3    0  502 -0.17934054910E+03  0.91563201363E+02  0.13101780997E+04  0.13255699135E+04  0.46999998093E+01 0. -1.
</event>
<event>
 5   0  0.3335747E-04  0.1300841E+04  0.7818609E-02  0.9028899E-01
        1   -1    0    0  501    0  0.00000000000E+00  0.00000000000E+00  0.13398499142E+04  0.13398499142E+04  0.50400001928E-02 0. -1.
       -1   -1    0    0    0  501  0.00000000000E+00  0.00000000000E+00 -0.31574185873E+03  0.31574185877E+03  0.50400001928E-02 0.  1.
    10030    2    1    2    0    0  0.00000000000E+00  0.00000000000E+00  0.10241080554E+04  0.16555917730E+04  0.13008408087E+04 0.  0.
        3    1    3    3  502    0  0.61791491325E+03 -0.16574081969E+03  0.36277317022E+03  0.73545444629E+03  0.10100000352E+00 0. -1.
       -3    1    3    3    0  502 -0.61791491325E+03  0.16574081969E+03  0.66133488523E+03  0.92013732668E+03  0.10100000352E+00 0.  1.
</event>
<event>
 5   0  0.3263679E-04  0.1297761E+04  0.7818609E-02  0.9031342E-01
        1   -1    0    0  501    0  0.00000000000E+00  0.00000000000E+00  0.64947124227E+03  0.64947124229E+03  0.50400001928E-02 0.  1.
       -1   -1    0    0    0  501  0.00000000000E+00  0.00000000000E+00 -0.64829074998E+03  0.64829075000E+03  0.50400001928E-02 0. -1.
    10030    2    1    2    0    0  0.00000000000E+00  0.00000000000E+00  0.11804922846E+01  0.12977619923E+04  0.12977614554E+04 0.  0.
        2    1    3    3  502    0  0.45894706954E+03 -0.41101464306E+03 -0.20307807155E+03  0.64869573191E+03  0.25500000920E-02 0.  1.
       -2    1    3    3    0  502 -0.45894706954E+03  0.41101464306E+03  0.20425856384E+03  0.64906626038E+03  0.25500000920E-02 0. -1.
</event>
<event>
 5   0  0.3263679E-04  0.1296433E+04  0.7818609E-02  0.9032399E-01
       -1   -1    0    0    0  501  0.00000000000E+00  0.00000000000E+00  0.47201938333E+03  0.47201938335E+03  0.50400001928E-02 0. -1.
        1   -1    0    0  501    0  0.00000000000E+00  0.00000000000E+00 -0.89018520004E+03  0.89018520005E+03  0.50400001928E-02 0.  1.
    10030    2    1    2    0    0  0.00000000000E+00  0.00000000000E+00 -0.41816581671E+03  0.13622045834E+04  0.12964330591E+04 0.  0.
        2    1    3    3  502    0 -0.10885324011E+03  0.58428255938E+03 -0.48095586693E+03  0.76456110483E+03  0.25500000920E-02 0. -1.
       -2    1    3    3    0  502  0.10885324011E+03 -0.58428255938E+03  0.62790050222E+02  0.59764347858E+03  0.25500000920E-02 0.  1.
</event>
<event>
 5   0  0.6052864E-04  0.1302544E+04  0.7818609E-02  0.9027550E-01
       -2   -1    0    0    0  501  0.00000000000E+00  0.00000000000E+00  0.30284924441E+03  0.30284924442E+03  0.25500000920E-02 0.  1.
        2   -1    0    0  501    0  0.00000000000E+00  0.00000000000E+00 -0.14005482848E+04  0.14005482848E+04  0.25500000920E-02 0. -1.
    10030    2    1    2    0    0  0.00000000000E+00  0.00000000000E+00 -0.10976990404E+04  0.17033975293E+04  0.13025436497E+04 0.  0.
        2    1    3    3  502    0  0.56642496905E+03 -0.22809051622E+03 -0.84502595028E+03  0.10425600155E+04  0.25500000920E-02 0. -1.
       -2    1    3    3    0  502 -0.56642496905E+03  0.22809051622E+03 -0.25267309015E+03  0.66083751381E+03  0.25500000920E-02 0.  1.
</event>
<event>
 5   0  0.3335747E-04  0.1309584E+04  0.7818609E-02  0.9021999E-01
       -1   -1    0    0    0  501  0.00000000000E+00  0.00000000000E+00  0.62604049477E+03  0.62604049479E+03  0.50400001928E-02 0.  1.
        1   -1    0    0  501    0  0.00000000000E+00  0.00000000000E+00 -0.68486446165E+03  0.68486446167E+03  0.50400001928E-02 0. -1.
    10030    2    1    2    0    0  0.00000000000E+00  0.00000000000E+00 -0.58823966882E+02  0.13109049565E+04  0.13095844936E+04 0.  0.
        3    1    3    3  502    0 -0.43215039651E+03 -0.29479008451E+03 -0.42363355433E+03  0.67314230122E+03  0.10100000352E+00 0. -1.
       -3    1    3    3    0  502  0.43215039651E+03  0.29479008451E+03  0.36480958745E+03  0.63776265525E+03  0.10100000352E+00 0.  1.
</event>
<event>
 5   0  0.3403833E-04  0.1307904E+04  0.7818609E-02  0.9023321E-01
       -1   -1    0    0    0  501  0.00000000000E+00  0.00000000000E+00  0.48392219802E+03  0.48392219805E+03  0.50400001928E-02 0.  1.
        1   -1    0    0  501    0  0.00000000000E+00  0.00000000000E+00 -0.88372283306E+03  0.88372283308E+03  0.50400001928E-02 0. -1.
    10030    2    1    2    0    0  0.00000000000E+00  0.00000000000E+00 -0.39980063504E+03  0.13676450311E+04  0.13079038127E+04 0.  0.
        1    1    3    3  502    0  0.41410769834E+03  0.43859800725E+03  0.64223093752E+02  0.60661190524E+03  0.50400001928E-02 0.  1.
       -1    1    3    3    0  502 -0.41410769834E+03 -0.43859800725E+03 -0.46402372879E+03  0.76103312588E+03  0.50400001928E-02 0. -1.
</event>
<event>
 5   0  0.6052864E-04  0.1298652E+04  0.7818609E-02  0.9030635E-01
        2   -1    0    0  501    0  0.00000000000E+00  0.00000000000E+00  0.16081018431E+04  0.16081018431E+04  0.25500000920E-02 0.  1.
       -2   -1    0    0    0  501  0.00000000000E+00  0.00000000000E+00 -0.26218747109E+03  0.26218747110E+03  0.25500000920E-02 0. -1.
    10030    2    1    2    0    0  0.00000000000E+00  0.00000000000E+00  0.13459143720E+04  0.18702893142E+04  0.12986518479E+04 0.  0.
        2    1    3    3  502    0  0.28082943815E+03  0.50160436644E+03  0.11077669172E+04  0.12480463359E+04  0.25500000920E-02 0.  1.
       -2    1    3    3    0  502 -0.28082943815E+03 -0.50160436644E+03  0.23814745478E+03  0.62224297825E+03  0.25500000920E-02 0. -1.
</event>
<event>
 5   0  0.3263679E-04  0.1295127E+04  0.7818609E-02  0.9033438E-01
        1   -1    0    0  501    0  0.00000000000E+00  0.00000000000E+00  0.89238272897E+03  0.89238272899E+03  0.50400001928E-02 0. -1.
       -1   -1    0    0    0  501  0.00000000000E+00  0.00000000000E+00 -0.46990909625E+03  0.46990909628E+03  0.50400001928E-02 0.  1.
    10030    2    1    2    0    0  0.00000000000E+00  0.00000000000E+00  0.42247363272E+03  0.13622918253E+04  0.12951274249E+04 0.  0.
        2    1    3    3  502    0 -0.28044421491E+03  0.33811835836E+02 -0.40168816223E+03  0.49106575691E+03  0.25500000920E-02 0.  1.
       -2    1    3    3    0  502  0.28044421491E+03 -0.33811835836E+02  0.82416179496E+03  0.87122606836E+03  0.25500000920E-02 0. -1.
</event>
<event>
 5   0  0.3335747E-04  0.1299533E+04  0.7818609E-02  0.9029936E-01
       -1   -1    0    0    0  501  0.00000000000E+00  0.00000000000E+00  0.55518527755E+03  0.55518527757E+03  0.50400001928E-02 0.  1.
        1   -1    0    0  501    0  0.00000000000E+00  0.00000000000E+00 -0.76046053867E+03  0.76046053869E+03  0.50400001928E-02 0. -1.
    10030    2    1    2    0    0  0.00000000000E+00  0.00000000000E+00 -0.20527526112E+03  0.13156458163E+04  0.12995329857E+04 0.  0.
        3    1    3    3  502    0  0.10600715543E+03 -0.54778683064E+03 -0.43976580273E+03  0.71042374698E+03  0.10100000352E+00 0.  1.
       -3    1    3    3    0  502 -0.10600715543E+03  0.54778683064E+03  0.23449054161E+03  0.60522206927E+03  0.10100000352E+00 0. -1.
</event>
<event>
 5   0  0.5957913E-04  0.1307740E+04  0.7818609E-02  0.9023450E-01
       -2   -1    0    0    0  501  0.00000000000E+00  0.00000000000E+00  0.25912056534E+03  0.25912056535E+03  0.25500000920E-02 0. -1.
        2   -1    0    0  501    0  0.00000000000E+00  0.00000000000E+00 -0.16499882915E+04  0.16499882915E+04  0.25500000920E-02 0.  1.
    10030    2    1    2    0    0  0.00000000000E+00  0.00000000000E+00 -0.13908677261E+04  0.19091088568E+04  0.13077398807E+04 0.  0.
        1    1    3    3  502    0 -0.65628719057E+02 -0.64847968115E+03 -0.77147070574E+03  0.10099505312E+04  0.50400001928E-02 0. -1.
       -1    1    3    3    0  502  0.65628719057E+02  0.64847968115E+03 -0.61939702038E+03  0.89915832561E+03  0.50400001928E-02 0.  1.
</event>
<event>
 5   0  0.6052864E-04  0.1306282E+04  0.7818609E-02  0.9024599E-01
       -2   -1    0    0    0  501  0.00000000000E+00  0.00000000000E+00  0.22863966477E+03  0.22863966478E+03  0.25500000920E-02 0.  1.
        2   -1    0    0  501    0  0.00000000000E+00  0.00000000000E+00 -0.18657871723E+04  0.18657871723E+04  0.25500000920E-02 0. -1.
    10030    2    1    2    0    0  0.00000000000E+00  0.00000000000E+00 -0.16371475075E+04  0.20944268371E+04  0.13062816750E+04 0.  0.
        2    1    3    3  502    0  0.19261646508E+02 -0.20776181956E+02  0.22765400282E+03  0.22941012569E+03  0.25500000920E-02 0.  1.
       -2    1    3    3    0  502 -0.19261646508E+02  0.20776181956E+02 -0.18648015103E+04  0.18650167114E+04  0.25500000920E-02 0. -1.
</event>
<event>
 5   0  0.5787604E-04  0.1303056E+04  0.7818609E-02  0.9027145E-01
        2   -1    0    0  501    0  0.00000000000E+00  0.00000000000E+00  0.62063298789E+03  0.62063298790E+03  0.25500000920E-02 0.  1.
       -2   -1    0    0    0  501  0.00000000000E+00  0.00000000000E+00 -0.68396135913E+03  0.68396135914E+03  0.25500000920E-02 0. -1.
    10030    2    1    2    0    0  0.00000000000E+00  0.00000000000E+00 -0.63328371241E+02  0.13045943470E+04  0.13030563793E+04 0.  0.
        4    1    3    3  502    0 -0.11461658452E+03 -0.13706180522E+01  0.61045738587E+03  0.62112693784E+03  0.12699999809E+01 0.  1.
       -4    1    3    3    0  502  0.11461658452E+03  0.13706180522E+01 -0.67378575711E+03  0.68346740919E+03  0.12699999809E+01 0. -1.
</event>
<event>
 5   0  0.6007125E-04  0.1309519E+04  0.7818609E-02  0.9022051E-01
        2   -1    0    0  501    0  0.00000000000E+00  0.00000000000E+00  0.10573219953E+04  0.10573219953E+04  0.25500000920E-02 0.  1.
       -2   -1    0    0    0  501  0.00000000000E+00  0.00000000000E+00 -0.40546748777E+03  0.40546748778E+03  0.25500000920E-02 0. -1.
    10030    2    1    2    0    0  0.00000000000E+00  0.00000000000E+00  0.65185450750E+03  0.14627894831E+04  0.13095185271E+04 0.  0.
        5    1    3    3  502    0 -0.11362466528E+03  0.60478021898E+03  0.57575059881E+03  0.84272208934E+03  0.46999998093E+01 0.  1.
       -5    1    3    3    0  502  0.11362466528E+03 -0.60478021898E+03  0.76103908685E+02  0.62006739371E+03  0.46999998093E+01 0. -1.
</event>
<event>
 5   0  0.5787604E-04  0.1285807E+04  0.7818609E-02  0.9040897E-01
       -2   -1    0    0    0  501  0.00000000000E+00  0.00000000000E+00  0.68574411354E+03  0.68574411354E+03  0.25500000920E-02 0. -1.
        2   -1    0    0  501    0  0.00000000000E+00  0.00000000000E+00 -0.60273927767E+03  0.60273927768E+03  0.25500000920E-02 0.  1.
    10030    2    1    2    0    0  0.00000000000E+00  0.00000000000E+00  0.83004835868E+02  0.12884833912E+04  0.12858070021E+04 0.  0.
        4    1    3    3  502    0 -0.24725280653E+03 -0.40032499932E+03  0.48051161023E+03  0.67252291848E+03  0.12699999809E+01 0. -1.
       -4    1    3    3    0  502  0.24725280653E+03  0.40032499932E+03 -0.39750677436E+03  0.61596047274E+03  0.12699999809E+01 0.  1.
</event>
<event>
 5   0  0.5957913E-04  0.1299956E+04  0.7818609E-02  0.9029600E-01
        2   -1    0    0  501    0  0.00000000000E+00  0.00000000000E+00  0.13594035741E+04  0.13594035741E+04  0.25500000920E-02 0.  1.
       -2   -1    0    0    0  501  0.00000000000E+00  0.00000000000E+00 -0.31077711092E+03  0.31077711093E+03  0.25500000920E-02 0. -1.
    10030    2    1    2    0    0  0.00000000000E+00  0.00000000000E+00  0.10486264632E+04  0.16701806850E+04  0.12999561767E+04 0.  0.
        1    1    3    3  502    0 -0.41749271417E+03  0.31894584158E+03  0.10159811480E+04  0.11437850801E+04  0.50400001928E-02 0.  1.
       -1    1    3    3    0  502  0.41749271417E+03 -0.31894584158E+03  0.32645315119E+02  0.52639560491E+03  0.50400001928E-02 0. -1.
</event>
<event>
 5   0  0.3263679E-04  0.1299459E+04  0.7818609E-02  0.9029994E-01
        1   -1    0    0  501    0  0.00000000000E+00  0.00000000000E+00  0.17569219918E+04  0.17569219919E+04  0.50400001928E-02 0. -1.
       -1   -1    0    0    0  501  0.00000000000E+00  0.00000000000E+00 -0.24027744464E+03  0.24027744469E+03  0.50400001928E-02 0.  1.
    10030    2    1    2    0    0  0.00000000000E+00  0.00000000000E+00  0.15166445472E+04  0.19971994365E+04  0.12994594671E+04 0.  0.
        2    1    3    3  502    0  0.37453773933E+03 -0.40136756998E+03  0.22419355428E+03  0.59299004562E+03  0.25500000920E-02 0.  1.
       -2    1    3    3    0  502 -0.37453773933E+03  0.40136756998E+03  0.12924509929E+04  0.14042093909E+04  0.25500000920E-02 0. -1.
</event>
<event>
 5   0  0.6052864E-04  0.1298659E+04  0.7818609E-02  0.9030630E-01
        2   -1    0    0  501    0  0.00000000000E+00  0.00000000000E+00  0.45329051947E+03  0.45329051948E+03  0.25500000920E-02 0. -1.
       -2   -1    0    0    0  501  0.00000000000E+00  0.00000000000E+00 -0.93015069676E+03  0.93015069676E+03  0.25500000920E-02 0.  1.
    10030    2    1    2    0    0  0.00000000000E+00  0.00000000000E+00 -0.47686017728E+03  0.13834412162E+04  0.12986585271E+04 0.  0.
        2    1    3    3  502    0 -0.27075252108E+03  0.32118445910E+03  0.28903341148E+03  0.50990851865E+03  0.25500000920E-02 0. -1.
       -2    1    3    3    0  502  0.27075252108E+03 -0.32118445910E+03 -0.76589358877E+03  0.87353269759E+03  0.25500000920E-02 0.  1.
</event>
<event>
 5   0  0.5384960E-04  0.1294444E+04  0.7818609E-02  0.9033983E-01
        2   -1    0    0  501    0  0.00000000000E+00  0.00000000000E+00  0.52862602345E+03  0.52862602346E+03  0.25500000920E-02 0.  1.
       -2   -1    0    0    0  501  0.00000000000E+00  0.00000000000E+00 -0.79242462746E+03  0.79242462747E+03  0.25500000920E-02 0. -1.
    10030    2    1    2    0    0  0.00000000000E+00  0.00000000000E+00 -0.26379860401E+03  0.13210506509E+04  0.12944439419E+04 0.  0.
        3    1    3    3  502    0  0.14573566148E+03 -0.56970219910E+03 -0.40782069715E+03  0.71562365103E+03  0.10100000352E+00 0. -1.
       -3    1    3    3    0  502 -0.14573566148E+03  0.56970219910E+03  0.14402209314E+03  0.60542699989E+03  0.10100000352E+00 0.  1.
</event>
<event>
 5   0  0.6007125E-04  0.1292672E+04  0.7818609E-02  0.9035397E-01
       -2   -1    0    0    0  501  0.00000000000E+00  0.00000000000E+00  0.34617133315E+03  0.34617133316E+03  0.25500000920E-02 0.  1.
        2   -1    0    0  501    0  0.00000000000E+00  0.00000000000E+00 -0.12067724845E+04  0.12067724845E+04  0.25500000920E-02 0. -1.
    10030    2    1    2    0    0  0.00000000000E+00  0.00000000000E+00 -0.86060115133E+03  0.15529438176E+04  0.12926717136E+04 0.  0.
        5    1    3    3  502    0 -0.19742837859E+02  0.34600860432E+03  0.22508336251E+03  0.41327514320E+03  0.46999998093E+01 0.  1.
       -5    1    3    3    0  502  0.19742837859E+02 -0.34600860432E+03 -0.10856845138E+04  0.11396686744E+04  0.46999998093E+01 0. -1.
</event>
<event>
 5   0  0.5957913E-04  0.1301227E+04  0.7818609E-02  0.9028592E-01
       -2   -1    0    0    0  501  0.00000000000E+00  0.00000000000E+00  0.51320036147E+03  0.51320036147E+03  0.25500000920E-02 0.  1.
        2   -1    0    0  501    0  0.00000000000E+00  0.00000000000E+00 -0.82482061269E+03  0.82482061269E+03  0.25500000920E-02 0. -1.
    10030    2    1    2    0    0  0.00000000000E+00  0.00000000000E+00 -0.31162025122E+03  0.13380209742E+04  0.13012274768E+04 0.  0.
        1    1    3    3  502    0  0.49407447679E+03  0.14159102110E+03  0.25439419784E+03  0.57347538203E+03  0.50400001928E-02 0.  1.
       -1    1    3    3    0  502 -0.49407447679E+03 -0.14159102110E+03 -0.56601444906E+03  0.76454559213E+03  0.50400001928E-02 0. -1.
</event>
<event>
 5   0  0.3403833E-04  0.1300274E+04  0.7818609E-02  0.9029348E-01
        1   -1    0    0  501    0  0.00000000000E+00  0.00000000000E+00  0.49480242922E+03  0.49480242924E+03  0.50400001928E-02 0. -1.
       -1   -1    0    0    0  501  0.00000000000E+00  0.00000000000E+00 -0.85423626803E+03  0.85423626804E+03  0.50400001928E-02 0.  1.
    10030    2    1    2    0    0  0.00000000000E+00  0.00000000000E+00 -0.35943383881E+03  0.13490386973E+04  0.13002740951E+04 0.  0.
        1    1    3    3  502    0  0.40087294936E+03  0.76711671379E+02 -0.70475344822E+03  0.81440851227E+03  0.50400001928E-02 0.  1.
       -1    1    3    3    0  502 -0.40087294936E+03 -0.76711671379E+02  0.34531960942E+03  0.53463018501E+03  0.50400001928E-02 0. -1.
</event>
<event>
 5   0  0.6052864E-04  0.1299638E+04  0.7818609E-02  0.9029852E-01
       -2   -1    0    0    0  501  0.00000000000E+00  0.00000000000E+00  0.65909898627E+03  0.65909898627E+03  0.25500000920E-02 0. -1.
        2   -1    0    0  501    0  0.00000000000E+00  0.00000000000E+00 -0.64066979791E+03  0.64066979792E+03  0.25500000920E-02 0.  1.
    10030    2    1    2    0    0  0.00000000000E+00  0.00000000000E+00  0.18429188357E+02  0.12997687842E+04  0.12996381255E+04 0.  0.
        2    1    3    3  502    0 -0.34294397887E+03  0.11048112928E+03 -0.53162453816E+03  0.64221593109E+03  0.25500000920E-02 0.  1.
       -2    1    3    3    0  502  0.34294397887E+03 -0.11048112928E+03  0.55005372651E+03  0.65755285310E+03  0.25500000920E-02 0. -1.
</event>
<event>
 5   0  0.3335747E-04  0.1309000E+04  0.7818609E-02  0.9022459E-01
        1   -1    0    0  501    0  0.00000000000E+00  0.00000000000E+00  0.11944642297E+04  0.11944642297E+04  0.50400001928E-02 0.  1.
       -1   -1    0    0    0  501  0.00000000000E+00  0.00000000000E+00 -0.35862936871E+03  0.35862936875E+03  0.50400001928E-02 0. -1.
    10030    2    1    2    0    0  0.00000000000E+00  0.00000000000E+00  0.83583486100E+03  0.15530935985E+04  0.13089995457E+04 0.  0.
        3    1    3    3  502    0  0.28595703664E+03  0.26202383971E+03 -0.20759398652E+03  0.43991271046E+03  0.10100000352E+00 0. -1.
       -3    1    3    3    0  502 -0.28595703664E+03 -0.26202383971E+03  0.10434288475E+04  0.11131808880E+04  0.10100000352E+00 0.  1.
</event>
<event>
 5   0  0.6007125E-04  0.1275717E+04  0.7818609E-02  0.9049047E-01
        2   -1    0    0  501    0  0.00000000000E+00  0.00000000000E+00  0.16196425693E+04  0.16196425693E+04  0.25500000920E-02 0. -1.
       -2   -1    0    0    0  501  0.00000000000E+00  0.00000000000E+00 -0.25120553053E+03  0.25120553055E+03  0.25500000920E-02 0.  1.
    10030    2    1    2    0    0  0.00000000000E+00  0.00000000000E+00  0.13684370388E+04  0.18708480999E+04  0.12757165373E+04 0.  0.
        5    1    3    3  502    0  0.29487369711E+03  0.23458319861E+03 -0.70514933872E+02  0.38337216933E+03  0.46999998093E+01 0.  1.
       -5    1    3    3    0  502 -0.29487369711E+03 -0.23458319861E+03  0.14389519727E+04  0.14874759305E+04  0.46999998093E+01 0. -1.
</event>
<event>
 5   0  0.3263679E-04  0.1289262E+04  0.7818609E-02  0.9038124E-01
        1   -1    0    0  501    0  0.00000000000E+00  0.00000000000E+00  0.75214077262E+03  0.75214077264E+03  0.50400001928E-02 0.  1.
       -1   -1    0    0    0  501  0.00000000000E+00  0.00000000000E+00 -0.55248838781E+03  0.55248838784E+03  0.50400001928E-02 0. -1.
    10030    2    1    2    0    0  0.00000000000E+00  0.00000000000E+00  0.19965238481E+03  0.13046291605E+04  0.12892618708E+04 0.  0.
        2    1    3    3  502    0 -0.49474306182E+03 -0.13112577881E+03  0.49639583061E+03  0.71300314708E+03  0.25500000920E-02 0.  1.
       -2    1    3    3    0  502  0.49474306182E+03  0.13112577881E+03 -0.29674344580E+03  0.59162601339E+03  0.25500000920E-02 0. -1.
</event>
<event>
 5   0  0.5787604E-04  0.1301044E+04  0.7818609E-02  0.9028738E-01
       -2   -1    0    0    0  501  0.00000000000E+00  0.00000000000E+00  0.76756539673E+03  0.76756539673E+03  0.25500000920E-02 0. -1.
        2   -1    0    0  501    0  0.00000000000E+00  0.00000000000E+00 -0.55132589050E+03  0.55132589050E+03  0.25500000920E-02 0.  1.
    10030    2    1    2    0    0  0.00000000000E+00  0.00000000000E+00  0.21623950623E+03  0.13188912872E+04  0.13010436978E+04 0.  0.
        4    1    3    3  502    0 -0.42011887715E+02  0.50357882628E+02 -0.54796497919E+03  0.55187693046E+03  0.12699999809E+01 0.  1.
       -4    1    3    3    0  502  0.42011887715E+02 -0.50357882628E+02  0.76420448542E+03  0.76701435677E+03  0.12699999809E+01 0. -1.
</event>
<event>
 5   0  0.3403833E-04  0.1299907E+04  0.7818609E-02  0.9029639E-01
        1   -1    0    0  501    0  0.00000000000E+00  0.00000000000E+00  0.21459937397E+04  0.21459937397E+04  0.50400001928E-02 0.  1.
       -1   -1    0    0    0  501  0.00000000000E+00  0.00000000000E+00 -0.19685018002E+03  0.19685018008E+03  0.50400001928E-02 0. -1.
    10030    2    1    2    0    0  0.00000000000E+00  0.00000000000E+00  0.19491435596E+04  0.23428439197E+04  0.12999065413E+04 0.  0.
        1    1    3    3  502    0 -0.43461660395E+03  0.30127288355E+03  0.29353834861E+03  0.60483196421E+03  0.50400001928E-02 0. -1.
       -1    1    3    3    0  502  0.43461660395E+03 -0.30127288355E+03  0.16556052110E+04  0.17380119555E+04  0.50400001928E-02 0.  1.
</event>
<event>
 5   0  0.5957913E-04  0.1301911E+04  0.7818609E-02  0.9028051E-01
       -2   -1    0    0    0  501  0.00000000000E+00  0.00000000000E+00  0.52462461393E+03  0.52462461393E+03  0.25500000920E-02 0.  1.
        2   -1    0    0  501    0  0.00000000000E+00  0.00000000000E+00 -0.80770709596E+03  0.80770709597E+03  0.25500000920E-02 0. -1.
    10030    2    1    2    0    0  0.00000000000E+00  0.00000000000E+00 -0.28308248204E+03  0.13323317099E+04  0.13019109392E+04 0.  0.
        1    1    3    3  502    0 -0.46083816863E+02  0.54795031761E+03 -0.49806323366E+03  0.74191660818E+03  0.50400001928E-02 0. -1.
       -1    1    3    3    0  502  0.46083816863E+02 -0.54795031761E+03  0.21498075162E+03  0.59041510172E+03  0.50400001928E-02 0.  1.
</event>
<event>
 5   0  0.3274879E-04  0.1304818E+04  0.7818609E-02  0.9025753E-01
        1   -1    0    0  501    0  0.00000000000E+00  0.00000000000E+00  0.16357939668E+04  0.16357939668E+04  0.50400001928E-02 0.  1.
       -1   -1    0    0    0  501  0.00000000000E+00  0.00000000000E+00 -0.26020255423E+03  0.26020255428E+03  0.50400001928E-02 0. -1.
    10030    2    1    2    0    0  0.00000000000E+00  0.00000000000E+00  0.13755914125E+04  0.18959965211E+04  0.13048184064E+04 0.  0.
        4    1    3    3  502    0  0.11841590541E+03  0.63481422202E+02  0.16154710037E+04  0.16210491647E+04  0.12699999809E+01 0.  1.
       -4    1    3    3    0  502 -0.11841590541E+03 -0.63481422202E+02 -0.23987959117E+03  0.27494735638E+03  0.12699999809E+01 0. -1.
</event>
<event>
 5   0  0.2255875E-04  0.1293277E+04  0.7818609E-02  0.9034913E-01
        3   -1    0    0  501    0  0.00000000000E+00  0.00000000000E+00  0.61869024897E+03  0.61869025721E+03  0.10100000352E+00 0. -1.
       -3   -1    0    0    0  501  0.00000000000E+00  0.00000000000E+00 -0.67584960706E+03  0.67584961461E+03  0.10100000352E+00 0.  1.
    10030    2    1    2    0    0  0.00000000000E+00  0.00000000000E+00 -0.57159358088E+02  0.12945398718E+04  0.12932773436E+04 0.  0.
        1    1    3    3  502    0  0.29389735700E+03  0.53196769497E+03 -0.24964882330E+03  0.65703106467E+03  0.50400001928E-02 0.  1.
       -1    1    3    3    0  502 -0.29389735700E+03 -0.53196769497E+03  0.19248946521E+03  0.63750880715E+03  0.50400001928E-02 0. -1.
</event>
<event>
 5   0  0.5384960E-04  0.1291144E+04  0.7818609E-02  0.9036617E-01
        2   -1    0    0  501    0  0.00000000000E+00  0.00000000000E+00  0.17895724766E+04  0.17895724766E+04  0.25500000920E-02 0. -1.
       -2   -1    0    0    0  501  0.00000000000E+00  0.00000000000E+00 -0.23288439387E+03  0.23288439388E+03  0.25500000920E-02 0.  1.
    10030    2    1    2    0    0  0.00000000000E+00  0.00000000000E+00  0.15566880827E+04  0.20224568704E+04  0.12911444559E+04 0.  0.
        3    1    3    3  502    0 -0.30479476835E+03  0.21605871421E+03  0.16030272646E+04  0.16459883475E+04  0.10100000352E+00 0. -1.
       -3    1    3    3    0  502  0.30479476835E+03 -0.21605871421E+03 -0.46339181909E+02  0.37646852296E+03  0.10100000352E+00 0.  1.
</event>
<event>
 5   0  0.3335747E-04  0.1321144E+04  0.7818609E-02  0.9012964E-01
        1   -1    0    0  501    0  0.00000000000E+00  0.00000000000E+00  0.54234299430E+03  0.54234299433E+03  0.50400001928E-02 0. -1.
       -1   -1    0    0    0  501  0.00000000000E+00  0.00000000000E+00 -0.80457401935E+03  0.80457401937E+03  0.50400001928E-02 0.  1.
    10030    2    1    2    0    0  0.00000000000E+00  0.00000000000E+00 -0.26223102505E+03  0.13469170137E+04  0.13211435695E+04 0.  0.
        3    1    3    3  502    0 -0.35174241466E+03  0.21157306535E+03  0.39654209161E+03  0.57072894519E+03  0.10100000352E+00 0. -1.
       -3    1    3    3    0  502  0.35174241466E+03 -0.21157306535E+03 -0.65877311666E+03  0.77618806851E+03  0.10100000352E+00 0.  1.
</event>
<event>
 5   0  0.5957913E-04  0.1298248E+04  0.7818609E-02  0.9030956E-01
       -2   -1    0    0    0  501  0.00000000000E+00  0.00000000000E+00  0.12704639711E+04  0.12704639711E+04  0.25500000920E-02 0. -1.
        2   -1    0    0  501    0  0.00000000000E+00  0.00000000000E+00 -0.33165988663E+03  0.33165988664E+03  0.25500000920E-02 0.  1.
    10030    2    1    2    0    0  0.00000000000E+00  0.00000000000E+00  0.93880408445E+03  0.16021238577E+04  0.12982479526E+04 0.  0.
        1    1    3    3  502    0 -0.43681278480E+03  0.43259090631E+03  0.72655500334E+03  0.95174706414E+03  0.50400001928E-02 0. -1.
       -1    1    3    3    0  502  0.43681278480E+03 -0.43259090631E+03  0.21224908111E+03  0.65037679359E+03  0.50400001928E-02 0.  1.
</event>
<event>
 5   0  0.3274879E-04  0.1301022E+04  0.7818609E-02  0.9028755E-01
       -1   -1    0    0    0  501  0.00000000000E+00  0.00000000000E+00  0.57102322487E+03  0.57102322489E+03  0.50400001928E-02 0.  1.
        1   -1    0    0  501    0  0.00000000000E+00  0.00000000000E+00 -0.74106319517E+03  0.74106319519E+03  0.50400001928E-02 0. -1.
    10030    2    1    2    0    0  0.00000000000E+00  0.00000000000E+00 -0.17003997030E+03  0.13120864201E+04  0.13010215918E+04 0.  0.
        4    1    3    3  502    0  0.52595933123E+03 -0.37229347846E+03  0.47710958012E+01  0.64440672596E+03  0.12699999809E+01 0.  1.
       -4    1    3    3    0  502 -0.52595933123E+03  0.37229347846E+03 -0.17481106610E+03  0.66767969412E+03  0.12699999809E+01 0. -1.
</event>
<event>
 5   0  0.5384960E-04  0.1301653E+04  0.7818609E-02  0.9028256E-01
        2   -1    0    0  501    0  0.00000000000E+00  0.00000000000E+00  0.70599123293E+03  0.70599123294E+03  0.25500000920E-02 0. -1.
       -2   -1    0    0    0  501  0.00000000000E+00  0.00000000000E+00 -0.59997204665E+03  0.59997204666E+03  0.25500000920E-02 0.  1.
    10030    2    1    2    0    0  0.00000000000E+00  0.00000000000E+00  0.10601918628E+03  0.13059632796E+04  0.13016528031E+04 0.  0.
        3    1    3    3  502    0  0.34279285111E+03 -0.18553985546E+03  0.57592938705E+03  0.69543270401E+03  0.10100000352E+00 0. -1.
       -3    1    3    3    0  502 -0.34279285111E+03  0.18553985546E+03 -0.46991020077E+03  0.61053057559E+03  0.10100000352E+00 0.  1.
</event>
<event>
 5   0  0.3274879E-04  0.1301942E+04  0.7818609E-02  0.9028026E-01
       -1   -1    0    0    0  501  0.00000000000E+00  0.00000000000E+00  0.48674577856E+03  0.48674577858E+03  0.50400001928E-02 0.  1.
        1   -1    0    0  501    0  0.00000000000E+00  0.00000000000E+00 -0.87060530105E+03  0.87060530106E+03  0.50400001928E-02 0. -1.
    10030    2    1    2    0    0  0.00000000000E+00  0.00000000000E+00 -0.38385952249E+03  0.13573510796E+04  0.13019423261E+04 0.  0.
        4    1    3    3  502    0 -0.19962082525E+03  0.54242516386E+03  0.12029573661E+03  0.59037802247E+03  0.12699999809E+01 0.  1.
       -4    1    3    3    0  502  0.19962082525E+03 -0.54242516386E+03 -0.50415525910E+03  0.76697305718E+03  0.12699999809E+01 0. -1.
</event>
<event>
 5   0  0.3337520E-04  0.1313702E+04  0.7818609E-02  0.9018769E-01
        1   -1    0    0  501    0  0.00000000000E+00  0.00000000000E+00  0.16531538779E+04  0.16531538779E+04  0.50400001928E-02 0.  1.
       -1   -1    0    0    0  501  0.00000000000E+00  0.00000000000E+00 -0.26098796175E+03  0.26098796180E+03  0.50400001928E-02 0. -1.
    10030    2    1    2    0    0  0.00000000000E+00  0.00000000000E+00  0.13921659161E+04  0.19141418397E+04  0.13137020379E+04 0.  0.
        5    1    3    3  502    0 -0.35192089642E+03 -0.42004881053E+03  0.12237353321E+04  0.13408354014E+04  0.46999998093E+01 0.  1.
       -5    1    3    3    0  502  0.35192089642E+03  0.42004881053E+03  0.16843058401E+03  0.57330643830E+03  0.46999998093E+01 0. -1.
</event>
<event>
 5   0  0.3274879E-04  0.1295646E+04  0.7818609E-02  0.9033025E-01
        1   -1    0    0  501    0  0.00000000000E+00  0.00000000000E+00  0.10309285663E+04  0.10309285663E+04  0.50400001928E-02 0. -1.
       -1   -1    0    0    0  501  0.00000000000E+00  0.00000000000E+00 -0.40708400724E+03  0.40708400727E+03  0.50400001928E-02 0.  1.
    10030    2    1    2    0    0  0.00000000000E+00  0.00000000000E+00  0.62384455905E+03  0.14380125736E+04  0.12956458343E+04 0.  0.
        4    1    3    3  502    0 -0.51139172162E+03 -0.23318500071E+03 -0.45618204552E+02  0.56389659600E+03  0.12699999809E+01 0.  1.
       -4    1    3    3    0  502  0.51139172162E+03  0.23318500071E+03  0.66946276360E+03  0.87411597757E+03  0.12699999809E+01 0. -1.
</event>
<event>
 5   0  0.3335747E-04  0.1300405E+04  0.7818609E-02  0.9029244E-01
       -1   -1    0    0    0  501  0.00000000000E+00  0.00000000000E+00  0.10969978065E+04  0.10969978066E+04  0.50400001928E-02 0.  1.
        1   -1    0    0  501    0  0.00000000000E+00  0.00000000000E+00 -0.38538215739E+03  0.38538215742E+03  0.50400001928E-02 0. -1.
    10030    2    1    2    0    0  0.00000000000E+00  0.00000000000E+00  0.71161564915E+03  0.14823799640E+04  0.13004051390E+04 0.  0.
        3    1    3    3  502    0  0.35271015421E+02 -0.63641863486E+03  0.50219388326E+03  0.81146252527E+03  0.10100000352E+00 0. -1.
       -3    1    3    3    0  502 -0.35271015421E+02  0.63641863486E+03  0.20942176589E+03  0.67091743870E+03  0.10100000352E+00 0.  1.
</event>
<event>
 5   0  0.6052864E-04  0.1298694E+04  0.7818609E-02  0.9030602E-01
        2   -1    0    0  501    0  0.00000000000E+00  0.00000000000E+00  0.38989905216E+03  0.38989905216E+03  0.25500000920E-02 0.  1.
       -2   -1    0    0    0  501  0.00000000000E+00  0.00000000000E+00 -0.10814374231E+04  0.10814374231E+04  0.25500000920E-02 0. -1.
    10030    2    1    2    0    0  0.00000000000E+00  0.00000000000E+00 -0.69153837092E+03  0.14713364752E+04  0.12986938457E+04 0.  0.
        2    1    3    3  502    0  0.11957036472E+03 -0.35988257388E+03  0.25140597426E+03  0.45499176147E+03  0.25500000920E-02 0.  1.
       -2    1    3    3    0  502 -0.11957036472E+03  0.35988257388E+03 -0.94294434518E+03  0.10163447138E+04  0.25500000920E-02 0. -1.
</event>
<event>
 5   0  0.5787604E-04  0.1301259E+04  0.7818609E-02  0.9028567E-01
        2   -1    0    0  501    0  0.00000000000E+00  0.00000000000E+00  0.75292187770E+03  0.75292187770E+03  0.25500000920E-02 0. -1.
       -2   -1    0    0    0  501  0.00000000000E+00  0.00000000000E+00 -0.56223465012E+03  0.56223465013E+03  0.25500000920E-02 0.  1.
    10030    2    1    2    0    0  0.00000000000E+00  0.00000000000E+00  0.19068722758E+03  0.13151565278E+04  0.13012590341E+04 0.  0.
        4    1    3    3  502    0  0.29231989581E+03 -0.34476384855E+03  0.56832040718E+03  0.72615613395E+03  0.12699999809E+01 0. -1.
       -4    1    3    3    0  502 -0.29231989581E+03  0.34476384855E+03 -0.37763317960E+03  0.58900039388E+03  0.12699999809E+01 0.  1.
</event>
<event>
 5   0  0.5384960E-04  0.1223946E+04  0.7818609E-02  0.9092151E-01
        2   -1    0    0  501    0  0.00000000000E+00  0.00000000000E+00  0.84314546901E+03  0.84314546901E+03  0.25500000920E-02 0. -1.
       -2   -1    0    0    0  501  0.00000000000E+00  0.00000000000E+00 -0.44418285824E+03  0.44418285825E+03  0.25500000920E-02 0.  1.
    10030    2    1    2    0    0  0.00000000000E+00  0.00000000000E+00  0.39896261077E+03  0.12873283273E+04  0.12239456922E+04 0.  0.
        3    1    3    3  502    0  0.44133581252E+03  0.27574416752E+03 -0.13921748281E+03  0.53869626233E+03  0.10100000352E+00 0.  1.
       -3    1    3    3    0  502 -0.44133581252E+03 -0.27574416752E+03  0.53818009357E+03  0.74863206493E+03  0.10100000352E+00 0. -1.
</event>
<event>
 5   0  0.6007125E-04  0.1300530E+04  0.7818609E-02  0.9029145E-01
        2   -1    0    0  501    0  0.00000000000E+00  0.00000000000E+00  0.21495695801E+04  0.21495695801E+04  0.25500000920E-02 0. -1.
       -2   -1    0    0    0  501  0.00000000000E+00  0.00000000000E+00 -0.19671116262E+03  0.19671116264E+03  0.25500000920E-02 0.  1.
    10030    2    1    2    0    0  0.00000000000E+00  0.00000000000E+00  0.19528584175E+04  0.23462807428E+04  0.13005296325E+04 0.  0.
        5    1    3    3  502    0  0.45155180462E+03  0.61352710979E+02  0.13959478472E+03  0.47662561966E+03  0.46999998093E+01 0.  1.
       -5    1    3    3    0  502 -0.45155180462E+03 -0.61352710979E+02  0.18132636328E+04  0.18696551231E+04  0.46999998093E+01 0. -1.
</event>
<event>
 5   0  0.3263679E-04  0.1300158E+04  0.7818609E-02  0.9029440E-01
        1   -1    0    0  501    0  0.00000000000E+00  0.00000000000E+00  0.15664670292E+04  0.15664670292E+04  0.50400001928E-02 0.  1.
       -1   -1    0    0    0  501  0.00000000000E+00  0.00000000000E+00 -0.26978060918E+03  0.26978060922E+03  0.50400001928E-02 0. -1.
    10030    2    1    2    0    0  0.00000000000E+00  0.00000000000E+00  0.12966864200E+04  0.18362476384E+04  0.13001575742E+04 0.  0.
        2    1    3    3  502    0  0.61391948537E+03 -0.42803644593E+02  0.35251837336E+03  0.70922386456E+03  0.25500000920E-02 0. -1.
       -2    1    3    3    0  502 -0.61391948537E+03  0.42803644593E+02  0.94416804666E+03  0.11270237739E+04  0.25500000920E-02 0.  1.
</event>
<event>
 5   0  0.3274879E-04  0.1300079E+04  0.7818609E-02  0.9029502E-01
       -1   -1    0    0    0  501  0.00000000000E+00  0.00000000000E+00  0.39482972920E+03  0.39482972923E+03  0.50400001928E-02 0.  1.
        1   -1    0    0  501    0  0.00000000000E+00  0.00000000000E+00 -0.10702117740E+04  0.10702117740E+04  0.50400001928E-02 0. -1.
    10030    2    1    2    0    0  0.00000000000E+00  0.00000000000E+00 -0.67538204481E+03  0.14650415032E+04  0.13000791129E+04 0.  0.
        4    1    3    3  502    0  0.39884284312E+03 -0.45144824511E+03 -0.62424520307E+02  0.60562328650E+03  0.12699999809E+01 0.  1.
       -4    1    3    3    0  502 -0.39884284312E+03  0.45144824511E+03 -0.61295752450E+03  0.85941821674E+03  0.12699999809E+01 0. -1.
</event>
<event>
 5   0  0.5384960E-04  0.1297007E+04  0.7818609E-02  0.9031942E-01
        2   -1    0    0  501    0  0.00000000000E+00  0.00000000000E+00  0.13019852917E+04  0.13019852917E+04  0.25500000920E-02 0.  1.
       -2   -1    0    0    0  501  0.00000000000E+00  0.00000000000E+00 -0.32301176171E+03  0.32301176172E+03  0.25500000920E-02 0. -1.
    10030    2    1    2    0    0  0.00000000000E+00  0.00000000000E+00  0.97897353003E+03  0.16249970535E+04  0.12970066504E+04 0.  0.
        3    1    3    3  502    0 -0.29167353897E+03 -0.26226819905E+03  0.11365111582E+04  0.12022960054E+04  0.10100000352E+00 0.  1.
       -3    1    3    3    0  502  0.29167353897E+03  0.26226819905E+03 -0.15753762818E+03  0.42270104810E+03  0.10100000352E+00 0. -1.
</event>
<event>
 5   0  0.5957913E-04  0.1301983E+04  0.7818609E-02  0.9027994E-01
       -2   -1    0    0    0  501  0.00000000000E+00  0.00000000000E+00  0.49370465519E+03  0.49370465520E+03  0.25500000920E-02 0. -1.
        2   -1    0    0  501    0  0.00000000000E+00  0.00000000000E+00 -0.85838698272E+03  0.85838698272E+03  0.25500000920E-02 0.  1.
    10030    2    1    2    0    0  0.00000000000E+00  0.00000000000E+00 -0.36468232753E+03  0.13520916379E+04  0.13019825641E+04 0.  0.
        1    1    3    3  502    0  0.62636931810E+03  0.12992424331E+03 -0.56985800344E+02  0.64223532534E+03  0.50400001928E-02 0.  1.
       -1    1    3    3    0  502 -0.62636931810E+03 -0.12992424331E+03 -0.30769652718E+03  0.70985631258E+03  0.50400001928E-02 0. -1.
</event>
<event>
 5   0  0.2255875E-04  0.1293776E+04  0.7818609E-02  0.9034516E-01
       -3   -1    0    0    0  501  0.00000000000E+00  0.00000000000E+00  0.40482657142E+03  0.40482658402E+03  0.10100000352E+00 0. -1.
        3   -1    0    0  501    0  0.00000000000E+00  0.00000000000E+00 -0.10336866258E+04  0.10336866307E+04  0.10100000352E+00 0.  1.
    10030    2    1    2    0    0  0.00000000000E+00  0.00000000000E+00 -0.62886005438E+03  0.14385132148E+04  0.12937755992E+04 0.  0.
        4    1    3    3  502    0  0.29853828629E+03 -0.89450067913E+02  0.31585131198E+03  0.44372298477E+03  0.12699999809E+01 0. -1.
       -4    1    3    3    0  502 -0.29853828629E+03  0.89450067913E+02 -0.94471136637E+03  0.99479022999E+03  0.12699999809E+01 0.  1.
</event>
<event>
 5   0  0.5384960E-04  0.1318728E+04  0.7818609E-02  0.9014844E-01
       -2   -1    0    0    0  501  0.00000000000E+00  0.00000000000E+00  0.31692264627E+03  0.31692264628E+03  0.25500000920E-02 0.  1.
        2   -1    0    0  501    0  0.00000000000E+00  0.00000000000E+00 -0.13718211255E+04  0.13718211255E+04  0.25500000920E-02 0. -1.
    10030    2    1    2    0    0  0.00000000000E+00  0.00000000000E+00 -0.10548984792E+04  0.16887437717E+04  0.13187284501E+04 0.  0.
        3    1    3    3  502    0  0.16680379498E+03 -0.53009235674E+03 -0.98190311631E+03  0.11282531421E+04  0.10100000352E+00 0. -1.
       -3    1    3    3    0  502 -0.16680379498E+03  0.53009235674E+03 -0.72995362894E+02  0.56049062962E+03  0.10100000352E+00 0.  1.
</event>
<event>
 5   0  0.3335747E-04  0.1302902E+04  0.7818609E-02  0.9027267E-01
        1   -1    0    0  501    0  0.00000000000E+00  0.00000000000E+00  0.89809384248E+03  0.89809384250E+03  0.50400001928E-02 0. -1.
       -1   -1    0    0    0  501  0.00000000000E+00  0.00000000000E+00 -0.47254374724E+03  0.47254374727E+03  0.50400001928E-02 0.  1.
    10030    2    1    2    0    0  0.00000000000E+00  0.00000000000E+00  0.42555009524E+03  0.13706375898E+04  0.13029023443E+04 0.  0.
        3    1    3    3  502    0  0.37291282941E+03 -0.50043067175E+03  0.40928511593E+03  0.74633045756E+03  0.10100000352E+00 0.  1.
       -3    1    3    3    0  502 -0.37291282941E+03  0.50043067175E+03  0.16264979310E+02  0.62430713220E+03  0.10100000352E+00 0. -1.
</event>
<event>
 5   0  0.2255875E-04  0.1301692E+04  0.7818609E-02  0.9028224E-01
       -3   -1    0    0    0  501  0.00000000000E+00  0.00000000000E+00  0.46148143719E+03  0.46148144825E+03  0.10100000352E+00 0.  1.
        3   -1    0    0  501    0  0.00000000000E+00  0.00000000000E+00 -0.91791450960E+03  0.91791451516E+03  0.10100000352E+00 0. -1.
    10030    2    1    2    0    0  0.00000000000E+00  0.00000000000E+00 -0.45643307241E+03  0.13793959634E+04  0.13016920044E+04 0.  0.
        1    1    3    3  502    0 -0.61663299270E+03  0.17611934613E+03 -0.11046998645E+03  0.65073642106E+03  0.50400001928E-02 0.  1.
       -1    1    3    3    0  502  0.61663299270E+03 -0.17611934613E+03 -0.34596308596E+03  0.72865954234E+03  0.50400001928E-02 0. -1.
</event>
<event>
 5   0  0.6052864E-04  0.1299849E+04  0.7818609E-02  0.9029685E-01
       -2   -1    0    0    0  501  0.00000000000E+00  0.00000000000E+00  0.44544528429E+03  0.44544528430E+03  0.25500000920E-02 0.  1.
        2   -1    0    0  501    0  0.00000000000E+00  0.00000000000E+00 -0.94826870292E+03  0.94826870293E+03  0.25500000920E-02 0. -1.
    10030    2    1    2    0    0  0.00000000000E+00  0.00000000000E+00 -0.50282341863E+03  0.13937139872E+04  0.12998489481E+04 0.  0.
        2    1    3    3  502    0  0.59928973935E+03  0.23296672901E+03 -0.35301836728E+03  0.73351459164E+03  0.25500000920E-02 0. -1.
       -2    1    3    3    0  502 -0.59928973935E+03 -0.23296672901E+03 -0.14980505135E+03  0.66019939559E+03  0.25500000920E-02 0.  1.
</event>
<event>
 5   0  0.3403833E-04  0.1299224E+04  0.7818609E-02  0.9030181E-01
       -1   -1    0    0    0  501  0.00000000000E+00  0.00000000000E+00  0.71189205407E+03  0.71189205409E+03  0.50400001928E-02 0.  1.
        1   -1    0    0  501    0  0.00000000000E+00  0.00000000000E+00 -0.59278013637E+03  0.59278013639E+03  0.50400001928E-02 0. -1.
    10030    2    1    2    0    0  0.00000000000E+00  0.00000000000E+00  0.11911191770E+03  0.13046721905E+04  0.12992235665E+04 0.  0.
        1    1    3    3  502    0  0.89868482138E+02 -0.28507073979E+03  0.63873622879E+03  0.70521318816E+03  0.50400001928E-02 0.  1.
       -1    1    3    3    0  502 -0.89868482138E+02  0.28507073979E+03 -0.51962431109E+03  0.59945900232E+03  0.50400001928E-02 0. -1.
</event>
<event>
 5   0  0.5384960E-04  0.1300926E+04  0.7818609E-02  0.9028831E-01
        2   -1    0    0  501    0  0.00000000000E+00  0.00000000000E+00  0.95365332313E+03  0.95365332313E+03  0.25500000920E-02 0.  1.
       -2   -1    0    0    0  501  0.00000000000E+00  0.00000000000E+00 -0.44366437515E+03  0.44366437516E+03  0.25500000920E-02 0. -1.
    10030    2    1    2    0    0  0.00000000000E+00  0.00000000000E+00  0.50998894798E+03  0.13973176983E+04  0.13009258330E+04 0.  0.
        3    1    3    3  502    0  0.50513505929E+02  0.24971389884E+03 -0.38784328949E+03  0.46403779259E+03  0.10100000352E+00 0. -1.
       -3    1    3    3    0  502 -0.50513505929E+02 -0.24971389884E+03  0.89783223746E+03  0.93327990570E+03  0.10100000352E+00 0.  1.
</event>
<event>
 5   0  0.6052864E-04  0.1296102E+04  0.7818609E-02  0.9032662E-01
       -2   -1    0    0    0  501  0.00000000000E+00  0.00000000000E+00  0.54375982969E+03  0.54375982970E+03  0.25500000920E-02 0. -1.
        2   -1    0    0  501    0  0.00000000000E+00  0.00000000000E+00 -0.77234494898E+03  0.77234494898E+03  0.25500000920E-02 0.  1.
    10030    2    1    2    0    0  0.00000000000E+00  0.00000000000E+00 -0.22858511929E+03  0.13161047787E+04  0.12961020915E+04 0.  0.
        2    1    3    3  502    0 -0.44989259867E+03 -0.44320610660E+03 -0.26191554018E+03  0.68369200190E+03  0.25500000920E-02 0.  1.
       -2    1    3    3    0  502  0.44989259867E+03  0.44320610660E+03  0.33330420891E+02  0.63241277678E+03  0.25500000920E-02 0. -1.
</event>
<event>
 5   0  0.3403833E-04  0.1305603E+04  0.7818609E-02  0.9025133E-01
       -1   -1    0    0    0  501  0.00000000000E+00  0.00000000000E+00  0.42193137014E+03  0.42193137017E+03  0.50400001928E-02 0. -1.
        1   -1    0    0  501    0  0.00000000000E+00  0.00000000000E+00 -0.10099984373E+04  0.10099984373E+04  0.50400001928E-02 0.  1.
    10030    2    1    2    0    0  0.00000000000E+00  0.00000000000E+00 -0.58806706711E+03  0.14319298074E+04  0.13056033463E+04 0.  0.
        1    1    3    3  502    0  0.60398795027E+03  0.24764273206E+03 -0.29913759962E+03  0.71806104917E+03  0.50400001928E-02 0. -1.
       -1    1    3    3    0  502 -0.60398795027E+03 -0.24764273206E+03 -0.28892946750E+03  0.71386875826E+03  0.50400001928E-02 0.  1.
</event>
<event>
 5   0  0.6007125E-04  0.1300901E+04  0.7818609E-02  0.9028851E-01
       -2   -1    0    0    0  501  0.00000000000E+00  0.00000000000E+00  0.20598416815E+03  0.20598416816E+03  0.25500000920E-02 0. -1.
        2   -1    0    0  501    0  0.00000000000E+00  0.00000000000E+00 -0.20539736224E+04  0.20539736224E+04  0.25500000920E-02 0.  1.
    10030    2    1    2    0    0  0.00000000000E+00  0.00000000000E+00 -0.18479894543E+04  0.22599577906E+04  0.13009012999E+04 0.  0.
        5    1    3    3  502    0  0.18932338062E+03  0.32805375536E+03 -0.53964816778E+01  0.37883218034E+03  0.46999998093E+01 0. -1.
       -5    1    3    3    0  502 -0.18932338062E+03 -0.32805375536E+03 -0.18425929726E+04  0.18811256102E+04  0.46999998093E+01 0.  1.
</event>
<event>
 5   0  0.6052864E-04  0.1296702E+04  0.7818609E-02  0.9032185E-01
       -2   -1    0    0    0  501  0.00000000000E+00  0.00000000000E+00  0.24682509519E+03  0.24682509520E+03  0.25500000920E-02 0.  1.
        2   -1    0    0  501    0  0.00000000000E+00  0.00000000000E+00 -0.17030643527E+04  0.17030643527E+04  0.25500000920E-02 0. -1.
    10030    2    1    2    0    0  0.00000000000E+00  0.00000000000E+00 -0.14562392575E+04  0.19498894479E+04  0.12967020027E+04 0.  0.
        2    1    3    3  502    0  0.37976929964E+03  0.47892382951E+03 -0.10533088583E+04  0.12178063501E+04  0.25500000920E-02 0.  1.
       -2    1    3    3    0  502 -0.37976929964E+03 -0.47892382951E+03 -0.40293039919E+03  0.73208309776E+03  0.25500000920E-02 0. -1.
</event>
<event>
 5   0  0.6007125E-04  0.1280164E+04  0.7818609E-02  0.9045444E-01
       -2   -1    0    0    0  501  0.00000000000E+00  0.00000000000E+00  0.50002546553E+03  0.50002546554E+03  0.25500000920E-02 0.  1.
        2   -1    0    0  501    0  0.00000000000E+00  0.00000000000E+00 -0.81936880988E+03  0.81936880989E+03  0.25500000920E-02 0. -1.
    10030    2    1    2    0    0  0.00000000000E+00  0.00000000000E+00 -0.31934334435E+03  0.13193942754E+04  0.12801644748E+04 0.  0.
        5    1    3    3  502    0 -0.24547169243E+03 -0.53218483779E+03 -0.42486214433E+03  0.72388326755E+03  0.46999998093E+01 0. -1.
       -5    1    3    3    0  502  0.24547169243E+03  0.53218483779E+03  0.10551879998E+03  0.59551100788E+03  0.46999998093E+01 0.  1.
</event>
<event>
 5   0  0.3274879E-04  0.1309620E+04  0.7818609E-02  0.9021971E-01
        1   -1    0    0  501    0  0.00000000000E+00  0.00000000000E+00  0.90192528445E+03  0.90192528446E+03  0.50400001928E-02 0.  1.
       -1   -1    0    0    0  501  0.00000000000E+00  0.00000000000E+00 -0.47540119064E+03  0.47540119067E+03  0.50400001928E-02 0. -1.
    10030    2    1    2    0    0  0.00000000000E+00  0.00000000000E+00  0.42652409381E+03  0.13773264751E+04  0.13096203330E+04 0.  0.
        4    1    3    3  502    0  0.37688954550E+03  0.40363881210E+03 -0.15678768119E+03  0.57406794895E+03  0.12699999809E+01 0. -1.
       -4    1    3    3    0  502 -0.37688954550E+03 -0.40363881210E+03  0.58331177500E+03  0.80325852618E+03  0.12699999809E+01 0.  1.
</event>
<event>
 5   0  0.5787604E-04  0.1299495E+04  0.7818609E-02  0.9029966E-01
        2   -1    0    0  501    0  0.00000000000E+00  0.00000000000E+00  0.19741215848E+04  0.19741215848E+04  0.25500000920E-02 0. -1.
       -2   -1    0    0    0  501  0.00000000000E+00  0.00000000000E+00 -0.21385302488E+03  0.21385302490E+03  0.25500000920E-02 0.  1.
    10030    2    1    2    0    0  0.00000000000E+00  0.00000000000E+00  0.17602685599E+04  0.21879746097E+04  0.12994950903E+04 0.  0.
        4    1    3    3  502    0 -0.35986600355E+03 -0.18692794889E+03  0.17348971003E+04  0.17816607870E+04  0.12699999809E+01 0. -1.
       -4    1    3    3    0  502  0.35986600355E+03  0.18692794889E+03  0.25371459590E+02  0.40631382262E+03  0.12699999809E+01 0.  1.
</event>
<event>
 5   0  0.5384960E-04  0.1302331E+04  0.7818609E-02  0.9027718E-01
        2   -1    0    0  501    0  0.00000000000E+00  0.00000000000E+00  0.19361363916E+04  0.19361363916E+04  0.25500000920E-02 0. -1.
       -2   -1    0    0    0  501  0.00000000000E+00  0.00000000000E+00 -0.21900147069E+03  0.21900147071E+03  0.25500000920E-02 0.  1.
    10030    2    1    2    0    0  0.00000000000E+00  0.00000000000E+00  0.17171349209E+04  0.21551378623E+04  0.13023313207E+04 0.  0.
        3    1    3    3  502    0  0.92245583525E+02 -0.33647215288E+03 -0.51279396135E+02  0.35263627722E+03  0.10100000352E+00 0.  1.
       -3    1    3    3    0  502 -0.92245583525E+02  0.33647215288E+03  0.17684143170E+04  0.18025015851E+04  0.10100000352E+00 0. -1.
</event>
<event>
 5   0  0.6007125E-04  0.1303878E+04  0.7818609E-02  0.9026495E-01
        2   -1    0    0  501    0  0.00000000000E+00  0.00000000000E+00  0.13014301791E+04  0.13014301791E+04  0.25500000920E-02 0. -1.
       -2   -1    0    0    0  501  0.00000000000E+00  0.00000000000E+00 -0.32658266196E+03  0.32658266197E+03  0.25500000920E-02 0.  1.
    10030    2    1    2    0    0  0.00000000000E+00  0.00000000000E+00  0.97484751711E+03  0.16280128410E+04  0.13038781112E+04 0.  0.
        5    1    3    3  502    0 -0.65054554443E+02 -0.54475189318E+03  0.47720985566E+02  0.55071417509E+03  0.46999998093E+01 0.  1.
       -5    1    3    3    0  502  0.65054554443E+02  0.54475189318E+03  0.92712653155E+03  0.10772986660E+04  0.46999998093E+01 0. -1.
</event>
<event>
 5   0  0.5384960E-04  0.1297475E+04  0.7818609E-02  0.9031570E-01
       -2   -1    0    0    0  501  0.00000000000E+00  0.00000000000E+00  0.80342217100E+03  0.80342217100E+03  0.25500000920E-02 0.  1.
        2   -1    0    0  501    0  0.00000000000E+00  0.00000000000E+00 -0.52383439672E+03  0.52383439672E+03  0.25500000920E-02 0. -1.
    10030    2    1    2    0    0  0.00000000000E+00  0.00000000000E+00  0.27958777428E+03  0.13272565677E+04  0.12974747292E+04 0.  0.
        3    1    3    3  502    0 -0.19880709991E+02 -0.17305158413E+03 -0.49946465397E+03  0.52896790467E+03  0.10100000352E+00 0. -1.
       -3    1    3    3    0  502  0.19880709991E+02  0.17305158413E+03  0.77905242825E+03  0.79828866306E+03  0.10100000352E+00 0.  1.
</event>
<event>
 5   0  0.3335747E-04  0.1299366E+04  0.7818609E-02  0.9030068E-01
        1   -1    0    0  501    0  0.00000000000E+00  0.00000000000E+00  0.16524642684E+04  0.16524642684E+04  0.50400001928E-02 0.  1.
       -1   -1    0    0    0  501  0.00000000000E+00  0.00000000000E+00 -0.25542947431E+03  0.25542947436E+03  0.50400001928E-02 0. -1.
    10030    2    1    2    0    0  0.00000000000E+00  0.00000000000E+00  0.13970347941E+04  0.19078937428E+04  0.12993661216E+04 0.  0.
        3    1    3    3  502    0 -0.41437847766E+03  0.38888256928E+03  0.23617195441E+03  0.61539936439E+03  0.10100000352E+00 0. -1.
       -3    1    3    3    0  502  0.41437847766E+03 -0.38888256928E+03  0.11608628397E+04  0.12924943784E+04  0.10100000352E+00 0.  1.
</event>
<event>
 5   0  0.3335747E-04  0.1288866E+04  0.7818609E-02  0.9038442E-01
        1   -1    0    0  501    0  0.00000000000E+00  0.00000000000E+00  0.17623340112E+04  0.17623340112E+04  0.50400001928E-02 0. -1.
       -1   -1    0    0    0  501  0.00000000000E+00  0.00000000000E+00 -0.23564981928E+03  0.23564981933E+03  0.50400001928E-02 0.  1.
    10030    2    1    2    0    0  0.00000000000E+00  0.00000000000E+00  0.15266841919E+04  0.19979838305E+04  0.12888656894E+04 0.  0.
        3    1    3    3  502    0  0.60347421503E+03  0.84532899440E+02  0.43829488183E+03  0.75061931292E+03  0.10100000352E+00 0.  1.
       -3    1    3    3    0  502 -0.60347421503E+03 -0.84532899440E+02  0.10883893101E+04  0.12473645176E+04  0.10100000352E+00 0. -1.
</event>
<event>
 5   0  0.5787604E-04  0.1298106E+04  0.7818609E-02  0.9031069E-01
       -2   -1    0    0    0  501  0.00000000000E+00  0.00000000000E+00  0.82779121332E+03  0.82779121332E+03  0.25500000920E-02 0.  1.
        2   -1    0    0  501    0  0.00000000000E+00  0.00000000000E+00 -0.50890809948E+03  0.50890809949E+03  0.25500000920E-02 0. -1.
    10030    2    1    2    0    0  0.00000000000E+00  0.00000000000E+00  0.31888311384E+03  0.13366993128E+04  0.12981057786E+04 0.  0.
        4    1    3    3  502    0  0.61876484535E+03 -0.18490502764E+03  0.92641974950E+02  0.65241394184E+03  0.12699999809E+01 0.  1.
       -4    1    3    3    0  502 -0.61876484535E+03  0.18490502764E+03  0.22624113889E+03  0.68428537096E+03  0.12699999809E+01 0. -1.
</event>
<event>
 5   0  0.3337520E-04  0.1301570E+04  0.7818609E-02  0.9028321E-01
       -1   -1    0    0    0  501  0.00000000000E+00  0.00000000000E+00  0.31544560234E+03  0.31544560238E+03  0.50400001928E-02 0.  1.
        1   -1    0    0  501    0  0.00000000000E+00  0.00000000000E+00 -0.13426124655E+04  0.13426124655E+04  0.50400001928E-02 0. -1.
    10030    2    1    2    0    0  0.00000000000E+00  0.00000000000E+00 -0.10271668631E+04  0.16580580679E+04  0.13015701255E+04 0.  0.
        5    1    3    3  502    0 -0.49859450354E+03  0.39263011568E+03 -0.69706005201E+03  0.94269278814E+03  0.46999998093E+01 0. -1.
       -5    1    3    3    0  502  0.49859450354E+03 -0.39263011568E+03 -0.33010681113E+03  0.71536527974E+03  0.46999998093E+01 0.  1.
</event>
<event>
 5   0  0.2255875E-04  0.1314069E+04  0.7818609E-02  0.9018482E-01
       -3   -1    0    0    0  501  0.00000000000E+00  0.00000000000E+00  0.52925406038E+03  0.52925407002E+03  0.10100000352E+00 0. -1.
        3   -1    0    0  501    0  0.00000000000E+00  0.00000000000E+00 -0.81566574332E+03  0.81566574957E+03  0.10100000352E+00 0.  1.
    10030    2    1    2    0    0  0.00000000000E+00  0.00000000000E+00 -0.28641168294E+03  0.13449198196E+04  0.13140691264E+04 0.  0.
        4    1    3    3  502    0  0.41769422355E+03 -0.38508949103E+03  0.19458881763E+03  0.60052377250E+03  0.12699999809E+01 0. -1.
       -4    1    3    3    0  502 -0.41769422355E+03  0.38508949103E+03 -0.48100050057E+03  0.74439604710E+03  0.12699999809E+01 0.  1.
</event>
<event>
 5   0  0.3335747E-04  0.1295571E+04  0.7818609E-02  0.9033085E-01
       -1   -1    0    0    0  501  0.00000000000E+00  0.00000000000E+00  0.11259818889E+04  0.11259818889E+04  0.50400001928E-02 0. -1.
        1   -1    0    0  501    0  0.00000000000E+00  0.00000000000E+00 -0.37267564098E+03  0.37267564102E+03  0.50400001928E-02 0.  1.
    10030    2    1    2    0    0  0.00000000000E+00  0.00000000000E+00  0.75330624788E+03  0.14986575299E+04  0.12955709509E+04 0.  0.
        3    1    3    3  502    0  0.13523624566E+03 -0.21698672423E+03 -0.31183830431E+03  0.40325577351E+03  0.10100000352E+00 0.  1.
       -3    1    3    3    0  502 -0.13523624566E+03  0.21698672423E+03  0.10651445522E+04  0.10954017564E+04  0.10100000352E+00 0. -1.
</event>
<event>
 5   0  0.3337520E-04  0.1297896E+04  0.7818609E-02  0.9031236E-01
        1   -1    0    0  501    0  0.00000000000E+00  0.00000000000E+00  0.21257607841E+04  0.21257607841E+04  0.50400001928E-02 0. -1.
       -1   -1    0    0    0  501  0.00000000000E+00  0.00000000000E+00 -0.19810946308E+03  0.19810946314E+03  0.50400001928E-02 0.  1.
    10030    2    1    2    0    0  0.00000000000E+00  0.00000000000E+00  0.19276513211E+04  0.23238702473E+04  0.12978957241E+04 0.  0.
        5    1    3    3  502    0  0.13325034889E+03 -0.36877708068E+03  0.38020672735E+02  0.39397950742E+03  0.46999998093E+01 0.  1.
       -5    1    3    3    0  502 -0.13325034889E+03  0.36877708068E+03  0.18896306483E+04  0.19298907399E+04  0.46999998093E+01 0. -1.
</event>
<event>
 5   0  0.3335747E-04  0.1296741E+04  0.7818609E-02  0.9032154E-01
        1   -1    0    0  501    0  0.00000000000E+00  0.00000000000E+00  0.40270224631E+03  0.40270224634E+03  0.50400001928E-02 0. -1.
       -1   -1    0    0    0  501  0.00000000000E+00  0.00000000000E+00 -0.10439077745E+04  0.10439077745E+04  0.50400001928E-02 0.  1.
    10030    2    1    2    0    0  0.00000000000E+00  0.00000000000E+00 -0.64120552815E+03  0.14466100208E+04  0.12967405380E+04 0.  0.
        3    1    3    3  502    0  0.60605894094E+03 -0.14470013053E+03 -0.12061165184E+03  0.63465955317E+03  0.10100000352E+00 0. -1.
       -3    1    3    3    0  502 -0.60605894094E+03  0.14470013053E+03 -0.52059387630E+03  0.81195046765E+03  0.10100000352E+00 0.  1.
</event>
<event>
 5   0  0.5957913E-04  0.1304261E+04  0.7818609E-02  0.9026193E-01
       -2   -1    0    0    0  501  0.00000000000E+00  0.00000000000E+00  0.64226079329E+03  0.64226079330E+03  0.25500000920E-02 0.  1.
        2   -1    0    0  501    0  0.00000000000E+00  0.00000000000E+00 -0.66215232225E+03  0.66215232225E+03  0.25500000920E-02 0. -1.
    10030    2    1    2    0    0  0.00000000000E+00  0.00000000000E+00 -0.19891528956E+02  0.13044131155E+04  0.13042614397E+04 0.  0.
        1    1    3    3  502    0 -0.10536152590E+03 -0.61401748968E+03  0.18283543115E+03  0.64926675850E+03  0.50400001928E-02 0.  1.
       -1    1    3    3    0  502  0.10536152590E+03  0.61401748968E+03 -0.20272696011E+03  0.65514635705E+03  0.50400001928E-02 0. -1.
</event>
<event>
 5   0  0.3263679E-04  0.1299249E+04  0.7818609E-02  0.9030161E-01
        1   -1    0    0  501    0  0.00000000000E+00  0.00000000000E+00  0.71384458953E+03  0.71384458955E+03  0.50400001928E-02 0. -1.
       -1   -1    0    0    0  501  0.00000000000E+00  0.00000000000E+00 -0.59118182248E+03  0.59118182250E+03  0.50400001928E-02 0.  1.
    10030    2    1    2    0    0  0.00000000000E+00  0.00000000000E+00  0.12266276706E+03  0.13050264120E+04  0.12992489299E+04 0.  0.
        2    1    3    3  502    0  0.38236270132E+03  0.47200710306E+03  0.29261603581E+03  0.67425224147E+03  0.25500000920E-02 0. -1.
       -2    1    3    3    0  502 -0.38236270132E+03 -0.47200710306E+03 -0.16995326875E+03  0.63077417058E+03  0.25500000920E-02 0.  1.
</event>
<event>
 5   0  0.3335747E-04  0.1308695E+04  0.7818609E-02  0.9022698E-01
       -1   -1    0    0    0  501  0.00000000000E+00  0.00000000000E+00  0.44512997726E+03  0.44512997729E+03  0.50400001928E-02 0.  1.
        1   -1    0    0  501    0  0.00000000000E+00  0.00000000000E+00 -0.96190023029E+03  0.96190023031E+03  0.50400001928E-02 0. -1.
    10030    2    1    2    0    0  0.00000000000E+00  0.00000000000E+00 -0.51677025304E+03  0.14070302076E+04  0.13086949647E+04 0.  0.
        3    1    3    3  502    0  0.55939768506E+03  0.13579508941E+03 -0.59289801489E+03  0.82637409363E+03  0.10100000352E+00 0. -1.
       -3    1    3    3    0  502 -0.55939768506E+03 -0.13579508941E+03  0.76127761850E+02  0.58065611397E+03  0.10100000352E+00 0.  1.
</event>
<event>
 5   0  0.3263679E-04  0.1299471E+04  0.7818609E-02  0.9029985E-01
       -1   -1    0    0    0  501  0.00000000000E+00  0.00000000000E+00  0.59239832040E+03  0.59239832042E+03  0.50400001928E-02 0. -1.
        1   -1    0    0  501    0  0.00000000000E+00  0.00000000000E+00 -0.71262181870E+03  0.71262181872E+03  0.50400001928E-02 0.  1.
    10030    2    1    2    0    0  0.00000000000E+00  0.00000000000E+00 -0.12022349830E+03  0.13050201391E+04  0.12994706130E+04 0.  0.
        2    1    3    3  502    0 -0.18622692872E+03  0.52416541621E+03 -0.39729269373E+03  0.68357248118E+03  0.25500000920E-02 0.  1.
       -2    1    3    3    0  502  0.18622692872E+03 -0.52416541621E+03  0.27706919542E+03  0.62144765796E+03  0.25500000920E-02 0. -1.
</event>
<event>
 5   0  0.3335747E-04  0.1299357E+04  0.7818609E-02  0.9030075E-01
        1   -1    0    0  501    0  0.00000000000E+00  0.00000000000E+00  0.76978802056E+03  0.76978802058E+03  0.50400001928E-02 0. -1.
       -1   -1    0    0    0  501  0.00000000000E+00  0.00000000000E+00 -0.54830971250E+03  0.54830971252E+03  0.50400001928E-02 0.  1.
    10030    2    1    2    0    0  0.00000000000E+00  0.00000000000E+00  0.22147830806E+03  0.13180977331E+04  0.12993571461E+04 0.  0.
        3    1    3    3  502    0 -0.51275967033E+03 -0.34824107000E+03  0.30819474310E+03  0.69222708140E+03  0.10100000352E+00 0. -1.
       -3    1    3    3    0  502  0.51275967033E+03  0.34824107000E+03 -0.86716435033E+02  0.62587065170E+03  0.10100000352E+00 0.  1.
</event>
<event>
 5   0  0.6007125E-04  0.1287055E+04  0.7818609E-02  0.9039894E-01
        2   -1    0    0  501    0  0.00000000000E+00  0.00000000000E+00  0.56081282754E+03  0.56081282755E+03  0.25500000920E-02 0.  1.
       -2   -1    0    0    0  501  0.00000000000E+00  0.00000000000E+00 -0.73844155620E+03  0.73844155620E+03  0.25500000920E-02 0. -1.
    10030    2    1    2    0    0  0.00000000000E+00  0.00000000000E+00 -0.17762872866E+03  0.12992543837E+04  0.12870547729E+04 0.  0.
        5    1    3    3  502    0 -0.10525361045E+03 -0.52382184180E+03 -0.45087507567E+03  0.69912664684E+03  0.46999998093E+01 0. -1.
       -5    1    3    3    0  502  0.10525361045E+03  0.52382184180E+03  0.27324634701E+03  0.60012773691E+03  0.46999998093E+01 0.  1.
</event>
<event>
 5   0  0.5957913E-04  0.1306799E+04  0.7818609E-02  0.9024191E-01
       -2   -1    0    0    0  501  0.00000000000E+00  0.00000000000E+00  0.30587285152E+03  0.30587285153E+03  0.25500000920E-02 0.  1.
        2   -1    0    0  501    0  0.00000000000E+00  0.00000000000E+00 -0.13957796107E+04  0.13957796107E+04  0.25500000920E-02 0. -1.
    10030    2    1    2    0    0  0.00000000000E+00  0.00000000000E+00 -0.10899067592E+04  0.17016524622E+04  0.13067992801E+04 0.  0.
        1    1    3    3  502    0 -0.12056730077E+03  0.22258549757E+03  0.23942520929E+03  0.34843250223E+03  0.50400001928E-02 0.  1.
       -1    1    3    3    0  502  0.12056730077E+03 -0.22258549757E+03 -0.13293319685E+04  0.13532199600E+04  0.50400001928E-02 0. -1.
</event>
<event>
 5   0  0.3403833E-04  0.1299580E+04  0.7818609E-02  0.9029898E-01
       -1   -1    0    0    0  501  0.00000000000E+00  0.00000000000E+00  0.40790402101E+03  0.40790402104E+03  0.50400001928E-02 0.  1.
        1   -1    0    0  501    0  0.00000000000E+00  0.00000000000E+00 -0.10351141589E+04  0.10351141589E+04  0.50400001928E-02 0. -1.
    10030    2    1    2    0    0  0.00000000000E+00  0.00000000000E+00 -0.62721013792E+03  0.14430181800E+04  0.12995802825E+04 0.  0.
        1    1    3    3  502    0  0.23325365556E+03 -0.28509918382E+03 -0.90797949701E+03  0.97985487673E+03  0.50400001928E-02 0. -1.
       -1    1    3    3    0  502 -0.23325365556E+03  0.28509918382E+03  0.28076935909E+03  0.46316330324E+03  0.50400001928E-02 0.  1.
</event>
<event>
 5   0  0.6052864E-04  0.1309033E+04  0.7818609E-02  0.9022432E-01
       -2   -1    0    0    0  501  0.00000000000E+00  0.00000000000E+00  0.37608621010E+03  0.37608621011E+03  0.25500000920E-02 0.  1.
        2   -1    0    0  501    0  0.00000000000E+00  0.00000000000E+00 -0.11390787424E+04  0.11390787424E+04  0.25500000920E-02 0. -1.
    10030    2    1    2    0    0  0.00000000000E+00  0.00000000000E+00 -0.76299253233E+03  0.15151649525E+04  0.13090329366E+04 0.  0.
        2    1    3    3  502    0 -0.35302600585E+03  0.20835767451E+03  0.20909824415E+03  0.46017644121E+03  0.25500000920E-02 0.  1.
       -2    1    3    3    0  502  0.35302600585E+03 -0.20835767451E+03 -0.97209077648E+03  0.10549885113E+04  0.25500000920E-02 0. -1.
</event>
<event>
 5   0  0.6007125E-04  0.1305014E+04  0.7818609E-02  0.9025599E-01
       -2   -1    0    0    0  501  0.00000000000E+00  0.00000000000E+00  0.26731585552E+03  0.26731585553E+03  0.25500000920E-02 0. -1.
        2   -1    0    0  501    0  0.00000000000E+00  0.00000000000E+00 -0.15927422309E+04  0.15927422309E+04  0.25500000920E-02 0.  1.
    10030    2    1    2    0    0  0.00000000000E+00  0.00000000000E+00 -0.13254263754E+04  0.18600580864E+04  0.13050137962E+04 0.  0.
        5    1    3    3  502    0 -0.14261378122E+03  0.59649599453E+03 -0.34528966450E+03  0.70384174677E+03  0.46999998093E+01 0.  1.
       -5    1    3    3    0  502  0.14261378122E+03 -0.59649599453E+03 -0.98013671086E+03  0.11562163396E+04  0.46999998093E+01 0. -1.
</event>
<event>
 5   0  0.3263679E-04  0.1293087E+04  0.7818609E-02  0.9035065E-01
       -1   -1    0    0    0  501  0.00000000000E+00  0.00000000000E+00  0.21396226578E+03  0.21396226584E+03  0.50400001928E-02 0. -1.
        1   -1    0    0  501    0  0.00000000000E+00  0.00000000000E+00 -0.19537030961E+04  0.19537030961E+04  0.50400001928E-02 0.  1.
    10030    2    1    2    0    0  0.00000000000E+00  0.00000000000E+00 -0.17397408303E+04  0.21676653619E+04  0.12930873770E+04 0.  0.
        2    1    3    3  502    0  0.63015049661E+02  0.42686981781E+02 -0.19461667961E+04  0.19476545570E+04  0.25500000920E-02 0.  1.
       -2    1    3    3    0  502 -0.63015049661E+02 -0.42686981781E+02  0.20642596586E+03  0.22001080493E+03  0.25500000920E-02 0. -1.
</event>
<event>
 5   0  0.6052864E-04  0.1297787E+04  0.7818609E-02  0.9031322E-01
        2   -1    0    0  501    0  0.00000000000E+00  0.00000000000E+00  0.92865704495E+03  0.92865704495E+03  0.25500000920E-02 0.  1.
       -2   -1    0    0    0  501  0.00000000000E+00  0.00000000000E+00 -0.45341055959E+03  0.45341055959E+03  0.25500000920E-02 0. -1.
    10030    2    1    2    0    0  0.00000000000E+00  0.00000000000E+00  0.47524648537E+03  0.13820676045E+04  0.12977872097E+04 0.  0.
        2    1    3    3  502    0 -0.24555116183E+03  0.37928514565E+03 -0.25835874048E+03  0.52048230861E+03  0.25500000920E-02 0. -1.
       -2    1    3    3    0  502  0.24555116183E+03 -0.37928514565E+03  0.73360522584E+03  0.86158529594E+03  0.25500000920E-02 0.  1.
</event>
<event>
 5   0  0.5384960E-04  0.1301601E+04  0.7818609E-02  0.9028296E-01
        2   -1    0    0  501    0  0.00000000000E+00  0.00000000000E+00  0.14753661456E+04  0.14753661456E+04  0.25500000920E-02 0. -1.
       -2   -1    0    0    0  501  0.00000000000E+00  0.00000000000E+00 -0.28707554018E+03  0.28707554019E+03  0.25500000920E-02 0.  1.
    10030    2    1    2    0    0  0.00000000000E+00  0.00000000000E+00  0.11882906054E+04  0.17624416858E+04  0.13016013725E+04 0.  0.
        3    1    3    3  502    0 -0.49821196374E+03 -0.16635933756E+02  0.11606680201E+04  0.12631873092E+04  0.10100000352E+00 0. -1.
       -3    1    3    3    0  502  0.49821196374E+03  0.16635933756E+02  0.27622585326E+02  0.49925437657E+03  0.10100000352E+00 0.  1.
</event>
<event>
 5   0  0.3337520E-04  0.1308655E+04  0.7818609E-02  0.9022730E-01
        1   -1    0    0  501    0  0.00000000000E+00  0.00000000000E+00  0.12400677344E+04  0.12400677344E+04  0.50400001928E-02 0.  1.
       -1   -1    0    0    0  501  0.00000000000E+00  0.00000000000E+00 -0.34525901323E+03  0.34525901326E+03  0.50400001928E-02 0. -1.
    10030    2    1    2    0    0  0.00000000000E+00  0.00000000000E+00  0.89480872119E+03  0.15853267477E+04  0.13086551301E+04 0.  0.
        5    1    3    3  502    0  0.32908316000E+03  0.66816425767E+01  0.11324518065E+04  0.11793258899E+04  0.46999998093E+01 0.  1.
       -5    1    3    3    0  502 -0.32908316000E+03 -0.66816425767E+01 -0.23764308530E+03  0.40600085780E+03  0.46999998093E+01 0. -1.
</event>
<event>
 5   0  0.3337520E-04  0.1300758E+04  0.7818609E-02  0.9028964E-01
        1   -1    0    0  501    0  0.00000000000E+00  0.00000000000E+00  0.86973790311E+03  0.86973790313E+03  0.50400001928E-02 0. -1.
       -1   -1    0    0    0  501  0.00000000000E+00  0.00000000000E+00 -0.48634555682E+03  0.48634555685E+03  0.50400001928E-02 0.  1.
    10030    2    1    2    0    0  0.00000000000E+00  0.00000000000E+00  0.38339234629E+03  0.13560834600E+04  0.13007584938E+04 0.  0.
        5    1    3    3  502    0  0.26485787921E+03  0.40432391245E+03 -0.26194765746E+03  0.54978740219E+03  0.46999998093E+01 0.  1.
       -5    1    3    3    0  502 -0.26485787921E+03 -0.40432391245E+03  0.64534000375E+03  0.80629605779E+03  0.46999998093E+01 0. -1.
</event>
<event>
 5   0  0.5957913E-04  0.1314774E+04  0.7818609E-02  0.9017930E-01
        2   -1    0    0  501    0  0.00000000000E+00  0.00000000000E+00  0.14568951572E+04  0.14568951572E+04  0.25500000920E-02 0. -1.
       -2   -1    0    0    0  501  0.00000000000E+00  0.00000000000E+00 -0.29662930235E+03  0.29662930236E+03  0.25500000920E-02 0.  1.
    10030    2    1    2    0    0  0.00000000000E+00  0.00000000000E+00  0.11602658548E+04  0.17535244596E+04  0.13147741921E+04 0.  0.
        1    1    3    3  502    0 -0.56044712254E+03  0.33315541227E+03  0.69223015222E+03  0.95093432453E+03  0.50400001928E-02 0. -1.
       -1    1    3    3    0  502  0.56044712254E+03 -0.33315541227E+03  0.46803570263E+03  0.80259013503E+03  0.50400001928E-02 0.  1.
</event>
<event>
 5   0  0.3274879E-04  0.1323987E+04  0.7818609E-02  0.9010757E-01
        1   -1    0    0  501    0  0.00000000000E+00  0.00000000000E+00  0.10315352100E+04  0.10315352100E+04  0.50400001928E-02 0.  1.
       -1   -1    0    0    0  501  0.00000000000E+00  0.00000000000E+00 -0.42483800164E+03  0.42483800167E+03  0.50400001928E-02 0. -1.
    10030    2    1    2    0    0  0.00000000000E+00  0.00000000000E+00  0.60669720834E+03  0.14563732117E+04  0.13239869444E+04 0.  0.
        4    1    3    3  502    0  0.32818064150E+03 -0.66258073741E+02 -0.32484242600E+03  0.46649424479E+03  0.12699999809E+01 0. -1.
       -4    1    3    3    0  502 -0.32818064150E+03  0.66258073741E+02  0.93153963435E+03  0.98987896687E+03  0.12699999809E+01 0.  1.
</event>
<event>
 5   0  0.3263679E-04  0.1301689E+04  0.7818609E-02  0.9028227E-01
       -1   -1    0    0    0  501  0.00000000000E+00  0.00000000000E+00  0.22490082147E+03  0.22490082153E+03  0.50400001928E-02 0. -1.
        1   -1    0    0  501    0  0.00000000000E+00  0.00000000000E+00 -0.18834910920E+04  0.18834910920E+04  0.50400001928E-02 0.  1.
    10030    2    1    2    0    0  0.00000000000E+00  0.00000000000E+00 -0.16585902705E+04  0.21083919135E+04  0.13016892008E+04 0.  0.
        2    1    3    3  502    0 -0.32119062091E+02  0.58592573849E+03 -0.12852961799E+04  0.14129143199E+04  0.25500000920E-02 0.  1.
       -2    1    3    3    0  502  0.32119062091E+02 -0.58592573849E+03 -0.37329409057E+03  0.69547759363E+03  0.25500000920E-02 0. -1.
</event>
<event>
 5   0  0.5787604E-04  0.1306718E+04  0.7818609E-02  0.9024254E-01
        2   -1    0    0  501    0  0.00000000000E+00  0.00000000000E+00  0.13827414975E+04  0.13827414975E+04  0.25500000920E-02 0.  1.
       -2   -1    0    0    0  501  0.00000000000E+00  0.00000000000E+00 -0.30871876642E+03  0.30871876643E+03  0.25500000920E-02 0. -1.
    10030    2    1    2    0    0  0.00000000000E+00  0.00000000000E+00  0.10740227311E+04  0.16914602639E+04  0.13067184079E+04 0.  0.
        4    1    3    3  502    0 -0.30586931451E+03  0.55373951489E+03  0.32552630565E+03  0.71144393770E+03  0.12699999809E+01 0.  1.
       -4    1    3    3    0  502  0.30586931451E+03 -0.55373951489E+03  0.74849642545E+03  0.98001632625E+03  0.12699999809E+01 0. -1.
</event>
<event>
 5   0  0.6052864E-04  0.1298151E+04  0.7818609E-02  0.9031033E-01
       -2   -1    0    0    0  501  0.00000000000E+00  0.00000000000E+00  0.69288168890E+03  0.69288168891E+03  0.25500000920E-02 0.  1.
        2   -1    0    0  501    0  0.00000000000E+00  0.00000000000E+00 -0.60803850361E+03  0.60803850362E+03  0.25500000920E-02 0. -1.
    10030    2    1    2    0    0  0.00000000000E+00  0.00000000000E+00  0.84843185289E+02  0.13009201925E+04  0.12981506004E+04 0.  0.
        2    1    3    3  502    0  0.34614382634E+03 -0.50810482943E+03  0.25098259245E+03  0.66406199102E+03  0.25500000920E-02 0.  1.
       -2    1    3    3    0  502 -0.34614382634E+03  0.50810482943E+03 -0.16613940716E+03  0.63685820150E+03  0.25500000920E-02 0. -1.
</event>
<event>
 5   0  0.5384960E-04  0.1302857E+04  0.7818609E-02  0.9027303E-01
       -2   -1    0    0    0  501  0.00000000000E+00  0.00000000000E+00  0.82242892676E+03  0.82242892676E+03  0.25500000920E-02 0. -1.
        2   -1    0    0  501    0  0.00000000000E+00  0.00000000000E+00 -0.51598260818E+03  0.51598260818E+03  0.25500000920E-02 0.  1.
    10030    2    1    2    0    0  0.00000000000E+00  0.00000000000E+00  0.30644631858E+03  0.13384115349E+04  0.13028568957E+04 0.  0.
        3    1    3    3  502    0 -0.14726715358E+03 -0.47821570405E+03 -0.27527014407E+03  0.57109678386E+03  0.10100000352E+00 0.  1.
       -3    1    3    3    0  502  0.14726715358E+03  0.47821570405E+03  0.58171646265E+03  0.76731475109E+03  0.10100000352E+00 0. -1.
</event>
<event>
 5   0  0.2255875E-04  0.1297223E+04  0.7818609E-02  0.9031770E-01
       -4   -1    0    0    0  501  0.00000000000E+00  0.00000000000E+00  0.46841170749E+03  0.46841342916E+03  0.12699999809E+01 0. -1.
        4   -1    0    0  501    0  0.00000000000E+00  0.00000000000E+00 -0.89813072088E+03  0.89813161880E+03  0.12699999809E+01 0.  1.
    10030    2    1    2    0    0  0.00000000000E+00  0.00000000000E+00 -0.42971901339E+03  0.13665450480E+04  0.12972227787E+04 0.  0.
        2    1    3    3  502    0 -0.57546237661E+03  0.28776170168E+03 -0.30129923425E+03  0.71045406073E+03  0.25500000920E-02 0.  1.
       -2    1    3    3    0  502  0.57546237661E+03 -0.28776170168E+03 -0.12841977913E+03  0.65609098723E+03  0.25500000920E-02 0. -1.
</event>
<event>
 5   0  0.5787604E-04  0.1344419E+04  0.7818609E-02  0.8995063E-01
        2   -1    0    0  501    0  0.00000000000E+00  0.00000000000E+00  0.14662609637E+04  0.14662609637E+04  0.25500000920E-02 0.  1.
       -2   -1    0    0    0  501  0.00000000000E+00  0.00000000000E+00 -0.30817552855E+03  0.30817552856E+03  0.25500000920E-02 0. -1.
    10030    2    1    2    0    0  0.00000000000E+00  0.00000000000E+00  0.11580854351E+04  0.17744364922E+04  0.13444192017E+04 0.  0.
        4    1    3    3  502    0  0.65675293560E+03 -0.62325132047E+02  0.74937693762E+03  0.99838682285E+03  0.12699999809E+01 0.  1.
       -4    1    3    3    0  502 -0.65675293560E+03  0.62325132047E+02  0.40870849750E+03  0.77604966937E+03  0.12699999809E+01 0. -1.
</event>
<event>
 5   0  0.5384960E-04  0.1298506E+04  0.7818609E-02  0.9030751E-01
        2   -1    0    0  501    0  0.00000000000E+00  0.00000000000E+00  0.18951708249E+04  0.18951708249E+04  0.25500000920E-02 0.  1.
       -2   -1    0    0    0  501  0.00000000000E+00  0.00000000000E+00 -0.22242277965E+03  0.22242277967E+03  0.25500000920E-02 0. -1.
    10030    2    1    2    0    0  0.00000000000E+00  0.00000000000E+00  0.16727480452E+04  0.21175936045E+04  0.12985055453E+04 0.  0.
        3    1    3    3  502    0 -0.15663024866E+03 -0.46806124788E+03  0.14850646126E+03  0.51543044710E+03  0.10100000352E+00 0. -1.
       -3    1    3    3    0  502  0.15663024866E+03  0.46806124788E+03  0.15242415840E+04  0.16021631574E+04  0.10100000352E+00 0.  1.
</event>
<event>
 5   0  0.3335747E-04  0.1301523E+04  0.7818609E-02  0.9028359E-01
        1   -1    0    0  501    0  0.00000000000E+00  0.00000000000E+00  0.84249326692E+03  0.84249326693E+03  0.50400001928E-02 0.  1.
       -1   -1    0    0    0  501  0.00000000000E+00  0.00000000000E+00 -0.50266312667E+03  0.50266312669E+03  0.50400001928E-02 0. -1.
    10030    2    1    2    0    0  0.00000000000E+00  0.00000000000E+00  0.33983014025E+03  0.13451563936E+04  0.13015226464E+04 0.  0.
        3    1    3    3  502    0 -0.58450363146E+02  0.24969564633E+03 -0.44823832799E+03  0.51641259631E+03  0.10100000352E+00 0. -1.
       -3    1    3    3    0  502  0.58450363146E+02 -0.24969564633E+03  0.78806846824E+03  0.82874379732E+03  0.10100000352E+00 0.  1.
</event>
<event>
 5   0  0.5384960E-04  0.1298194E+04  0.7818609E-02  0.9030999E-01
       -2   -1    0    0    0  501  0.00000000000E+00  0.00000000000E+00  0.56600285226E+03  0.56600285227E+03  0.25500000920E-02 0. -1.
        2   -1    0    0  501    0  0.00000000000E+00  0.00000000000E+00 -0.74439000539E+03  0.74439000539E+03  0.25500000920E-02 0.  1.
    10030    2    1    2    0    0  0.00000000000E+00  0.00000000000E+00 -0.17838715312E+03  0.13103928577E+04  0.12981939243E+04 0.  0.
        3    1    3    3  502    0 -0.25750870516E+03  0.56540518336E+03 -0.27893092419E+03  0.68102586241E+03  0.10100000352E+00 0.  1.
       -3    1    3    3    0  502  0.25750870516E+03 -0.56540518336E+03  0.10054377107E+03  0.62936699525E+03  0.10100000352E+00 0. -1.
</event>
<event>
 5   0  0.3263679E-04  0.1297679E+04  0.7818609E-02  0.9031408E-01
        1   -1    0    0  501    0  0.00000000000E+00  0.00000000000E+00  0.11082282643E+04  0.11082282643E+04  0.50400001928E-02 0.  1.
       -1   -1    0    0    0  501  0.00000000000E+00  0.00000000000E+00 -0.37987880249E+03  0.37987880252E+03  0.50400001928E-02 0. -1.
    10030    2    1    2    0    0  0.00000000000E+00  0.00000000000E+00  0.72834946183E+03  0.14881070668E+04  0.12976785826E+04 0.  0.
        2    1    3    3  502    0  0.16171659890E+03 -0.77852606328E+02  0.10791952733E+04  0.10940181555E+04  0.25500000920E-02 0.  1.
       -2    1    3    3    0  502 -0.16171659890E+03  0.77852606328E+02 -0.35084581142E+03  0.39408891138E+03  0.25500000920E-02 0. -1.
</event>
<event>
 5   0  0.3403833E-04  0.1287267E+04  0.7818609E-02  0.9039724E-01
       -1   -1    0    0    0  501  0.00000000000E+00  0.00000000000E+00  0.96482754607E+03  0.96482754608E+03  0.50400001928E-02 0.  1.
        1   -1    0    0  501    0  0.00000000000E+00  0.00000000000E+00 -0.42936599925E+03  0.42936599928E+03  0.50400001928E-02 0. -1.
    10030    2    1    2    0    0  0.00000000000E+00  0.00000000000E+00  0.53546154682E+03  0.13941935454E+04  0.12872670950E+04 0.  0.
        1    1    3    3  502    0  0.18750191229E+03 -0.86618974370E+02  0.92796005621E+03  0.95066801765E+03  0.50400001928E-02 0.  1.
       -1    1    3    3    0  502 -0.18750191229E+03  0.86618974370E+02 -0.39249850940E+03  0.44352552772E+03  0.50400001928E-02 0. -1.
</event>
<event>
 5   0  0.5787604E-04  0.1300200E+04  0.7818609E-02  0.9029406E-01
        2   -1    0    0  501    0  0.00000000000E+00  0.00000000000E+00  0.23047785047E+04  0.23047785047E+04  0.25500000920E-02 0.  1.
       -2   -1    0    0    0  501  0.00000000000E+00  0.00000000000E+00 -0.18337129174E+03  0.18337129176E+03  0.25500000920E-02 0. -1.
    10030    2    1    2    0    0  0.00000000000E+00  0.00000000000E+00  0.21214072130E+04  0.24881497965E+04  0.13002003101E+04 0.  0.
        4    1    3    3  502    0 -0.51626875468E+03  0.20047840039E+03  0.17122040084E+04  0.17995469417E+04  0.12699999809E+01 0. -1.
       -4    1    3    3    0  502  0.51626875468E+03 -0.20047840039E+03  0.40920320455E+03  0.68860285477E+03  0.12699999809E+01 0.  1.
</event>
<event>
 5   0  0.5787604E-04  0.1299479E+04  0.7818609E-02  0.9029979E-01
        2   -1    0    0  501    0  0.00000000000E+00  0.00000000000E+00  0.17141840274E+04  0.17141840274E+04  0.25500000920E-02 0.  1.
       -2   -1    0    0    0  501  0.00000000000E+00  0.00000000000E+00 -0.24627532986E+03  0.24627532988E+03  0.25500000920E-02 0. -1.
    10030    2    1    2    0    0  0.00000000000E+00  0.00000000000E+00  0.14679086976E+04  0.19604593573E+04  0.12994787214E+04 0.  0.
        4    1    3    3  502    0  0.36703105099E+03  0.26575212762E+03  0.31461375513E+02  0.45423277818E+03  0.12699999809E+01 0. -1.
       -4    1    3    3    0  502 -0.36703105099E+03 -0.26575212762E+03  0.14364473221E+04  0.15062265791E+04  0.12699999809E+01 0.  1.
</event>
<event>
 5   0  0.5787604E-04  0.1344611E+04  0.7818609E-02  0.8994918E-01
       -2   -1    0    0    0  501  0.00000000000E+00  0.00000000000E+00  0.21676471266E+03  0.21676471267E+03  0.25500000920E-02 0. -1.
        2   -1    0    0  501    0  0.00000000000E+00  0.00000000000E+00 -0.20851846810E+04  0.20851846810E+04  0.25500000920E-02 0.  1.
    10030    2    1    2    0    0  0.00000000000E+00  0.00000000000E+00 -0.18684199683E+04  0.23019493936E+04  0.13446106622E+04 0.  0.
        4    1    3    3  502    0 -0.90899546770E+02  0.56755904361E+03 -0.33720461061E+03  0.66640420009E+03  0.12699999809E+01 0. -1.
       -4    1    3    3    0  502  0.90899546770E+02 -0.56755904361E+03 -0.15312153577E+04  0.16355451935E+04  0.12699999809E+01 0.  1.
</event>
<event>
 5   0  0.2255875E-04  0.1301535E+04  0.7818609E-02  0.9028349E-01
        3   -1    0    0  501    0  0.00000000000E+00  0.00000000000E+00  0.98167098648E+03  0.98167099168E+03  0.10100000352E+00 0. -1.
       -3   -1    0    0    0  501  0.00000000000E+00  0.00000000000E+00 -0.43140569272E+03  0.43140570455E+03  0.10100000352E+00 0.  1.
    10030    2    1    2    0    0  0.00000000000E+00  0.00000000000E+00  0.55026529376E+03  0.14130766962E+04  0.13015351920E+04 0.  0.
        4    1    3    3  502    0  0.59500954059E+02 -0.59858375017E+03  0.55509621791E+01  0.60156071645E+03  0.12699999809E+01 0.  1.
       -4    1    3    3    0  502 -0.59500954059E+02  0.59858375017E+03  0.54471433158E+03  0.81151597977E+03  0.12699999809E+01 0. -1.
</event>
<event>
 5   0  0.3403833E-04  0.1301011E+04  0.7818609E-02  0.9028764E-01
        1   -1    0    0  501    0  0.00000000000E+00  0.00000000000E+00  0.12472984276E+04  0.12472984276E+04  0.50400001928E-02 0.  1.
       -1   -1    0    0    0  501  0.00000000000E+00  0.00000000000E+00 -0.33925913577E+03  0.33925913580E+03  0.50400001928E-02 0. -1.
    10030    2    1    2    0    0  0.00000000000E+00  0.00000000000E+00  0.90803929182E+03  0.15865575634E+04  0.13010109709E+04 0.  0.
        1    1    3    3  502    0 -0.36277673201E+02  0.25272558832E+03 -0.27560392296E+03  0.37569111640E+03  0.50400001928E-02 0. -1.
       -1    1    3    3    0  502  0.36277673201E+02 -0.25272558832E+03  0.11836432148E+04  0.12108664470E+04  0.50400001928E-02 0.  1.
</event>
<event>
 5   0  0.2255875E-04  0.1308271E+04  0.7818609E-02  0.9023032E-01
        3   -1    0    0  501    0  0.00000000000E+00  0.00000000000E+00  0.65369106165E+03  0.65369106946E+03  0.10100000352E+00 0. -1.
       -3   -1    0    0    0  501  0.00000000000E+00  0.00000000000E+00 -0.65457975476E+03  0.65457976255E+03  0.10100000352E+00 0.  1.
    10030    2    1    2    0    0  0.00000000000E+00  0.00000000000E+00 -0.88869310937E+00  0.13082708320E+04  0.13082705302E+04 0.  0.
        4    1    3    3  502    0  0.13634740335E+03  0.47801229346E+03  0.42476742240E+03  0.65384657461E+03  0.12699999809E+01 0. -1.
       -4    1    3    3    0  502 -0.13634740335E+03 -0.47801229346E+03 -0.42565611551E+03  0.65442425740E+03  0.12699999809E+01 0.  1.
</event>
<event>
 5   0  0.5384960E-04  0.1293462E+04  0.7818609E-02  0.9034766E-01
        2   -1    0    0  501    0  0.00000000000E+00  0.00000000000E+00  0.55130258577E+03  0.55130258578E+03  0.25500000920E-02 0.  1.
       -2   -1    0    0    0  501  0.00000000000E+00  0.00000000000E+00 -0.75867827789E+03  0.75867827790E+03  0.25500000920E-02 0. -1.
    10030    2    1    2    0    0  0.00000000000E+00  0.00000000000E+00 -0.20737569212E+03  0.13099808637E+04  0.12934624794E+04 0.  0.
        3    1    3    3  502    0  0.42421291284E+03  0.36668475023E+03  0.22268052336E+03  0.60332489353E+03  0.10100000352E+00 0.  1.
       -3    1    3    3    0  502 -0.42421291284E+03 -0.36668475023E+03 -0.43005621548E+03  0.70665597014E+03  0.10100000352E+00 0. -1.
</event>
<event>
 5   0  0.2255875E-04  0.1298821E+04  0.7818609E-02  0.9030500E-01
       -3   -1    0    0    0  501  0.00000000000E+00  0.00000000000E+00  0.15314030111E+04  0.15314030144E+04  0.10100000352E+00 0.  1.
        3   -1    0    0  501    0  0.00000000000E+00  0.00000000000E+00 -0.27539076574E+03  0.27539078427E+03  0.10100000352E+00 0. -1.
    10030    2    1    2    0    0  0.00000000000E+00  0.00000000000E+00  0.12560122453E+04  0.18067937986E+04  0.12988214159E+04 0.  0.
        5    1    3    3  502    0  0.25440688893E+03 -0.49404460354E+03  0.10954439951E+04  0.12283413906E+04  0.46999998093E+01 0.  1.
       -5    1    3    3    0  502 -0.25440688893E+03  0.49404460354E+03  0.16056825021E+03  0.57845240807E+03  0.46999998093E+01 0. -1.
</event>
<event>
 5   0  0.5957913E-04  0.1303709E+04  0.7818609E-02  0.9026629E-01
       -2   -1    0    0    0  501  0.00000000000E+00  0.00000000000E+00  0.78050119850E+03  0.78050119851E+03  0.25500000920E-02 0.  1.
        2   -1    0    0  501    0  0.00000000000E+00  0.00000000000E+00 -0.54441193397E+03  0.54441193398E+03  0.25500000920E-02 0. -1.
    10030    2    1    2    0    0  0.00000000000E+00  0.00000000000E+00  0.23608926453E+03  0.13249131325E+04  0.13037088125E+04 0.  0.
        1    1    3    3  502    0 -0.24219072383E+03  0.65934327640E+02  0.72941922442E+03  0.77139878613E+03  0.50400001928E-02 0.  1.
       -1    1    3    3    0  502  0.24219072383E+03 -0.65934327640E+02 -0.49332995989E+03  0.55351434635E+03  0.50400001928E-02 0. -1.
</event>
<event>
 5   0  0.2255875E-04  0.1299687E+04  0.7818609E-02  0.9029814E-01
        4   -1    0    0  501    0  0.00000000000E+00  0.00000000000E+00  0.33739379195E+03  0.33739618218E+03  0.12699999809E+01 0. -1.
       -4   -1    0    0    0  501  0.00000000000E+00  0.00000000000E+00 -0.12516350890E+04  0.12516357333E+04  0.12699999809E+01 0.  1.
    10030    2    1    2    0    0  0.00000000000E+00  0.00000000000E+00 -0.91424129707E+03  0.15890319155E+04  0.12996866081E+04 0.  0.
        4    1    3    3  502    0 -0.97698437757E+02 -0.50546615293E+03  0.27714837482E+02  0.51556836755E+03  0.12699999809E+01 0.  1.
       -4    1    3    3    0  502  0.97698437757E+02  0.50546615293E+03 -0.94195613456E+03  0.10734635480E+04  0.12699999809E+01 0. -1.
</event>
<event>
 5   0  0.3403833E-04  0.1289514E+04  0.7818609E-02  0.9037922E-01
        1   -1    0    0  501    0  0.00000000000E+00  0.00000000000E+00  0.13132788513E+04  0.13132788513E+04  0.50400001928E-02 0.  1.
       -1   -1    0    0    0  501  0.00000000000E+00  0.00000000000E+00 -0.31654469910E+03  0.31654469914E+03  0.50400001928E-02 0. -1.
    10030    2    1    2    0    0  0.00000000000E+00  0.00000000000E+00  0.99673415224E+03  0.16298235505E+04  0.12895137981E+04 0.  0.
        1    1    3    3  502    0  0.34601692860E+03 -0.25418987990E+03 -0.10958492292E+03  0.44311292611E+03  0.50400001928E-02 0. -1.
       -1    1    3    3    0  502 -0.34601692860E+03  0.25418987990E+03  0.11063190752E+04  0.11867106244E+04  0.50400001928E-02 0.  1.
</event>
<event>
 5   0  0.3263679E-04  0.1300244E+04  0.7818609E-02  0.9029372E-01
        1   -1    0    0  501    0  0.00000000000E+00  0.00000000000E+00  0.89546672300E+03  0.89546672301E+03  0.50400001928E-02 0. -1.
       -1   -1    0    0    0  501  0.00000000000E+00  0.00000000000E+00 -0.47199795661E+03  0.47199795664E+03  0.50400001928E-02 0.  1.
    10030    2    1    2    0    0  0.00000000000E+00  0.00000000000E+00  0.42346876639E+03  0.13674646796E+04  0.13002437671E+04 0.  0.
        2    1    3    3  502    0 -0.36811211446E+03  0.13769793757E+03  0.75637949366E+03  0.85239497256E+03  0.25500000920E-02 0. -1.
       -2    1    3    3    0  502  0.36811211446E+03 -0.13769793757E+03 -0.33291072727E+03  0.51506970708E+03  0.25500000920E-02 0.  1.
</event>
<event>
 5   0  0.5384960E-04  0.1302197E+04  0.7818609E-02  0.9027825E-01
       -2   -1    0    0    0  501  0.00000000000E+00  0.00000000000E+00  0.47701009129E+03  0.47701009130E+03  0.25500000920E-02 0. -1.
        2   -1    0    0  501    0  0.00000000000E+00  0.00000000000E+00 -0.88872120766E+03  0.88872120767E+03  0.25500000920E-02 0.  1.
    10030    2    1    2    0    0  0.00000000000E+00  0.00000000000E+00 -0.41171111637E+03  0.13657312990E+04  0.13021965818E+04 0.  0.
        3    1    3    3  502    0 -0.29490551821E+02  0.22652065306E+03 -0.84531476124E+03  0.87563597155E+03  0.10100000352E+00 0.  1.
       -3    1    3    3    0  502  0.29490551821E+02 -0.22652065306E+03  0.43360364487E+03  0.49009532741E+03  0.10100000352E+00 0. -1.
</event>
<event>
 5   0  0.3263679E-04  0.1295722E+04  0.7818609E-02  0.9032965E-01
       -1   -1    0    0    0  501  0.00000000000E+00  0.00000000000E+00  0.32543402465E+03  0.32543402469E+03  0.50400001928E-02 0.  1.
        1   -1    0    0  501    0  0.00000000000E+00  0.00000000000E+00 -0.12897355815E+04  0.12897355815E+04  0.50400001928E-02 0. -1.
    10030    2    1    2    0    0  0.00000000000E+00  0.00000000000E+00 -0.96430155687E+03  0.16151696062E+04  0.12957219471E+04 0.  0.
        2    1    3    3  502    0  0.57404523704E+03 -0.24197580778E+03 -0.26040806025E+03  0.67519818095E+03  0.25500000920E-02 0. -1.
       -2    1    3    3    0  502 -0.57404523704E+03  0.24197580778E+03 -0.70389349662E+03  0.93997142526E+03  0.25500000920E-02 0.  1.
</event>
<event>
 5   0  0.5787604E-04  0.1294911E+04  0.7818609E-02  0.9033611E-01
       -2   -1    0    0    0  501  0.00000000000E+00  0.00000000000E+00  0.23389526823E+03  0.23389526824E+03  0.25500000920E-02 0.  1.
        2   -1    0    0  501    0  0.00000000000E+00  0.00000000000E+00 -0.17922480804E+04  0.17922480804E+04  0.25500000920E-02 0. -1.
    10030    2    1    2    0    0  0.00000000000E+00  0.00000000000E+00 -0.15583528122E+04  0.20261433486E+04  0.12949105691E+04 0.  0.
        4    1    3    3  502    0 -0.99000272840E+02 -0.49780332674E+02  0.21894559410E+03  0.24539340175E+03  0.12699999809E+01 0.  1.
       -4    1    3    3    0  502  0.99000272840E+02  0.49780332674E+02 -0.17772984063E+04  0.17807499469E+04  0.12699999809E+01 0. -1.
</event>
<event>
 5   0  0.3335747E-04  0.1257447E+04  0.7818609E-02  0.9064008E-01
        1   -1    0    0  501    0  0.00000000000E+00  0.00000000000E+00  0.55468385167E+03  0.55468385169E+03  0.50400001928E-02 0. -1.
       -1   -1    0    0    0  501  0.00000000000E+00  0.00000000000E+00 -0.71264568635E+03  0.71264568637E+03  0.50400001928E-02 0.  1.
    10030    2    1    2    0    0  0.00000000000E+00  0.00000000000E+00 -0.15796183469E+03  0.12673295381E+04  0.12574467054E+04 0.  0.
        3    1    3    3  502    0 -0.38768305950E+03  0.17394064506E+03  0.38806112902E+03  0.57545195515E+03  0.10100000352E+00 0. -1.
       -3    1    3    3    0  502  0.38768305950E+03 -0.17394064506E+03 -0.54602296371E+03  0.69187758291E+03  0.10100000352E+00 0.  1.
</event>
<event>
 5   0  0.3403833E-04  0.1302865E+04  0.7818609E-02  0.9027296E-01
       -1   -1    0    0    0  501  0.00000000000E+00  0.00000000000E+00  0.77705534487E+03  0.77705534489E+03  0.50400001928E-02 0.  1.
        1   -1    0    0  501    0  0.00000000000E+00  0.00000000000E+00 -0.54611878790E+03  0.54611878792E+03  0.50400001928E-02 0. -1.
    10030    2    1    2    0    0  0.00000000000E+00  0.00000000000E+00  0.23093655697E+03  0.13231741328E+04  0.13028653393E+04 0.  0.
        1    1    3    3  502    0 -0.25967177200E+03  0.46445334750E+03  0.49711609281E+03  0.72819691769E+03  0.50400001928E-02 0.  1.
       -1    1    3    3    0  502  0.25967177200E+03 -0.46445334750E+03 -0.26617953584E+03  0.59497721511E+03  0.50400001928E-02 0. -1.
</event>
<event>
 5   0  0.5787604E-04  0.1303198E+04  0.7818609E-02  0.9027033E-01
        2   -1    0    0  501    0  0.00000000000E+00  0.00000000000E+00  0.12223091323E+04  0.12223091323E+04  0.25500000920E-02 0. -1.
       -2   -1    0    0    0  501  0.00000000000E+00  0.00000000000E+00 -0.34735986521E+03  0.34735986522E+03  0.25500000920E-02 0.  1.
    10030    2    1    2    0    0  0.00000000000E+00  0.00000000000E+00  0.87494926710E+03  0.15696689975E+04  0.13031978138E+04 0.  0.
        4    1    3    3  502    0 -0.13384834573E+03  0.20255080597E+03 -0.29084663553E+03  0.37886090714E+03  0.12699999809E+01 0.  1.
       -4    1    3    3    0  502  0.13384834573E+03 -0.20255080597E+03  0.11657959026E+04  0.11908080904E+04  0.12699999809E+01 0. -1.
</event>
<event>
 5   0  0.6007125E-04  0.1294841E+04  0.7818609E-02  0.9033666E-01
        2   -1    0    0  501    0  0.00000000000E+00  0.00000000000E+00  0.56990024685E+03  0.56990024686E+03  0.25500000920E-02 0. -1.
       -2   -1    0    0    0  501  0.00000000000E+00  0.00000000000E+00 -0.73548555886E+03  0.73548555887E+03  0.25500000920E-02 0.  1.
    10030    2    1    2    0    0  0.00000000000E+00  0.00000000000E+00 -0.16558531201E+03  0.13053858057E+04  0.12948411510E+04 0.  0.
        5    1    3    3  502    0  0.15530023904E+03 -0.56614563743E+03  0.19236270657E+03  0.61779005164E+03  0.46999998093E+01 0. -1.
       -5    1    3    3    0  502 -0.15530023904E+03  0.56614563743E+03 -0.35794801858E+03  0.68759575408E+03  0.46999998093E+01 0.  1.
</event>
<event>
 5   0  0.3263679E-04  0.1305154E+04  0.7818609E-02  0.9025488E-01
       -1   -1    0    0    0  501  0.00000000000E+00  0.00000000000E+00  0.65345510641E+03  0.65345510643E+03  0.50400001928E-02 0. -1.
        1   -1    0    0  501    0  0.00000000000E+00  0.00000000000E+00 -0.65170047780E+03  0.65170047782E+03  0.50400001928E-02 0.  1.
    10030    2    1    2    0    0  0.00000000000E+00  0.00000000000E+00  0.17546286151E+01  0.13051555843E+04  0.13051544048E+04 0.  0.
        2    1    3    3  502    0 -0.25580478937E+03 -0.40740016058E+03 -0.44008342705E+03  0.65198497212E+03  0.25500000920E-02 0.  1.
       -2    1    3    3    0  502  0.25580478937E+03  0.40740016058E+03  0.44183805566E+03  0.65317061213E+03  0.25500000920E-02 0. -1.
</event>
<event>
 5   0  0.3263679E-04  0.1297346E+04  0.7818609E-02  0.9031673E-01
       -1   -1    0    0    0  501  0.00000000000E+00  0.00000000000E+00  0.34676262490E+03  0.34676262494E+03  0.50400001928E-02 0.  1.
        1   -1    0    0  501    0  0.00000000000E+00  0.00000000000E+00 -0.12134423173E+04  0.12134423173E+04  0.50400001928E-02 0. -1.
    10030    2    1    2    0    0  0.00000000000E+00  0.00000000000E+00 -0.86667969239E+03  0.15602049422E+04  0.12973456643E+04 0.  0.
        2    1    3    3  502    0  0.46815484051E+03 -0.16783018931E+03  0.67502709507E+02  0.50188897471E+03  0.25500000920E-02 0.  1.
       -2    1    3    3    0  502 -0.46815484051E+03  0.16783018931E+03 -0.93418240190E+03  0.10583159675E+04  0.25500000920E-02 0. -1.
</event>
<event>
 5   0  0.3403833E-04  0.1301593E+04  0.7818609E-02  0.9028303E-01
        1   -1    0    0  501    0  0.00000000000E+00  0.00000000000E+00  0.12420148769E+04  0.12420148769E+04  0.50400001928E-02 0. -1.
       -1   -1    0    0    0  501  0.00000000000E+00  0.00000000000E+00 -0.34100705440E+03  0.34100705443E+03  0.50400001928E-02 0.  1.
    10030    2    1    2    0    0  0.00000000000E+00  0.00000000000E+00  0.90100782254E+03  0.15830219314E+04  0.13015926164E+04 0.  0.
        1    1    3    3  502    0 -0.47527240157E+03 -0.41094257482E+03  0.65682494820E+03  0.90894260990E+03  0.50400001928E-02 0. -1.
       -1    1    3    3    0  502  0.47527240157E+03  0.41094257482E+03  0.24418287434E+03  0.67407932148E+03  0.50400001928E-02 0.  1.
</event>
<event>
 5   0  0.3337520E-04  0.1298985E+04  0.7818609E-02  0.9030371E-01
       -1   -1    0    0    0  501  0.00000000000E+00  0.00000000000E+00  0.25395755687E+03  0.25395755692E+03  0.50400001928E-02 0.  1.
        1   -1    0    0  501    0  0.00000000000E+00  0.00000000000E+00 -0.16610660592E+04  0.16610660592E+04  0.50400001928E-02 0. -1.
    10030    2    1    2    0    0  0.00000000000E+00  0.00000000000E+00 -0.14071085024E+04  0.19150236162E+04  0.12989846469E+04 0.  0.
        5    1    3    3  502    0  0.29227275807E+03  0.76372224781E+02 -0.15511653789E+04  0.15803139576E+04  0.46999998093E+01 0. -1.
       -5    1    3    3    0  502 -0.29227275807E+03 -0.76372224781E+02  0.14405687658E+03  0.33470965853E+03  0.46999998093E+01 0.  1.
</event>
<event>
 5   0  0.3335747E-04  0.1297494E+04  0.7818609E-02  0.9031555E-01
        1   -1    0    0  501    0  0.00000000000E+00  0.00000000000E+00  0.21349671903E+04  0.21349671903E+04  0.50400001928E-02 0. -1.
       -1   -1    0    0    0  501  0.00000000000E+00  0.00000000000E+00 -0.19713294227E+03  0.19713294233E+03  0.50400001928E-02 0.  1.
    10030    2    1    2    0    0  0.00000000000E+00  0.00000000000E+00  0.19378342481E+04  0.23321001327E+04  0.12974935282E+04 0.  0.
        3    1    3    3  502    0 -0.10386466191E+03 -0.63992113399E+03  0.92542819076E+03  0.11299133915E+04  0.10100000352E+00 0.  1.
       -3    1    3    3    0  502  0.10386466191E+03  0.63992113399E+03  0.10124060573E+04  0.12021867412E+04  0.10100000352E+00 0. -1.
</event>
<event>
 5   0  0.5957913E-04  0.1289761E+04  0.7818609E-02  0.9037725E-01
        2   -1    0    0  501    0  0.00000000000E+00  0.00000000000E+00  0.85875525613E+03  0.85875525613E+03  0.25500000920E-02 0. -1.
       -2   -1    0    0    0  501  0.00000000000E+00  0.00000000000E+00 -0.48427153200E+03  0.48427153201E+03  0.25500000920E-02 0.  1.
    10030    2    1    2    0    0  0.00000000000E+00  0.00000000000E+00  0.37448372412E+03  0.13430267881E+04  0.12897607895E+04 0.  0.
        1    1    3    3  502    0 -0.27441095645E+03  0.58264796549E+03  0.15285219918E+03  0.66192433067E+03  0.50400001928E-02 0.  1.
       -1    1    3    3    0  502  0.27441095645E+03 -0.58264796549E+03  0.22163152494E+03  0.68110245748E+03  0.50400001928E-02 0. -1.
</event>
<event>
 5   0  0.3335747E-04  0.1302495E+04  0.7818609E-02  0.9027589E-01
        1   -1    0    0  501    0  0.00000000000E+00  0.00000000000E+00  0.10914094313E+04  0.10914094313E+04  0.50400001928E-02 0. -1.
       -1   -1    0    0    0  501  0.00000000000E+00  0.00000000000E+00 -0.38860176185E+03  0.38860176189E+03  0.50400001928E-02 0.  1.
    10030    2    1    2    0    0  0.00000000000E+00  0.00000000000E+00  0.70280766946E+03  0.14800111932E+04  0.13024954940E+04 0.  0.
        3    1    3    3  502    0  0.57612591579E+02  0.42283331175E+03 -0.20759533965E+03  0.47455564003E+03  0.10100000352E+00 0.  1.
       -3    1    3    3    0  502 -0.57612591579E+02 -0.42283331175E+03  0.91040300911E+03  0.10054555532E+04  0.10100000352E+00 0. -1.
</event>
<event>
 5   0  0.3403833E-04  0.1303367E+04  0.7818609E-02  0.9026899E-01
       -1   -1    0    0    0  501  0.00000000000E+00  0.00000000000E+00  0.17708020681E+03  0.17708020689E+03  0.50400001928E-02 0. -1.
        1   -1    0    0  501    0  0.00000000000E+00  0.00000000000E+00 -0.23983005680E+04  0.23983005680E+04  0.50400001928E-02 0.  1.
    10030    2    1    2    0    0  0.00000000000E+00  0.00000000000E+00 -0.22212203612E+04  0.25753807749E+04  0.13033672709E+04 0.  0.
        1    1    3    3  502    0 -0.57810325053E+03  0.22094331860E+03 -0.70724530920E+03  0.93979532119E+03  0.50400001928E-02 0.  1.
       -1    1    3    3    0  502  0.57810325053E+03 -0.22094331860E+03 -0.15139750520E+04  0.16355854537E+04  0.50400001928E-02 0. -1.
</event>
<event>
 5   0  0.3403833E-04  0.1298574E+04  0.7818609E-02  0.9030697E-01
        1   -1    0    0  501    0  0.00000000000E+00  0.00000000000E+00  0.13826539765E+04  0.13826539765E+04  0.50400001928E-02 0.  1.
       -1   -1    0    0    0  501  0.00000000000E+00  0.00000000000E+00 -0.30490156049E+03  0.30490156053E+03  0.50400001928E-02 0. -1.
    10030    2    1    2    0    0  0.00000000000E+00  0.00000000000E+00  0.10777524160E+04  0.16875555370E+04  0.12985736099E+04 0.  0.
        1    1    3    3  502    0  0.56011303695E+02  0.29622805454E+03 -0.20843030645E+03  0.36651264523E+03  0.50400001928E-02 0. -1.
       -1    1    3    3    0  502 -0.56011303695E+02 -0.29622805454E+03  0.12861827224E+04  0.13210428918E+04  0.50400001928E-02 0.  1.
</event>
<event>
 5   0  0.3263679E-04  0.1304134E+04  0.7818609E-02  0.9026293E-01
       -1   -1    0    0    0  501  0.00000000000E+00  0.00000000000E+00  0.21880788780E+03  0.21880788786E+03  0.50400001928E-02 0. -1.
        1   -1    0    0  501    0  0.00000000000E+00  0.00000000000E+00 -0.19432175804E+04  0.19432175804E+04  0.50400001928E-02 0.  1.
    10030    2    1    2    0    0  0.00000000000E+00  0.00000000000E+00 -0.17244096926E+04  0.21620254683E+04  0.13041339416E+04 0.  0.
        2    1    3    3  502    0 -0.30399298481E+03 -0.50258684187E+03 -0.39275623265E+03  0.70658525793E+03  0.25500000920E-02 0. -1.
       -2    1    3    3    0  502  0.30399298481E+03  0.50258684187E+03 -0.13316534600E+04  0.14554402104E+04  0.25500000920E-02 0.  1.
</event>
<event>
 5   0  0.3335747E-04  0.1304822E+04  0.7818609E-02  0.9025750E-01
        1   -1    0    0  501    0  0.00000000000E+00  0.00000000000E+00  0.63666163562E+03  0.63666163564E+03  0.50400001928E-02 0. -1.
       -1   -1    0    0    0  501  0.00000000000E+00  0.00000000000E+00 -0.66855026965E+03  0.66855026967E+03  0.50400001928E-02 0.  1.
    10030    2    1    2    0    0  0.00000000000E+00  0.00000000000E+00 -0.31888634031E+02  0.13052119053E+04  0.13048222993E+04 0.  0.
        3    1    3    3  502    0  0.30509636338E+03  0.26672658649E+03  0.49549440749E+03  0.64011060056E+03  0.10100000352E+00 0. -1.
       -3    1    3    3    0  502 -0.30509636338E+03 -0.26672658649E+03 -0.52738304152E+03  0.66510130475E+03  0.10100000352E+00 0.  1.
</event>
<event>
 5   0  0.5957913E-04  0.1309340E+04  0.7818609E-02  0.9022191E-01
        2   -1    0    0  501    0  0.00000000000E+00  0.00000000000E+00  0.11515002124E+04  0.11515002124E+04  0.25500000920E-02 0.  1.
       -2   -1    0    0    0  501  0.00000000000E+00  0.00000000000E+00 -0.37220384253E+03  0.37220384254E+03  0.25500000920E-02 0. -1.
    10030    2    1    2    0    0  0.00000000000E+00  0.00000000000E+00  0.77929636989E+03  0.15237040550E+04  0.13093399921E+04 0.  0.
        1    1    3    3  502    0 -0.86746283491E+02 -0.55240102476E+03  0.78586165692E+03  0.96449486971E+03  0.50400001928E-02 0.  1.
       -1    1    3    3    0  502  0.86746283491E+02  0.55240102476E+03 -0.65652870345E+01  0.55920918526E+03  0.50400001928E-02 0. -1.
</event>
<event>
 5   0  0.5384960E-04  0.1305275E+04  0.7818609E-02  0.9025392E-01
        2   -1    0    0  501    0  0.00000000000E+00  0.00000000000E+00  0.10572329680E+04  0.10572329680E+04  0.25500000920E-02 0.  1.
       -2   -1    0    0    0  501  0.00000000000E+00  0.00000000000E+00 -0.40287807782E+03  0.40287807782E+03  0.25500000920E-02 0. -1.
    10030    2    1    2    0    0  0.00000000000E+00  0.00000000000E+00  0.65435489021E+03  0.14601110459E+04  0.13052754284E+04 0.  0.
        3    1    3    3  502    0  0.37489622044E+03  0.13169745359E+03 -0.25196745882E+03  0.47050930478E+03  0.10100000352E+00 0. -1.
       -3    1    3    3    0  502 -0.37489622044E+03 -0.13169745359E+03  0.90632234903E+03  0.98960174107E+03  0.10100000352E+00 0.  1.
</event>
<event>
 5   0  0.3335747E-04  0.1298648E+04  0.7818609E-02  0.9030638E-01
       -1   -1    0    0    0  501  0.00000000000E+00  0.00000000000E+00  0.59049209980E+03  0.59049209982E+03  0.50400001928E-02 0. -1.
        1   -1    0    0  501    0  0.00000000000E+00  0.00000000000E+00 -0.71401726731E+03  0.71401726733E+03  0.50400001928E-02 0.  1.
    10030    2    1    2    0    0  0.00000000000E+00  0.00000000000E+00 -0.12352516751E+03  0.13045093671E+04  0.12986478437E+04 0.  0.
        3    1    3    3  502    0 -0.38373002442E+02 -0.37026097020E+03  0.47266871871E+03  0.60164890195E+03  0.10100000352E+00 0. -1.
       -3    1    3    3    0  502  0.38373002442E+02  0.37026097020E+03 -0.59619388622E+03  0.70286046520E+03  0.10100000352E+00 0.  1.
</event>
<event>
 5   0  0.6007125E-04  0.1294819E+04  0.7818609E-02  0.9033684E-01
        2   -1    0    0  501    0  0.00000000000E+00  0.00000000000E+00  0.97407386529E+03  0.97407386530E+03  0.25500000920E-02 0. -1.
       -2   -1    0    0    0  501  0.00000000000E+00  0.00000000000E+00 -0.43029497495E+03  0.43029497496E+03  0.25500000920E-02 0.  1.
    10030    2    1    2    0    0  0.00000000000E+00  0.00000000000E+00  0.54377889034E+03  0.14043688403E+04  0.12948190445E+04 0.  0.
        5    1    3    3  502    0 -0.21525060493E+03 -0.60738092410E+03  0.20439425218E+03  0.67604993174E+03  0.46999998093E+01 0. -1.
       -5    1    3    3    0  502  0.21525060493E+03  0.60738092410E+03  0.33938463816E+03  0.72831890852E+03  0.46999998093E+01 0.  1.
</event>
<event>
 5   0  0.3263679E-04  0.1296677E+04  0.7818609E-02  0.9032205E-01
       -1   -1    0    0    0  501  0.00000000000E+00  0.00000000000E+00  0.41922893729E+03  0.41922893732E+03  0.50400001928E-02 0. -1.
        1   -1    0    0  501    0  0.00000000000E+00  0.00000000000E+00 -0.10026566167E+04  0.10026566167E+04  0.50400001928E-02 0.  1.
    10030    2    1    2    0    0  0.00000000000E+00  0.00000000000E+00 -0.58342767937E+03  0.14218855540E+04  0.12966767799E+04 0.  0.
        2    1    3    3  502    0  0.40103851976E+03 -0.51359119220E+02 -0.84748006325E+03  0.93898461706E+03  0.25500000920E-02 0.  1.
       -2    1    3    3    0  502 -0.40103851976E+03  0.51359119220E+02  0.26405238388E+03  0.48290093694E+03  0.25500000920E-02 0. -1.
</event>
<event>
 5   0  0.3263679E-04  0.1305540E+04  0.7818609E-02  0.9025183E-01
       -1   -1    0    0    0  501  0.00000000000E+00  0.00000000000E+00  0.10487123441E+04  0.10487123441E+04  0.50400001928E-02 0. -1.
        1   -1    0    0  501    0  0.00000000000E+00  0.00000000000E+00 -0.40631603270E+03  0.40631603273E+03  0.50400001928E-02 0.  1.
    10030    2    1    2    0    0  0.00000000000E+00  0.00000000000E+00  0.64239631138E+03  0.14550283768E+04  0.13055399483E+04 0.  0.
        2    1    3    3  502    0 -0.53539135831E+03  0.19154496786E+03  0.67849204235E+03  0.88525975443E+03  0.25500000920E-02 0. -1.
       -2    1    3    3    0  502  0.53539135831E+03 -0.19154496786E+03 -0.36095730965E+02  0.56976862240E+03  0.25500000920E-02 0.  1.
</event>
<event>
 5   0  0.3403833E-04  0.1296534E+04  0.7818609E-02  0.9032318E-01
       -1   -1    0    0    0  501  0.00000000000E+00  0.00000000000E+00  0.83361367688E+03  0.83361367690E+03  0.50400001928E-02 0.  1.
        1   -1    0    0  501    0  0.00000000000E+00  0.00000000000E+00 -0.50413062786E+03  0.50413062789E+03  0.50400001928E-02 0. -1.
    10030    2    1    2    0    0  0.00000000000E+00  0.00000000000E+00  0.32948304902E+03  0.13377443048E+04  0.12965341281E+04 0.  0.
        1    1    3    3  502    0  0.12761694696E+03 -0.26824921509E+03  0.75925598784E+03  0.81529956559E+03  0.50400001928E-02 0.  1.
       -1    1    3    3    0  502 -0.12761694696E+03  0.26824921509E+03 -0.42977293882E+03  0.52244473920E+03  0.50400001928E-02 0. -1.
</event>
<event>
 5   0  0.3337520E-04  0.1292998E+04  0.7818609E-02  0.9035136E-01
       -1   -1    0    0    0  501  0.00000000000E+00  0.00000000000E+00  0.27293120458E+03  0.27293120463E+03  0.50400001928E-02 0. -1.
        1   -1    0    0  501    0  0.00000000000E+00  0.00000000000E+00 -0.15313786639E+04  0.15313786639E+04  0.50400001928E-02 0.  1.
    10030    2    1    2    0    0  0.00000000000E+00  0.00000000000E+00 -0.12584474594E+04  0.18043098686E+04  0.12929981028E+04 0.  0.
        5    1    3    3  502    0  0.43034947924E+02 -0.65118972323E+02  0.26630783553E+03  0.27755078916E+03  0.46999998093E+01 0. -1.
       -5    1    3    3    0  502 -0.43034947924E+02  0.65118972323E+02 -0.15247552949E+04  0.15267590794E+04  0.46999998093E+01 0.  1.
</event>
<event>
 5   0  0.6007125E-04  0.1300184E+04  0.7818609E-02  0.9029419E-01
        2   -1    0    0  501    0  0.00000000000E+00  0.00000000000E+00  0.74157210000E+03  0.74157210000E+03  0.25500000920E-02 0.  1.
       -2   -1    0    0    0  501  0.00000000000E+00  0.00000000000E+00 -0.56989724372E+03  0.56989724373E+03  0.25500000920E-02 0. -1.
    10030    2    1    2    0    0  0.00000000000E+00  0.00000000000E+00  0.17167485627E+03  0.13114693437E+04  0.13001844420E+04 0.  0.
        5    1    3    3  502    0 -0.23374316846E+03  0.39777215982E+03 -0.37611050605E+03  0.59526444769E+03  0.46999998093E+01 0. -1.
       -5    1    3    3    0  502  0.23374316846E+03 -0.39777215982E+03  0.54778536233E+03  0.71620489603E+03  0.46999998093E+01 0.  1.
</event>
<event>
 5   0  0.5787604E-04  0.1296818E+04  0.7818609E-02  0.9032092E-01
       -2   -1    0    0    0  501  0.00000000000E+00  0.00000000000E+00  0.17262752037E+04  0.17262752037E+04  0.25500000920E-02 0. -1.
        2   -1    0    0  501    0  0.00000000000E+00  0.00000000000E+00 -0.24354992003E+03  0.24354992004E+03  0.25500000920E-02 0.  1.
    10030    2    1    2    0    0  0.00000000000E+00  0.00000000000E+00  0.14827252837E+04  0.19698251238E+04  0.12968179330E+04 0.  0.
        4    1    3    3  502    0 -0.26490154714E+03  0.49506641736E+03  0.12339604913E+04  0.13557004441E+04  0.12699999809E+01 0. -1.
       -4    1    3    3    0  502  0.26490154714E+03 -0.49506641736E+03  0.24876479239E+03  0.61412467961E+03  0.12699999809E+01 0.  1.
</event>
<event>
 5   0  0.3337520E-04  0.1299891E+04  0.7818609E-02  0.9029652E-01
        1   -1    0    0  501    0  0.00000000000E+00  0.00000000000E+00  0.88690860728E+03  0.88690860730E+03  0.50400001928E-02 0.  1.
       -1   -1    0    0    0  501  0.00000000000E+00  0.00000000000E+00 -0.47629385372E+03  0.47629385375E+03  0.50400001928E-02 0. -1.
    10030    2    1    2    0    0  0.00000000000E+00  0.00000000000E+00  0.41061475356E+03  0.13632024610E+04  0.12998909470E+04 0.  0.
        5    1    3    3  502    0  0.42973561781E+03 -0.22498731616E+03 -0.24832890777E+03  0.54495993438E+03  0.46999998093E+01 0. -1.
       -5    1    3    3    0  502 -0.42973561781E+03  0.22498731616E+03  0.65894366132E+03  0.81824252667E+03  0.46999998093E+01 0.  1.
</event>
<event>
 5   0  0.3337520E-04  0.1300994E+04  0.7818609E-02  0.9028777E-01
        1   -1    0    0  501    0  0.00000000000E+00  0.00000000000E+00  0.14797468195E+04  0.14797468195E+04  0.50400001928E-02 0. -1.
       -1   -1    0    0    0  501  0.00000000000E+00  0.00000000000E+00 -0.28595852908E+03  0.28595852913E+03  0.50400001928E-02 0.  1.
    10030    2    1    2    0    0  0.00000000000E+00  0.00000000000E+00  0.11937882904E+04  0.17657053486E+04  0.13009938109E+04 0.  0.
        5    1    3    3  502    0  0.38606893042E+03  0.25579074114E+03  0.12168318425E+04  0.13019907623E+04  0.46999998093E+01 0. -1.
       -5    1    3    3    0  502 -0.38606893042E+03 -0.25579074114E+03 -0.23043552048E+02  0.46371458633E+03  0.46999998093E+01 0.  1.
</event>
<event>
 5   0  0.5957913E-04  0.1298177E+04  0.7818609E-02  0.9031012E-01
       -2   -1    0    0    0  501  0.00000000000E+00  0.00000000000E+00  0.46507611494E+03  0.46507611495E+03  0.25500000920E-02 0.  1.
        2   -1    0    0  501    0  0.00000000000E+00  0.00000000000E+00 -0.90590684915E+03  0.90590684916E+03  0.25500000920E-02 0. -1.
    10030    2    1    2    0    0  0.00000000000E+00  0.00000000000E+00 -0.44083073421E+03  0.13709829641E+04  0.12981766258E+04 0.  0.
        1    1    3    3  502    0  0.48624646377E+03 -0.19567135550E+03  0.18393188575E+03  0.55547622948E+03  0.50400001928E-02 0. -1.
       -1    1    3    3    0  502 -0.48624646377E+03  0.19567135550E+03 -0.62476261996E+03  0.81550673463E+03  0.50400001928E-02 0.  1.
</event>
<event>
 5   0  0.5787604E-04  0.1303683E+04  0.7818609E-02  0.9026649E-01
       -2   -1    0    0    0  501  0.00000000000E+00  0.00000000000E+00  0.26917325611E+03  0.26917325612E+03  0.25500000920E-02 0. -1.
        2   -1    0    0  501    0  0.00000000000E+00  0.00000000000E+00 -0.15785277502E+04  0.15785277502E+04  0.25500000920E-02 0.  1.
    10030    2    1    2    0    0  0.00000000000E+00  0.00000000000E+00 -0.13093544941E+04  0.18477010063E+04  0.13036831738E+04 0.  0.
        4    1    3    3  502    0 -0.21824696404E+03 -0.59386302353E+03 -0.87692945430E+03  0.10813472656E+04  0.12699999809E+01 0. -1.
       -4    1    3    3    0  502  0.21824696404E+03  0.59386302353E+03 -0.43242503977E+03  0.76635374074E+03  0.12699999809E+01 0.  1.
</event>
<event>
 5   0  0.5787604E-04  0.1297603E+04  0.7818609E-02  0.9031468E-01
        2   -1    0    0  501    0  0.00000000000E+00  0.00000000000E+00  0.97681051709E+03  0.97681051709E+03  0.25500000920E-02 0. -1.
       -2   -1    0    0    0  501  0.00000000000E+00  0.00000000000E+00 -0.43093635667E+03  0.43093635668E+03  0.25500000920E-02 0.  1.
    10030    2    1    2    0    0  0.00000000000E+00  0.00000000000E+00  0.54587416042E+03  0.14077468738E+04  0.12976026594E+04 0.  0.
        4    1    3    3  502    0  0.10938515116E+03 -0.57593612802E+03  0.57451503458E+03  0.82081463967E+03  0.12699999809E+01 0. -1.
       -4    1    3    3    0  502 -0.10938515116E+03  0.57593612802E+03 -0.28640874159E+02  0.58693223410E+03  0.12699999809E+01 0.  1.
</event>
<event>
 5   0  0.3274879E-04  0.1303667E+04  0.7818609E-02  0.9026662E-01
        1   -1    0    0  501    0  0.00000000000E+00  0.00000000000E+00  0.13711746237E+04  0.13711746237E+04  0.50400001928E-02 0. -1.
       -1   -1    0    0    0  501  0.00000000000E+00  0.00000000000E+00 -0.30987096534E+03  0.30987096539E+03  0.50400001928E-02 0.  1.
    10030    2    1    2    0    0  0.00000000000E+00  0.00000000000E+00  0.10613036583E+04  0.16810455891E+04  0.13036674489E+04 0.  0.
        4    1    3    3  502    0  0.64652744609E+03 -0.82744858788E+02  0.52238095665E+03  0.83530109959E+03  0.12699999809E+01 0. -1.
       -4    1    3    3    0  502 -0.64652744609E+03  0.82744858788E+02  0.53892270166E+03  0.84574448947E+03  0.12699999809E+01 0.  1.
</event>
<event>
 5   0  0.3335747E-04  0.1302933E+04  0.7818609E-02  0.9027243E-01
        1   -1    0    0  501    0  0.00000000000E+00  0.00000000000E+00  0.41618743492E+03  0.41618743495E+03  0.50400001928E-02 0. -1.
       -1   -1    0    0    0  501  0.00000000000E+00  0.00000000000E+00 -0.10197529614E+04  0.10197529614E+04  0.50400001928E-02 0.  1.
    10030    2    1    2    0    0  0.00000000000E+00  0.00000000000E+00 -0.60356552649E+03  0.14359403964E+04  0.13029326449E+04 0.  0.
        3    1    3    3  502    0 -0.46369613001E+03 -0.45758591628E+03 -0.29840611619E+03  0.71655089990E+03  0.10100000352E+00 0.  1.
       -3    1    3    3    0  502  0.46369613001E+03  0.45758591628E+03 -0.30515941030E+03  0.71938949648E+03  0.10100000352E+00 0. -1.
</event>
<event>
 5   0  0.3403833E-04  0.1302406E+04  0.7818609E-02  0.9027659E-01
       -1   -1    0    0    0  501  0.00000000000E+00  0.00000000000E+00  0.10323635609E+04  0.10323635609E+04  0.50400001928E-02 0.  1.
        1   -1    0    0  501    0  0.00000000000E+00  0.00000000000E+00 -0.41077129763E+03  0.41077129766E+03  0.50400001928E-02 0. -1.
    10030    2    1    2    0    0  0.00000000000E+00  0.00000000000E+00  0.62159226324E+03  0.14431348585E+04  0.13024059575E+04 0.  0.
        1    1    3    3  502    0 -0.48821255216E+02  0.13463850236E+03 -0.39310476900E+03  0.41838068874E+03  0.50400001928E-02 0. -1.
       -1    1    3    3    0  502  0.48821255216E+02 -0.13463850236E+03  0.10146970322E+04  0.10247541698E+04  0.50400001928E-02 0.  1.
</event>
<event>
 5   0  0.5787604E-04  0.1300196E+04  0.7818609E-02  0.9029410E-01
        2   -1    0    0  501    0  0.00000000000E+00  0.00000000000E+00  0.35252260201E+03  0.35252260202E+03  0.25500000920E-02 0.  1.
       -2   -1    0    0    0  501  0.00000000000E+00  0.00000000000E+00 -0.11988657458E+04  0.11988657458E+04  0.25500000920E-02 0. -1.
    10030    2    1    2    0    0  0.00000000000E+00  0.00000000000E+00 -0.84634314375E+03  0.15513883478E+04  0.13001957886E+04 0.  0.
        4    1    3    3  502    0  0.30941958070E+03  0.56327848107E+03 -0.54009585663E+03  0.83948095357E+03  0.12699999809E+01 0. -1.
       -4    1    3    3    0  502 -0.30941958070E+03 -0.56327848107E+03 -0.30624728712E+03  0.71190739421E+03  0.12699999809E+01 0.  1.
</event>
<event>
 5   0  0.3274879E-04  0.1304484E+04  0.7818609E-02  0.9026017E-01
        1   -1    0    0  501    0  0.00000000000E+00  0.00000000000E+00  0.17097813958E+04  0.17097813958E+04  0.50400001928E-02 0.  1.
       -1   -1    0    0    0  501  0.00000000000E+00  0.00000000000E+00 -0.24881521604E+03  0.24881521609E+03  0.50400001928E-02 0. -1.
    10030    2    1    2    0    0  0.00000000000E+00  0.00000000000E+00  0.14609661798E+04  0.19585966119E+04  0.13044840014E+04 0.  0.
        4    1    3    3  502    0 -0.16830278191E+03  0.57898966913E+03  0.11039243166E+04  0.12578574534E+04  0.12699999809E+01 0. -1.
       -4    1    3    3    0  502  0.16830278191E+03 -0.57898966913E+03  0.35704186319E+03  0.70073915855E+03  0.12699999809E+01 0.  1.
</event>
<event>
 5   0  0.5957913E-04  0.1299030E+04  0.7818609E-02  0.9030335E-01
       -2   -1    0    0    0  501  0.00000000000E+00  0.00000000000E+00  0.26541764541E+03  0.26541764542E+03  0.25500000920E-02 0. -1.
        2   -1    0    0  501    0  0.00000000000E+00  0.00000000000E+00 -0.15894558614E+04  0.15894558614E+04  0.25500000920E-02 0.  1.
    10030    2    1    2    0    0  0.00000000000E+00  0.00000000000E+00 -0.13240382160E+04  0.18548735068E+04  0.12990298414E+04 0.  0.
        1    1    3    3  502    0 -0.15106806867E+03  0.21914116171E+03 -0.15080073593E+04  0.15313166249E+04  0.50400001928E-02 0.  1.
       -1    1    3    3    0  502  0.15106806867E+03 -0.21914116171E+03  0.18396914328E+03  0.32355688191E+03  0.50400001928E-02 0. -1.
</event>
<event>
 5   0  0.3337520E-04  0.1297477E+04  0.7818609E-02  0.9031568E-01
       -1   -1    0    0    0  501  0.00000000000E+00  0.00000000000E+00  0.64549351264E+03  0.64549351266E+03  0.50400001928E-02 0. -1.
        1   -1    0    0  501    0  0.00000000000E+00  0.00000000000E+00 -0.65200010045E+03  0.65200010047E+03  0.50400001928E-02 0.  1.
    10030    2    1    2    0    0  0.00000000000E+00  0.00000000000E+00 -0.65065878173E+01  0.12974936131E+04  0.12974772986E+04 0.  0.
        5    1    3    3  502    0 -0.15955095739E+03  0.58567630551E+03  0.22558686690E+03  0.64759923359E+03  0.46999998093E+01 0. -1.
       -5    1    3    3    0  502  0.15955095739E+03 -0.58567630551E+03 -0.23209345472E+03  0.64989437954E+03  0.46999998093E+01 0.  1.
</event>
<event>
 5   0  0.5384960E-04  0.1295220E+04  0.7818609E-02  0.9033365E-01
       -2   -1    0    0    0  501  0.00000000000E+00  0.00000000000E+00  0.25256483521E+03  0.25256483523E+03  0.25500000920E-02 0. -1.
        2   -1    0    0  501    0  0.00000000000E+00  0.00000000000E+00 -0.16605578841E+04  0.16605578841E+04  0.25500000920E-02 0.  1.
    10030    2    1    2    0    0  0.00000000000E+00  0.00000000000E+00 -0.14079930489E+04  0.19131227193E+04  0.12952197163E+04 0.  0.
        3    1    3    3  502    0 -0.25236220912E+02 -0.21929338150E+03 -0.16032752320E+04  0.16183998066E+04  0.10100000352E+00 0.  1.
       -3    1    3    3    0  502  0.25236220912E+02  0.21929338150E+03  0.19528218319E+03  0.29472291273E+03  0.10100000352E+00 0. -1.
</event>
<event>
 5   0  0.5957913E-04  0.1300603E+04  0.7818609E-02  0.9029087E-01
        2   -1    0    0  501    0  0.00000000000E+00  0.00000000000E+00  0.13596124333E+04  0.13596124333E+04  0.25500000920E-02 0.  1.
       -2   -1    0    0    0  501  0.00000000000E+00  0.00000000000E+00 -0.31103888985E+03  0.31103888986E+03  0.25500000920E-02 0. -1.
    10030    2    1    2    0    0  0.00000000000E+00  0.00000000000E+00  0.10485735434E+04  0.16706513231E+04  0.13006034628E+04 0.  0.
        1    1    3    3  502    0 -0.46581495497E+03  0.22787905809E+03  0.20237564572E+02  0.51896242295E+03  0.50400001928E-02 0. -1.
       -1    1    3    3    0  502  0.46581495497E+03 -0.22787905809E+03  0.10283359788E+04  0.11516889002E+04  0.50400001928E-02 0.  1.
</event>
<event>
 5   0  0.3337520E-04  0.1301063E+04  0.7818609E-02  0.9028723E-01
        1   -1    0    0  501    0  0.00000000000E+00  0.00000000000E+00  0.49741974037E+03  0.49741974040E+03  0.50400001928E-02 0. -1.
       -1   -1    0    0    0  501  0.00000000000E+00  0.00000000000E+00 -0.85077257764E+03  0.85077257766E+03  0.50400001928E-02 0.  1.
    10030    2    1    2    0    0  0.00000000000E+00  0.00000000000E+00 -0.35335283727E+03  0.13481923181E+04  0.13010627575E+04 0.  0.
        5    1    3    3  502    0 -0.98581820074E+02  0.31250998972E+03 -0.75898272523E+03  0.82671502715E+03  0.46999998093E+01 0.  1.
       -5    1    3    3    0  502  0.98581820074E+02 -0.31250998972E+03  0.40562988796E+03  0.52147729090E+03  0.46999998093E+01 0. -1.
</event>
<event>
 5   0  0.3263679E-04  0.1297763E+04  0.7818609E-02  0.9031341E-01
       -1   -1    0    0    0  501  0.00000000000E+00  0.00000000000E+00  0.24050905932E+03  0.24050905937E+03  0.50400001928E-02 0.  1.
        1   -1    0    0  501    0  0.00000000000E+00  0.00000000000E+00 -0.17506506967E+04  0.17506506967E+04  0.50400001928E-02 0. -1.
    10030    2    1    2    0    0  0.00000000000E+00  0.00000000000E+00 -0.15101416374E+04  0.19911597561E+04  0.12977632331E+04 0.  0.
        2    1    3    3  502    0  0.33121378029E+03  0.28122715503E+03 -0.15645737319E+02  0.43478278495E+03  0.25500000920E-02 0.  1.
       -2    1    3    3    0  502 -0.33121378029E+03 -0.28122715503E+03 -0.14944959001E+04  0.15563769712E+04  0.25500000920E-02 0. -1.
</event>
<event>
 5   0  0.6052864E-04  0.1306435E+04  0.7818609E-02  0.9024477E-01
        2   -1    0    0  501    0  0.00000000000E+00  0.00000000000E+00  0.39749994342E+03  0.39749994343E+03  0.25500000920E-02 0.  1.
       -2   -1    0    0    0  501  0.00000000000E+00  0.00000000000E+00 -0.10734423003E+04  0.10734423003E+04  0.25500000920E-02 0. -1.
    10030    2    1    2    0    0  0.00000000000E+00  0.00000000000E+00 -0.67594235691E+03  0.14709422438E+04  0.13064352317E+04 0.  0.
        2    1    3    3  502    0  0.26458325708E+03  0.36369031564E+03  0.19540900767E+03  0.49036682790E+03  0.25500000920E-02 0.  1.
       -2    1    3    3    0  502 -0.26458325708E+03 -0.36369031564E+03 -0.87135136459E+03  0.98057541587E+03  0.25500000920E-02 0. -1.
</event>
<event>
 5   0  0.6052864E-04  0.1300221E+04  0.7818609E-02  0.9029390E-01
        2   -1    0    0  501    0  0.00000000000E+00  0.00000000000E+00  0.77069648084E+03  0.77069648084E+03  0.25500000920E-02 0.  1.
       -2   -1    0    0    0  501  0.00000000000E+00  0.00000000000E+00 -0.54839189017E+03  0.54839189017E+03  0.25500000920E-02 0. -1.
    10030    2    1    2    0    0  0.00000000000E+00  0.00000000000E+00  0.22230459067E+03  0.13190883710E+04  0.13002210579E+04 0.  0.
        2    1    3    3  502    0  0.21505207020E+03 -0.24684147336E+03 -0.45866115479E+03  0.56351411764E+03  0.25500000920E-02 0. -1.
       -2    1    3    3    0  502 -0.21505207020E+03  0.24684147336E+03  0.68096574546E+03  0.75557425337E+03  0.25500000920E-02 0.  1.
</event>
<event>
 5   0  0.3403833E-04  0.1301456E+04  0.7818609E-02  0.9028412E-01
        1   -1    0    0  501    0  0.00000000000E+00  0.00000000000E+00  0.27181967705E+03  0.27181967709E+03  0.50400001928E-02 0.  1.
       -1   -1    0    0    0  501  0.00000000000E+00  0.00000000000E+00 -0.15578223048E+04  0.15578223048E+04  0.50400001928E-02 0. -1.
    10030    2    1    2    0    0  0.00000000000E+00  0.00000000000E+00 -0.12860026277E+04  0.18296419819E+04  0.13014557324E+04 0.  0.
        1    1    3    3  502    0 -0.11079299867E+03  0.76007597839E+02 -0.15381097472E+04  0.15439669161E+04  0.50400001928E-02 0. -1.
       -1    1    3    3    0  502  0.11079299867E+03 -0.76007597839E+02  0.25210711949E+03  0.28567506578E+03  0.50400001928E-02 0.  1.
</event>
<event>
 5   0  0.3263679E-04  0.1309030E+04  0.7818609E-02  0.9022435E-01
       -1   -1    0    0    0  501  0.00000000000E+00  0.00000000000E+00  0.66491624271E+03  0.66491624273E+03  0.50400001928E-02 0.  1.
        1   -1    0    0  501    0  0.00000000000E+00  0.00000000000E+00 -0.64427616377E+03  0.64427616379E+03  0.50400001928E-02 0. -1.
    10030    2    1    2    0    0  0.00000000000E+00  0.00000000000E+00  0.20640078934E+02  0.13091924065E+04  0.13090296958E+04 0.  0.
        2    1    3    3  502    0 -0.17719756042E+03 -0.25056953637E+03 -0.56785701469E+03  0.64548095024E+03  0.25500000920E-02 0. -1.
       -2    1    3    3    0  502  0.17719756042E+03  0.25056953637E+03  0.58849709363E+03  0.66371145628E+03  0.25500000920E-02 0.  1.
</event>
<event>
 5   0  0.5957913E-04  0.1304218E+04  0.7818609E-02  0.9026227E-01
       -2   -1    0    0    0  501  0.00000000000E+00  0.00000000000E+00  0.19103171034E+03  0.19103171035E+03  0.25500000920E-02 0.  1.
        2   -1    0    0  501    0  0.00000000000E+00  0.00000000000E+00 -0.22260511864E+04  0.22260511864E+04  0.25500000920E-02 0. -1.
    10030    2    1    2    0    0  0.00000000000E+00  0.00000000000E+00 -0.20350194760E+04  0.24170828967E+04  0.13042183336E+04 0.  0.
        1    1    3    3  502    0 -0.40647106148E+03  0.29095185233E+03 -0.24139725805E+03  0.55510750347E+03  0.50400001928E-02 0.  1.
       -1    1    3    3    0  502  0.40647106148E+03 -0.29095185233E+03 -0.17936222180E+04  0.18619753933E+04  0.50400001928E-02 0. -1.
</event>
<event>
 5   0  0.3274879E-04  0.1306323E+04  0.7818609E-02  0.9024566E-01
        1   -1    0    0  501    0  0.00000000000E+00  0.00000000000E+00  0.60090628361E+03  0.60090628364E+03  0.50400001928E-02 0.  1.
       -1   -1    0    0    0  501  0.00000000000E+00  0.00000000000E+00 -0.70996044660E+03  0.70996044662E+03  0.50400001928E-02 0. -1.
    10030    2    1    2    0    0  0.00000000000E+00  0.00000000000E+00 -0.10905416299E+03  0.13108667303E+04  0.13063226148E+04 0.  0.
        4    1    3    3  502    0  0.19508984028E+03 -0.30407823177E+03 -0.60056554951E+03  0.70085962145E+03  0.12699999809E+01 0. -1.
       -4    1    3    3    0  502 -0.19508984028E+03  0.30407823177E+03  0.49151138652E+03  0.61000710881E+03  0.12699999809E+01 0.  1.
</event>
<event>
 5   0  0.5957913E-04  0.1288599E+04  0.7818609E-02  0.9038655E-01
        2   -1    0    0  501    0  0.00000000000E+00  0.00000000000E+00  0.12112246459E+04  0.12112246459E+04  0.25500000920E-02 0. -1.
       -2   -1    0    0    0  501  0.00000000000E+00  0.00000000000E+00 -0.34272922053E+03  0.34272922054E+03  0.25500000920E-02 0.  1.
    10030    2    1    2    0    0  0.00000000000E+00  0.00000000000E+00  0.86849542536E+03  0.15539538664E+04  0.12885993618E+04 0.  0.
        1    1    3    3  502    0  0.44977121221E+03  0.45418915703E+03  0.33672317508E+03  0.72247105849E+03  0.50400001928E-02 0.  1.
       -1    1    3    3    0  502 -0.44977121221E+03 -0.45418915703E+03  0.53177225027E+03  0.83148280793E+03  0.50400001928E-02 0. -1.
</event>
<event>
 5   0  0.3403833E-04  0.1318510E+04  0.7818609E-02  0.9015014E-01
       -1   -1    0    0    0  501  0.00000000000E+00  0.00000000000E+00  0.33068108136E+03  0.33068108140E+03  0.50400001928E-02 0. -1.
        1   -1    0    0  501    0  0.00000000000E+00  0.00000000000E+00 -0.13143096675E+04  0.13143096675E+04  0.50400001928E-02 0.  1.
    10030    2    1    2    0    0  0.00000000000E+00  0.00000000000E+00 -0.98362858617E+03  0.16449907489E+04  0.13185102838E+04 0.  0.
        1    1    3    3  502    0 -0.25454253588E+03 -0.51821267698E+03 -0.94765336106E+02  0.58507841364E+03  0.50400001928E-02 0. -1.
       -1    1    3    3    0  502  0.25454253588E+03  0.51821267698E+03 -0.88886325007E+03  0.10599123353E+04  0.50400001928E-02 0.  1.
</event>
<event>
 5   0  0.5787604E-04  0.1301683E+04  0.7818609E-02  0.9028232E-01
        2   -1    0    0  501    0  0.00000000000E+00  0.00000000000E+00  0.60207269169E+03  0.60207269169E+03  0.25500000920E-02 0. -1.
       -2   -1    0    0    0  501  0.00000000000E+00  0.00000000000E+00 -0.70356055456E+03  0.70356055456E+03  0.25500000920E-02 0.  1.
    10030    2    1    2    0    0  0.00000000000E+00  0.00000000000E+00 -0.10148786287E+03  0.13056332463E+04  0.13016829059E+04 0.  0.
        4    1    3    3  502    0 -0.22432786790E+03 -0.24343506104E+03  0.51132204567E+03  0.60912680826E+03  0.12699999809E+01 0. -1.
       -4    1    3    3    0  502  0.22432786790E+03  0.24343506104E+03 -0.61280990854E+03  0.69650643799E+03  0.12699999809E+01 0.  1.
</event>
<event>
 5   0  0.3337520E-04  0.1298647E+04  0.7818609E-02  0.9030639E-01
       -1   -1    0    0    0  501  0.00000000000E+00  0.00000000000E+00  0.26628138000E+03  0.26628138005E+03  0.50400001928E-02 0. -1.
        1   -1    0    0  501    0  0.00000000000E+00  0.00000000000E+00 -0.15833653270E+04  0.15833653270E+04  0.50400001928E-02 0.  1.
    10030    2    1    2    0    0  0.00000000000E+00  0.00000000000E+00 -0.13170839470E+04  0.18496467071E+04  0.12986465329E+04 0.  0.
        5    1    3    3  502    0 -0.60286002133E+01 -0.51672528945E+02  0.26328406319E+03  0.26841568918E+03  0.46999998093E+01 0. -1.
       -5    1    3    3    0  502  0.60286002133E+01  0.51672528945E+02 -0.15803680102E+04  0.15812310179E+04  0.46999998093E+01 0.  1.
</event>
<event>
 5   0  0.5384960E-04  0.1299078E+04  0.7818609E-02  0.9030297E-01
       -2   -1    0    0    0  501  0.00000000000E+00  0.00000000000E+00  0.25556852131E+03  0.25556852133E+03  0.25500000920E-02 0.  1.
        2   -1    0    0  501    0  0.00000000000E+00  0.00000000000E+00 -0.16508326446E+04  0.16508326446E+04  0.25500000920E-02 0. -1.
    10030    2    1    2    0    0  0.00000000000E+00  0.00000000000E+00 -0.13952641233E+04  0.19064011659E+04  0.12990779160E+04 0.  0.
        3    1    3    3  502    0  0.38108608098E+03  0.36636878038E+03 -0.14376247029E+03  0.54783240359E+03  0.10100000352E+00 0.  1.
       -3    1    3    3    0  502 -0.38108608098E+03 -0.36636878038E+03 -0.12515016530E+04  0.13585687624E+04  0.10100000352E+00 0. -1.
</event>
<event>
 5   0  0.6052864E-04  0.1309529E+04  0.7818609E-02  0.9022042E-01
       -2   -1    0    0    0  501  0.00000000000E+00  0.00000000000E+00  0.32276879935E+03  0.32276879936E+03  0.25500000920E-02 0. -1.
        2   -1    0    0  501    0  0.00000000000E+00  0.00000000000E+00 -0.13282473418E+04  0.13282473418E+04  0.25500000920E-02 0.  1.
    10030    2    1    2    0    0  0.00000000000E+00  0.00000000000E+00 -0.10054785425E+04  0.16510161412E+04  0.13095293808E+04 0.  0.
        2    1    3    3  502    0  0.11897285113E+03 -0.12365966985E+03  0.29391467091E+03  0.34034113333E+03  0.25500000920E-02 0. -1.
       -2    1    3    3    0  502 -0.11897285113E+03  0.12365966985E+03 -0.12993932134E+04  0.13106750079E+04  0.25500000920E-02 0.  1.
</event>
<event>
 5   0  0.5957913E-04  0.1303181E+04  0.7818609E-02  0.9027047E-01
       -2   -1    0    0    0  501  0.00000000000E+00  0.00000000000E+00  0.38828042300E+03  0.38828042301E+03  0.25500000920E-02 0.  1.
        2   -1    0    0  501    0  0.00000000000E+00  0.00000000000E+00 -0.10934622018E+04  0.10934622018E+04  0.25500000920E-02 0. -1.
    10030    2    1    2    0    0  0.00000000000E+00  0.00000000000E+00 -0.70518177880E+03  0.14817426248E+04  0.13031806724E+04 0.  0.
        1    1    3    3  502    0 -0.35444878724E+03 -0.52776116246E+03 -0.51500647590E+03  0.81816713307E+03  0.50400001928E-02 0. -1.
       -1    1    3    3    0  502  0.35444878724E+03  0.52776116246E+03 -0.19017530290E+03  0.66357549174E+03  0.50400001928E-02 0.  1.
</event>
<event>
 5   0  0.3263679E-04  0.1294447E+04  0.7818609E-02  0.9033980E-01
       -1   -1    0    0    0  501  0.00000000000E+00  0.00000000000E+00  0.59095463738E+03  0.59095463741E+03  0.50400001928E-02 0. -1.
        1   -1    0    0  501    0  0.00000000000E+00  0.00000000000E+00 -0.70884997823E+03  0.70884997825E+03  0.50400001928E-02 0.  1.
    10030    2    1    2    0    0  0.00000000000E+00  0.00000000000E+00 -0.11789534085E+03  0.12998046157E+04  0.12944468809E+04 0.  0.
        2    1    3    3  502    0 -0.31264832325E+03 -0.51621904018E+03  0.17583006036E+03  0.62860741453E+03  0.25500000920E-02 0. -1.
       -2    1    3    3    0  502  0.31264832325E+03  0.51621904018E+03 -0.29372540121E+03  0.67119720112E+03  0.25500000920E-02 0.  1.
</event>
<event>
 5   0  0.6052864E-04  0.1299834E+04  0.7818609E-02  0.9029697E-01
        2   -1    0    0  501    0  0.00000000000E+00  0.00000000000E+00  0.94453314568E+03  0.94453314569E+03  0.25500000920E-02 0. -1.
       -2   -1    0    0    0  501  0.00000000000E+00  0.00000000000E+00 -0.44719644208E+03  0.44719644208E+03  0.25500000920E-02 0.  1.
    10030    2    1    2    0    0  0.00000000000E+00  0.00000000000E+00  0.49733670361E+03  0.13917295878E+04  0.12998336235E+04 0.  0.
        2    1    3    3  502    0  0.62553505385E+03 -0.45640421690E+02  0.43104793304E+03  0.76103841708E+03  0.25500000920E-02 0. -1.
       -2    1    3    3    0  502 -0.62553505385E+03  0.45640421690E+02  0.66288770563E+02  0.63069117069E+03  0.25500000920E-02 0.  1.
</event>
<event>
 5   0  0.3335747E-04  0.1297935E+04  0.7818609E-02  0.9031205E-01
       -1   -1    0    0    0  501  0.00000000000E+00  0.00000000000E+00  0.81919446766E+03  0.81919446767E+03  0.50400001928E-02 0. -1.
        1   -1    0    0  501    0  0.00000000000E+00  0.00000000000E+00 -0.51411309455E+03  0.51411309458E+03  0.50400001928E-02 0.  1.
    10030    2    1    2    0    0  0.00000000000E+00  0.00000000000E+00  0.30508137310E+03  0.13333075622E+04  0.12979346714E+04 0.  0.
        3    1    3    3  502    0  0.30345077171E+03 -0.50853827964E+03  0.42522763988E+03  0.72904876973E+03  0.10100000352E+00 0. -1.
       -3    1    3    3    0  502 -0.30345077171E+03  0.50853827964E+03 -0.12014626678E+03  0.60425879252E+03  0.10100000352E+00 0.  1.
</event>
<event>
 5   0  0.3274879E-04  0.1295342E+04  0.7818609E-02  0.9033267E-01
       -1   -1    0    0    0  501  0.00000000000E+00  0.00000000000E+00  0.42310673223E+03  0.42310673226E+03  0.50400001928E-02 0. -1.
        1   -1    0    0  501    0  0.00000000000E+00  0.00000000000E+00 -0.99142338617E+03  0.99142338618E+03  0.50400001928E-02 0.  1.
    10030    2    1    2    0    0  0.00000000000E+00  0.00000000000E+00 -0.56831665394E+03  0.14145301184E+04  0.12953422856E+04 0.  0.
        4    1    3    3  502    0  0.25430194335E+03 -0.11587388420E+03 -0.92219660125E+03  0.96361009733E+03  0.12699999809E+01 0.  1.
       -4    1    3    3    0  502 -0.25430194335E+03  0.11587388420E+03  0.35387994730E+03  0.45092002111E+03  0.12699999809E+01 0. -1.
</event>
<event>
 5   0  0.3263679E-04  0.1302343E+04  0.7818609E-02  0.9027710E-01
        1   -1    0    0  501    0  0.00000000000E+00  0.00000000000E+00  0.39569889766E+03  0.39569889770E+03  0.50400001928E-02 0. -1.
       -1   -1    0    0    0  501  0.00000000000E+00  0.00000000000E+00 -0.10715824793E+04  0.10715824793E+04  0.50400001928E-02 0.  1.
    10030    2    1    2    0    0  0.00000000000E+00  0.00000000000E+00 -0.67588358167E+03  0.14672813770E+04  0.13023425139E+04 0.  0.
        2    1    3    3  502    0 -0.67774936626E+01 -0.36992721524E+03  0.26576898831E+03  0.45554937619E+03  0.25500000920E-02 0. -1.
       -2    1    3    3    0  502  0.67774936626E+01  0.36992721524E+03 -0.94165256998E+03  0.10117320009E+04  0.25500000920E-02 0.  1.
</event>
<event>
 5   0  0.3337520E-04  0.1300854E+04  0.7818609E-02  0.9028888E-01
       -1   -1    0    0    0  501  0.00000000000E+00  0.00000000000E+00  0.37758291288E+03  0.37758291292E+03  0.50400001928E-02 0.  1.
        1   -1    0    0  501    0  0.00000000000E+00  0.00000000000E+00 -0.11204295788E+04  0.11204295788E+04  0.50400001928E-02 0. -1.
    10030    2    1    2    0    0  0.00000000000E+00  0.00000000000E+00 -0.74284666587E+03  0.14980124917E+04  0.13008536644E+04 0.  0.
        5    1    3    3  502    0  0.58893590653E+02 -0.14130682445E+03  0.35652079256E+03  0.38802736912E+03  0.46999998093E+01 0.  1.
       -5    1    3    3    0  502 -0.58893590653E+02  0.14130682445E+03 -0.10993674584E+04  0.11099851226E+04  0.46999998093E+01 0. -1.
</event>
<event>
 5   0  0.5957913E-04  0.1298599E+04  0.7818609E-02  0.9030677E-01
        2   -1    0    0  501    0  0.00000000000E+00  0.00000000000E+00  0.10153311698E+04  0.10153311698E+04  0.25500000920E-02 0. -1.
       -2   -1    0    0    0  501  0.00000000000E+00  0.00000000000E+00 -0.41522366644E+03  0.41522366645E+03  0.25500000920E-02 0.  1.
    10030    2    1    2    0    0  0.00000000000E+00  0.00000000000E+00  0.60010750338E+03  0.14305548363E+04  0.12985985230E+04 0.  0.
        1    1    3    3  502    0  0.41605666541E+03  0.19763451646E+03  0.80418767292E+03  0.92675798579E+03  0.50400001928E-02 0. -1.
       -1    1    3    3    0  502 -0.41605666541E+03 -0.19763451646E+03 -0.20408016954E+03  0.50379685048E+03  0.50400001928E-02 0.  1.
</event>
<event>
 5   0  0.5787604E-04  0.1313454E+04  0.7818609E-02  0.9018964E-01
        2   -1    0    0  501    0  0.00000000000E+00  0.00000000000E+00  0.98663344096E+03  0.98663344096E+03  0.25500000920E-02 0. -1.
       -2   -1    0    0    0  501  0.00000000000E+00  0.00000000000E+00 -0.43713326604E+03  0.43713326605E+03  0.25500000920E-02 0.  1.
    10030    2    1    2    0    0  0.00000000000E+00  0.00000000000E+00  0.54950017492E+03  0.14237667070E+04  0.13134539176E+04 0.  0.
        4    1    3    3  502    0  0.22003222928E+02  0.61887862592E+03  0.37771160298E+02  0.62042176694E+03  0.12699999809E+01 0.  1.
       -4    1    3    3    0  502 -0.22003222928E+02 -0.61887862592E+03  0.51172901462E+03  0.80334494007E+03  0.12699999809E+01 0. -1.
</event>
<event>
 5   0  0.5384960E-04  0.1299900E+04  0.7818609E-02  0.9029645E-01
       -2   -1    0    0    0  501  0.00000000000E+00  0.00000000000E+00  0.53178579664E+03  0.53178579665E+03  0.25500000920E-02 0.  1.
        2   -1    0    0  501    0  0.00000000000E+00  0.00000000000E+00 -0.79437018512E+03  0.79437018512E+03  0.25500000920E-02 0. -1.
    10030    2    1    2    0    0  0.00000000000E+00  0.00000000000E+00 -0.26258438848E+03  0.13261559818E+04  0.12998996603E+04 0.  0.
        3    1    3    3  502    0  0.34014051064E+03  0.37152407687E+03 -0.55033075299E+03  0.74604936470E+03  0.10100000352E+00 0. -1.
       -3    1    3    3    0  502 -0.34014051064E+03 -0.37152407687E+03  0.28774636451E+03  0.58010661707E+03  0.10100000352E+00 0.  1.
</event>
<event>
 5   0  0.3263679E-04  0.1286046E+04  0.7818609E-02  0.9040705E-01
        1   -1    0    0  501    0  0.00000000000E+00  0.00000000000E+00  0.68158720053E+03  0.68158720055E+03  0.50400001928E-02 0. -1.
       -1   -1    0    0    0  501  0.00000000000E+00  0.00000000000E+00 -0.60664048429E+03  0.60664048431E+03  0.50400001928E-02 0.  1.
    10030    2    1    2    0    0  0.00000000000E+00  0.00000000000E+00  0.74946716240E+02  0.12882276849E+04  0.12860457059E+04 0.  0.
        2    1    3    3  502    0  0.45491811416E+03 -0.45036900671E+03  0.98368413804E+02  0.64765660472E+03  0.25500000920E-02 0.  1.
       -2    1    3    3    0  502 -0.45491811416E+03  0.45036900671E+03 -0.23421697564E+02  0.64057108014E+03  0.25500000920E-02 0. -1.
</event>
<event>
 5   0  0.2255875E-04  0.1297011E+04  0.7818609E-02  0.9031939E-01
        4   -1    0    0  501    0  0.00000000000E+00  0.00000000000E+00  0.10251435720E+04  0.10251443587E+04  0.12699999809E+01 0. -1.
       -4   -1    0    0    0  501  0.00000000000E+00  0.00000000000E+00 -0.41024258339E+03  0.41024454917E+03  0.12699999809E+01 0.  1.
    10030    2    1    2    0    0  0.00000000000E+00  0.00000000000E+00  0.61490098859E+03  0.14353889078E+04  0.12970112147E+04 0.  0.
        2    1    3    3  502    0  0.61774552991E+03 -0.26592529438E+02  0.52387219794E+03  0.81040655361E+03  0.25500000920E-02 0. -1.
       -2    1    3    3    0  502 -0.61774552991E+03  0.26592529438E+02  0.91028790647E+02  0.62498235422E+03  0.25500000920E-02 0.  1.
</event>
<event>
 5   0  0.3337520E-04  0.1302125E+04  0.7818609E-02  0.9027882E-01
        1   -1    0    0  501    0  0.00000000000E+00  0.00000000000E+00  0.37719729270E+03  0.37719729273E+03  0.50400001928E-02 0. -1.
       -1   -1    0    0    0  501  0.00000000000E+00  0.00000000000E+00 -0.11237684957E+04  0.11237684958E+04  0.50400001928E-02 0.  1.
    10030    2    1    2    0    0  0.00000000000E+00  0.00000000000E+00 -0.74657120305E+03  0.15009657885E+04  0.13021250850E+04 0.  0.
        5    1    3    3  502    0 -0.29618126735E+03  0.22586863901E+03 -0.98879147646E+03  0.10566317519E+04  0.46999998093E+01 0.  1.
       -5    1    3    3    0  502  0.29618126735E+03 -0.22586863901E+03  0.24222027341E+03  0.44433403658E+03  0.46999998093E+01 0. -1.
</event>
<event>
 5   0  0.3337520E-04  0.1289497E+04  0.7818609E-02  0.9037936E-01
       -1   -1    0    0    0  501  0.00000000000E+00  0.00000000000E+00  0.30324187923E+03  0.30324187928E+03  0.50400001928E-02 0.  1.
        1   -1    0    0  501    0  0.00000000000E+00  0.00000000000E+00 -0.13708548042E+04  0.13708548042E+04  0.50400001928E-02 0. -1.
    10030    2    1    2    0    0  0.00000000000E+00  0.00000000000E+00 -0.10676129249E+04  0.16740966834E+04  0.12894969360E+04 0.  0.
        5    1    3    3  502    0  0.92940882670E+02  0.45005540233E+03  0.53273045732E+02  0.46265319650E+03  0.46999998093E+01 0. -1.
       -5    1    3    3    0  502 -0.92940882670E+02 -0.45005540233E+03 -0.11208859707E+04  0.12114434869E+04  0.46999998093E+01 0.  1.
</event>
<event>
 5   0  0.3274879E-04  0.1301833E+04  0.7818609E-02  0.9028113E-01
       -1   -1    0    0    0  501  0.00000000000E+00  0.00000000000E+00  0.11798109496E+04  0.11798109497E+04  0.50400001928E-02 0. -1.
        1   -1    0    0  501    0  0.00000000000E+00  0.00000000000E+00 -0.35911876851E+03  0.35911876855E+03  0.50400001928E-02 0.  1.
    10030    2    1    2    0    0  0.00000000000E+00  0.00000000000E+00  0.82069218113E+03  0.15389297182E+04  0.13018329468E+04 0.  0.
        4    1    3    3  502    0  0.84352127205E+02 -0.10532495145E+03  0.11630935983E+04  0.11708957930E+04  0.12699999809E+01 0. -1.
       -4    1    3    3    0  502 -0.84352127205E+02  0.10532495145E+03 -0.34240141714E+03  0.36803392523E+03  0.12699999809E+01 0.  1.
</event>
<event>
 5   0  0.3403833E-04  0.1293564E+04  0.7818609E-02  0.9034684E-01
       -1   -1    0    0    0  501  0.00000000000E+00  0.00000000000E+00  0.78368718872E+03  0.78368718874E+03  0.50400001928E-02 0. -1.
        1   -1    0    0  501    0  0.00000000000E+00  0.00000000000E+00 -0.53379346608E+03  0.53379346610E+03  0.50400001928E-02 0.  1.
    10030    2    1    2    0    0  0.00000000000E+00  0.00000000000E+00  0.24989372265E+03  0.13174806548E+04  0.12935642246E+04 0.  0.
        1    1    3    3  502    0 -0.24174222638E+03 -0.39336670425E+03 -0.33636271443E+03  0.57124123075E+03  0.50400001928E-02 0.  1.
       -1    1    3    3    0  502  0.24174222638E+03  0.39336670425E+03  0.58625643707E+03  0.74623942409E+03  0.50400001928E-02 0. -1.
</event>
<event>
 5   0  0.5787604E-04  0.1303950E+04  0.7818609E-02  0.9026438E-01
       -2   -1    0    0    0  501  0.00000000000E+00  0.00000000000E+00  0.11482804974E+04  0.11482804974E+04  0.25500000920E-02 0.  1.
        2   -1    0    0  501    0  0.00000000000E+00  0.00000000000E+00 -0.37018096336E+03  0.37018096337E+03  0.25500000920E-02 0. -1.
    10030    2    1    2    0    0  0.00000000000E+00  0.00000000000E+00  0.77809953403E+03  0.15184614608E+04  0.13039502763E+04 0.  0.
        4    1    3    3  502    0 -0.44651864012E+03 -0.92327141015E+02 -0.15362475200E+03  0.48115005380E+03  0.12699999809E+01 0. -1.
       -4    1    3    3    0  502  0.44651864012E+03  0.92327141015E+02  0.93172428603E+03  0.10373114070E+04  0.12699999809E+01 0.  1.
</event>
<event>
 5   0  0.6007125E-04  0.1311615E+04  0.7818609E-02  0.9020404E-01
        2   -1    0    0  501    0  0.00000000000E+00  0.00000000000E+00  0.46947186588E+03  0.46947186589E+03  0.25500000920E-02 0. -1.
       -2   -1    0    0    0  501  0.00000000000E+00  0.00000000000E+00 -0.91610128215E+03  0.91610128216E+03  0.25500000920E-02 0.  1.
    10030    2    1    2    0    0  0.00000000000E+00  0.00000000000E+00 -0.44662941627E+03  0.13855731480E+04  0.13116154593E+04 0.  0.
        5    1    3    3  502    0  0.27275051346E+03 -0.25558151541E+02  0.40611417267E+03  0.48989475701E+03  0.46999998093E+01 0. -1.
       -5    1    3    3    0  502 -0.27275051346E+03  0.25558151541E+02 -0.85274358894E+03  0.89567839104E+03  0.46999998093E+01 0.  1.
</event>
<event>
 5   0  0.3337520E-04  0.1299549E+04  0.7818609E-02  0.9029923E-01
        1   -1    0    0  501    0  0.00000000000E+00  0.00000000000E+00  0.85590793120E+03  0.85590793122E+03  0.50400001928E-02 0.  1.
       -1   -1    0    0    0  501  0.00000000000E+00  0.00000000000E+00 -0.49328520683E+03  0.49328520686E+03  0.50400001928E-02 0. -1.
    10030    2    1    2    0    0  0.00000000000E+00  0.00000000000E+00  0.36262272437E+03  0.13491931381E+04  0.12995487231E+04 0.  0.
        5    1    3    3  502    0 -0.32074662517E+03 -0.53079609537E+03 -0.19900879356E+02  0.62051674225E+03  0.46999998093E+01 0. -1.
       -5    1    3    3    0  502  0.32074662517E+03  0.53079609537E+03  0.38252360373E+03  0.72867639582E+03  0.46999998093E+01 0.  1.
</event>
<event>
 5   0  0.5957913E-04  0.1304423E+04  0.7818609E-02  0.9026065E-01
        2   -1    0    0  501    0  0.00000000000E+00  0.00000000000E+00  0.38936673193E+03  0.38936673194E+03  0.25500000920E-02 0.  1.
       -2   -1    0    0    0  501  0.00000000000E+00  0.00000000000E+00 -0.10924908812E+04  0.10924908812E+04  0.25500000920E-02 0. -1.
    10030    2    1    2    0    0  0.00000000000E+00  0.00000000000E+00 -0.70312414926E+03  0.14818576131E+04  0.13044226372E+04 0.  0.
        1    1    3    3  502    0 -0.24428894195E+03 -0.60366312889E+03 -0.31070708279E+03  0.72154358958E+03  0.50400001928E-02 0. -1.
       -1    1    3    3    0  502  0.24428894195E+03  0.60366312889E+03 -0.39241706647E+03  0.76031402356E+03  0.50400001928E-02 0.  1.
</event>
<event>
 5   0  0.6052864E-04  0.1310502E+04  0.7818609E-02  0.9021278E-01
       -2   -1    0    0    0  501  0.00000000000E+00  0.00000000000E+00  0.11341058190E+04  0.11341058190E+04  0.25500000920E-02 0.  1.
        2   -1    0    0  501    0  0.00000000000E+00  0.00000000000E+00 -0.37858371251E+03  0.37858371252E+03  0.25500000920E-02 0. -1.
    10030    2    1    2    0    0  0.00000000000E+00  0.00000000000E+00  0.75552210652E+03  0.15126895316E+04  0.13105021806E+04 0.  0.
        2    1    3    3  502    0 -0.10709184240E+03  0.12339986133E+03 -0.35469253881E+03  0.39051630642E+03  0.25500000920E-02 0. -1.
       -2    1    3    3    0  502  0.10709184240E+03 -0.12339986133E+03  0.11102146453E+04  0.11221732251E+04  0.25500000920E-02 0.  1.
</event>
<event>
 5   0  0.6052864E-04  0.1221848E+04  0.7818609E-02  0.9093945E-01
       -2   -1    0    0    0  501  0.00000000000E+00  0.00000000000E+00  0.48044496018E+03  0.48044496018E+03  0.25500000920E-02 0.  1.
        2   -1    0    0  501    0  0.00000000000E+00  0.00000000000E+00 -0.77683856871E+03  0.77683856871E+03  0.25500000920E-02 0. -1.
    10030    2    1    2    0    0  0.00000000000E+00  0.00000000000E+00 -0.29639360853E+03  0.12572835289E+04  0.12218480678E+04 0.  0.
        2    1    3    3  502    0 -0.35915576295E+03 -0.42810169028E+03 -0.40226696273E+03  0.68853658479E+03  0.25500000920E-02 0. -1.
       -2    1    3    3    0  502  0.35915576295E+03  0.42810169028E+03  0.10587335420E+03  0.56874694410E+03  0.25500000920E-02 0.  1.
</event>
<event>
 5   0  0.3274879E-04  0.1300827E+04  0.7818609E-02  0.9028910E-01
       -1   -1    0    0    0  501  0.00000000000E+00  0.00000000000E+00  0.33471297245E+03  0.33471297249E+03  0.50400001928E-02 0.  1.
        1   -1    0    0  501    0  0.00000000000E+00  0.00000000000E+00 -0.12638814302E+04  0.12638814302E+04  0.50400001928E-02 0. -1.
    10030    2    1    2    0    0  0.00000000000E+00  0.00000000000E+00 -0.92916845770E+03  0.15985944026E+04  0.13008266761E+04 0.  0.
        4    1    3    3  502    0 -0.98947850381E+02  0.19070153124E+03  0.28984643348E+03  0.36079124021E+03  0.12699999809E+01 0.  1.
       -4    1    3    3    0  502  0.98947850381E+02 -0.19070153124E+03 -0.12190148912E+04  0.12378031624E+04  0.12699999809E+01 0. -1.
</event>
<event>
 5   0  0.3403833E-04  0.1302557E+04  0.7818609E-02  0.9027540E-01
        1   -1    0    0  501    0  0.00000000000E+00  0.00000000000E+00  0.15672232302E+04  0.15672232302E+04  0.50400001928E-02 0. -1.
       -1   -1    0    0    0  501  0.00000000000E+00  0.00000000000E+00 -0.27064655932E+03  0.27064655936E+03  0.50400001928E-02 0.  1.
    10030    2    1    2    0    0  0.00000000000E+00  0.00000000000E+00  0.12965766709E+04  0.18378697896E+04  0.13025568318E+04 0.  0.
        1    1    3    3  502    0  0.73635232575E+02  0.25540939705E+03 -0.19062549447E+03  0.32709965873E+03  0.50400001928E-02 0.  1.
       -1    1    3    3    0  502 -0.73635232575E+02 -0.25540939705E+03  0.14872021654E+04  0.15107701308E+04  0.50400001928E-02 0. -1.
</event>
<event>
 5   0  0.6007125E-04  0.1301883E+04  0.7818609E-02  0.9028073E-01
       -2   -1    0    0    0  501  0.00000000000E+00  0.00000000000E+00  0.77848562124E+03  0.77848562124E+03  0.25500000920E-02 0. -1.
        2   -1    0    0  501    0  0.00000000000E+00  0.00000000000E+00 -0.54429363754E+03  0.54429363755E+03  0.25500000920E-02 0.  1.
    10030    2    1    2    0    0  0.00000000000E+00  0.00000000000E+00  0.23419198369E+03  0.13227792588E+04  0.13018828988E+04 0.  0.
        5    1    3    3  502    0  0.10794911288E+03  0.34032660392E+03 -0.43590781457E+03  0.56348284899E+03  0.46999998093E+01 0.  1.
       -5    1    3    3    0  502 -0.10794911288E+03 -0.34032660392E+03  0.67009979826E+03  0.75929640980E+03  0.46999998093E+01 0. -1.
</event>
<event>
 5   0  0.3337520E-04  0.1290885E+04  0.7818609E-02  0.9036824E-01
        1   -1    0    0  501    0  0.00000000000E+00  0.00000000000E+00  0.18376403920E+04  0.18376403920E+04  0.50400001928E-02 0. -1.
       -1   -1    0    0    0  501  0.00000000000E+00  0.00000000000E+00 -0.22670176539E+03  0.22670176545E+03  0.50400001928E-02 0.  1.
    10030    2    1    2    0    0  0.00000000000E+00  0.00000000000E+00  0.16109386266E+04  0.20643421575E+04  0.12908854652E+04 0.  0.
        5    1    3    3  502    0 -0.48083397446E+03 -0.32015975526E+03  0.12658258844E+04  0.13914168461E+04  0.46999998093E+01 0. -1.
       -5    1    3    3    0  502  0.48083397446E+03  0.32015975526E+03  0.34511274220E+03  0.67292531139E+03  0.46999998093E+01 0.  1.
</event>
<event>
 5   0  0.6052864E-04  0.1301387E+04  0.7818609E-02  0.9028466E-01
        2   -1    0    0  501    0  0.00000000000E+00  0.00000000000E+00  0.17114901517E+04  0.17114901517E+04  0.25500000920E-02 0. -1.
       -2   -1    0    0    0  501  0.00000000000E+00  0.00000000000E+00 -0.24738804888E+03  0.24738804889E+03  0.25500000920E-02 0.  1.
    10030    2    1    2    0    0  0.00000000000E+00  0.00000000000E+00  0.14641021028E+04  0.19588782006E+04  0.13013872741E+04 0.  0.
        2    1    3    3  502    0  0.50988138770E+03 -0.36324040410E+03  0.99911508359E+03  0.11790477391E+04  0.25500000920E-02 0. -1.
       -2    1    3    3    0  502 -0.50988138770E+03  0.36324040410E+03  0.46498701923E+03  0.77983046155E+03  0.25500000920E-02 0.  1.
</event>
<event>
 5   0  0.5787604E-04  0.1300794E+04  0.7818609E-02  0.9028936E-01
       -2   -1    0    0    0  501  0.00000000000E+00  0.00000000000E+00  0.47528115048E+03  0.47528115048E+03  0.25500000920E-02 0. -1.
        2   -1    0    0  501    0  0.00000000000E+00  0.00000000000E+00 -0.89003335203E+03  0.89003335203E+03  0.25500000920E-02 0.  1.
    10030    2    1    2    0    0  0.00000000000E+00  0.00000000000E+00 -0.41475220155E+03  0.13653145025E+04  0.13007937200E+04 0.  0.
        4    1    3    3  502    0  0.23410371378E+03 -0.56950473527E+03 -0.42722749552E+03  0.74944321875E+03  0.12699999809E+01 0.  1.
       -4    1    3    3    0  502 -0.23410371378E+03  0.56950473527E+03  0.12475293972E+02  0.61587128376E+03  0.12699999809E+01 0. -1.
</event>
<event>
 5   0  0.3274879E-04  0.1293453E+04  0.7818609E-02  0.9034773E-01
       -1   -1    0    0    0  501  0.00000000000E+00  0.00000000000E+00  0.55850890750E+03  0.55850890752E+03  0.50400001928E-02 0. -1.
        1   -1    0    0  501    0  0.00000000000E+00  0.00000000000E+00 -0.74887829113E+03  0.74887829114E+03  0.50400001928E-02 0.  1.
    10030    2    1    2    0    0  0.00000000000E+00  0.00000000000E+00 -0.19036938363E+03  0.13073871987E+04  0.12934530471E+04 0.  0.
        4    1    3    3  502    0 -0.17265895184E+02  0.43039860547E+03 -0.58278438945E+03  0.72469326492E+03  0.12699999809E+01 0.  1.
       -4    1    3    3    0  502  0.17265895184E+02 -0.43039860547E+03  0.39241500582E+03  0.58269393375E+03  0.12699999809E+01 0. -1.
</event>
<event>
 5   0  0.6007125E-04  0.1278740E+04  0.7818609E-02  0.9046596E-01
        2   -1    0    0  501    0  0.00000000000E+00  0.00000000000E+00  0.15501509185E+04  0.15501509185E+04  0.25500000920E-02 0. -1.
       -2   -1    0    0    0  501  0.00000000000E+00  0.00000000000E+00 -0.26371258240E+03  0.26371258242E+03  0.25500000920E-02 0.  1.
    10030    2    1    2    0    0  0.00000000000E+00  0.00000000000E+00  0.12864383361E+04  0.18138635009E+04  0.12787404769E+04 0.  0.
        5    1    3    3  502    0  0.44620324605E+03 -0.15087658470E+03  0.12564722965E+04  0.13418665368E+04  0.46999998093E+01 0. -1.
       -5    1    3    3    0  502 -0.44620324605E+03  0.15087658470E+03  0.29966039539E+02  0.47199696410E+03  0.46999998093E+01 0.  1.
</event>
<event>
 5   0  0.5384960E-04  0.1300827E+04  0.7818609E-02  0.9028909E-01
       -2   -1    0    0    0  501  0.00000000000E+00  0.00000000000E+00  0.50095874650E+03  0.50095874651E+03  0.25500000920E-02 0. -1.
        2   -1    0    0  501    0  0.00000000000E+00  0.00000000000E+00 -0.84445683459E+03  0.84445683460E+03  0.25500000920E-02 0.  1.
    10030    2    1    2    0    0  0.00000000000E+00  0.00000000000E+00 -0.34349808809E+03  0.13454155811E+04  0.13008274864E+04 0.  0.
        3    1    3    3  502    0  0.24274223053E+03  0.58020802717E+03 -0.31824189438E+00  0.62893978786E+03  0.10100000352E+00 0. -1.
       -3    1    3    3    0  502 -0.24274223053E+03 -0.58020802717E+03 -0.34317984620E+03  0.71647579325E+03  0.10100000352E+00 0.  1.
</event>
<event>
 5   0  0.5787604E-04  0.1299610E+04  0.7818609E-02  0.9029875E-01
        2   -1    0    0  501    0  0.00000000000E+00  0.00000000000E+00  0.86262995857E+03  0.86262995857E+03  0.25500000920E-02 0.  1.
       -2   -1    0    0    0  501  0.00000000000E+00  0.00000000000E+00 -0.48948738456E+03  0.48948738457E+03  0.25500000920E-02 0. -1.
    10030    2    1    2    0    0  0.00000000000E+00  0.00000000000E+00  0.37314257401E+03  0.13521173431E+04  0.12996099142E+04 0.  0.
        4    1    3    3  502    0 -0.28273429112E+02 -0.48816848231E+03 -0.25866385325E+03  0.55318754125E+03  0.12699999809E+01 0. -1.
       -4    1    3    3    0  502  0.28273429112E+02  0.48816848231E+03  0.63180642725E+03  0.79892980188E+03  0.12699999809E+01 0.  1.
</event>
<event>
 5   0  0.3263679E-04  0.1300030E+04  0.7818609E-02  0.9029542E-01
       -1   -1    0    0    0  501  0.00000000000E+00  0.00000000000E+00  0.80789794739E+03  0.80789794740E+03  0.50400001928E-02 0. -1.
        1   -1    0    0  501    0  0.00000000000E+00  0.00000000000E+00 -0.52298599311E+03  0.52298599313E+03  0.50400001928E-02 0.  1.
    10030    2    1    2    0    0  0.00000000000E+00  0.00000000000E+00  0.28491195428E+03  0.13308839405E+04  0.13000297079E+04 0.  0.
        2    1    3    3  502    0 -0.34420174020E+03  0.36909852112E+03 -0.27691348469E+03  0.57566451538E+03  0.25500000920E-02 0.  1.
       -2    1    3    3    0  502  0.34420174020E+03 -0.36909852112E+03  0.56182543897E+03  0.75521942516E+03  0.25500000920E-02 0. -1.
</event>
<event>
 5   0  0.5384960E-04  0.1300819E+04  0.7818609E-02  0.9028916E-01
       -2   -1    0    0    0  501  0.00000000000E+00  0.00000000000E+00  0.61822717373E+03  0.61822717373E+03  0.25500000920E-02 0.  1.
        2   -1    0    0  501    0  0.00000000000E+00  0.00000000000E+00 -0.68426737343E+03  0.68426737343E+03  0.25500000920E-02 0. -1.
    10030    2    1    2    0    0  0.00000000000E+00  0.00000000000E+00 -0.66040199701E+02  0.13024945472E+04  0.13008192562E+04 0.  0.
        3    1    3    3  502    0  0.39415380402E+03 -0.24144420528E+03  0.42514996282E+03  0.62801674068E+03  0.10100000352E+00 0.  1.
       -3    1    3    3    0  502 -0.39415380402E+03  0.24144420528E+03 -0.49119016252E+03  0.67447780649E+03  0.10100000352E+00 0. -1.
</event>
<event>
 5   0  0.3335747E-04  0.1290319E+04  0.7818609E-02  0.9037277E-01
       -1   -1    0    0    0  501  0.00000000000E+00  0.00000000000E+00  0.22444503818E+03  0.22444503824E+03  0.50400001928E-02 0.  1.
        1   -1    0    0  501    0  0.00000000000E+00  0.00000000000E+00 -0.18544900323E+04  0.18544900323E+04  0.50400001928E-02 0. -1.
    10030    2    1    2    0    0  0.00000000000E+00  0.00000000000E+00 -0.16300449941E+04  0.20789350706E+04  0.12903194739E+04 0.  0.
        3    1    3    3  502    0 -0.84341252999E+02  0.57686823168E+03 -0.12601881657E+04  0.13885116589E+04  0.10100000352E+00 0. -1.
       -3    1    3    3    0  502  0.84341252999E+02 -0.57686823168E+03 -0.36985682848E+03  0.69042341172E+03  0.10100000352E+00 0.  1.
</event>
<event>
 5   0  0.5787604E-04  0.1245684E+04  0.7818609E-02  0.9073783E-01
        2   -1    0    0  501    0  0.00000000000E+00  0.00000000000E+00  0.34000638095E+03  0.34000638096E+03  0.25500000920E-02 0.  1.
       -2   -1    0    0    0  501  0.00000000000E+00  0.00000000000E+00 -0.11409552448E+04  0.11409552448E+04  0.25500000920E-02 0. -1.
    10030    2    1    2    0    0  0.00000000000E+00  0.00000000000E+00 -0.80094886384E+03  0.14809616258E+04  0.12456838501E+04 0.  0.
        4    1    3    3  502    0 -0.60052056722E+03 -0.76963339793E+02 -0.57431918608E+03  0.83450131679E+03  0.12699999809E+01 0. -1.
       -4    1    3    3    0  502  0.60052056722E+03  0.76963339793E+02 -0.22662967776E+03  0.64646030896E+03  0.12699999809E+01 0.  1.
</event>
<event>
 5   0  0.3403833E-04  0.1289887E+04  0.7818609E-02  0.9037623E-01
       -1   -1    0    0    0  501  0.00000000000E+00  0.00000000000E+00  0.41167451713E+03  0.41167451716E+03  0.50400001928E-02 0. -1.
        1   -1    0    0  501    0  0.00000000000E+00  0.00000000000E+00 -0.10103913600E+04  0.10103913600E+04  0.50400001928E-02 0.  1.
    10030    2    1    2    0    0  0.00000000000E+00  0.00000000000E+00 -0.59871684289E+03  0.14220658772E+04  0.12898873986E+04 0.  0.
        1    1    3    3  502    0  0.46894324396E+03 -0.27776905721E+03 -0.67949414060E+03  0.87107732282E+03  0.50400001928E-02 0.  1.
       -1    1    3    3    0  502 -0.46894324396E+03  0.27776905721E+03  0.80777297709E+02  0.55098855437E+03  0.50400001928E-02 0. -1.
</event>
<event>
 5   0  0.6007125E-04  0.1304541E+04  0.7818609E-02  0.9025972E-01
       -2   -1    0    0    0  501  0.00000000000E+00  0.00000000000E+00  0.20045709541E+03  0.20045709543E+03  0.25500000920E-02 0.  1.
        2   -1    0    0  501    0  0.00000000000E+00  0.00000000000E+00 -0.21224335719E+04  0.21224335719E+04  0.25500000920E-02 0. -1.
    10030    2    1    2    0    0  0.00000000000E+00  0.00000000000E+00 -0.19219764765E+04  0.23228906674E+04  0.13045410979E+04 0.  0.
        5    1    3    3  502    0 -0.50359538400E+03  0.40051601275E+03 -0.77075851914E+03  0.10040478933E+04  0.46999998093E+01 0.  1.
       -5    1    3    3    0  502  0.50359538400E+03 -0.40051601275E+03 -0.11512179574E+04  0.13188427740E+04  0.46999998093E+01 0. -1.
</event>
<event>
 5   0  0.3337520E-04  0.1296974E+04  0.7818609E-02  0.9031969E-01
        1   -1    0    0  501    0  0.00000000000E+00  0.00000000000E+00  0.27506010882E+03  0.27506010886E+03  0.50400001928E-02 0. -1.
       -1   -1    0    0    0  501  0.00000000000E+00  0.00000000000E+00 -0.15288843746E+04  0.15288843746E+04  0.50400001928E-02 0.  1.
    10030    2    1    2    0    0  0.00000000000E+00  0.00000000000E+00 -0.12538242658E+04  0.18039444835E+04  0.12969735579E+04 0.  0.
        5    1    3    3  502    0 -0.19386266468E+03  0.24318837713E+03 -0.14183622650E+04  0.14520664325E+04  0.46999998093E+01 0.  1.
       -5    1    3    3    0  502  0.19386266468E+03 -0.24318837713E+03  0.16453799928E+03  0.35187805094E+03  0.46999998093E+01 0. -1.
</event>
<event>
 5   0  0.3337520E-04  0.1295559E+04  0.7818609E-02  0.9033094E-01
        1   -1    0    0  501    0  0.00000000000E+00  0.00000000000E+00  0.13608418785E+04  0.13608418785E+04  0.50400001928E-02 0.  1.
       -1   -1    0    0    0  501  0.00000000000E+00  0.00000000000E+00 -0.30835219465E+03  0.30835219470E+03  0.50400001928E-02 0. -1.
    10030    2    1    2    0    0  0.00000000000E+00  0.00000000000E+00  0.10524896838E+04  0.16691940732E+04  0.12955594619E+04 0.  0.
        5    1    3    3  502    0  0.32004845862E+03  0.41062186079E+03  0.10228295667E+04  0.11477123947E+04  0.46999998093E+01 0.  1.
       -5    1    3    3    0  502 -0.32004845862E+03 -0.41062186079E+03  0.29660117087E+02  0.52148167846E+03  0.46999998093E+01 0. -1.
</event>
<event>
 5   0  0.6007125E-04  0.1281635E+04  0.7818609E-02  0.9044257E-01
        2   -1    0    0  501    0  0.00000000000E+00  0.00000000000E+00  0.62325291910E+03  0.62325291911E+03  0.25500000920E-02 0.  1.
       -2   -1    0    0    0  501  0.00000000000E+00  0.00000000000E+00 -0.65887747331E+03  0.65887747331E+03  0.25500000920E-02 0. -1.
    10030    2    1    2    0    0  0.00000000000E+00  0.00000000000E+00 -0.35624554204E+02  0.12821303924E+04  0.12816353749E+04 0.  0.
        5    1    3    3  502    0 -0.15619414544E+03  0.60799429801E+03  0.11096794154E+03  0.63748698146E+03  0.46999998093E+01 0. -1.
       -5    1    3    3    0  502  0.15619414544E+03 -0.60799429801E+03 -0.14659249574E+03  0.64464341096E+03  0.46999998093E+01 0.  1.
</event>
<event>
 5   0  0.3274879E-04  0.1298886E+04  0.7818609E-02  0.9030449E-01
       -1   -1    0    0    0  501  0.00000000000E+00  0.00000000000E+00  0.21305336304E+03  0.21305336310E+03  0.50400001928E-02 0. -1.
        1   -1    0    0  501    0  0.00000000000E+00  0.00000000000E+00 -0.19796736996E+04  0.19796736996E+04  0.50400001928E-02 0.  1.
    10030    2    1    2    0    0  0.00000000000E+00  0.00000000000E+00 -0.17666203365E+04  0.21927270627E+04  0.12988858910E+04 0.  0.
        4    1    3    3  502    0  0.14755261429E+03  0.20215122712E+03  0.12837186177E+03  0.28127893700E+03  0.12699999809E+01 0. -1.
       -4    1    3    3    0  502 -0.14755261429E+03 -0.20215122712E+03 -0.18949921983E+04  0.19114481257E+04  0.12699999809E+01 0.  1.
</event>
<event>
 5   0  0.3274879E-04  0.1304721E+04  0.7818609E-02  0.9025829E-01
        1   -1    0    0  501    0  0.00000000000E+00  0.00000000000E+00  0.93468648638E+03  0.93468648639E+03  0.50400001928E-02 0. -1.
       -1   -1    0    0    0  501  0.00000000000E+00  0.00000000000E+00 -0.45531255463E+03  0.45531255465E+03  0.50400001928E-02 0.  1.
    10030    2    1    2    0    0  0.00000000000E+00  0.00000000000E+00  0.47937393175E+03  0.13899990410E+04  0.13047214138E+04 0.  0.
        4    1    3    3  502    0 -0.53702845602E+03  0.11834797385E+03 -0.13420318210E+03  0.56605469036E+03  0.12699999809E+01 0.  1.
       -4    1    3    3    0  502  0.53702845602E+03 -0.11834797385E+03  0.61357711385E+03  0.82394435069E+03  0.12699999809E+01 0. -1.
</event>
<event>
 5   0  0.3337520E-04  0.1303655E+04  0.7818609E-02  0.9026672E-01
       -1   -1    0    0    0  501  0.00000000000E+00  0.00000000000E+00  0.78299947569E+03  0.78299947570E+03  0.50400001928E-02 0. -1.
        1   -1    0    0  501    0  0.00000000000E+00  0.00000000000E+00 -0.54263024500E+03  0.54263024503E+03  0.50400001928E-02 0.  1.
    10030    2    1    2    0    0  0.00000000000E+00  0.00000000000E+00  0.24036923069E+03  0.13256297207E+04  0.13036551651E+04 0.  0.
        5    1    3    3  502    0  0.30318459926E+03 -0.40796665017E+03 -0.29473681207E+03  0.58757941359E+03  0.46999998093E+01 0.  1.
       -5    1    3    3    0  502 -0.30318459926E+03  0.40796665017E+03  0.53510604276E+03  0.73805030714E+03  0.46999998093E+01 0. -1.
</event>
<event>
 5   0  0.3263679E-04  0.1326103E+04  0.7818609E-02  0.9009118E-01
        1   -1    0    0  501    0  0.00000000000E+00  0.00000000000E+00  0.60782329747E+03  0.60782329749E+03  0.50400001928E-02 0.  1.
       -1   -1    0    0    0  501  0.00000000000E+00  0.00000000000E+00 -0.72329770014E+03  0.72329770015E+03  0.50400001928E-02 0. -1.
    10030    2    1    2    0    0  0.00000000000E+00  0.00000000000E+00 -0.11547440267E+03  0.13311209976E+04  0.13261028515E+04 0.  0.
        2    1    3    3  502    0  0.35052900437E+03  0.46100695899E+03  0.26634549816E+03  0.63744640836E+03  0.25500000920E-02 0.  1.
       -2    1    3    3    0  502 -0.35052900437E+03 -0.46100695899E+03 -0.38181990082E+03  0.69367458928E+03  0.25500000920E-02 0. -1.
</event>
<event>
 5   0  0.3274879E-04  0.1301116E+04  0.7818609E-02  0.9028681E-01
        1   -1    0    0  501    0  0.00000000000E+00  0.00000000000E+00  0.16829034242E+04  0.16829034242E+04  0.50400001928E-02 0.  1.
       -1   -1    0    0    0  501  0.00000000000E+00  0.00000000000E+00 -0.25148530358E+03  0.25148530363E+03  0.50400001928E-02 0. -1.
    10030    2    1    2    0    0  0.00000000000E+00  0.00000000000E+00  0.14314181206E+04  0.19343887278E+04  0.13011156422E+04 0.  0.
        4    1    3    3  502    0  0.51935405402E+03  0.39137700147E+03  0.68914403085E+03  0.94753664777E+03  0.12699999809E+01 0.  1.
       -4    1    3    3    0  502 -0.51935405402E+03 -0.39137700147E+03  0.74227408973E+03  0.98685208004E+03  0.12699999809E+01 0. -1.
</event>
<event>
 5   0  0.3274879E-04  0.1300520E+04  0.7818609E-02  0.9029153E-01
       -1   -1    0    0    0  501  0.00000000000E+00  0.00000000000E+00  0.60128477973E+03  0.60128477976E+03  0.50400001928E-02 0.  1.
        1   -1    0    0  501    0  0.00000000000E+00  0.00000000000E+00 -0.70322465277E+03  0.70322465279E+03  0.50400001928E-02 0. -1.
    10030    2    1    2    0    0  0.00000000000E+00  0.00000000000E+00 -0.10193987304E+03  0.13045094325E+04  0.13005203274E+04 0.  0.
        4    1    3    3  502    0  0.60943060769E+03  0.28632037713E+02  0.17468946520E+03  0.63462073818E+03  0.12699999809E+01 0. -1.
       -4    1    3    3    0  502 -0.60943060769E+03 -0.28632037713E+02 -0.27662933824E+03  0.66988869437E+03  0.12699999809E+01 0.  1.
</event>
<event>
 5   0  0.3403833E-04  0.1342366E+04  0.7818609E-02  0.8996627E-01
        1   -1    0    0  501    0  0.00000000000E+00  0.00000000000E+00  0.76539545983E+03  0.76539545985E+03  0.50400001928E-02 0.  1.
       -1   -1    0    0    0  501  0.00000000000E+00  0.00000000000E+00 -0.58856698611E+03  0.58856698613E+03  0.50400001928E-02 0. -1.
    10030    2    1    2    0    0  0.00000000000E+00  0.00000000000E+00  0.17682847372E+03  0.13539624460E+04  0.13423658205E+04 0.  0.
        1    1    3    3  502    0 -0.13068270989E+03 -0.31160968408E+03  0.67334476624E+03  0.75337357275E+03  0.50400001928E-02 0.  1.
       -1    1    3    3    0  502  0.13068270989E+03  0.31160968408E+03 -0.49651629251E+03  0.60058887322E+03  0.50400001928E-02 0. -1.
</event>
<event>
 5   0  0.6052864E-04  0.1359903E+04  0.7818609E-02  0.8983366E-01
        2   -1    0    0  501    0  0.00000000000E+00  0.00000000000E+00  0.11596644588E+04  0.11596644588E+04  0.25500000920E-02 0.  1.
       -2   -1    0    0    0  501  0.00000000000E+00  0.00000000000E+00 -0.39867892684E+03  0.39867892684E+03  0.25500000920E-02 0. -1.
    10030    2    1    2    0    0  0.00000000000E+00  0.00000000000E+00  0.76098553192E+03  0.15583433856E+04  0.13599026170E+04 0.  0.
        2    1    3    3  502    0 -0.93136097707E+02 -0.21422220488E+03 -0.35125613814E+03  0.42183688832E+03  0.25500000920E-02 0. -1.
       -2    1    3    3    0  502  0.93136097707E+02  0.21422220488E+03  0.11122416701E+04  0.11365064973E+04  0.25500000920E-02 0.  1.
</event>
<event>
 5   0  0.3403833E-04  0.1306501E+04  0.7818609E-02  0.9024426E-01
       -1   -1    0    0    0  501  0.00000000000E+00  0.00000000000E+00  0.90452627018E+03  0.90452627019E+03  0.50400001928E-02 0. -1.
        1   -1    0    0  501    0  0.00000000000E+00  0.00000000000E+00 -0.47177835079E+03  0.47177835081E+03  0.50400001928E-02 0.  1.
    10030    2    1    2    0    0  0.00000000000E+00  0.00000000000E+00  0.43274791939E+03  0.13763046210E+04  0.13065005350E+04 0.  0.
        1    1    3    3  502    0  0.25198861744E+03  0.14063651515E+02  0.85109388655E+03  0.88772566334E+03  0.50400001928E-02 0. -1.
       -1    1    3    3    0  502 -0.25198861744E+03 -0.14063651515E+02 -0.41834596715E+03  0.48857895766E+03  0.50400001928E-02 0.  1.
</event>
<event>
 5   0  0.3274879E-04  0.1302712E+04  0.7818609E-02  0.9027418E-01
       -1   -1    0    0    0  501  0.00000000000E+00  0.00000000000E+00  0.59098540345E+03  0.59098540347E+03  0.50400001928E-02 0. -1.
        1   -1    0    0  501    0  0.00000000000E+00  0.00000000000E+00 -0.71789326225E+03  0.71789326227E+03  0.50400001928E-02 0.  1.
    10030    2    1    2    0    0  0.00000000000E+00  0.00000000000E+00 -0.12690785880E+03  0.13088786657E+04  0.13027116937E+04 0.  0.
        4    1    3    3  502    0 -0.47234475074E+02 -0.12265090139E+03  0.57752261784E+03  0.59229074471E+03  0.12699999809E+01 0. -1.
       -4    1    3    3    0  502  0.47234475074E+02  0.12265090139E+03 -0.70443047664E+03  0.71658792103E+03  0.12699999809E+01 0.  1.
</event>
<event>
 5   0  0.6007125E-04  0.1307922E+04  0.7818609E-02  0.9023306E-01
       -2   -1    0    0    0  501  0.00000000000E+00  0.00000000000E+00  0.14333090280E+04  0.14333090280E+04  0.25500000920E-02 0.  1.
        2   -1    0    0  501    0  0.00000000000E+00  0.00000000000E+00 -0.29837606527E+03  0.29837606528E+03  0.25500000920E-02 0. -1.
    10030    2    1    2    0    0  0.00000000000E+00  0.00000000000E+00  0.11349329627E+04  0.17316850932E+04  0.13079221813E+04 0.  0.
        5    1    3    3  502    0 -0.52198067317E+03  0.38763944546E+03  0.47464630712E+03  0.80500892523E+03  0.46999998093E+01 0.  1.
       -5    1    3    3    0  502  0.52198067317E+03 -0.38763944546E+03  0.66028665558E+03  0.92667616802E+03  0.46999998093E+01 0. -1.
</event>
<event>
 5   0  0.6007125E-04  0.1301087E+04  0.7818609E-02  0.9028704E-01
        2   -1    0    0  501    0  0.00000000000E+00  0.00000000000E+00  0.54359622780E+03  0.54359622780E+03  0.25500000920E-02 0.  1.
       -2   -1    0    0    0  501  0.00000000000E+00  0.00000000000E+00 -0.77853125653E+03  0.77853125654E+03  0.25500000920E-02 0. -1.
    10030    2    1    2    0    0  0.00000000000E+00  0.00000000000E+00 -0.23493502873E+03  0.13221274843E+04  0.13010867062E+04 0.  0.
        5    1    3    3  502    0 -0.51242591054E+03 -0.50258269092E+02 -0.52148792009E+03  0.73285602147E+03  0.46999998093E+01 0. -1.
       -5    1    3    3    0  502  0.51242591054E+03  0.50258269092E+02  0.28655289136E+03  0.58927146287E+03  0.46999998093E+01 0.  1.
</event>
<event>
 5   0  0.3335747E-04  0.1297507E+04  0.7818609E-02  0.9031545E-01
        1   -1    0    0  501    0  0.00000000000E+00  0.00000000000E+00  0.13396000630E+04  0.13396000630E+04  0.50400001928E-02 0.  1.
       -1   -1    0    0    0  501  0.00000000000E+00  0.00000000000E+00 -0.31418408061E+03  0.31418408065E+03  0.50400001928E-02 0. -1.
    10030    2    1    2    0    0  0.00000000000E+00  0.00000000000E+00  0.10254159823E+04  0.16537841436E+04  0.12975068620E+04 0.  0.
        3    1    3    3  502    0  0.11436137710E+03  0.41637515657E+03 -0.10442626232E+03  0.44424278277E+03  0.10100000352E+00 0. -1.
       -3    1    3    3    0  502 -0.11436137710E+03 -0.41637515657E+03  0.11298422447E+04  0.12095413609E+04  0.10100000352E+00 0.  1.
</event>
<event>
 5   0  0.3274879E-04  0.1286849E+04  0.7818609E-02  0.9040060E-01
       -1   -1    0    0    0  501  0.00000000000E+00  0.00000000000E+00  0.26455052828E+03  0.26455052833E+03  0.50400001928E-02 0.  1.
        1   -1    0    0  501    0  0.00000000000E+00  0.00000000000E+00 -0.15648996270E+04  0.15648996271E+04  0.50400001928E-02 0. -1.
    10030    2    1    2    0    0  0.00000000000E+00  0.00000000000E+00 -0.13003490988E+04  0.18294501554E+04  0.12868489004E+04 0.  0.
        4    1    3    3  502    0 -0.51351835832E+03  0.75941085630E+01 -0.12012081213E+04  0.13063924902E+04  0.12699999809E+01 0. -1.
       -4    1    3    3    0  502  0.51351835832E+03 -0.75941085630E+01 -0.99140977465E+02  0.52305766521E+03  0.12699999809E+01 0.  1.
</event>
<event>
 5   0  0.3263679E-04  0.1307679E+04  0.7818609E-02  0.9023498E-01
       -1   -1    0    0    0  501  0.00000000000E+00  0.00000000000E+00  0.23128837266E+03  0.23128837272E+03  0.50400001928E-02 0. -1.
        1   -1    0    0  501    0  0.00000000000E+00  0.00000000000E+00 -0.18483681682E+04  0.18483681682E+04  0.50400001928E-02 0.  1.
    10030    2    1    2    0    0  0.00000000000E+00  0.00000000000E+00 -0.16170797956E+04  0.20796565409E+04  0.13076789603E+04 0.  0.
        2    1    3    3  502    0  0.52294643459E+03 -0.33725495603E+03 -0.11277678414E+04  0.12880505358E+04  0.25500000920E-02 0. -1.
       -2    1    3    3    0  502 -0.52294643459E+03  0.33725495603E+03 -0.48931195419E+03  0.79160600512E+03  0.25500000920E-02 0.  1.
</event>
<event>
 5   0  0.5787604E-04  0.1302046E+04  0.7818609E-02  0.9027944E-01
        2   -1    0    0  501    0  0.00000000000E+00  0.00000000000E+00  0.57847659587E+03  0.57847659587E+03  0.25500000920E-02 0. -1.
       -2   -1    0    0    0  501  0.00000000000E+00  0.00000000000E+00 -0.73266741816E+03  0.73266741816E+03  0.25500000920E-02 0.  1.
    10030    2    1    2    0    0  0.00000000000E+00  0.00000000000E+00 -0.15419082229E+03  0.13111440140E+04  0.13020460114E+04 0.  0.
        4    1    3    3  502    0 -0.25955224006E+03 -0.13478686671E+03  0.50859959133E+03  0.58669414686E+03  0.12699999809E+01 0. -1.
       -4    1    3    3    0  502  0.25955224006E+03  0.13478686671E+03 -0.66279041363E+03  0.72444986718E+03  0.12699999809E+01 0.  1.
</event>
<event>
 5   0  0.3337520E-04  0.1296208E+04  0.7818609E-02  0.9032577E-01
        1   -1    0    0  501    0  0.00000000000E+00  0.00000000000E+00  0.10178287134E+04  0.10178287134E+04  0.50400001928E-02 0. -1.
       -1   -1    0    0    0  501  0.00000000000E+00  0.00000000000E+00 -0.41268144208E+03  0.41268144211E+03  0.50400001928E-02 0.  1.
    10030    2    1    2    0    0  0.00000000000E+00  0.00000000000E+00  0.60514727132E+03  0.14305101555E+04  0.12962083494E+04 0.  0.
        5    1    3    3  502    0 -0.17030185760E+03 -0.49890245883E+03  0.71860807538E+03  0.89124970807E+03  0.46999998093E+01 0. -1.
       -5    1    3    3    0  502  0.17030185760E+03  0.49890245883E+03 -0.11346080407E+03  0.53926044745E+03  0.46999998093E+01 0.  1.
</event>
<event>
 5   0  0.3335747E-04  0.1299859E+04  0.7818609E-02  0.9029677E-01
        1   -1    0    0  501    0  0.00000000000E+00  0.00000000000E+00  0.57222366861E+03  0.57222366864E+03  0.50400001928E-02 0. -1.
       -1   -1    0    0    0  501  0.00000000000E+00  0.00000000000E+00 -0.73818746227E+03  0.73818746228E+03  0.50400001928E-02 0.  1.
    10030    2    1    2    0    0  0.00000000000E+00  0.00000000000E+00 -0.16596379365E+03  0.13104111309E+04  0.12998589736E+04 0.  0.
        3    1    3    3  502    0 -0.83844531293E+02 -0.23281723255E+03  0.52287479896E+03  0.57847371141E+03  0.10100000352E+00 0. -1.
       -3    1    3    3    0  502  0.83844531293E+02  0.23281723255E+03 -0.68883859262E+03  0.73193741951E+03  0.10100000352E+00 0.  1.
</event>
<event>
 5   0  0.6052864E-04  0.1298248E+04  0.7818609E-02  0.9030956E-01
        2   -1    0    0  501    0  0.00000000000E+00  0.00000000000E+00  0.75002995044E+03  0.75002995044E+03  0.25500000920E-02 0.  1.
       -2   -1    0    0    0  501  0.00000000000E+00  0.00000000000E+00 -0.56179320081E+03  0.56179320081E+03  0.25500000920E-02 0. -1.
    10030    2    1    2    0    0  0.00000000000E+00  0.00000000000E+00  0.18823674963E+03  0.13118231513E+04  0.12982476290E+04 0.  0.
        2    1    3    3  502    0  0.18753517695E+03  0.60471182616E+03  0.23884983620E+03  0.67667945111E+03  0.25500000920E-02 0.  1.
       -2    1    3    3    0  502 -0.18753517695E+03 -0.60471182616E+03 -0.50613086576E+02  0.63514370014E+03  0.25500000920E-02 0. -1.
</event>
<event>
 5   0  0.6007125E-04  0.1299965E+04  0.7818609E-02  0.9029593E-01
       -2   -1    0    0    0  501  0.00000000000E+00  0.00000000000E+00  0.36548150993E+03  0.36548150994E+03  0.25500000920E-02 0.  1.
        2   -1    0    0  501    0  0.00000000000E+00  0.00000000000E+00 -0.11559465663E+04  0.11559465663E+04  0.25500000920E-02 0. -1.
    10030    2    1    2    0    0  0.00000000000E+00  0.00000000000E+00 -0.79046505640E+03  0.15214280763E+04  0.12999647633E+04 0.  0.
        5    1    3    3  502    0  0.26160568605E+03  0.65534683693E+02  0.29688801947E+03  0.40111957798E+03  0.46999998093E+01 0.  1.
       -5    1    3    3    0  502 -0.26160568605E+03 -0.65534683693E+02 -0.10873530759E+04  0.11203084983E+04  0.46999998093E+01 0. -1.
</event>
<event>
 5   0  0.5384960E-04  0.1306828E+04  0.7818609E-02  0.9024168E-01
       -2   -1    0    0    0  501  0.00000000000E+00  0.00000000000E+00  0.26134572251E+03  0.26134572252E+03  0.25500000920E-02 0. -1.
        2   -1    0    0  501    0  0.00000000000E+00  0.00000000000E+00 -0.16336580598E+04  0.16336580598E+04  0.25500000920E-02 0.  1.
    10030    2    1    2    0    0  0.00000000000E+00  0.00000000000E+00 -0.13723123373E+04  0.18950037824E+04  0.13068275265E+04 0.  0.
        3    1    3    3  502    0  0.52073583728E+03 -0.75783937035E+02 -0.12478453843E+04  0.13542625781E+04  0.10100000352E+00 0.  1.
       -3    1    3    3    0  502 -0.52073583728E+03  0.75783937035E+02 -0.12446695309E+03  0.54074120423E+03  0.10100000352E+00 0. -1.
</event>
<event>
 5   0  0.2255875E-04  0.1314941E+04  0.7818609E-02  0.9017800E-01
        4   -1    0    0  501    0  0.00000000000E+00  0.00000000000E+00  0.13021996463E+04  0.13022002656E+04  0.12699999809E+01 0. -1.
       -4   -1    0    0    0  501  0.00000000000E+00  0.00000000000E+00 -0.33194968496E+03  0.33195211438E+03  0.12699999809E+01 0.  1.
    10030    2    1    2    0    0  0.00000000000E+00  0.00000000000E+00  0.97024996136E+03  0.16341523800E+04  0.13149406882E+04 0.  0.
        5    1    3    3  502    0 -0.39106449406E+03 -0.23530503117E+02  0.11412727340E+04  0.12066526702E+04  0.46999998093E+01 0. -1.
       -5    1    3    3    0  502  0.39106449406E+03  0.23530503117E+02 -0.17102277268E+03  0.42749970978E+03  0.46999998093E+01 0.  1.
</event>
<event>
 5   0  0.5384960E-04  0.1328983E+04  0.7818609E-02  0.9006892E-01
       -2   -1    0    0    0  501  0.00000000000E+00  0.00000000000E+00  0.30921449848E+03  0.30921449849E+03  0.25500000920E-02 0.  1.
        2   -1    0    0  501    0  0.00000000000E+00  0.00000000000E+00 -0.14279692121E+04  0.14279692121E+04  0.25500000920E-02 0. -1.
    10030    2    1    2    0    0  0.00000000000E+00  0.00000000000E+00 -0.11187547136E+04  0.17371837106E+04  0.13289827445E+04 0.  0.
        3    1    3    3  502    0 -0.32810840689E+03 -0.29850756203E+03 -0.12061035888E+04  0.12850866774E+04  0.10100000352E+00 0. -1.
       -3    1    3    3    0  502  0.32810840689E+03  0.29850756203E+03  0.87348875162E+02  0.45209703323E+03  0.10100000352E+00 0.  1.
</event>
<event>
 5   0  0.3337520E-04  0.1273144E+04  0.7818609E-02  0.9051138E-01
       -1   -1    0    0    0  501  0.00000000000E+00  0.00000000000E+00  0.44117252740E+03  0.44117252743E+03  0.50400001928E-02 0. -1.
        1   -1    0    0  501    0  0.00000000000E+00  0.00000000000E+00 -0.91851503704E+03  0.91851503705E+03  0.50400001928E-02 0.  1.
    10030    2    1    2    0    0  0.00000000000E+00  0.00000000000E+00 -0.47734250964E+03  0.13596875645E+04  0.12731435117E+04 0.  0.
        5    1    3    3  502    0 -0.61893436679E+03 -0.75774595340E+02 -0.37535545773E+03  0.72782920342E+03  0.46999998093E+01 0.  1.
       -5    1    3    3    0  502  0.61893436679E+03  0.75774595340E+02 -0.10198705190E+03  0.63185836107E+03  0.46999998093E+01 0. -1.
</event>
<event>
 5   0  0.3335747E-04  0.1292017E+04  0.7818609E-02  0.9035920E-01
        1   -1    0    0  501    0  0.00000000000E+00  0.00000000000E+00  0.15442099273E+04  0.15442099273E+04  0.50400001928E-02 0.  1.
       -1   -1    0    0    0  501  0.00000000000E+00  0.00000000000E+00 -0.27025260000E+03  0.27025260005E+03  0.50400001928E-02 0. -1.
    10030    2    1    2    0    0  0.00000000000E+00  0.00000000000E+00  0.12739573273E+04  0.18144625274E+04  0.12920166374E+04 0.  0.
        3    1    3    3  502    0  0.80575667233E+02  0.50424309309E+03  0.11926763835E+04  0.12973937340E+04  0.10100000352E+00 0.  1.
       -3    1    3    3    0  502 -0.80575667233E+02 -0.50424309309E+03  0.81280943868E+02  0.51706879341E+03  0.10100000352E+00 0. -1.
</event>
<event>
 5   0  0.2255875E-04  0.1297395E+04  0.7818609E-02  0.9031633E-01
        3   -1    0    0  501    0  0.00000000000E+00  0.00000000000E+00  0.38838724189E+03  0.38838725502E+03  0.10100000352E+00 0.  1.
       -3   -1    0    0    0  501  0.00000000000E+00  0.00000000000E+00 -0.10834772609E+04  0.10834772656E+04  0.10100000352E+00 0. -1.
    10030    2    1    2    0    0  0.00000000000E+00  0.00000000000E+00 -0.69509001899E+03  0.14718645206E+04  0.12973954804E+04 0.  0.
        5    1    3    3  502    0 -0.39582004952E+03  0.42088895836E+03 -0.68210138300E+03  0.89392696210E+03  0.46999998093E+01 0.  1.
       -5    1    3    3    0  502  0.39582004952E+03 -0.42088895836E+03 -0.12988635987E+02  0.57793755851E+03  0.46999998093E+01 0. -1.
</event>
<event>
 5   0  0.3274879E-04  0.1304865E+04  0.7818609E-02  0.9025716E-01
       -1   -1    0    0    0  501  0.00000000000E+00  0.00000000000E+00  0.55769804965E+03  0.55769804967E+03  0.50400001928E-02 0.  1.
        1   -1    0    0  501    0  0.00000000000E+00  0.00000000000E+00 -0.76325877684E+03  0.76325877686E+03  0.50400001928E-02 0. -1.
    10030    2    1    2    0    0  0.00000000000E+00  0.00000000000E+00 -0.20556072719E+03  0.13209568265E+04  0.13048646386E+04 0.  0.
        4    1    3    3  502    0 -0.46129084667E+03  0.38265579468E+02 -0.56824728134E+03  0.73291205846E+03  0.12699999809E+01 0. -1.
       -4    1    3    3    0  502  0.46129084667E+03 -0.38265579468E+02  0.36268655414E+03  0.58804476807E+03  0.12699999809E+01 0.  1.
</event>
<event>
 5   0  0.5787604E-04  0.1301234E+04  0.7818609E-02  0.9028588E-01
       -2   -1    0    0    0  501  0.00000000000E+00  0.00000000000E+00  0.23501330306E+03  0.23501330308E+03  0.25500000920E-02 0.  1.
        2   -1    0    0  501    0  0.00000000000E+00  0.00000000000E+00 -0.18011839921E+04  0.18011839921E+04  0.25500000920E-02 0. -1.
    10030    2    1    2    0    0  0.00000000000E+00  0.00000000000E+00 -0.15661706890E+04  0.20361972951E+04  0.13012335677E+04 0.  0.
        4    1    3    3  502    0 -0.47099567702E+03  0.36074734693E+03 -0.12009979971E+04  0.13395422271E+04  0.12699999809E+01 0. -1.
       -4    1    3    3    0  502  0.47099567702E+03 -0.36074734693E+03 -0.36517269187E+03  0.69665506807E+03  0.12699999809E+01 0.  1.
</event>
<event>
 5   0  0.3274879E-04  0.1299340E+04  0.7818609E-02  0.9030089E-01
        1   -1    0    0  501    0  0.00000000000E+00  0.00000000000E+00  0.50652793475E+03  0.50652793477E+03  0.50400001928E-02 0.  1.
       -1   -1    0    0    0  501  0.00000000000E+00  0.00000000000E+00 -0.83326323372E+03  0.83326323374E+03  0.50400001928E-02 0. -1.
    10030    2    1    2    0    0  0.00000000000E+00  0.00000000000E+00 -0.32673529897E+03  0.13397911685E+04  0.12993399939E+04 0.  0.
        4    1    3    3  502    0  0.34287506986E+02 -0.25017101848E+03 -0.78059157315E+03  0.82041817910E+03  0.12699999809E+01 0. -1.
       -4    1    3    3    0  502 -0.34287506986E+02  0.25017101848E+03  0.45385627417E+03  0.51937298941E+03  0.12699999809E+01 0.  1.
</event>
<event>
 5   0  0.6007125E-04  0.1298193E+04  0.7818609E-02  0.9031000E-01
       -2   -1    0    0    0  501  0.00000000000E+00  0.00000000000E+00  0.31996588790E+03  0.31996588791E+03  0.25500000920E-02 0. -1.
        2   -1    0    0  501    0  0.00000000000E+00  0.00000000000E+00 -0.13167842187E+04  0.13167842187E+04  0.25500000920E-02 0.  1.
    10030    2    1    2    0    0  0.00000000000E+00  0.00000000000E+00 -0.99681833077E+03  0.16367501066E+04  0.12981926386E+04 0.  0.
        5    1    3    3  502    0  0.20886125466E+03  0.21298587285E+03  0.22839955038E+03  0.37573188625E+03  0.46999998093E+01 0. -1.
       -5    1    3    3    0  502 -0.20886125466E+03 -0.21298587285E+03 -0.12252178811E+04  0.12610182203E+04  0.46999998093E+01 0.  1.
</event>
<event>
 5   0  0.3335747E-04  0.1302217E+04  0.7818609E-02  0.9027809E-01
       -1   -1    0    0    0  501  0.00000000000E+00  0.00000000000E+00  0.39608256348E+03  0.39608256351E+03  0.50400001928E-02 0. -1.
        1   -1    0    0  501    0  0.00000000000E+00  0.00000000000E+00 -0.10703385770E+04  0.10703385770E+04  0.50400001928E-02 0.  1.
    10030    2    1    2    0    0  0.00000000000E+00  0.00000000000E+00 -0.67425601348E+03  0.14664211405E+04  0.13022172590E+04 0.  0.
        3    1    3    3  502    0 -0.48040630610E+03 -0.12487445566E+03  0.13738280035E+03  0.51503193362E+03  0.10100000352E+00 0. -1.
       -3    1    3    3    0  502  0.48040630610E+03  0.12487445566E+03 -0.81163881383E+03  0.95138920686E+03  0.10100000352E+00 0.  1.
</event>
<event>
 5   0  0.6052864E-04  0.1286869E+04  0.7818609E-02  0.9040043E-01
        2   -1    0    0  501    0  0.00000000000E+00  0.00000000000E+00  0.24248381334E+04  0.24248381334E+04  0.25500000920E-02 0. -1.
       -2   -1    0    0    0  501  0.00000000000E+00  0.00000000000E+00 -0.17073634701E+03  0.17073634703E+03  0.25500000920E-02 0.  1.
    10030    2    1    2    0    0  0.00000000000E+00  0.00000000000E+00  0.22541017864E+04  0.25955744805E+04  0.12868690765E+04 0.  0.
        2    1    3    3  502    0 -0.34140286634E+03  0.15144301720E+03  0.21838290601E+04  0.22155361131E+04  0.25500000920E-02 0. -1.
       -2    1    3    3    0  502  0.34140286634E+03 -0.15144301720E+03  0.70272726319E+02  0.38003836737E+03  0.25500000920E-02 0.  1.
</event>
<event>
 5   0  0.5787604E-04  0.1292917E+04  0.7818609E-02  0.9035201E-01
        2   -1    0    0  501    0  0.00000000000E+00  0.00000000000E+00  0.71456977498E+03  0.71456977499E+03  0.25500000920E-02 0.  1.
       -2   -1    0    0    0  501  0.00000000000E+00  0.00000000000E+00 -0.58483947015E+03  0.58483947016E+03  0.25500000920E-02 0. -1.
    10030    2    1    2    0    0  0.00000000000E+00  0.00000000000E+00  0.12973030483E+03  0.12994092451E+04  0.12929170253E+04 0.  0.
        4    1    3    3  502    0  0.44636035597E+03 -0.27255450920E+03  0.44675141179E+03  0.68783134902E+03  0.12699999809E+01 0. -1.
       -4    1    3    3    0  502 -0.44636035597E+03  0.27255450920E+03 -0.31702110696E+03  0.61157789612E+03  0.12699999809E+01 0.  1.
</event>
<event>
 5   0  0.6052864E-04  0.1298473E+04  0.7818609E-02  0.9030777E-01
        2   -1    0    0  501    0  0.00000000000E+00  0.00000000000E+00  0.21651176974E+04  0.21651176974E+04  0.25500000920E-02 0.  1.
       -2   -1    0    0    0  501  0.00000000000E+00  0.00000000000E+00 -0.19468122412E+03  0.19468122413E+03  0.25500000920E-02 0. -1.
    10030    2    1    2    0    0  0.00000000000E+00  0.00000000000E+00  0.19704364733E+04  0.23597989216E+04  0.12984725853E+04 0.  0.
        2    1    3    3  502    0  0.16542437799E+03  0.40197902530E+03  0.10881206002E+03  0.44809867890E+03  0.25500000920E-02 0. -1.
       -2    1    3    3    0  502 -0.16542437799E+03 -0.40197902530E+03  0.18616244133E+04  0.19117002427E+04  0.25500000920E-02 0.  1.
</event>
<event>
 5   0  0.3274879E-04  0.1306555E+04  0.7818609E-02  0.9024383E-01
       -1   -1    0    0    0  501  0.00000000000E+00  0.00000000000E+00  0.80035498043E+03  0.80035498044E+03  0.50400001928E-02 0.  1.
        1   -1    0    0  501    0  0.00000000000E+00  0.00000000000E+00 -0.53322810759E+03  0.53322810762E+03  0.50400001928E-02 0. -1.
    10030    2    1    2    0    0  0.00000000000E+00  0.00000000000E+00  0.26712687284E+03  0.13335830881E+04  0.13065554281E+04 0.  0.
        4    1    3    3  502    0  0.53972547390E+03  0.17016017722E+03  0.46667651580E+03  0.73351663675E+03  0.12699999809E+01 0.  1.
       -4    1    3    3    0  502 -0.53972547390E+03 -0.17016017722E+03 -0.19954964297E+03  0.60006645131E+03  0.12699999809E+01 0. -1.
</event>
<event>
 5   0  0.6007125E-04  0.1301994E+04  0.7818609E-02  0.9027986E-01
       -2   -1    0    0    0  501  0.00000000000E+00  0.00000000000E+00  0.67256101920E+03  0.67256101921E+03  0.25500000920E-02 0. -1.
        2   -1    0    0  501    0  0.00000000000E+00  0.00000000000E+00 -0.63012410065E+03  0.63012410066E+03  0.25500000920E-02 0.  1.
    10030    2    1    2    0    0  0.00000000000E+00  0.00000000000E+00  0.42436918554E+02  0.13026851199E+04  0.13019937133E+04 0.  0.
        5    1    3    3  502    0 -0.53175538105E+03  0.35516871787E+03 -0.10077337300E+03  0.64736849331E+03  0.46999998093E+01 0.  1.
       -5    1    3    3    0  502  0.53175538105E+03 -0.35516871787E+03  0.14321029155E+03  0.65531662655E+03  0.46999998093E+01 0. -1.
</event>
<event>
 5   0  0.3263679E-04  0.1298840E+04  0.7818609E-02  0.9030486E-01
       -1   -1    0    0    0  501  0.00000000000E+00  0.00000000000E+00  0.21249249874E+03  0.21249249880E+03  0.50400001928E-02 0. -1.
        1   -1    0    0  501    0  0.00000000000E+00  0.00000000000E+00 -0.19847581286E+04  0.19847581286E+04  0.50400001928E-02 0.  1.
    10030    2    1    2    0    0  0.00000000000E+00  0.00000000000E+00 -0.17722656298E+04  0.21972506274E+04  0.12988398118E+04 0.  0.
        2    1    3    3  502    0 -0.41335892375E+03  0.20343248157E+03 -0.16604371783E+04  0.17231662710E+04  0.25500000920E-02 0.  1.
       -2    1    3    3    0  502  0.41335892375E+03 -0.20343248157E+03 -0.11182845156E+03  0.47408435640E+03  0.25500000920E-02 0. -1.
</event>
<event>
 5   0  0.3403833E-04  0.1324916E+04  0.7818609E-02  0.9010037E-01
       -1   -1    0    0    0  501  0.00000000000E+00  0.00000000000E+00  0.27657303498E+03  0.27657303502E+03  0.50400001928E-02 0. -1.
        1   -1    0    0  501    0  0.00000000000E+00  0.00000000000E+00 -0.15867433020E+04  0.15867433020E+04  0.50400001928E-02 0.  1.
    10030    2    1    2    0    0  0.00000000000E+00  0.00000000000E+00 -0.13101702670E+04  0.18633163370E+04  0.13249157117E+04 0.  0.
        1    1    3    3  502    0  0.22376365950E+03  0.30928424615E+03 -0.14165040345E+04  0.14670414446E+04  0.50400001928E-02 0.  1.
       -1    1    3    3    0  502 -0.22376365950E+03 -0.30928424615E+03  0.10633376753E+03  0.39627489243E+03  0.50400001928E-02 0. -1.
</event>
<event>
 5   0  0.3337520E-04  0.1303734E+04  0.7818609E-02  0.9026609E-01
       -1   -1    0    0    0  501  0.00000000000E+00  0.00000000000E+00  0.27340016538E+03  0.27340016543E+03  0.50400001928E-02 0.  1.
        1   -1    0    0  501    0  0.00000000000E+00  0.00000000000E+00 -0.15542443720E+04  0.15542443720E+04  0.50400001928E-02 0. -1.
    10030    2    1    2    0    0  0.00000000000E+00  0.00000000000E+00 -0.12808442067E+04  0.18276445375E+04  0.13037341269E+04 0.  0.
        5    1    3    3  502    0 -0.11742895671E+03  0.51825696850E+03 -0.11118057937E+03  0.54292085657E+03  0.46999998093E+01 0.  1.
       -5    1    3    3    0  502  0.11742895671E+03 -0.51825696850E+03 -0.11696636273E+04  0.12847236809E+04  0.46999998093E+01 0. -1.
</event>
<event>
 5   0  0.3274879E-04  0.1299371E+04  0.7818609E-02  0.9030064E-01
        1   -1    0    0  501    0  0.00000000000E+00  0.00000000000E+00  0.19279549084E+04  0.19279549084E+04  0.50400001928E-02 0.  1.
       -1   -1    0    0    0  501  0.00000000000E+00  0.00000000000E+00 -0.21893207843E+03  0.21893207849E+03  0.50400001928E-02 0. -1.
    10030    2    1    2    0    0  0.00000000000E+00  0.00000000000E+00  0.17090228300E+04  0.21468869869E+04  0.12993708867E+04 0.  0.
        4    1    3    3  502    0 -0.18942063685E+03 -0.61832307043E+03  0.75151419310E+03  0.99145286949E+03  0.12699999809E+01 0.  1.
       -4    1    3    3    0  502  0.18942063685E+03  0.61832307043E+03  0.95750863690E+03  0.11554341174E+04  0.12699999809E+01 0. -1.
</event>
<event>
 5   0  0.5957913E-04  0.1299211E+04  0.7818609E-02  0.9030191E-01
        2   -1    0    0  501    0  0.00000000000E+00  0.00000000000E+00  0.15443626174E+04  0.15443626174E+04  0.25500000920E-02 0.  1.
       -2   -1    0    0    0  501  0.00000000000E+00  0.00000000000E+00 -0.27324368117E+03  0.27324368118E+03  0.25500000920E-02 0. -1.
    10030    2    1    2    0    0  0.00000000000E+00  0.00000000000E+00  0.12711189362E+04  0.18176062986E+04  0.12992110323E+04 0.  0.
        1    1    3    3  502    0 -0.15095234146E+03 -0.19356173571E+03 -0.20586498242E+03  0.32036408340E+03  0.50400001928E-02 0. -1.
       -1    1    3    3    0  502  0.15095234146E+03  0.19356173571E+03  0.14769839186E+04  0.14972422152E+04  0.50400001928E-02 0.  1.
</event>
<event>
 5   0  0.3274879E-04  0.1299082E+04  0.7818609E-02  0.9030294E-01
       -1   -1    0    0    0  501  0.00000000000E+00  0.00000000000E+00  0.32479828014E+03  0.32479828018E+03  0.50400001928E-02 0.  1.
        1   -1    0    0  501    0  0.00000000000E+00  0.00000000000E+00 -0.12989704522E+04  0.12989704522E+04  0.50400001928E-02 0. -1.
    10030    2    1    2    0    0  0.00000000000E+00  0.00000000000E+00 -0.97417217202E+03  0.16237687323E+04  0.12990817816E+04 0.  0.
        4    1    3    3  502    0 -0.18261958126E+03  0.31996919060E+03 -0.11557392726E+04  0.12130396010E+04  0.12699999809E+01 0. -1.
       -4    1    3    3    0  502  0.18261958126E+03 -0.31996919060E+03  0.18156710063E+03  0.41072913133E+03  0.12699999809E+01 0.  1.
</event>
<event>
 5   0  0.5384960E-04  0.1302016E+04  0.7818609E-02  0.9027968E-01
        2   -1    0    0  501    0  0.00000000000E+00  0.00000000000E+00  0.30170169844E+03  0.30170169845E+03  0.25500000920E-02 0.  1.
       -2   -1    0    0    0  501  0.00000000000E+00  0.00000000000E+00 -0.14047361464E+04  0.14047361464E+04  0.25500000920E-02 0. -1.
    10030    2    1    2    0    0  0.00000000000E+00  0.00000000000E+00 -0.11030344480E+04  0.17064378449E+04  0.13020157929E+04 0.  0.
        3    1    3    3  502    0 -0.61434361431E+03  0.18832541451E+03 -0.68851685105E+03  0.94177492140E+03  0.10100000352E+00 0. -1.
       -3    1    3    3    0  502  0.61434361431E+03 -0.18832541451E+03 -0.41451759693E+03  0.76466292349E+03  0.10100000352E+00 0.  1.
</event>
<event>
 5   0  0.5957913E-04  0.1287526E+04  0.7818609E-02  0.9039516E-01
       -2   -1    0    0    0  501  0.00000000000E+00  0.00000000000E+00  0.43636975317E+03  0.43636975318E+03  0.25500000920E-02 0. -1.
        2   -1    0    0  501    0  0.00000000000E+00  0.00000000000E+00 -0.94972401522E+03  0.94972401522E+03  0.25500000920E-02 0.  1.
    10030    2    1    2    0    0  0.00000000000E+00  0.00000000000E+00 -0.51335426205E+03  0.13860937684E+04  0.12875260527E+04 0.  0.
        1    1    3    3  502    0 -0.31083388142E+03 -0.16506098078E+03 -0.83698770110E+03  0.90797094724E+03  0.50400001928E-02 0.  1.
       -1    1    3    3    0  502  0.31083388142E+03  0.16506098078E+03  0.32363343905E+03  0.47812282116E+03  0.50400001928E-02 0. -1.
</event>
<event>
 5   0  0.5957913E-04  0.1298939E+04  0.7818609E-02  0.9030407E-01
        2   -1    0    0  501    0  0.00000000000E+00  0.00000000000E+00  0.78841023951E+03  0.78841023952E+03  0.25500000920E-02 0.  1.
       -2   -1    0    0    0  501  0.00000000000E+00  0.00000000000E+00 -0.53501395154E+03  0.53501395155E+03  0.25500000920E-02 0. -1.
    10030    2    1    2    0    0  0.00000000000E+00  0.00000000000E+00  0.25339628797E+03  0.13234241911E+04  0.12989387633E+04 0.  0.
        1    1    3    3  502    0 -0.30577024453E+03 -0.56903632084E+03  0.19514108466E+03  0.67481687873E+03  0.50400001928E-02 0.  1.
       -1    1    3    3    0  502  0.30577024453E+03  0.56903632084E+03  0.58255203310E+02  0.64860731233E+03  0.50400001928E-02 0. -1.
</event>
<event>
 5   0  0.6007125E-04  0.1299596E+04  0.7818609E-02  0.9029886E-01
        2   -1    0    0  501    0  0.00000000000E+00  0.00000000000E+00  0.95610794631E+03  0.95610794631E+03  0.25500000920E-02 0.  1.
       -2   -1    0    0    0  501  0.00000000000E+00  0.00000000000E+00 -0.44162101009E+03  0.44162101010E+03  0.25500000920E-02 0. -1.
    10030    2    1    2    0    0  0.00000000000E+00  0.00000000000E+00  0.51448693622E+03  0.13977289564E+04  0.12995958710E+04 0.  0.
        5    1    3    3  502    0  0.11804791438E+03  0.27559883809E+03  0.87725005207E+03  0.92708131979E+03  0.46999998093E+01 0.  1.
       -5    1    3    3    0  502 -0.11804791438E+03 -0.27559883809E+03 -0.36276311585E+03  0.47064763663E+03  0.46999998093E+01 0. -1.
</event>
<event>
 5   0  0.3337520E-04  0.1295729E+04  0.7818609E-02  0.9032959E-01
        1   -1    0    0  501    0  0.00000000000E+00  0.00000000000E+00  0.13203078597E+04  0.13203078598E+04  0.50400001928E-02 0. -1.
       -1   -1    0    0    0  501  0.00000000000E+00  0.00000000000E+00 -0.31790181863E+03  0.31790181867E+03  0.50400001928E-02 0.  1.
    10030    2    1    2    0    0  0.00000000000E+00  0.00000000000E+00  0.10024060411E+04  0.16382096784E+04  0.12957287831E+04 0.  0.
        5    1    3    3  502    0 -0.60180195090E+03 -0.21810929685E+03  0.37496808157E+03  0.74186279437E+03  0.46999998093E+01 0.  1.
       -5    1    3    3    0  502  0.60180195090E+03  0.21810929685E+03  0.62743795955E+03  0.89634688406E+03  0.46999998093E+01 0. -1.
</event>
<event>
 5   0  0.5384960E-04  0.1295401E+04  0.7818609E-02  0.9033220E-01
        2   -1    0    0  501    0  0.00000000000E+00  0.00000000000E+00  0.63944763743E+03  0.63944763744E+03  0.25500000920E-02 0.  1.
       -2   -1    0    0    0  501  0.00000000000E+00  0.00000000000E+00 -0.65606003336E+03  0.65606003336E+03  0.25500000920E-02 0. -1.
    10030    2    1    2    0    0  0.00000000000E+00  0.00000000000E+00 -0.16612395924E+02  0.12955076708E+04  0.12954011554E+04 0.  0.
        3    1    3    3  502    0  0.38694579508E+03 -0.42229052698E+02 -0.52604142248E+03  0.65439279457E+03  0.10100000352E+00 0. -1.
       -3    1    3    3    0  502 -0.38694579508E+03  0.42229052698E+02  0.50942902656E+03  0.64111487623E+03  0.10100000352E+00 0.  1.
</event>
<event>
 5   0  0.3263679E-04  0.1298266E+04  0.7818609E-02  0.9030941E-01
        1   -1    0    0  501    0  0.00000000000E+00  0.00000000000E+00  0.94789785685E+03  0.94789785686E+03  0.50400001928E-02 0. -1.
       -1   -1    0    0    0  501  0.00000000000E+00  0.00000000000E+00 -0.44453480977E+03  0.44453480980E+03  0.50400001928E-02 0.  1.
    10030    2    1    2    0    0  0.00000000000E+00  0.00000000000E+00  0.50336304708E+03  0.13924326667E+04  0.12982659104E+04 0.  0.
        2    1    3    3  502    0  0.93501212817E+01 -0.37161310225E+03 -0.31907305958E+03  0.48988910978E+03  0.25500000920E-02 0.  1.
       -2    1    3    3    0  502 -0.93501212817E+01  0.37161310225E+03  0.82243610665E+03  0.90254355688E+03  0.25500000920E-02 0. -1.
</event>
<event>
 5   0  0.3403833E-04  0.1295849E+04  0.7818609E-02  0.9032863E-01
        1   -1    0    0  501    0  0.00000000000E+00  0.00000000000E+00  0.38569296009E+03  0.38569296012E+03  0.50400001928E-02 0.  1.
       -1   -1    0    0    0  501  0.00000000000E+00  0.00000000000E+00 -0.10884470891E+04  0.10884470891E+04  0.50400001928E-02 0. -1.
    10030    2    1    2    0    0  0.00000000000E+00  0.00000000000E+00 -0.70275412899E+03  0.14741400492E+04  0.12958493427E+04 0.  0.
        1    1    3    3  502    0 -0.35852338488E+03  0.51448806991E+03 -0.53680493416E+03  0.82546746086E+03  0.50400001928E-02 0. -1.
       -1    1    3    3    0  502  0.35852338488E+03 -0.51448806991E+03 -0.16594919483E+03  0.64867258835E+03  0.50400001928E-02 0.  1.
</event>
<event>
 5   0  0.3335747E-04  0.1292035E+04  0.7818609E-02  0.9035906E-01
        1   -1    0    0  501    0  0.00000000000E+00  0.00000000000E+00  0.48514630264E+03  0.48514630267E+03  0.50400001928E-02 0. -1.
       -1   -1    0    0    0  501  0.00000000000E+00  0.00000000000E+00 -0.86023201135E+03  0.86023201136E+03  0.50400001928E-02 0.  1.
    10030    2    1    2    0    0  0.00000000000E+00  0.00000000000E+00 -0.37508570871E+03  0.13453783140E+04  0.12920346431E+04 0.  0.
        3    1    3    3  502    0  0.63751068654E+03 -0.70472540260E+02 -0.10720764543E+03  0.65029204502E+03  0.10100000352E+00 0. -1.
       -3    1    3    3    0  502 -0.63751068654E+03  0.70472540260E+02 -0.26787806328E+03  0.69508626901E+03  0.10100000352E+00 0.  1.
</event>
<event>
 5   0  0.3335747E-04  0.1365581E+04  0.7818609E-02  0.8979117E-01
       -1   -1    0    0    0  501  0.00000000000E+00  0.00000000000E+00  0.28222265694E+03  0.28222265698E+03  0.50400001928E-02 0.  1.
        1   -1    0    0  501    0  0.00000000000E+00  0.00000000000E+00 -0.16518967785E+04  0.16518967785E+04  0.50400001928E-02 0. -1.
    10030    2    1    2    0    0  0.00000000000E+00  0.00000000000E+00 -0.13696741215E+04  0.19341194354E+04  0.13655807524E+04 0.  0.
        3    1    3    3  502    0  0.42585768107E+03 -0.47444159693E+03 -0.33862188388E+03  0.72188252775E+03  0.10100000352E+00 0.  1.
       -3    1    3    3    0  502 -0.42585768107E+03  0.47444159693E+03 -0.10310522376E+04  0.12122369077E+04  0.10100000352E+00 0. -1.
</event>
<event>
 5   0  0.6052864E-04  0.1299708E+04  0.7818609E-02  0.9029796E-01
        2   -1    0    0  501    0  0.00000000000E+00  0.00000000000E+00  0.15766347837E+04  0.15766347837E+04  0.25500000920E-02 0.  1.
       -2   -1    0    0    0  501  0.00000000000E+00  0.00000000000E+00 -0.26785559471E+03  0.26785559473E+03  0.25500000920E-02 0. -1.
    10030    2    1    2    0    0  0.00000000000E+00  0.00000000000E+00  0.13087791890E+04  0.18444903784E+04  0.12997083483E+04 0.  0.
        2    1    3    3  502    0 -0.26272214132E+02  0.83869447846E+02  0.15681616490E+04  0.15706225743E+04  0.25500000920E-02 0.  1.
       -2    1    3    3    0  502  0.26272214132E+02 -0.83869447846E+02 -0.25938246006E+03  0.27386780408E+03  0.25500000920E-02 0. -1.
</event>
<event>
 5   0  0.3337520E-04  0.1298881E+04  0.7818609E-02  0.9030453E-01
        1   -1    0    0  501    0  0.00000000000E+00  0.00000000000E+00  0.81112411663E+03  0.81112411664E+03  0.50400001928E-02 0. -1.
       -1   -1    0    0    0  501  0.00000000000E+00  0.00000000000E+00 -0.51998594382E+03  0.51998594384E+03  0.50400001928E-02 0.  1.
    10030    2    1    2    0    0  0.00000000000E+00  0.00000000000E+00  0.29113817281E+03  0.13311100605E+04  0.12988812715E+04 0.  0.
        5    1    3    3  502    0  0.50390520474E+03 -0.28445763119E+03 -0.15655858562E+03  0.59947416961E+03  0.46999998093E+01 0. -1.
       -5    1    3    3    0  502 -0.50390520474E+03  0.28445763119E+03  0.44769675844E+03  0.73163589087E+03  0.46999998093E+01 0.  1.
</event>
<event>
 5   0  0.6007125E-04  0.1297878E+04  0.7818609E-02  0.9031250E-01
       -2   -1    0    0    0  501  0.00000000000E+00  0.00000000000E+00  0.49368339203E+03  0.49368339204E+03  0.25500000920E-02 0. -1.
        2   -1    0    0  501    0  0.00000000000E+00  0.00000000000E+00 -0.85302014838E+03  0.85302014839E+03  0.25500000920E-02 0.  1.
    10030    2    1    2    0    0  0.00000000000E+00  0.00000000000E+00 -0.35933675635E+03  0.13467035404E+04  0.12978780842E+04 0.  0.
        5    1    3    3  502    0 -0.41150382773E+03  0.29589970866E+03 -0.60013829729E+03  0.78554446322E+03  0.46999998093E+01 0.  1.
       -5    1    3    3    0  502  0.41150382773E+03 -0.29589970866E+03  0.24080154094E+03  0.56115907721E+03  0.46999998093E+01 0. -1.
</event>
<event>
 5   0  0.2255875E-04  0.1262412E+04  0.7818609E-02  0.9059916E-01
        4   -1    0    0  501    0  0.00000000000E+00  0.00000000000E+00  0.11772397357E+04  0.11772404207E+04  0.12699999809E+01 0. -1.
       -4   -1    0    0    0  501  0.00000000000E+00  0.00000000000E+00 -0.33843460489E+03  0.33843698777E+03  0.12699999809E+01 0.  1.
    10030    2    1    2    0    0  0.00000000000E+00  0.00000000000E+00  0.83880513076E+03  0.15156774085E+04  0.12624119609E+04 0.  0.
        5    1    3    3  502    0  0.21198122519E+03  0.32108439773E+03 -0.18134884643E+03  0.42537127829E+03  0.46999998093E+01 0.  1.
       -5    1    3    3    0  502 -0.21198122519E+03 -0.32108439773E+03  0.10201539772E+04  0.10903061302E+04  0.46999998093E+01 0. -1.
</event>
<event>
 5   0  0.6007125E-04  0.1305070E+04  0.7818609E-02  0.9025554E-01
        2   -1    0    0  501    0  0.00000000000E+00  0.00000000000E+00  0.52359055954E+03  0.52359055955E+03  0.25500000920E-02 0. -1.
       -2   -1    0    0    0  501  0.00000000000E+00  0.00000000000E+00 -0.81323506220E+03  0.81323506220E+03  0.25500000920E-02 0.  1.
    10030    2    1    2    0    0  0.00000000000E+00  0.00000000000E+00 -0.28964450265E+03  0.13368256218E+04  0.13050704215E+04 0.  0.
        5    1    3    3  502    0 -0.22334949133E+03  0.66411333356E+02  0.47950350351E+03  0.53314272044E+03  0.46999998093E+01 0. -1.
       -5    1    3    3    0  502  0.22334949133E+03 -0.66411333356E+02 -0.76914800617E+03  0.80368290131E+03  0.46999998093E+01 0.  1.
</event>
<event>
 5   0  0.3403833E-04  0.1299448E+04  0.7818609E-02  0.9030003E-01
        1   -1    0    0  501    0  0.00000000000E+00  0.00000000000E+00  0.10959445341E+04  0.10959445342E+04  0.50400001928E-02 0. -1.
       -1   -1    0    0    0  501  0.00000000000E+00  0.00000000000E+00 -0.38518494374E+03  0.38518494377E+03  0.50400001928E-02 0.  1.
    10030    2    1    2    0    0  0.00000000000E+00  0.00000000000E+00  0.71075959040E+03  0.14811294779E+04  0.12994480886E+04 0.  0.
        1    1    3    3  502    0 -0.36520061528E+03  0.53736795891E+03  0.35270157938E+03  0.73927952548E+03  0.50400001928E-02 0.  1.
       -1    1    3    3    0  502  0.36520061528E+03 -0.53736795891E+03  0.35805801102E+03  0.74184995245E+03  0.50400001928E-02 0. -1.
</event>
<event>
 5   0  0.3263679E-04  0.1304081E+04  0.7818609E-02  0.9026335E-01
        1   -1    0    0  501    0  0.00000000000E+00  0.00000000000E+00  0.65100745755E+03  0.65100745757E+03  0.50400001928E-02 0. -1.
       -1   -1    0    0    0  501  0.00000000000E+00  0.00000000000E+00 -0.65307509455E+03  0.65307509457E+03  0.50400001928E-02 0.  1.
    10030    2    1    2    0    0  0.00000000000E+00  0.00000000000E+00 -0.20676369975E+01  0.13040825521E+04  0.13040809130E+04 0.  0.
        2    1    3    3  502    0 -0.32550027477E+03 -0.27468769562E+03  0.49268027960E+03  0.65125848702E+03  0.25500000920E-02 0. -1.
       -2    1    3    3    0  502  0.32550027477E+03  0.27468769562E+03 -0.49474791660E+03  0.65282406511E+03  0.25500000920E-02 0.  1.
</event>
<event>
 5   0  0.5957913E-04  0.1297941E+04  0.7818609E-02  0.9031199E-01
        2   -1    0    0  501    0  0.00000000000E+00  0.00000000000E+00  0.18474051644E+03  0.18474051646E+03  0.25500000920E-02 0.  1.
       -2   -1    0    0    0  501  0.00000000000E+00  0.00000000000E+00 -0.22797537449E+04  0.22797537449E+04  0.25500000920E-02 0. -1.
    10030    2    1    2    0    0  0.00000000000E+00  0.00000000000E+00 -0.20950132284E+04  0.24644942613E+04  0.12979412686E+04 0.  0.
        1    1    3    3  502    0 -0.63017044977E+03  0.15488193360E+03 -0.10328386698E+04  0.12197782286E+04  0.50400001928E-02 0. -1.
       -1    1    3    3    0  502  0.63017044977E+03 -0.15488193360E+03 -0.10621745587E+04  0.12447160328E+04  0.50400001928E-02 0.  1.
</event>
<event>
 5   0  0.5957913E-04  0.1299649E+04  0.7818609E-02  0.9029844E-01
       -2   -1    0    0    0  501  0.00000000000E+00  0.00000000000E+00  0.20323172410E+03  0.20323172411E+03  0.25500000920E-02 0. -1.
        2   -1    0    0  501    0  0.00000000000E+00  0.00000000000E+00 -0.20777848030E+04  0.20777848030E+04  0.25500000920E-02 0.  1.
    10030    2    1    2    0    0  0.00000000000E+00  0.00000000000E+00 -0.18745530789E+04  0.22810165271E+04  0.12996488570E+04 0.  0.
        1    1    3    3  502    0  0.41250959576E+03  0.49251865708E+03 -0.11086395387E+04  0.12813354053E+04  0.50400001928E-02 0.  1.
       -1    1    3    3    0  502 -0.41250959576E+03 -0.49251865708E+03 -0.76591354024E+03  0.99968112182E+03  0.50400001928E-02 0. -1.
</event>
<event>
 5   0  0.3337520E-04  0.1301881E+04  0.7818609E-02  0.9028075E-01
       -1   -1    0    0    0  501  0.00000000000E+00  0.00000000000E+00  0.70544158490E+03  0.70544158492E+03  0.50400001928E-02 0. -1.
        1   -1    0    0  501    0  0.00000000000E+00  0.00000000000E+00 -0.60064968740E+03  0.60064968742E+03  0.50400001928E-02 0.  1.
    10030    2    1    2    0    0  0.00000000000E+00  0.00000000000E+00  0.10479189750E+03  0.13060912723E+04  0.13018805897E+04 0.  0.
        5    1    3    3  502    0 -0.10943825437E+03 -0.57060336675E+03 -0.24204305534E+03  0.62942184924E+03  0.46999998093E+01 0.  1.
       -5    1    3    3    0  502  0.10943825437E+03  0.57060336675E+03  0.34683495284E+03  0.67666942311E+03  0.46999998093E+01 0. -1.
</event>
<event>
 5   0  0.3274879E-04  0.1249297E+04  0.7818609E-02  0.9070769E-01
        1   -1    0    0  501    0  0.00000000000E+00  0.00000000000E+00  0.37814635695E+03  0.37814635699E+03  0.50400001928E-02 0. -1.
       -1   -1    0    0    0  501  0.00000000000E+00  0.00000000000E+00 -0.10318371295E+04  0.10318371296E+04  0.50400001928E-02 0.  1.
    10030    2    1    2    0    0  0.00000000000E+00  0.00000000000E+00 -0.65369077259E+03  0.14099834865E+04  0.12492965245E+04 0.  0.
        4    1    3    3  502    0 -0.30634447049E+03 -0.55954027050E+01  0.28750823274E+03  0.42016763312E+03  0.12699999809E+01 0. -1.
       -4    1    3    3    0  502  0.30634447049E+03  0.55954027050E+01 -0.94119900533E+03  0.98981585341E+03  0.12699999809E+01 0.  1.
</event>
<event>
 5   0  0.6007125E-04  0.1301900E+04  0.7818609E-02  0.9028059E-01
        2   -1    0    0  501    0  0.00000000000E+00  0.00000000000E+00  0.70912158892E+03  0.70912158892E+03  0.25500000920E-02 0.  1.
       -2   -1    0    0    0  501  0.00000000000E+00  0.00000000000E+00 -0.59755079175E+03  0.59755079175E+03  0.25500000920E-02 0. -1.
    10030    2    1    2    0    0  0.00000000000E+00  0.00000000000E+00  0.11157079717E+03  0.13066723807E+04  0.13019004062E+04 0.  0.
        5    1    3    3  502    0  0.25893676802E+03 -0.15619781667E+03 -0.52275441699E+03  0.60393731318E+03  0.46999998093E+01 0. -1.
       -5    1    3    3    0  502 -0.25893676802E+03  0.15619781667E+03  0.63432521416E+03  0.70273506749E+03  0.46999998093E+01 0.  1.
</event>
<event>
 5   0  0.3337520E-04  0.1301478E+04  0.7818609E-02  0.9028394E-01
       -1   -1    0    0    0  501  0.00000000000E+00  0.00000000000E+00  0.13122538609E+04  0.13122538610E+04  0.50400001928E-02 0.  1.
        1   -1    0    0  501    0  0.00000000000E+00  0.00000000000E+00 -0.32269769183E+03  0.32269769187E+03  0.50400001928E-02 0. -1.
    10030    2    1    2    0    0  0.00000000000E+00  0.00000000000E+00  0.98955616912E+03  0.16349515528E+04  0.13014780706E+04 0.  0.
        5    1    3    3  502    0 -0.49405224001E+03 -0.14110764807E+03  0.99638899346E+03  0.11210763134E+04  0.46999998093E+01 0.  1.
       -5    1    3    3    0  502  0.49405224001E+03  0.14110764807E+03 -0.68328243415E+01  0.51387523942E+03  0.46999998093E+01 0. -1.
</event>
<event>
 5   0  0.3263679E-04  0.1299622E+04  0.7818609E-02  0.9029865E-01
        1   -1    0    0  501    0  0.00000000000E+00  0.00000000000E+00  0.31456614298E+03  0.31456614302E+03  0.50400001928E-02 0.  1.
       -1   -1    0    0    0  501  0.00000000000E+00  0.00000000000E+00 -0.13423379580E+04  0.13423379580E+04  0.50400001928E-02 0. -1.
    10030    2    1    2    0    0  0.00000000000E+00  0.00000000000E+00 -0.10277718150E+04  0.16569041010E+04  0.12996215973E+04 0.  0.
        2    1    3    3  502    0  0.37653516947E+03  0.26226104415E+03  0.72704862278E+02  0.46459184898E+03  0.25500000920E-02 0.  1.
       -2    1    3    3    0  502 -0.37653516947E+03 -0.26226104415E+03 -0.11004766773E+04  0.11923122520E+04  0.25500000920E-02 0. -1.
</event>
<event>
 5   0  0.6007125E-04  0.1312972E+04  0.7818609E-02  0.9019341E-01
       -2   -1    0    0    0  501  0.00000000000E+00  0.00000000000E+00  0.79170849615E+03  0.79170849616E+03  0.25500000920E-02 0. -1.
        2   -1    0    0  501    0  0.00000000000E+00  0.00000000000E+00 -0.54435902002E+03  0.54435902003E+03  0.25500000920E-02 0.  1.
    10030    2    1    2    0    0  0.00000000000E+00  0.00000000000E+00  0.24734947613E+03  0.13360675162E+04  0.13129716846E+04 0.  0.
        5    1    3    3  502    0  0.27402715961E+03  0.44784823416E+03 -0.27732906360E+03  0.59379493478E+03  0.46999998093E+01 0.  1.
       -5    1    3    3    0  502 -0.27402715961E+03 -0.44784823416E+03  0.52467853973E+03  0.74227258141E+03  0.46999998093E+01 0. -1.
</event>
<event>
 5   0  0.5957913E-04  0.1299177E+04  0.7818609E-02  0.9030218E-01
        2   -1    0    0  501    0  0.00000000000E+00  0.00000000000E+00  0.11591065009E+04  0.11591065009E+04  0.25500000920E-02 0. -1.
       -2   -1    0    0    0  501  0.00000000000E+00  0.00000000000E+00 -0.36404350198E+03  0.36404350199E+03  0.25500000920E-02 0.  1.
    10030    2    1    2    0    0  0.00000000000E+00  0.00000000000E+00  0.79506299891E+03  0.15231500029E+04  0.12991769545E+04 0.  0.
        1    1    3    3  502    0 -0.40864935943E+03 -0.39586190807E+03  0.76504400221E+03  0.95341138790E+03  0.50400001928E-02 0. -1.
       -1    1    3    3    0  502  0.40864935943E+03  0.39586190807E+03  0.30018996701E+02  0.56973861499E+03  0.50400001928E-02 0.  1.
</event>
<event>
 5   0  0.3263679E-04  0.1298468E+04  0.7818609E-02  0.9030781E-01
        1   -1    0    0  501    0  0.00000000000E+00  0.00000000000E+00  0.16426472372E+04  0.16426472372E+04  0.50400001928E-02 0. -1.
       -1   -1    0    0    0  501  0.00000000000E+00  0.00000000000E+00 -0.25660108338E+03  0.25660108343E+03  0.50400001928E-02 0.  1.
    10030    2    1    2    0    0  0.00000000000E+00  0.00000000000E+00  0.13860461538E+04  0.18992483207E+04  0.12984684220E+04 0.  0.
        2    1    3    3  502    0 -0.27252352982E+03  0.43839154617E+03  0.12689728581E+04  0.13699446473E+04  0.25500000920E-02 0. -1.
       -2    1    3    3    0  502  0.27252352982E+03 -0.43839154617E+03  0.11707329574E+03  0.52930367337E+03  0.25500000920E-02 0.  1.
</event>
<event>
 5   0  0.3337520E-04  0.1305196E+04  0.7818609E-02  0.9025455E-01
       -1   -1    0    0    0  501  0.00000000000E+00  0.00000000000E+00  0.15725084405E+03  0.15725084413E+03  0.50400001928E-02 0. -1.
        1   -1    0    0  501    0  0.00000000000E+00  0.00000000000E+00 -0.27083094787E+04  0.27083094787E+04  0.50400001928E-02 0.  1.
    10030    2    1    2    0    0  0.00000000000E+00  0.00000000000E+00 -0.25510586346E+04  0.28655603228E+04  0.13051956966E+04 0.  0.
        5    1    3    3  502    0  0.62784588781E+03  0.89883781267E+02 -0.93830479938E+03  0.11325667925E+04  0.46999998093E+01 0.  1.
       -5    1    3    3    0  502 -0.62784588781E+03 -0.89883781267E+02 -0.16127538352E+04  0.17329935303E+04  0.46999998093E+01 0. -1.
</event>
<event>
 5   0  0.3335747E-04  0.1301238E+04  0.7818609E-02  0.9028584E-01
        1   -1    0    0  501    0  0.00000000000E+00  0.00000000000E+00  0.12319446904E+04  0.12319446904E+04  0.50400001928E-02 0.  1.
       -1   -1    0    0    0  501  0.00000000000E+00  0.00000000000E+00 -0.34360713419E+03  0.34360713422E+03  0.50400001928E-02 0. -1.
    10030    2    1    2    0    0  0.00000000000E+00  0.00000000000E+00  0.88833755619E+03  0.15755518246E+04  0.13012378485E+04 0.  0.
        3    1    3    3  502    0 -0.56100345132E+03 -0.23624040959E+03  0.72231419108E+03  0.94460161145E+03  0.10100000352E+00 0.  1.
       -3    1    3    3    0  502  0.56100345132E+03  0.23624040959E+03  0.16602336511E+03  0.63095021316E+03  0.10100000352E+00 0. -1.
</event>
<event>
 5   0  0.3335747E-04  0.1333817E+04  0.7818609E-02  0.9003170E-01
        1   -1    0    0  501    0  0.00000000000E+00  0.00000000000E+00  0.57532739057E+03  0.57532739059E+03  0.50400001928E-02 0. -1.
       -1   -1    0    0    0  501  0.00000000000E+00  0.00000000000E+00 -0.77306746471E+03  0.77306746472E+03  0.50400001928E-02 0.  1.
    10030    2    1    2    0    0  0.00000000000E+00  0.00000000000E+00 -0.19774007414E+03  0.13483948553E+04  0.13338169098E+04 0.  0.
        3    1    3    3  502    0  0.27816337016E+03 -0.52489022088E+03  0.20756380890E+03  0.62925936580E+03  0.10100000352E+00 0. -1.
       -3    1    3    3    0  502 -0.27816337016E+03  0.52489022088E+03 -0.40530388304E+03  0.71913548952E+03  0.10100000352E+00 0.  1.
</event>
<event>
 5   0  0.3337520E-04  0.1294651E+04  0.7818609E-02  0.9033818E-01
       -1   -1    0    0    0  501  0.00000000000E+00  0.00000000000E+00  0.44621635973E+03  0.44621635976E+03  0.50400001928E-02 0.  1.
        1   -1    0    0  501    0  0.00000000000E+00  0.00000000000E+00 -0.93907400605E+03  0.93907400606E+03  0.50400001928E-02 0. -1.
    10030    2    1    2    0    0  0.00000000000E+00  0.00000000000E+00 -0.49285764632E+03  0.13852903658E+04  0.12946508170E+04 0.  0.
        5    1    3    3  502    0  0.38009919442E+03  0.49615847983E+03 -0.66236144528E+02  0.62853635658E+03  0.46999998093E+01 0.  1.
       -5    1    3    3    0  502 -0.38009919442E+03 -0.49615847983E+03 -0.42662150179E+03  0.75675400923E+03  0.46999998093E+01 0. -1.
</event>
<event>
 5   0  0.3274879E-04  0.1299418E+04  0.7818609E-02  0.9030027E-01
        1   -1    0    0  501    0  0.00000000000E+00  0.00000000000E+00  0.76632068146E+03  0.76632068147E+03  0.50400001928E-02 0.  1.
       -1   -1    0    0    0  501  0.00000000000E+00  0.00000000000E+00 -0.55084211058E+03  0.55084211061E+03  0.50400001928E-02 0. -1.
    10030    2    1    2    0    0  0.00000000000E+00  0.00000000000E+00  0.21547857087E+03  0.13171627921E+04  0.12994178721E+04 0.  0.
        4    1    3    3  502    0 -0.18111140521E+03 -0.20689485384E+02 -0.52438779068E+03  0.55516985132E+03  0.12699999809E+01 0. -1.
       -4    1    3    3    0  502  0.18111140521E+03  0.20689485384E+02  0.73986636155E+03  0.76199294076E+03  0.12699999809E+01 0.  1.
</event>
<event>
 5   0  0.3335747E-04  0.1284724E+04  0.7818609E-02  0.9041768E-01
        1   -1    0    0  501    0  0.00000000000E+00  0.00000000000E+00  0.11253592427E+04  0.11253592427E+04  0.50400001928E-02 0. -1.
       -1   -1    0    0    0  501  0.00000000000E+00  0.00000000000E+00 -0.36666419037E+03  0.36666419041E+03  0.50400001928E-02 0.  1.
    10030    2    1    2    0    0  0.00000000000E+00  0.00000000000E+00  0.75869505234E+03  0.14920234331E+04  0.12847239947E+04 0.  0.
        3    1    3    3  502    0 -0.23813940319E+03  0.18184289510E+03  0.10392311567E+04  0.10815630454E+04  0.10100000352E+00 0. -1.
       -3    1    3    3    0  502  0.23813940319E+03 -0.18184289510E+03 -0.28053610438E+03  0.41046038775E+03  0.10100000352E+00 0.  1.
</event>
<event>
 5   0  0.5787604E-04  0.1301038E+04  0.7818609E-02  0.9028743E-01
        2   -1    0    0  501    0  0.00000000000E+00  0.00000000000E+00  0.52111077338E+03  0.52111077338E+03  0.25500000920E-02 0.  1.
       -2   -1    0    0    0  501  0.00000000000E+00  0.00000000000E+00 -0.81206296392E+03  0.81206296393E+03  0.25500000920E-02 0. -1.
    10030    2    1    2    0    0  0.00000000000E+00  0.00000000000E+00 -0.29095219055E+03  0.13331737373E+04  0.13010376769E+04 0.  0.
        4    1    3    3  502    0 -0.60845518351E+03 -0.14211110991E+03  0.39991461214E+02  0.62611037986E+03  0.12699999809E+01 0. -1.
       -4    1    3    3    0  502  0.60845518351E+03  0.14211110991E+03 -0.33094365176E+03  0.70706335745E+03  0.12699999809E+01 0.  1.
</event>
<event>
 5   0  0.3335747E-04  0.1299601E+04  0.7818609E-02  0.9029882E-01
       -1   -1    0    0    0  501  0.00000000000E+00  0.00000000000E+00  0.57811304056E+03  0.57811304058E+03  0.50400001928E-02 0. -1.
        1   -1    0    0  501    0  0.00000000000E+00  0.00000000000E+00 -0.73037738882E+03  0.73037738884E+03  0.50400001928E-02 0.  1.
    10030    2    1    2    0    0  0.00000000000E+00  0.00000000000E+00 -0.15226434826E+03  0.13084904294E+04  0.12996010050E+04 0.  0.
        3    1    3    3  502    0  0.20100581853E+03 -0.51186950396E+03 -0.42466025347E+03  0.69480217994E+03  0.10100000352E+00 0.  1.
       -3    1    3    3    0  502 -0.20100581853E+03  0.51186950396E+03  0.27239590521E+03  0.61368824948E+03  0.10100000352E+00 0. -1.
</event>
<event>
 5   0  0.5384960E-04  0.1296071E+04  0.7818609E-02  0.9032686E-01
       -2   -1    0    0    0  501  0.00000000000E+00  0.00000000000E+00  0.80203991298E+03  0.80203991298E+03  0.25500000920E-02 0. -1.
        2   -1    0    0  501    0  0.00000000000E+00  0.00000000000E+00 -0.52360270013E+03  0.52360270014E+03  0.25500000920E-02 0.  1.
    10030    2    1    2    0    0  0.00000000000E+00  0.00000000000E+00  0.27843721284E+03  0.13256426131E+04  0.12960713932E+04 0.  0.
        3    1    3    3  502    0 -0.41841819694E+03  0.80788249271E+02 -0.36013116893E+03  0.55793816664E+03  0.10100000352E+00 0.  1.
       -3    1    3    3    0  502  0.41841819694E+03 -0.80788249271E+02  0.63856838178E+03  0.76770444649E+03  0.10100000352E+00 0. -1.
</event>
<event>
 5   0  0.5384960E-04  0.1313268E+04  0.7818609E-02  0.9019109E-01
        2   -1    0    0  501    0  0.00000000000E+00  0.00000000000E+00  0.30780430186E+03  0.30780430187E+03  0.25500000920E-02 0. -1.
       -2   -1    0    0    0  501  0.00000000000E+00  0.00000000000E+00 -0.14007866819E+04  0.14007866819E+04  0.25500000920E-02 0.  1.
    10030    2    1    2    0    0  0.00000000000E+00  0.00000000000E+00 -0.10929823801E+04  0.17085909838E+04  0.13132679341E+04 0.  0.
        3    1    3    3  502    0 -0.27379310544E+03 -0.49391237517E+03 -0.11058838586E+03  0.57544930291E+03  0.10100000352E+00 0.  1.
       -3    1    3    3    0  502  0.27379310544E+03  0.49391237517E+03 -0.98239399419E+03  0.11331416809E+04  0.10100000352E+00 0. -1.
</event>
<event>
 5   0  0.2255875E-04  0.1301779E+04  0.7818609E-02  0.9028155E-01
       -4   -1    0    0    0  501  0.00000000000E+00  0.00000000000E+00  0.35755750480E+03  0.35755976024E+03  0.12699999809E+01 0.  1.
        4   -1    0    0  501    0  0.00000000000E+00  0.00000000000E+00 -0.11848584671E+04  0.11848591477E+04  0.12699999809E+01 0. -1.
    10030    2    1    2    0    0  0.00000000000E+00  0.00000000000E+00 -0.82730096225E+03  0.15424189079E+04  0.13017792460E+04 0.  0.
        2    1    3    3  502    0 -0.17340003269E+03 -0.19401970918E+03 -0.11205490554E+04  0.11503657699E+04  0.25500000920E-02 0. -1.
       -2    1    3    3    0  502  0.17340003269E+03  0.19401970918E+03  0.29324809318E+03  0.39205313804E+03  0.25500000920E-02 0.  1.
</event>
<event>
 5   0  0.6007125E-04  0.1305634E+04  0.7818609E-02  0.9025109E-01
       -2   -1    0    0    0  501  0.00000000000E+00  0.00000000000E+00  0.24119989693E+03  0.24119989694E+03  0.25500000920E-02 0. -1.
        2   -1    0    0  501    0  0.00000000000E+00  0.00000000000E+00 -0.17668756825E+04  0.17668756825E+04  0.25500000920E-02 0.  1.
    10030    2    1    2    0    0  0.00000000000E+00  0.00000000000E+00 -0.15256757856E+04  0.20080755794E+04  0.13056343018E+04 0.  0.
        5    1    3    3  502    0 -0.10324508253E+03  0.15766090800E+03  0.19842506721E+03  0.27369893364E+03  0.46999998093E+01 0. -1.
       -5    1    3    3    0  502  0.10324508253E+03 -0.15766090800E+03 -0.17241008528E+04  0.17343766458E+04  0.46999998093E+01 0.  1.
</event>
<event>
 5   0  0.3337520E-04  0.1299455E+04  0.7818609E-02  0.9029997E-01
       -1   -1    0    0    0  501  0.00000000000E+00  0.00000000000E+00  0.93291467717E+03  0.93291467719E+03  0.50400001928E-02 0. -1.
        1   -1    0    0  501    0  0.00000000000E+00  0.00000000000E+00 -0.45250236552E+03  0.45250236555E+03  0.50400001928E-02 0.  1.
    10030    2    1    2    0    0  0.00000000000E+00  0.00000000000E+00  0.48041231165E+03  0.13854170427E+04  0.12994554218E+04 0.  0.
        5    1    3    3  502    0 -0.28694452742E+03  0.54807395836E+03  0.28576231936E+02  0.61932295023E+03  0.46999998093E+01 0.  1.
       -5    1    3    3    0  502  0.28694452742E+03 -0.54807395836E+03  0.45183607972E+03  0.76609409251E+03  0.46999998093E+01 0. -1.
</event>
<event>
 5   0  0.3263679E-04  0.1303712E+04  0.7818609E-02  0.9026627E-01
        1   -1    0    0  501    0  0.00000000000E+00  0.00000000000E+00  0.11820240137E+04  0.11820240137E+04  0.50400001928E-02 0.  1.
       -1   -1    0    0    0  501  0.00000000000E+00  0.00000000000E+00 -0.35948176247E+03  0.35948176251E+03  0.50400001928E-02 0. -1.
    10030    2    1    2    0    0  0.00000000000E+00  0.00000000000E+00  0.82254225126E+03  0.15415057762E+04  0.13037117408E+04 0.  0.
        2    1    3    3  502    0 -0.42234119976E+03  0.96890585846E+02  0.98708327265E+03  0.10780042958E+04  0.25500000920E-02 0.  1.
       -2    1    3    3    0  502  0.42234119976E+03 -0.96890585846E+02 -0.16454102139E+03  0.46350148044E+03  0.25500000920E-02 0. -1.
</event>
<event>
 5   0  0.6007125E-04  0.1298150E+04  0.7818609E-02  0.9031034E-01
        2   -1    0    0  501    0  0.00000000000E+00  0.00000000000E+00  0.45815284501E+03  0.45815284502E+03  0.25500000920E-02 0. -1.
       -2   -1    0    0    0  501  0.00000000000E+00  0.00000000000E+00 -0.91955807163E+03  0.91955807164E+03  0.25500000920E-02 0.  1.
    10030    2    1    2    0    0  0.00000000000E+00  0.00000000000E+00 -0.46140522662E+03  0.13777109167E+04  0.12981496781E+04 0.  0.
        5    1    3    3  502    0  0.22197995841E+03  0.12696356943E+01 -0.87800083812E+03  0.90564025730E+03  0.46999998093E+01 0.  1.
       -5    1    3    3    0  502 -0.22197995841E+03 -0.12696356943E+01  0.41659561149E+03  0.47207065936E+03  0.46999998093E+01 0. -1.
</event>
<event>
 5   0  0.5957913E-04  0.1301120E+04  0.7818609E-02  0.9028677E-01
        2   -1    0    0  501    0  0.00000000000E+00  0.00000000000E+00  0.29382304963E+03  0.29382304964E+03  0.25500000920E-02 0. -1.
       -2   -1    0    0    0  501  0.00000000000E+00  0.00000000000E+00 -0.14404197343E+04  0.14404197343E+04  0.25500000920E-02 0.  1.
    10030    2    1    2    0    0  0.00000000000E+00  0.00000000000E+00 -0.11465966847E+04  0.17342427839E+04  0.13011203159E+04 0.  0.
        1    1    3    3  502    0  0.47901485647E+03  0.99506425653E+02 -0.11448427132E+04  0.12449986344E+04  0.50400001928E-02 0.  1.
       -1    1    3    3    0  502 -0.47901485647E+03 -0.99506425653E+02 -0.17539714311E+01  0.48924414959E+03  0.50400001928E-02 0. -1.
</event>
<event>
 5   0  0.3263679E-04  0.1299145E+04  0.7818609E-02  0.9030244E-01
       -1   -1    0    0    0  501  0.00000000000E+00  0.00000000000E+00  0.31534696814E+03  0.31534696818E+03  0.50400001928E-02 0.  1.
        1   -1    0    0  501    0  0.00000000000E+00  0.00000000000E+00 -0.13380316524E+04  0.13380316524E+04  0.50400001928E-02 0. -1.
    10030    2    1    2    0    0  0.00000000000E+00  0.00000000000E+00 -0.10226846843E+04  0.16533786206E+04  0.12991446800E+04 0.  0.
        2    1    3    3  502    0  0.46671757937E+03 -0.68738378494E+02  0.56948685212E+02  0.47517724728E+03  0.25500000920E-02 0.  1.
       -2    1    3    3    0  502 -0.46671757937E+03  0.68738378494E+02 -0.10796333695E+04  0.11782013733E+04  0.25500000920E-02 0. -1.
</event>
<event>
 5   0  0.5957913E-04  0.1311057E+04  0.7818609E-02  0.9020843E-01
        2   -1    0    0  501    0  0.00000000000E+00  0.00000000000E+00  0.75987218860E+03  0.75987218860E+03  0.25500000920E-02 0. -1.
       -2   -1    0    0    0  501  0.00000000000E+00  0.00000000000E+00 -0.56551288018E+03  0.56551288019E+03  0.25500000920E-02 0.  1.
    10030    2    1    2    0    0  0.00000000000E+00  0.00000000000E+00  0.19435930842E+03  0.13253850688E+04  0.13110568408E+04 0.  0.
        1    1    3    3  502    0  0.32034370961E+03 -0.54577412061E+03 -0.75650812267E+02  0.63734804340E+03  0.50400001928E-02 0.  1.
       -1    1    3    3    0  502 -0.32034370961E+03  0.54577412061E+03  0.27001012068E+03  0.68803702539E+03  0.50400001928E-02 0. -1.
</event>
<event>
 5   0  0.3274879E-04  0.1299593E+04  0.7818609E-02  0.9029888E-01
        1   -1    0    0  501    0  0.00000000000E+00  0.00000000000E+00  0.15869547255E+04  0.15869547255E+04  0.50400001928E-02 0. -1.
       -1   -1    0    0    0  501  0.00000000000E+00  0.00000000000E+00 -0.26606636151E+03  0.26606636155E+03  0.50400001928E-02 0.  1.
    10030    2    1    2    0    0  0.00000000000E+00  0.00000000000E+00  0.13208883639E+04  0.18530210870E+04  0.12995926588E+04 0.  0.
        4    1    3    3  502    0 -0.53345998395E+03  0.20606624943E+03  0.22052732103E+03  0.61292476361E+03  0.12699999809E+01 0.  1.
       -4    1    3    3    0  502  0.53345998395E+03 -0.20606624943E+03  0.11003610429E+04  0.12400963234E+04  0.12699999809E+01 0. -1.
</event>
<event>
 5   0  0.2255875E-04  0.1303407E+04  0.7818609E-02  0.9026868E-01
        3   -1    0    0  501    0  0.00000000000E+00  0.00000000000E+00  0.14208138419E+04  0.14208138455E+04  0.10100000352E+00 0. -1.
       -3   -1    0    0    0  501  0.00000000000E+00  0.00000000000E+00 -0.29892523721E+03  0.29892525427E+03  0.10100000352E+00 0.  1.
    10030    2    1    2    0    0  0.00000000000E+00  0.00000000000E+00  0.11218886047E+04  0.17197390998E+04  0.13034065099E+04 0.  0.
        5    1    3    3  502    0  0.32887813059E+03 -0.34533101688E+03  0.11469812355E+04  0.12421764692E+04  0.46999998093E+01 0. -1.
       -5    1    3    3    0  502 -0.32887813059E+03  0.34533101688E+03 -0.25092630817E+02  0.47756263057E+03  0.46999998093E+01 0.  1.
</event>
<event>
 5   0  0.5384960E-04  0.1303584E+04  0.7818609E-02  0.9026728E-01
       -2   -1    0    0    0  501  0.00000000000E+00  0.00000000000E+00  0.90369329025E+03  0.90369329026E+03  0.25500000920E-02 0. -1.
        2   -1    0    0  501    0  0.00000000000E+00  0.00000000000E+00 -0.47010740026E+03  0.47010740026E+03  0.25500000920E-02 0.  1.
    10030    2    1    2    0    0  0.00000000000E+00  0.00000000000E+00  0.43358589000E+03  0.13738006905E+04  0.13035841412E+04 0.  0.
        3    1    3    3  502    0  0.93600375647E+02  0.54821704116E+03 -0.14141229377E+03  0.57384701931E+03  0.10100000352E+00 0.  1.
       -3    1    3    3    0  502 -0.93600375647E+02 -0.54821704116E+03  0.57499818377E+03  0.79995367121E+03  0.10100000352E+00 0. -1.
</event>
<event>
 5   0  0.3274879E-04  0.1297928E+04  0.7818609E-02  0.9031210E-01
       -1   -1    0    0    0  501  0.00000000000E+00  0.00000000000E+00  0.56653928587E+03  0.56653928589E+03  0.50400001928E-02 0. -1.
        1   -1    0    0  501    0  0.00000000000E+00  0.00000000000E+00 -0.74337997809E+03  0.74337997811E+03  0.50400001928E-02 0.  1.
    10030    2    1    2    0    0  0.00000000000E+00  0.00000000000E+00 -0.17684069222E+03  0.13099192640E+04  0.12979275202E+04 0.  0.
        4    1    3    3  502    0  0.37202596448E+03 -0.21607288809E+03 -0.57877093824E+03  0.72115755773E+03  0.12699999809E+01 0.  1.
       -4    1    3    3    0  502 -0.37202596448E+03  0.21607288809E+03  0.40193024602E+03  0.58876170628E+03  0.12699999809E+01 0. -1.
</event>
<event>
 5   0  0.5384960E-04  0.1299684E+04  0.7818609E-02  0.9029816E-01
       -2   -1    0    0    0  501  0.00000000000E+00  0.00000000000E+00  0.22356542168E+03  0.22356542169E+03  0.25500000920E-02 0. -1.
        2   -1    0    0  501    0  0.00000000000E+00  0.00000000000E+00 -0.18889091592E+04  0.18889091593E+04  0.25500000920E-02 0.  1.
    10030    2    1    2    0    0  0.00000000000E+00  0.00000000000E+00 -0.16653437376E+04  0.21124745809E+04  0.12996842274E+04 0.  0.
        3    1    3    3  502    0 -0.51301184739E+03 -0.35798008294E+03 -0.54666185345E+03  0.83076476066E+03  0.10100000352E+00 0. -1.
       -3    1    3    3    0  502  0.51301184739E+03  0.35798008294E+03 -0.11186818841E+04  0.12817098203E+04  0.10100000352E+00 0.  1.
</event>
<event>
 5   0  0.5787604E-04  0.1298668E+04  0.7818609E-02  0.9030622E-01
        2   -1    0    0  501    0  0.00000000000E+00  0.00000000000E+00  0.47973818444E+03  0.47973818445E+03  0.25500000920E-02 0. -1.
       -2   -1    0    0    0  501  0.00000000000E+00  0.00000000000E+00 -0.87888502150E+03  0.87888502150E+03  0.25500000920E-02 0.  1.
    10030    2    1    2    0    0  0.00000000000E+00  0.00000000000E+00 -0.39914683706E+03  0.13586232060E+04  0.12986680939E+04 0.  0.
        4    1    3    3  502    0  0.16585658004E+03 -0.16716874930E+03 -0.83263761173E+03  0.86529809965E+03  0.12699999809E+01 0.  1.
       -4    1    3    3    0  502 -0.16585658004E+03  0.16716874930E+03  0.43349077468E+03  0.49332510631E+03  0.12699999809E+01 0. -1.
</event>
<event>
 5   0  0.6052864E-04  0.1296018E+04  0.7818609E-02  0.9032729E-01
        2   -1    0    0  501    0  0.00000000000E+00  0.00000000000E+00  0.56967420795E+03  0.56967420795E+03  0.25500000920E-02 0.  1.
       -2   -1    0    0    0  501  0.00000000000E+00  0.00000000000E+00 -0.73711590320E+03  0.73711590321E+03  0.25500000920E-02 0. -1.
    10030    2    1    2    0    0  0.00000000000E+00  0.00000000000E+00 -0.16744169525E+03  0.13067901112E+04  0.12960183924E+04 0.  0.
        2    1    3    3  502    0 -0.25947962978E+03  0.32571610923E+03  0.41688850314E+03  0.58925095345E+03  0.25500000920E-02 0.  1.
       -2    1    3    3    0  502  0.25947962978E+03 -0.32571610923E+03 -0.58433019839E+03  0.71753915771E+03  0.25500000920E-02 0. -1.
</event>
<event>
 5   0  0.6052864E-04  0.1296849E+04  0.7818609E-02  0.9032068E-01
       -2   -1    0    0    0  501  0.00000000000E+00  0.00000000000E+00  0.49616763776E+03  0.49616763777E+03  0.25500000920E-02 0. -1.
        2   -1    0    0  501    0  0.00000000000E+00  0.00000000000E+00 -0.84740381674E+03  0.84740381674E+03  0.25500000920E-02 0.  1.
    10030    2    1    2    0    0  0.00000000000E+00  0.00000000000E+00 -0.35123617898E+03  0.13435714545E+04  0.12968490274E+04 0.  0.
        2    1    3    3  502    0  0.61641532230E+03 -0.13597895140E+02 -0.38360331199E+03  0.72615718222E+03  0.25500000920E-02 0.  1.
       -2    1    3    3    0  502 -0.61641532230E+03  0.13597895140E+02  0.32367133011E+02  0.61741427229E+03  0.25500000920E-02 0. -1.
</event>
<event>
 5   0  0.3263679E-04  0.1305983E+04  0.7818609E-02  0.9024834E-01
        1   -1    0    0  501    0  0.00000000000E+00  0.00000000000E+00  0.44034429303E+03  0.44034429306E+03  0.50400001928E-02 0.  1.
       -1   -1    0    0    0  501  0.00000000000E+00  0.00000000000E+00 -0.96832908020E+03  0.96832908021E+03  0.50400001928E-02 0. -1.
    10030    2    1    2    0    0  0.00000000000E+00  0.00000000000E+00 -0.52798478717E+03  0.14086733733E+04  0.13059834368E+04 0.  0.
        2    1    3    3  502    0  0.65587124768E+02 -0.21592581655E+03  0.39694714918E+03  0.45660997409E+03  0.25500000920E-02 0.  1.
       -2    1    3    3    0  502 -0.65587124768E+02  0.21592581655E+03 -0.92493193634E+03  0.95206339918E+03  0.25500000920E-02 0. -1.
</event>
<event>
 5   0  0.6052864E-04  0.1300752E+04  0.7818609E-02  0.9028969E-01
       -2   -1    0    0    0  501  0.00000000000E+00  0.00000000000E+00  0.25206060152E+03  0.25206060154E+03  0.25500000920E-02 0. -1.
        2   -1    0    0  501    0  0.00000000000E+00  0.00000000000E+00 -0.16781231570E+04  0.16781231570E+04  0.25500000920E-02 0.  1.
    10030    2    1    2    0    0  0.00000000000E+00  0.00000000000E+00 -0.14260625555E+04  0.19301837586E+04  0.13007516787E+04 0.  0.
        2    1    3    3  502    0 -0.12333590566E+03  0.49116395182E+03 -0.10747157183E+03  0.51769094250E+03  0.25500000920E-02 0. -1.
       -2    1    3    3    0  502  0.12333590566E+03 -0.49116395182E+03 -0.13185909837E+04  0.14124928161E+04  0.25500000920E-02 0.  1.
</event>
<event>
 5   0  0.6007125E-04  0.1301209E+04  0.7818609E-02  0.9028607E-01
        2   -1    0    0  501    0  0.00000000000E+00  0.00000000000E+00  0.26914095130E+04  0.26914095130E+04  0.25500000920E-02 0. -1.
       -2   -1    0    0    0  501  0.00000000000E+00  0.00000000000E+00 -0.15727294602E+03  0.15727294604E+03  0.25500000920E-02 0.  1.
    10030    2    1    2    0    0  0.00000000000E+00  0.00000000000E+00  0.25341365670E+04  0.28486824590E+04  0.13012085199E+04 0.  0.
        5    1    3    3  502    0  0.44421115239E+03 -0.41870425604E+03  0.17596613420E+04  0.18625431352E+04  0.46999998093E+01 0.  1.
       -5    1    3    3    0  502 -0.44421115239E+03  0.41870425604E+03  0.77447522498E+03  0.98613932385E+03  0.46999998093E+01 0. -1.
</event>
<event>
 5   0  0.6007125E-04  0.1301830E+04  0.7818609E-02  0.9028115E-01
       -2   -1    0    0    0  501  0.00000000000E+00  0.00000000000E+00  0.56191428960E+03  0.56191428961E+03  0.25500000920E-02 0.  1.
        2   -1    0    0  501    0  0.00000000000E+00  0.00000000000E+00 -0.75401238264E+03  0.75401238264E+03  0.25500000920E-02 0. -1.
    10030    2    1    2    0    0  0.00000000000E+00  0.00000000000E+00 -0.19209809303E+03  0.13159266723E+04  0.13018299925E+04 0.  0.
        5    1    3    3  502    0 -0.45782551697E+03  0.36691224868E+02 -0.56225662108E+03  0.72602000518E+03  0.46999998093E+01 0. -1.
       -5    1    3    3    0  502  0.45782551697E+03 -0.36691224868E+02  0.37015852805E+03  0.58990666707E+03  0.46999998093E+01 0.  1.
</event>
<event>
 5   0  0.5384960E-04  0.1295863E+04  0.7818609E-02  0.9032852E-01
       -2   -1    0    0    0  501  0.00000000000E+00  0.00000000000E+00  0.30165736719E+03  0.30165736720E+03  0.25500000920E-02 0. -1.
        2   -1    0    0  501    0  0.00000000000E+00  0.00000000000E+00 -0.13916959930E+04  0.13916959930E+04  0.25500000920E-02 0.  1.
    10030    2    1    2    0    0  0.00000000000E+00  0.00000000000E+00 -0.10900386258E+04  0.16933533602E+04  0.12958631860E+04 0.  0.
        3    1    3    3  502    0 -0.45429283851E+03 -0.75424060223E+01 -0.11486366466E+04  0.12352348065E+04  0.10100000352E+00 0.  1.
       -3    1    3    3    0  502  0.45429283851E+03  0.75424060223E+01  0.58598020806E+02  0.45811855371E+03  0.10100000352E+00 0. -1.
</event>
<event>
 5   0  0.3337520E-04  0.1362597E+04  0.7818609E-02  0.8981347E-01
        1   -1    0    0  501    0  0.00000000000E+00  0.00000000000E+00  0.99118339309E+03  0.99118339310E+03  0.50400001928E-02 0. -1.
       -1   -1    0    0    0  501  0.00000000000E+00  0.00000000000E+00 -0.46829636386E+03  0.46829636389E+03  0.50400001928E-02 0.  1.
    10030    2    1    2    0    0  0.00000000000E+00  0.00000000000E+00  0.52288702923E+03  0.14594797570E+04  0.13625969014E+04 0.  0.
        5    1    3    3  502    0  0.27622345152E+03 -0.37811429941E+03  0.79147723211E+03  0.91963477399E+03  0.46999998093E+01 0. -1.
       -5    1    3    3    0  502 -0.27622345152E+03  0.37811429941E+03 -0.26859020288E+03  0.53984498300E+03  0.46999998093E+01 0.  1.
</event>
<event>
 5   0  0.3403833E-04  0.1303488E+04  0.7818609E-02  0.9026804E-01
        1   -1    0    0  501    0  0.00000000000E+00  0.00000000000E+00  0.13571815844E+04  0.13571815844E+04  0.50400001928E-02 0. -1.
       -1   -1    0    0    0  501  0.00000000000E+00  0.00000000000E+00 -0.31297962929E+03  0.31297962934E+03  0.50400001928E-02 0.  1.
    10030    2    1    2    0    0  0.00000000000E+00  0.00000000000E+00  0.10442019551E+04  0.16701612137E+04  0.13034879197E+04 0.  0.
        1    1    3    3  502    0  0.20210249072E+03  0.56941569532E+03  0.20905788083E+03  0.63936284565E+03  0.50400001928E-02 0.  1.
       -1    1    3    3    0  502 -0.20210249072E+03 -0.56941569532E+03  0.83514407428E+03  0.10307983681E+04  0.50400001928E-02 0. -1.
</event>
<event>
 5   0  0.5384960E-04  0.1308897E+04  0.7818609E-02  0.9022539E-01
        2   -1    0    0  501    0  0.00000000000E+00  0.00000000000E+00  0.91577034790E+03  0.91577034791E+03  0.25500000920E-02 0. -1.
       -2   -1    0    0    0  501  0.00000000000E+00  0.00000000000E+00 -0.46769703927E+03  0.46769703928E+03  0.25500000920E-02 0.  1.
    10030    2    1    2    0    0  0.00000000000E+00  0.00000000000E+00  0.44807330863E+03  0.13834673872E+04  0.13088973686E+04 0.  0.
        3    1    3    3  502    0 -0.32379475941E+03  0.51876851884E+03  0.47042498915E+03  0.77153321574E+03  0.10100000352E+00 0. -1.
       -3    1    3    3    0  502  0.32379475941E+03 -0.51876851884E+03 -0.22351680524E+02  0.61193417145E+03  0.10100000352E+00 0.  1.
</event>
<event>
 5   0  0.2255875E-04  0.1301549E+04  0.7818609E-02  0.9028338E-01
       -4   -1    0    0    0  501  0.00000000000E+00  0.00000000000E+00  0.12705896016E+04  0.12705902363E+04  0.12699999809E+01 0. -1.
        4   -1    0    0  501    0  0.00000000000E+00  0.00000000000E+00 -0.33331377409E+03  0.33331619357E+03  0.12699999809E+01 0.  1.
    10030    2    1    2    0    0  0.00000000000E+00  0.00000000000E+00  0.93727582756E+03  0.16039064299E+04  0.13015490229E+04 0.  0.
        4    1    3    3  502    0 -0.40634993713E+03 -0.10762873395E+03  0.10808367718E+04  0.11597042537E+04  0.12699999809E+01 0. -1.
       -4    1    3    3    0  502  0.40634993713E+03  0.10762873395E+03 -0.14356094424E+03  0.44420217626E+03  0.12699999809E+01 0.  1.
</event>
<event>
 5   0  0.5787604E-04  0.1296175E+04  0.7818609E-02  0.9032604E-01
        2   -1    0    0  501    0  0.00000000000E+00  0.00000000000E+00  0.53230619800E+03  0.53230619801E+03  0.25500000920E-02 0.  1.
       -2   -1    0    0    0  501  0.00000000000E+00  0.00000000000E+00 -0.78905197739E+03  0.78905197739E+03  0.25500000920E-02 0. -1.
    10030    2    1    2    0    0  0.00000000000E+00  0.00000000000E+00 -0.25674577938E+03  0.13213581754E+04  0.12961747693E+04 0.  0.
        4    1    3    3  502    0 -0.40998941743E+03 -0.16123188582E+03  0.35618157551E+03  0.56652799670E+03  0.12699999809E+01 0.  1.
       -4    1    3    3    0  502  0.40998941743E+03  0.16123188582E+03 -0.61292735490E+03  0.75483017871E+03  0.12699999809E+01 0. -1.
</event>
<event>
 5   0  0.2255875E-04  0.1286383E+04  0.7818609E-02  0.9040434E-01
       -3   -1    0    0    0  501  0.00000000000E+00  0.00000000000E+00  0.67025475335E+03  0.67025476096E+03  0.10100000352E+00 0. -1.
        3   -1    0    0  501    0  0.00000000000E+00  0.00000000000E+00 -0.61722067895E+03  0.61722068721E+03  0.10100000352E+00 0.  1.
    10030    2    1    2    0    0  0.00000000000E+00  0.00000000000E+00  0.53034074401E+02  0.12874754482E+04  0.12863826867E+04 0.  0.
        1    1    3    3  502    0 -0.53728571264E+02 -0.64965482378E+02  0.66470110466E+03  0.67002599340E+03  0.50400001928E-02 0. -1.
       -1    1    3    3    0  502  0.53728571264E+02  0.64965482378E+02 -0.61166703026E+03  0.61744945478E+03  0.50400001928E-02 0.  1.
</event>
<event>
 5   0  0.3274879E-04  0.1299812E+04  0.7818609E-02  0.9029714E-01
       -1   -1    0    0    0  501  0.00000000000E+00  0.00000000000E+00  0.26975563842E+03  0.26975563847E+03  0.50400001928E-02 0.  1.
        1   -1    0    0  501    0  0.00000000000E+00  0.00000000000E+00 -0.15657789234E+04  0.15657789234E+04  0.50400001928E-02 0. -1.
    10030    2    1    2    0    0  0.00000000000E+00  0.00000000000E+00 -0.12960232850E+04  0.18355345619E+04  0.12998118220E+04 0.  0.
        4    1    3    3  502    0  0.59334367287E+02 -0.36769154756E+03  0.10409588966E+03  0.38672368486E+03  0.12699999809E+01 0.  1.
       -4    1    3    3    0  502 -0.59334367287E+02  0.36769154756E+03 -0.14001191746E+04  0.14488108770E+04  0.12699999809E+01 0. -1.
</event>
<event>
 5   0  0.5787604E-04  0.1299684E+04  0.7818609E-02  0.9029816E-01
       -2   -1    0    0    0  501  0.00000000000E+00  0.00000000000E+00  0.32871450579E+03  0.32871450580E+03  0.25500000920E-02 0. -1.
        2   -1    0    0  501    0  0.00000000000E+00  0.00000000000E+00 -0.12846858087E+04  0.12846858087E+04  0.25500000920E-02 0.  1.
    10030    2    1    2    0    0  0.00000000000E+00  0.00000000000E+00 -0.95597130287E+03  0.16134003145E+04  0.12996843628E+04 0.  0.
        4    1    3    3  502    0  0.27243768974E+03 -0.39237664162E+03  0.68942028264E+02  0.48263478930E+03  0.12699999809E+01 0.  1.
       -4    1    3    3    0  502 -0.27243768974E+03  0.39237664162E+03 -0.10249133311E+04  0.11307655252E+04  0.12699999809E+01 0. -1.
</event>
<event>
 5   0  0.5957913E-04  0.1301912E+04  0.7818609E-02  0.9028051E-01
        2   -1    0    0  501    0  0.00000000000E+00  0.00000000000E+00  0.66851487008E+03  0.66851487008E+03  0.25500000920E-02 0. -1.
       -2   -1    0    0    0  501  0.00000000000E+00  0.00000000000E+00 -0.63385796465E+03  0.63385796466E+03  0.25500000920E-02 0.  1.
    10030    2    1    2    0    0  0.00000000000E+00  0.00000000000E+00  0.34656905423E+02  0.13023728347E+04  0.13019116328E+04 0.  0.
        1    1    3    3  502    0  0.41384112010E+03 -0.35384707229E+03  0.37420579750E+03  0.66068313295E+03  0.50400001928E-02 0. -1.
       -1    1    3    3    0  502 -0.41384112010E+03  0.35384707229E+03 -0.33954889208E+03  0.64168970179E+03  0.50400001928E-02 0.  1.
</event>
<event>
 5   0  0.6052864E-04  0.1302450E+04  0.7818609E-02  0.9027625E-01
        2   -1    0    0  501    0  0.00000000000E+00  0.00000000000E+00  0.57015049052E+03  0.57015049053E+03  0.25500000920E-02 0. -1.
       -2   -1    0    0    0  501  0.00000000000E+00  0.00000000000E+00 -0.74382781362E+03  0.74382781362E+03  0.25500000920E-02 0.  1.
    10030    2    1    2    0    0  0.00000000000E+00  0.00000000000E+00 -0.17367732310E+03  0.13139783042E+04  0.13024496809E+04 0.  0.
        2    1    3    3  502    0 -0.61325395019E+03 -0.12253831766E+03  0.96422054385E+02  0.63276635443E+03  0.25500000920E-02 0. -1.
       -2    1    3    3    0  502  0.61325395019E+03  0.12253831766E+03 -0.27009937748E+03  0.68121194972E+03  0.25500000920E-02 0.  1.
</event>
<event>
 5   0  0.3335747E-04  0.1301514E+04  0.7818609E-02  0.9028365E-01
       -1   -1    0    0    0  501  0.00000000000E+00  0.00000000000E+00  0.46391642123E+03  0.46391642126E+03  0.50400001928E-02 0. -1.
        1   -1    0    0  501    0  0.00000000000E+00  0.00000000000E+00 -0.91284683167E+03  0.91284683169E+03  0.50400001928E-02 0.  1.
    10030    2    1    2    0    0  0.00000000000E+00  0.00000000000E+00 -0.44893041044E+03  0.13767632529E+04  0.13015139420E+04 0.  0.
        3    1    3    3  502    0 -0.24730067333E+03 -0.31343182321E+03 -0.76807135223E+03  0.86563892193E+03  0.10100000352E+00 0.  1.
       -3    1    3    3    0  502  0.24730067333E+03  0.31343182321E+03  0.31914094179E+03  0.51112433102E+03  0.10100000352E+00 0. -1.
</event>
<event>
 5   0  0.2255875E-04  0.1301866E+04  0.7818609E-02  0.9028087E-01
        3   -1    0    0  501    0  0.00000000000E+00  0.00000000000E+00  0.12566723637E+04  0.12566723678E+04  0.10100000352E+00 0.  1.
       -3   -1    0    0    0  501  0.00000000000E+00  0.00000000000E+00 -0.33717099406E+03  0.33717100918E+03  0.10100000352E+00 0. -1.
    10030    2    1    2    0    0  0.00000000000E+00  0.00000000000E+00  0.91950136965E+03  0.15938433769E+04  0.13018655620E+04 0.  0.
        4    1    3    3  502    0 -0.28241813563E+03 -0.30225161021E+03  0.10750587312E+04  0.11518979676E+04  0.12699999809E+01 0.  1.
       -4    1    3    3    0  502  0.28241813563E+03  0.30225161021E+03 -0.15555736160E+03  0.44194540936E+03  0.12699999809E+01 0. -1.
</event>
<event>
 5   0  0.3274879E-04  0.1298618E+04  0.7818609E-02  0.9030662E-01
       -1   -1    0    0    0  501  0.00000000000E+00  0.00000000000E+00  0.54304906577E+03  0.54304906579E+03  0.50400001928E-02 0. -1.
        1   -1    0    0  501    0  0.00000000000E+00  0.00000000000E+00 -0.77636056606E+03  0.77636056608E+03  0.50400001928E-02 0.  1.
    10030    2    1    2    0    0  0.00000000000E+00  0.00000000000E+00 -0.23331150030E+03  0.13194096319E+04  0.12986175420E+04 0.  0.
        4    1    3    3  502    0  0.17809294683E+03  0.41911888323E+03 -0.58690808260E+03  0.74285964106E+03  0.12699999809E+01 0.  1.
       -4    1    3    3    0  502 -0.17809294683E+03 -0.41911888323E+03  0.35359658231E+03  0.57654999081E+03  0.12699999809E+01 0. -1.
</event>
<event>
 5   0  0.3263679E-04  0.1299846E+04  0.7818609E-02  0.9029687E-01
        1   -1    0    0  501    0  0.00000000000E+00  0.00000000000E+00  0.34416381462E+03  0.34416381466E+03  0.50400001928E-02 0.  1.
       -1   -1    0    0    0  501  0.00000000000E+00  0.00000000000E+00 -0.12273229498E+04  0.12273229498E+04  0.50400001928E-02 0. -1.
    10030    2    1    2    0    0  0.00000000000E+00  0.00000000000E+00 -0.88315913517E+03  0.15714867645E+04  0.12998463728E+04 0.  0.
        2    1    3    3  502    0 -0.24265955359E+03  0.57565477931E+03 -0.65831432234E+03  0.90754604891E+03  0.25500000920E-02 0. -1.
       -2    1    3    3    0  502  0.24265955359E+03 -0.57565477931E+03 -0.22484481283E+03  0.66394071554E+03  0.25500000920E-02 0.  1.
</event>
<event>
 5   0  0.6052864E-04  0.1304431E+04  0.7818609E-02  0.9026059E-01
       -2   -1    0    0    0  501  0.00000000000E+00  0.00000000000E+00  0.59458513267E+03  0.59458513267E+03  0.25500000920E-02 0.  1.
        2   -1    0    0  501    0  0.00000000000E+00  0.00000000000E+00 -0.71543190547E+03  0.71543190548E+03  0.25500000920E-02 0. -1.
    10030    2    1    2    0    0  0.00000000000E+00  0.00000000000E+00 -0.12084677280E+03  0.13100170381E+04  0.13044311778E+04 0.  0.
        2    1    3    3  502    0  0.48912886173E+03  0.38387056647E+03  0.13735015161E+03  0.63676425727E+03  0.25500000920E-02 0.  1.
       -2    1    3    3    0  502 -0.48912886173E+03 -0.38387056647E+03 -0.25819692441E+03  0.67325278088E+03  0.25500000920E-02 0. -1.
</event>
<event>
 5   0  0.6007125E-04  0.1299550E+04  0.7818609E-02  0.9029922E-01
        2   -1    0    0  501    0  0.00000000000E+00  0.00000000000E+00  0.10314793538E+04  0.10314793539E+04  0.25500000920E-02 0.  1.
       -2   -1    0    0    0  501  0.00000000000E+00  0.00000000000E+00 -0.40932226921E+03  0.40932226922E+03  0.25500000920E-02 0. -1.
    10030    2    1    2    0    0  0.00000000000E+00  0.00000000000E+00  0.62215708463E+03  0.14408016231E+04  0.12995498756E+04 0.  0.
        5    1    3    3  502    0 -0.58158499225E+03 -0.27367080494E+03  0.41654179036E+03  0.76594122868E+03  0.46999998093E+01 0.  1.
       -5    1    3    3    0  502  0.58158499225E+03  0.27367080494E+03  0.20561529427E+03  0.67486039439E+03  0.46999998093E+01 0. -1.
</event>
<event>
 5   0  0.3403833E-04  0.1291777E+04  0.7818609E-02  0.9036111E-01
       -1   -1    0    0    0  501  0.00000000000E+00  0.00000000000E+00  0.43862485096E+03  0.43862485099E+03  0.50400001928E-02 0. -1.
        1   -1    0    0  501    0  0.00000000000E+00  0.00000000000E+00 -0.95109100511E+03  0.95109100513E+03  0.50400001928E-02 0.  1.
    10030    2    1    2    0    0  0.00000000000E+00  0.00000000000E+00 -0.51246615416E+03  0.13897158561E+04  0.12917773034E+04 0.  0.
        1    1    3    3  502    0 -0.15578649074E+03 -0.45732610294E+03 -0.71740047955E+03  0.86491620589E+03  0.50400001928E-02 0.  1.
       -1    1    3    3    0  502  0.15578649074E+03  0.45732610294E+03  0.20493432540E+03  0.52479965022E+03  0.50400001928E-02 0. -1.
</event>
<event>
 5   0  0.5957913E-04  0.1300269E+04  0.7818609E-02  0.9029352E-01
       -2   -1    0    0    0  501  0.00000000000E+00  0.00000000000E+00  0.46146592509E+03  0.46146592509E+03  0.25500000920E-02 0. -1.
        2   -1    0    0  501    0  0.00000000000E+00  0.00000000000E+00 -0.91593980523E+03  0.91593980524E+03  0.25500000920E-02 0.  1.
    10030    2    1    2    0    0  0.00000000000E+00  0.00000000000E+00 -0.45447388015E+03  0.13774057303E+04  0.13002692176E+04 0.  0.
        1    1    3    3  502    0 -0.42519210553E+03  0.31102248064E+03 -0.63082626146E+03  0.82186682756E+03  0.50400001928E-02 0.  1.
       -1    1    3    3    0  502  0.42519210553E+03 -0.31102248064E+03  0.17635238131E+03  0.55553890277E+03  0.50400001928E-02 0. -1.
</event>
<event>
 5   0  0.3274879E-04  0.1300510E+04  0.7818609E-02  0.9029161E-01
       -1   -1    0    0    0  501  0.00000000000E+00  0.00000000000E+00  0.71281696775E+03  0.71281696777E+03  0.50400001928E-02 0. -1.
        1   -1    0    0  501    0  0.00000000000E+00  0.00000000000E+00 -0.59318377538E+03  0.59318377540E+03  0.50400001928E-02 0.  1.
    10030    2    1    2    0    0  0.00000000000E+00  0.00000000000E+00  0.11963319237E+03  0.13060007432E+04  0.13005098387E+04 0.  0.
        4    1    3    3  502    0 -0.61449012616E+03  0.12850840360E+03  0.22999394477E+03  0.66858907595E+03  0.12699999809E+01 0.  1.
       -4    1    3    3    0  502  0.61449012616E+03 -0.12850840360E+03 -0.11036075240E+03  0.63741166723E+03  0.12699999809E+01 0. -1.
</event>
<event>
 5   0  0.6007125E-04  0.1297000E+04  0.7818609E-02  0.9031948E-01
       -2   -1    0    0    0  501  0.00000000000E+00  0.00000000000E+00  0.36318477801E+03  0.36318477802E+03  0.25500000920E-02 0. -1.
        2   -1    0    0  501    0  0.00000000000E+00  0.00000000000E+00 -0.11579558625E+04  0.11579558625E+04  0.25500000920E-02 0.  1.
    10030    2    1    2    0    0  0.00000000000E+00  0.00000000000E+00 -0.79477108449E+03  0.15211406405E+04  0.12969995264E+04 0.  0.
        5    1    3    3  502    0  0.49316444782E+03 -0.58458558403E+02 -0.88646670716E+03  0.10161072230E+04  0.46999998093E+01 0.  1.
       -5    1    3    3    0  502 -0.49316444782E+03  0.58458558403E+02  0.91695622665E+02  0.50503341757E+03  0.46999998093E+01 0. -1.
</event>
<event>
 5   0  0.5957913E-04  0.1302078E+04  0.7818609E-02  0.9027919E-01
        2   -1    0    0  501    0  0.00000000000E+00  0.00000000000E+00  0.90658693261E+03  0.90658693261E+03  0.25500000920E-02 0.  1.
       -2   -1    0    0    0  501  0.00000000000E+00  0.00000000000E+00 -0.46752501017E+03  0.46752501018E+03  0.25500000920E-02 0. -1.
    10030    2    1    2    0    0  0.00000000000E+00  0.00000000000E+00  0.43906192243E+03  0.13741119428E+04  0.13020784383E+04 0.  0.
        1    1    3    3  502    0  0.36347099548E+03 -0.26852116967E+01  0.78953542865E+03  0.86918615270E+03  0.50400001928E-02 0.  1.
       -1    1    3    3    0  502 -0.36347099548E+03  0.26852116967E+01 -0.35047350622E+03  0.50492579010E+03  0.50400001928E-02 0. -1.
</event>
<event>
 5   0  0.6007125E-04  0.1301050E+04  0.7818609E-02  0.9028733E-01
       -2   -1    0    0    0  501  0.00000000000E+00  0.00000000000E+00  0.49299940158E+03  0.49299940159E+03  0.25500000920E-02 0.  1.
        2   -1    0    0  501    0  0.00000000000E+00  0.00000000000E+00 -0.85838418822E+03  0.85838418822E+03  0.25500000920E-02 0. -1.
    10030    2    1    2    0    0  0.00000000000E+00  0.00000000000E+00 -0.36538478664E+03  0.13513835898E+04  0.13010501775E+04 0.  0.
        5    1    3    3  502    0  0.56274182755E+03  0.76684983188E+02  0.14675613980E+03  0.58661606327E+03  0.46999998093E+01 0.  1.
       -5    1    3    3    0  502 -0.56274182755E+03 -0.76684983188E+02 -0.51214092644E+03  0.76476752654E+03  0.46999998093E+01 0. -1.
</event>
<event>
 5   0  0.6007125E-04  0.1299682E+04  0.7818609E-02  0.9029817E-01
       -2   -1    0    0    0  501  0.00000000000E+00  0.00000000000E+00  0.55824668123E+03  0.55824668124E+03  0.25500000920E-02 0. -1.
        2   -1    0    0  501    0  0.00000000000E+00  0.00000000000E+00 -0.75646366008E+03  0.75646366009E+03  0.25500000920E-02 0.  1.
    10030    2    1    2    0    0  0.00000000000E+00  0.00000000000E+00 -0.19821697885E+03  0.13147103413E+04  0.12996820038E+04 0.  0.
        5    1    3    3  502    0 -0.11193058245E+03  0.63879915093E+03 -0.14055082558E+03  0.66360337181E+03  0.46999998093E+01 0.  1.
       -5    1    3    3    0  502  0.11193058245E+03 -0.63879915093E+03 -0.57666153271E+02  0.65110696951E+03  0.46999998093E+01 0. -1.
</event>
<event>
 5   0  0.6007125E-04  0.1299706E+04  0.7818609E-02  0.9029798E-01
       -2   -1    0    0    0  501  0.00000000000E+00  0.00000000000E+00  0.23728125813E+03  0.23728125815E+03  0.25500000920E-02 0. -1.
        2   -1    0    0  501    0  0.00000000000E+00  0.00000000000E+00 -0.17797821226E+04  0.17797821226E+04  0.25500000920E-02 0.  1.
    10030    2    1    2    0    0  0.00000000000E+00  0.00000000000E+00 -0.15425008645E+04  0.20170633808E+04  0.12997060303E+04 0.  0.
        5    1    3    3  502    0  0.66958083398E+01  0.31827108745E+03 -0.16504552886E+04  0.16808825267E+04  0.46999998093E+01 0.  1.
       -5    1    3    3    0  502 -0.66958083398E+01 -0.31827108745E+03  0.10795442410E+03  0.33618085406E+03  0.46999998093E+01 0. -1.
</event>
<event>
 5   0  0.5957913E-04  0.1290705E+04  0.7818609E-02  0.9036969E-01
        2   -1    0    0  501    0  0.00000000000E+00  0.00000000000E+00  0.10731263903E+04  0.10731263903E+04  0.25500000920E-02 0. -1.
       -2   -1    0    0    0  501  0.00000000000E+00  0.00000000000E+00 -0.38809925582E+03  0.38809925583E+03  0.25500000920E-02 0.  1.
    10030    2    1    2    0    0  0.00000000000E+00  0.00000000000E+00  0.68502713445E+03  0.14612256461E+04  0.12907045417E+04 0.  0.
        1    1    3    3  502    0  0.55971964698E+03  0.26088022183E+03  0.55472085934E+03  0.83009626259E+03  0.50400001928E-02 0. -1.
       -1    1    3    3    0  502 -0.55971964698E+03 -0.26088022183E+03  0.13030627511E+03  0.63112938350E+03  0.50400001928E-02 0.  1.
</event>
<event>
 5   0  0.3263679E-04  0.1292966E+04  0.7818609E-02  0.9035162E-01
        1   -1    0    0  501    0  0.00000000000E+00  0.00000000000E+00  0.54407143305E+03  0.54407143307E+03  0.50400001928E-02 0. -1.
       -1   -1    0    0    0  501  0.00000000000E+00  0.00000000000E+00 -0.76817217409E+03  0.76817217411E+03  0.50400001928E-02 0.  1.
    10030    2    1    2    0    0  0.00000000000E+00  0.00000000000E+00 -0.22410074105E+03  0.13122436072E+04  0.12929664120E+04 0.  0.
        2    1    3    3  502    0  0.56510942456E+03  0.19310350869E+03  0.13923532306E+03  0.61320804136E+03  0.25500000920E-02 0.  1.
       -2    1    3    3    0  502 -0.56510942456E+03 -0.19310350869E+03 -0.36333606411E+03  0.69903556582E+03  0.25500000920E-02 0. -1.
</event>
<event>
 5   0  0.5787604E-04  0.1286542E+04  0.7818609E-02  0.9040306E-01
       -2   -1    0    0    0  501  0.00000000000E+00  0.00000000000E+00  0.82299171894E+03  0.82299171894E+03  0.25500000920E-02 0.  1.
        2   -1    0    0  501    0  0.00000000000E+00  0.00000000000E+00 -0.50279646482E+03  0.50279646482E+03  0.25500000920E-02 0. -1.
    10030    2    1    2    0    0  0.00000000000E+00  0.00000000000E+00  0.32019525412E+03  0.13257881838E+04  0.12865416074E+04 0.  0.
        4    1    3    3  502    0  0.16130275414E+02 -0.14912436279E+03  0.80471769002E+03  0.81857830102E+03  0.12699999809E+01 0.  1.
       -4    1    3    3    0  502 -0.16130275414E+02  0.14912436279E+03 -0.48452243590E+03  0.50720988274E+03  0.12699999809E+01 0. -1.
</event>
<event>
 5   0  0.3335747E-04  0.1320249E+04  0.7818609E-02  0.9013660E-01
       -1   -1    0    0    0  501  0.00000000000E+00  0.00000000000E+00  0.39981675193E+03  0.39981675196E+03  0.50400001928E-02 0.  1.
        1   -1    0    0  501    0  0.00000000000E+00  0.00000000000E+00 -0.10899103710E+04  0.10899103710E+04  0.50400001928E-02 0. -1.
    10030    2    1    2    0    0  0.00000000000E+00  0.00000000000E+00 -0.69009361903E+03  0.14897271229E+04  0.13202491044E+04 0.  0.
        3    1    3    3  502    0 -0.41855868236E+03  0.52067044628E+02 -0.91803355088E+03  0.10102910266E+04  0.10100000352E+00 0. -1.
       -3    1    3    3    0  502  0.41855868236E+03 -0.52067044628E+02  0.22793993185E+03  0.47943609631E+03  0.10100000352E+00 0.  1.
</event>
<event>
 5   0  0.5384960E-04  0.1300586E+04  0.7818609E-02  0.9029101E-01
       -2   -1    0    0    0  501  0.00000000000E+00  0.00000000000E+00  0.13233908848E+04  0.13233908848E+04  0.25500000920E-02 0.  1.
        2   -1    0    0  501    0  0.00000000000E+00  0.00000000000E+00 -0.31954347989E+03  0.31954347990E+03  0.25500000920E-02 0. -1.
    10030    2    1    2    0    0  0.00000000000E+00  0.00000000000E+00  0.10038474049E+04  0.16429343647E+04  0.13005859120E+04 0.  0.
        3    1    3    3  502    0 -0.24222243679E+02 -0.29358629092E+03 -0.23042220457E+03  0.37399736612E+03  0.10100000352E+00 0. -1.
       -3    1    3    3    0  502  0.24222243679E+02  0.29358629092E+03  0.12342696095E+04  0.12689369986E+04  0.10100000352E+00 0.  1.
</event>
<event>
 5   0  0.3274879E-04  0.1297200E+04  0.7818609E-02  0.9031789E-01
       -1   -1    0    0    0  501  0.00000000000E+00  0.00000000000E+00  0.89210846284E+03  0.89210846286E+03  0.50400001928E-02 0. -1.
        1   -1    0    0  501    0  0.00000000000E+00  0.00000000000E+00 -0.47155896432E+03  0.47155896435E+03  0.50400001928E-02 0.  1.
    10030    2    1    2    0    0  0.00000000000E+00  0.00000000000E+00  0.42054949852E+03  0.13636674272E+04  0.12971996652E+04 0.  0.
        4    1    3    3  502    0  0.26093276761E+03  0.28301808942E+03  0.75903278576E+03  0.85106846429E+03  0.12699999809E+01 0. -1.
       -4    1    3    3    0  502 -0.26093276761E+03 -0.28301808942E+03 -0.33848328724E+03  0.51259896292E+03  0.12699999809E+01 0.  1.
</event>
<event>
 5   0  0.5957913E-04  0.1304002E+04  0.7818609E-02  0.9026398E-01
        2   -1    0    0  501    0  0.00000000000E+00  0.00000000000E+00  0.92453817251E+03  0.92453817252E+03  0.25500000920E-02 0.  1.
       -2   -1    0    0    0  501  0.00000000000E+00  0.00000000000E+00 -0.45980270472E+03  0.45980270473E+03  0.25500000920E-02 0. -1.
    10030    2    1    2    0    0  0.00000000000E+00  0.00000000000E+00  0.46473546779E+03  0.13843408772E+04  0.13040017674E+04 0.  0.
        1    1    3    3  502    0  0.18135133694E+01 -0.64584921275E+03  0.32720613200E+03  0.72400852708E+03  0.50400001928E-02 0.  1.
       -1    1    3    3    0  502 -0.18135133694E+01  0.64584921275E+03  0.13752933579E+03  0.66033235017E+03  0.50400001928E-02 0. -1.
</event>
<event>
 5   0  0.3337520E-04  0.1298803E+04  0.7818609E-02  0.9030515E-01
       -1   -1    0    0    0  501  0.00000000000E+00  0.00000000000E+00  0.53266160816E+03  0.53266160818E+03  0.50400001928E-02 0.  1.
        1   -1    0    0  501    0  0.00000000000E+00  0.00000000000E+00 -0.79172624272E+03  0.79172624274E+03  0.50400001928E-02 0. -1.
    10030    2    1    2    0    0  0.00000000000E+00  0.00000000000E+00 -0.25906463456E+03  0.13243878509E+04  0.12988027929E+04 0.  0.
        5    1    3    3  502    0 -0.24355123078E+03 -0.57140019526E+03 -0.32269651088E+03  0.69997893775E+03  0.46999998093E+01 0. -1.
       -5    1    3    3    0  502  0.24355123078E+03  0.57140019526E+03  0.63631876322E+02  0.62440891317E+03  0.46999998093E+01 0.  1.
</event>
<event>
 5   0  0.3274879E-04  0.1297357E+04  0.7818609E-02  0.9031664E-01
        1   -1    0    0  501    0  0.00000000000E+00  0.00000000000E+00  0.67886057427E+03  0.67886057428E+03  0.50400001928E-02 0. -1.
       -1   -1    0    0    0  501  0.00000000000E+00  0.00000000000E+00 -0.61983826281E+03  0.61983826283E+03  0.50400001928E-02 0.  1.
    10030    2    1    2    0    0  0.00000000000E+00  0.00000000000E+00  0.59022311452E+02  0.12986988371E+04  0.12973569425E+04 0.  0.
        4    1    3    3  502    0  0.45333827117E+03  0.96619892327E+02  0.48377691070E+03  0.66999455514E+03  0.12699999809E+01 0. -1.
       -4    1    3    3    0  502 -0.45333827117E+03 -0.96619892327E+02 -0.42475459924E+03  0.62870428198E+03  0.12699999809E+01 0.  1.
</event>
<event>
 5   0  0.5384960E-04  0.1301840E+04  0.7818609E-02  0.9028107E-01
        2   -1    0    0  501    0  0.00000000000E+00  0.00000000000E+00  0.71035272096E+03  0.71035272096E+03  0.25500000920E-02 0.  1.
       -2   -1    0    0    0  501  0.00000000000E+00  0.00000000000E+00 -0.59645992813E+03  0.59645992814E+03  0.25500000920E-02 0. -1.
    10030    2    1    2    0    0  0.00000000000E+00  0.00000000000E+00  0.11389279282E+03  0.13068126491E+04  0.13018401329E+04 0.  0.
        3    1    3    3  502    0 -0.57253207775E+03  0.29464418824E+03 -0.38752654916E+02  0.64506585415E+03  0.10100000352E+00 0.  1.
       -3    1    3    3    0  502  0.57253207775E+03 -0.29464418824E+03  0.15264544774E+03  0.66174679496E+03  0.10100000352E+00 0. -1.
</event>
<event>
 5   0  0.3337520E-04  0.1297480E+04  0.7818609E-02  0.9031566E-01
        1   -1    0    0  501    0  0.00000000000E+00  0.00000000000E+00  0.80407513617E+03  0.80407513619E+03  0.50400001928E-02 0. -1.
       -1   -1    0    0    0  501  0.00000000000E+00  0.00000000000E+00 -0.52341320895E+03  0.52341320897E+03  0.50400001928E-02 0.  1.
    10030    2    1    2    0    0  0.00000000000E+00  0.00000000000E+00  0.28066192722E+03  0.13274883452E+04  0.12974799379E+04 0.  0.
        5    1    3    3  502    0  0.38004897710E+03 -0.78695935063E+02 -0.39150992596E+03  0.55130063243E+03  0.46999998093E+01 0.  1.
       -5    1    3    3    0  502 -0.38004897710E+03  0.78695935063E+02  0.67217185318E+03  0.77618771273E+03  0.46999998093E+01 0. -1.
</event>
<event>
 5   0  0.3335747E-04  0.1294066E+04  0.7818609E-02  0.9034284E-01
       -1   -1    0    0    0  501  0.00000000000E+00  0.00000000000E+00  0.88477116325E+03  0.88477116327E+03  0.50400001928E-02 0.  1.
        1   -1    0    0  501    0  0.00000000000E+00  0.00000000000E+00 -0.47317482388E+03  0.47317482391E+03  0.50400001928E-02 0. -1.
    10030    2    1    2    0    0  0.00000000000E+00  0.00000000000E+00  0.41159633937E+03  0.13579459872E+04  0.12940655924E+04 0.  0.
        3    1    3    3  502    0 -0.24605314545E+03  0.12181148986E+03 -0.40901748236E+03  0.49262105164E+03  0.10100000352E+00 0. -1.
       -3    1    3    3    0  502  0.24605314545E+03 -0.12181148986E+03  0.82061382173E+03  0.86532493553E+03  0.10100000352E+00 0.  1.
</event>
<event>
 5   0  0.3263679E-04  0.1300343E+04  0.7818609E-02  0.9029293E-01
        1   -1    0    0  501    0  0.00000000000E+00  0.00000000000E+00  0.18294348320E+04  0.18294348320E+04  0.50400001928E-02 0. -1.
       -1   -1    0    0    0  501  0.00000000000E+00  0.00000000000E+00 -0.23106744440E+03  0.23106744445E+03  0.50400001928E-02 0.  1.
    10030    2    1    2    0    0  0.00000000000E+00  0.00000000000E+00  0.15983673876E+04  0.20605022764E+04  0.13003427723E+04 0.  0.
        2    1    3    3  502    0  0.41708259335E+03 -0.46131877285E+03  0.49873917570E+03  0.79719110961E+03  0.25500000920E-02 0. -1.
       -2    1    3    3    0  502 -0.41708259335E+03  0.46131877285E+03  0.10996282119E+04  0.12633111668E+04  0.25500000920E-02 0.  1.
</event>
<event>
 5   0  0.6052864E-04  0.1301808E+04  0.7818609E-02  0.9028132E-01
       -2   -1    0    0    0  501  0.00000000000E+00  0.00000000000E+00  0.60895694630E+03  0.60895694631E+03  0.25500000920E-02 0. -1.
        2   -1    0    0  501    0  0.00000000000E+00  0.00000000000E+00 -0.69574080526E+03  0.69574080526E+03  0.25500000920E-02 0.  1.
    10030    2    1    2    0    0  0.00000000000E+00  0.00000000000E+00 -0.86783858957E+02  0.13046977516E+04  0.13018082750E+04 0.  0.
        2    1    3    3  502    0 -0.21708934195E+02  0.16482144838E+03  0.58732103593E+03  0.61039609019E+03  0.25500000920E-02 0. -1.
       -2    1    3    3    0  502  0.21708934195E+02 -0.16482144838E+03 -0.67410489489E+03  0.69430166138E+03  0.25500000920E-02 0.  1.
</event>
<event>
 5   0  0.3263679E-04  0.1300058E+04  0.7818609E-02  0.9029520E-01
       -1   -1    0    0    0  501  0.00000000000E+00  0.00000000000E+00  0.33297382023E+03  0.33297382027E+03  0.50400001928E-02 0. -1.
        1   -1    0    0  501    0  0.00000000000E+00  0.00000000000E+00 -0.12689808521E+04  0.12689808521E+04  0.50400001928E-02 0.  1.
    10030    2    1    2    0    0  0.00000000000E+00  0.00000000000E+00 -0.93600703184E+03  0.16019546723E+04  0.13000575405E+04 0.  0.
        2    1    3    3  502    0 -0.93661239051E+01  0.12218452472E+03  0.31861188111E+03  0.34136536607E+03  0.25500000920E-02 0. -1.
       -2    1    3    3    0  502  0.93661239051E+01 -0.12218452472E+03 -0.12546189130E+04  0.12605893063E+04  0.25500000920E-02 0.  1.
</event>
<event>
 5   0  0.3263679E-04  0.1301956E+04  0.7818609E-02  0.9028016E-01
        1   -1    0    0  501    0  0.00000000000E+00  0.00000000000E+00  0.13688861730E+04  0.13688861730E+04  0.50400001928E-02 0.  1.
       -1   -1    0    0    0  501  0.00000000000E+00  0.00000000000E+00 -0.30957446031E+03  0.30957446035E+03  0.50400001928E-02 0. -1.
    10030    2    1    2    0    0  0.00000000000E+00  0.00000000000E+00  0.10593117127E+04  0.16784606334E+04  0.13019557570E+04 0.  0.
        2    1    3    3  502    0 -0.39047476695E+03 -0.34604647408E+03  0.27778146169E+02  0.52248476653E+03  0.25500000920E-02 0. -1.
       -2    1    3    3    0  502  0.39047476695E+03  0.34604647408E+03  0.10315335665E+04  0.11559758668E+04  0.25500000920E-02 0.  1.
</event>
<event>
 5   0  0.3335747E-04  0.1300137E+04  0.7818609E-02  0.9029457E-01
       -1   -1    0    0    0  501  0.00000000000E+00  0.00000000000E+00  0.25678320366E+03  0.25678320371E+03  0.50400001928E-02 0.  1.
        1   -1    0    0  501    0  0.00000000000E+00  0.00000000000E+00 -0.16457028876E+04  0.16457028876E+04  0.50400001928E-02 0. -1.
    10030    2    1    2    0    0  0.00000000000E+00  0.00000000000E+00 -0.13889196839E+04  0.19024860913E+04  0.13001367002E+04 0.  0.
        3    1    3    3  502    0  0.63572573706E+03 -0.97052189459E+02 -0.83345387078E+03  0.10527163460E+04  0.10100000352E+00 0. -1.
       -3    1    3    3    0  502 -0.63572573706E+03  0.97052189459E+02 -0.55546581314E+03  0.84976974529E+03  0.10100000352E+00 0.  1.
</event>
<event>
 5   0  0.5957913E-04  0.1290943E+04  0.7818609E-02  0.9036778E-01
        2   -1    0    0  501    0  0.00000000000E+00  0.00000000000E+00  0.41123346548E+03  0.41123346549E+03  0.25500000920E-02 0. -1.
       -2   -1    0    0    0  501  0.00000000000E+00  0.00000000000E+00 -0.10131312846E+04  0.10131312846E+04  0.25500000920E-02 0.  1.
    10030    2    1    2    0    0  0.00000000000E+00  0.00000000000E+00 -0.60189781910E+03  0.14243647501E+04  0.12909430493E+04 0.  0.
        1    1    3    3  502    0  0.59593367042E+03 -0.12823253479E+03 -0.66754873942E+02  0.61321834263E+03  0.50400001928E-02 0. -1.
       -1    1    3    3    0  502 -0.59593367042E+03  0.12823253479E+03 -0.53514294515E+03  0.81114640743E+03  0.50400001928E-02 0.  1.
</event>
<event>
 5   0  0.5787604E-04  0.1303817E+04  0.7818609E-02  0.9026544E-01
       -2   -1    0    0    0  501  0.00000000000E+00  0.00000000000E+00  0.23003439295E+03  0.23003439297E+03  0.25500000920E-02 0. -1.
        2   -1    0    0  501    0  0.00000000000E+00  0.00000000000E+00 -0.18474826315E+04  0.18474826315E+04  0.25500000920E-02 0.  1.
    10030    2    1    2    0    0  0.00000000000E+00  0.00000000000E+00 -0.16174482385E+04  0.20775170245E+04  0.13038167749E+04 0.  0.
        4    1    3    3  502    0  0.19441621981E+03 -0.29779996247E+03 -0.16792877524E+04  0.17165347222E+04  0.12699999809E+01 0.  1.
       -4    1    3    3    0  502 -0.19441621981E+03  0.29779996247E+03  0.61839513877E+02  0.36098230227E+03  0.12699999809E+01 0. -1.
</event>
<event>
 5   0  0.3403833E-04  0.1299090E+04  0.7818609E-02  0.9030287E-01
        1   -1    0    0  501    0  0.00000000000E+00  0.00000000000E+00  0.64042585122E+03  0.64042585124E+03  0.50400001928E-02 0. -1.
       -1   -1    0    0    0  501  0.00000000000E+00  0.00000000000E+00 -0.65879445481E+03  0.65879445483E+03  0.50400001928E-02 0.  1.
    10030    2    1    2    0    0  0.00000000000E+00  0.00000000000E+00 -0.18368603586E+02  0.12992203061E+04  0.12990904503E+04 0.  0.
        1    1    3    3  502    0  0.20352334444E+03 -0.55870662367E+03  0.25224985500E+03  0.64591395127E+03  0.50400001928E-02 0. -1.
       -1    1    3    3    0  502 -0.20352334444E+03  0.55870662367E+03 -0.27061845859E+03  0.65330635480E+03  0.50400001928E-02 0.  1.
</event>
<event>
 5   0  0.5957913E-04  0.1301077E+04  0.7818609E-02  0.9028711E-01
       -2   -1    0    0    0  501  0.00000000000E+00  0.00000000000E+00  0.12128522946E+04  0.12128522946E+04  0.25500000920E-02 0. -1.
        2   -1    0    0  501    0  0.00000000000E+00  0.00000000000E+00 -0.34893007398E+03  0.34893007399E+03  0.25500000920E-02 0.  1.
    10030    2    1    2    0    0  0.00000000000E+00  0.00000000000E+00  0.86392222058E+03  0.15617823686E+04  0.13010774625E+04 0.  0.
        1    1    3    3  502    0  0.19334157863E+03  0.24823101635E+03 -0.25151692396E+03  0.40281554906E+03  0.50400001928E-02 0.  1.
       -1    1    3    3    0  502 -0.19334157863E+03 -0.24823101635E+03  0.11154391445E+04  0.11589668195E+04  0.50400001928E-02 0. -1.
</event>
<event>
 5   0  0.5787604E-04  0.1299985E+04  0.7818609E-02  0.9029577E-01
       -2   -1    0    0    0  501  0.00000000000E+00  0.00000000000E+00  0.73718656810E+03  0.73718656811E+03  0.25500000920E-02 0. -1.
        2   -1    0    0  501    0  0.00000000000E+00  0.00000000000E+00 -0.57311176352E+03  0.57311176352E+03  0.25500000920E-02 0.  1.
    10030    2    1    2    0    0  0.00000000000E+00  0.00000000000E+00  0.16407480458E+03  0.13102983316E+04  0.12999850678E+04 0.  0.
        4    1    3    3  502    0 -0.74701576502E+02  0.48628978052E+03 -0.34610370400E+03  0.60153758237E+03  0.12699999809E+01 0.  1.
       -4    1    3    3    0  502  0.74701576502E+02 -0.48628978052E+03  0.51017850859E+03  0.70876074927E+03  0.12699999809E+01 0. -1.
</event>
<event>
 5   0  0.6007125E-04  0.1311530E+04  0.7818609E-02  0.9020471E-01
        2   -1    0    0  501    0  0.00000000000E+00  0.00000000000E+00  0.46414110963E+03  0.46414110964E+03  0.25500000920E-02 0.  1.
       -2   -1    0    0    0  501  0.00000000000E+00  0.00000000000E+00 -0.92650242622E+03  0.92650242623E+03  0.25500000920E-02 0. -1.
    10030    2    1    2    0    0  0.00000000000E+00  0.00000000000E+00 -0.46236131659E+03  0.13906435359E+04  0.13115301967E+04 0.  0.
        5    1    3    3  502    0  0.21361400761E+03  0.19557727774E+03  0.39263117534E+03  0.48791674050E+03  0.46999998093E+01 0.  1.
       -5    1    3    3    0  502 -0.21361400761E+03 -0.19557727774E+03 -0.85499249193E+03  0.90272679536E+03  0.46999998093E+01 0. -1.
</event>
<event>
 5   0  0.5957913E-04  0.1301857E+04  0.7818609E-02  0.9028094E-01
       -2   -1    0    0    0  501  0.00000000000E+00  0.00000000000E+00  0.14970657497E+03  0.14970657500E+03  0.25500000920E-02 0. -1.
        2   -1    0    0  501    0  0.00000000000E+00  0.00000000000E+00 -0.28302564816E+04  0.28302564816E+04  0.25500000920E-02 0.  1.
    10030    2    1    2    0    0  0.00000000000E+00  0.00000000000E+00 -0.26805499066E+04  0.29799630566E+04  0.13018571415E+04 0.  0.
        1    1    3    3  502    0 -0.46285637905E+03 -0.31733879249E+03 -0.58535960339E+03  0.81091664316E+03  0.50400001928E-02 0. -1.
       -1    1    3    3    0  502  0.46285637905E+03  0.31733879249E+03 -0.20951903032E+04  0.21690464134E+04  0.50400001928E-02 0.  1.
</event>
<event>
 5   0  0.6007125E-04  0.1309295E+04  0.7818609E-02  0.9022226E-01
       -2   -1    0    0    0  501  0.00000000000E+00  0.00000000000E+00  0.41147816978E+03  0.41147816979E+03  0.25500000920E-02 0.  1.
        2   -1    0    0  501    0  0.00000000000E+00  0.00000000000E+00 -0.10415216552E+04  0.10415216552E+04  0.25500000920E-02 0. -1.
    10030    2    1    2    0    0  0.00000000000E+00  0.00000000000E+00 -0.63004348540E+03  0.14529998250E+04  0.13092951149E+04 0.  0.
        5    1    3    3  502    0 -0.15392723103E+03  0.48361549090E+03 -0.77388163026E+03  0.92546874779E+03  0.46999998093E+01 0. -1.
       -5    1    3    3    0  502  0.15392723103E+03 -0.48361549090E+03  0.14383814486E+03  0.52753107719E+03  0.46999998093E+01 0.  1.
</event>
<event>
 5   0  0.5957913E-04  0.1302001E+04  0.7818609E-02  0.9027980E-01
       -2   -1    0    0    0  501  0.00000000000E+00  0.00000000000E+00  0.21956829092E+03  0.21956829093E+03  0.25500000920E-02 0. -1.
        2   -1    0    0  501    0  0.00000000000E+00  0.00000000000E+00 -0.19301597412E+04  0.19301597412E+04  0.25500000920E-02 0.  1.
    10030    2    1    2    0    0  0.00000000000E+00  0.00000000000E+00 -0.17105914503E+04  0.21497280322E+04  0.13020013450E+04 0.  0.
        1    1    3    3  502    0 -0.19990477658E+03  0.60584644738E+03 -0.64135280108E+03  0.90462437121E+03  0.50400001928E-02 0. -1.
       -1    1    3    3    0  502  0.19990477658E+03 -0.60584644738E+03 -0.10692386492E+04  0.12451036610E+04  0.50400001928E-02 0.  1.
</event>
<event>
 5   0  0.3274879E-04  0.1301277E+04  0.7818609E-02  0.9028553E-01
       -1   -1    0    0    0  501  0.00000000000E+00  0.00000000000E+00  0.13961309849E+04  0.13961309849E+04  0.50400001928E-02 0. -1.
        1   -1    0    0  501    0  0.00000000000E+00  0.00000000000E+00 -0.30321700816E+03  0.30321700821E+03  0.50400001928E-02 0.  1.
    10030    2    1    2    0    0  0.00000000000E+00  0.00000000000E+00  0.10929139767E+04  0.16993479931E+04  0.13012773114E+04 0.  0.
        4    1    3    3  502    0 -0.39502119695E+03  0.34470345691E+03  0.10496414023E+04  0.11732906313E+04  0.12699999809E+01 0. -1.
       -4    1    3    3    0  502  0.39502119695E+03 -0.34470345691E+03  0.43272574393E+02  0.52605736174E+03  0.12699999809E+01 0.  1.
</event>
<event>
 5   0  0.3335747E-04  0.1297305E+04  0.7818609E-02  0.9031705E-01
        1   -1    0    0  501    0  0.00000000000E+00  0.00000000000E+00  0.99203450449E+03  0.99203450450E+03  0.50400001928E-02 0.  1.
       -1   -1    0    0    0  501  0.00000000000E+00  0.00000000000E+00 -0.42412847409E+03  0.42412847412E+03  0.50400001928E-02 0. -1.
    10030    2    1    2    0    0  0.00000000000E+00  0.00000000000E+00  0.56790603040E+03  0.14161629786E+04  0.12973050230E+04 0.  0.
        3    1    3    3  502    0  0.11679171806E+02  0.63320858526E+03  0.13089043733E+03  0.64670072854E+03  0.10100000352E+00 0.  1.
       -3    1    3    3    0  502 -0.11679171806E+02 -0.63320858526E+03  0.43701559307E+03  0.76946225008E+03  0.10100000352E+00 0. -1.
</event>
<event>
 5   0  0.5957913E-04  0.1305589E+04  0.7818609E-02  0.9025144E-01
       -2   -1    0    0    0  501  0.00000000000E+00  0.00000000000E+00  0.29979907219E+03  0.29979907220E+03  0.25500000920E-02 0. -1.
        2   -1    0    0  501    0  0.00000000000E+00  0.00000000000E+00 -0.14214215948E+04  0.14214215949E+04  0.25500000920E-02 0.  1.
    10030    2    1    2    0    0  0.00000000000E+00  0.00000000000E+00 -0.11216225227E+04  0.17212206671E+04  0.13055893311E+04 0.  0.
        1    1    3    3  502    0  0.13648172391E+03  0.61350668768E+03 -0.32823156879E+03  0.70905125313E+03  0.50400001928E-02 0. -1.
       -1    1    3    3    0  502 -0.13648172391E+03 -0.61350668768E+03 -0.79339095387E+03  0.10121694139E+04  0.50400001928E-02 0.  1.
</event>
<event>
 5   0  0.3263679E-04  0.1302320E+04  0.7818609E-02  0.9027728E-01
       -1   -1    0    0    0  501  0.00000000000E+00  0.00000000000E+00  0.49777292723E+03  0.49777292726E+03  0.50400001928E-02 0. -1.
        1   -1    0    0  501    0  0.00000000000E+00  0.00000000000E+00 -0.85181258933E+03  0.85181258935E+03  0.50400001928E-02 0.  1.
    10030    2    1    2    0    0  0.00000000000E+00  0.00000000000E+00 -0.35403966210E+03  0.13495855166E+04  0.13023198472E+04 0.  0.
        2    1    3    3  502    0 -0.31502997372E+03  0.41463271308E+03 -0.58216295670E+03  0.78107482309E+03  0.25500000920E-02 0.  1.
       -2    1    3    3    0  502  0.31502997372E+03 -0.41463271308E+03  0.22812329461E+03  0.56851069352E+03  0.25500000920E-02 0. -1.
</event>
<event>
 5   0  0.6052864E-04  0.1299784E+04  0.7818609E-02  0.9029737E-01
        2   -1    0    0  501    0  0.00000000000E+00  0.00000000000E+00  0.74220781590E+03  0.74220781590E+03  0.25500000920E-02 0.  1.
       -2   -1    0    0    0  501  0.00000000000E+00  0.00000000000E+00 -0.56905826089E+03  0.56905826090E+03  0.25500000920E-02 0. -1.
    10030    2    1    2    0    0  0.00000000000E+00  0.00000000000E+00  0.17314955500E+03  0.13112660768E+04  0.12997838112E+04 0.  0.
        2    1    3    3  502    0  0.30280381745E+03  0.48729531235E+03  0.39457926910E+03  0.69630429621E+03  0.25500000920E-02 0.  1.
       -2    1    3    3    0  502 -0.30280381745E+03 -0.48729531235E+03 -0.22142971410E+03  0.61496178060E+03  0.25500000920E-02 0. -1.
</event>
<event>
 5   0  0.3274879E-04  0.1299025E+04  0.7818609E-02  0.9030339E-01
        1   -1    0    0  501    0  0.00000000000E+00  0.00000000000E+00  0.51042225143E+03  0.51042225145E+03  0.50400001928E-02 0. -1.
       -1   -1    0    0    0  501  0.00000000000E+00  0.00000000000E+00 -0.82650480205E+03  0.82650480206E+03  0.50400001928E-02 0.  1.
    10030    2    1    2    0    0  0.00000000000E+00  0.00000000000E+00 -0.31608255062E+03  0.13369270535E+04  0.12990249296E+04 0.  0.
        4    1    3    3  502    0  0.22439182655E+03  0.51009206455E+03 -0.50142152240E+03  0.74964709175E+03  0.12699999809E+01 0.  1.
       -4    1    3    3    0  502 -0.22439182655E+03 -0.51009206455E+03  0.18533897178E+03  0.58727996177E+03  0.12699999809E+01 0. -1.
</event>
<event>
 5   0  0.6007125E-04  0.1298798E+04  0.7818609E-02  0.9030519E-01
       -2   -1    0    0    0  501  0.00000000000E+00  0.00000000000E+00  0.23303832311E+03  0.23303832312E+03  0.25500000920E-02 0. -1.
        2   -1    0    0  501    0  0.00000000000E+00  0.00000000000E+00 -0.18096546841E+04  0.18096546841E+04  0.25500000920E-02 0.  1.
    10030    2    1    2    0    0  0.00000000000E+00  0.00000000000E+00 -0.15766163610E+04  0.20426930072E+04  0.12987977410E+04 0.  0.
        5    1    3    3  502    0 -0.48338456812E+03 -0.38622406127E+03 -0.47824310479E+03  0.78202827537E+03  0.46999998093E+01 0. -1.
       -5    1    3    3    0  502  0.48338456812E+03  0.38622406127E+03 -0.10983732562E+04  0.12606647319E+04  0.46999998093E+01 0.  1.
</event>
<event>
 5   0  0.3274879E-04  0.1301872E+04  0.7818609E-02  0.9028082E-01
       -1   -1    0    0    0  501  0.00000000000E+00  0.00000000000E+00  0.57942317417E+03  0.57942317419E+03  0.50400001928E-02 0.  1.
        1   -1    0    0  501    0  0.00000000000E+00  0.00000000000E+00 -0.73127501827E+03  0.73127501829E+03  0.50400001928E-02 0. -1.
    10030    2    1    2    0    0  0.00000000000E+00  0.00000000000E+00 -0.15185184410E+03  0.13106981925E+04  0.13018720249E+04 0.  0.
        4    1    3    3  502    0  0.88056003124E+02 -0.54785477879E+03 -0.41855264960E+03  0.69504435234E+03  0.12699999809E+01 0. -1.
       -4    1    3    3    0  502 -0.88056003124E+02  0.54785477879E+03  0.26670080550E+03  0.61565384014E+03  0.12699999809E+01 0.  1.
</event>
<event>
 5   0  0.5957913E-04  0.1298160E+04  0.7818609E-02  0.9031026E-01
       -2   -1    0    0    0  501  0.00000000000E+00  0.00000000000E+00  0.14973839861E+04  0.14973839861E+04  0.25500000920E-02 0. -1.
        2   -1    0    0  501    0  0.00000000000E+00  0.00000000000E+00 -0.28136051628E+03  0.28136051629E+03  0.25500000920E-02 0.  1.
    10030    2    1    2    0    0  0.00000000000E+00  0.00000000000E+00  0.12160234698E+04  0.17787445024E+04  0.12981598228E+04 0.  0.
        1    1    3    3  502    0  0.45880718035E+03  0.95477109782E+02  0.12233614691E+04  0.13100508354E+04  0.50400001928E-02 0. -1.
       -1    1    3    3    0  502 -0.45880718035E+03 -0.95477109782E+02 -0.73379992623E+01  0.46869366700E+03  0.50400001928E-02 0.  1.
</event>
<event>
 5   0  0.3263679E-04  0.1317310E+04  0.7818609E-02  0.9015949E-01
        1   -1    0    0  501    0  0.00000000000E+00  0.00000000000E+00  0.10684754240E+04  0.10684754240E+04  0.50400001928E-02 0.  1.
       -1   -1    0    0    0  501  0.00000000000E+00  0.00000000000E+00 -0.40602404864E+03  0.40602404868E+03  0.50400001928E-02 0. -1.
    10030    2    1    2    0    0  0.00000000000E+00  0.00000000000E+00  0.66245137539E+03  0.14744994727E+04  0.13173104685E+04 0.  0.
        2    1    3    3  502    0 -0.18734520239E+03  0.43120040146E+03  0.84756701708E+03  0.96922745501E+03  0.25500000920E-02 0.  1.
       -2    1    3    3    0  502  0.18734520239E+03 -0.43120040146E+03 -0.18511564169E+03  0.50527201772E+03  0.25500000920E-02 0. -1.
</event>
<event>
 5   0  0.3263679E-04  0.1300572E+04  0.7818609E-02  0.9029112E-01
       -1   -1    0    0    0  501  0.00000000000E+00  0.00000000000E+00  0.25436520697E+03  0.25436520702E+03  0.50400001928E-02 0. -1.
        1   -1    0    0  501    0  0.00000000000E+00  0.00000000000E+00 -0.16624600596E+04  0.16624600596E+04  0.50400001928E-02 0.  1.
    10030    2    1    2    0    0  0.00000000000E+00  0.00000000000E+00 -0.14080948526E+04  0.19168252666E+04  0.13005721775E+04 0.  0.
        2    1    3    3  502    0  0.25645597119E+03  0.56836420436E+03 -0.43202867588E+03  0.75858836713E+03  0.25500000920E-02 0.  1.
       -2    1    3    3    0  502 -0.25645597119E+03 -0.56836420436E+03 -0.97606617675E+03  0.11582368995E+04  0.25500000920E-02 0. -1.
</event>
<event>
 5   0  0.3335747E-04  0.1299955E+04  0.7818609E-02  0.9029601E-01
       -1   -1    0    0    0  501  0.00000000000E+00  0.00000000000E+00  0.40537848797E+03  0.40537848800E+03  0.50400001928E-02 0.  1.
        1   -1    0    0  501    0  0.00000000000E+00  0.00000000000E+00 -0.10421636159E+04  0.10421636160E+04  0.50400001928E-02 0. -1.
    10030    2    1    2    0    0  0.00000000000E+00  0.00000000000E+00 -0.63678512798E+03  0.14475421040E+04  0.12999549390E+04 0.  0.
        3    1    3    3  502    0  0.44537357559E+03 -0.24808837989E+03  0.13057683773E+03  0.52626588985E+03  0.10100000352E+00 0.  1.
       -3    1    3    3    0  502 -0.44537357559E+03  0.24808837989E+03 -0.76736196571E+03  0.92127621411E+03  0.10100000352E+00 0. -1.
</event>
<event>
 5   0  0.3337520E-04  0.1293885E+04  0.7818609E-02  0.9034429E-01
        1   -1    0    0  501    0  0.00000000000E+00  0.00000000000E+00  0.56064836056E+03  0.56064836058E+03  0.50400001928E-02 0. -1.
       -1   -1    0    0    0  501  0.00000000000E+00  0.00000000000E+00 -0.74651860734E+03  0.74651860735E+03  0.50400001928E-02 0.  1.
    10030    2    1    2    0    0  0.00000000000E+00  0.00000000000E+00 -0.18587024678E+03  0.13071669679E+04  0.12938847450E+04 0.  0.
        5    1    3    3  502    0 -0.56778475400E+03 -0.23120683934E+02 -0.40529874130E+03  0.69799946461E+03  0.46999998093E+01 0.  1.
       -5    1    3    3    0  502  0.56778475400E+03  0.23120683934E+02  0.21942849452E+03  0.60916750332E+03  0.46999998093E+01 0. -1.
</event>
<event>
 5   0  0.3274879E-04  0.1299135E+04  0.7818609E-02  0.9030251E-01
       -1   -1    0    0    0  501  0.00000000000E+00  0.00000000000E+00  0.55211942181E+03  0.55211942183E+03  0.50400001928E-02 0.  1.
        1   -1    0    0  501    0  0.00000000000E+00  0.00000000000E+00 -0.76421535257E+03  0.76421535259E+03  0.50400001928E-02 0. -1.
    10030    2    1    2    0    0  0.00000000000E+00  0.00000000000E+00 -0.21209593076E+03  0.13163347744E+04  0.12991353103E+04 0.  0.
        4    1    3    3  502    0 -0.36565005932E+03 -0.23816917327E+03 -0.59357502456E+03  0.73672073655E+03  0.12699999809E+01 0. -1.
       -4    1    3    3    0  502  0.36565005932E+03  0.23816917327E+03  0.38147909380E+03  0.57961403786E+03  0.12699999809E+01 0.  1.
</event>
<event>
 5   0  0.5787604E-04  0.1294242E+04  0.7818609E-02  0.9034143E-01
        2   -1    0    0  501    0  0.00000000000E+00  0.00000000000E+00  0.13734704629E+04  0.13734704629E+04  0.25500000920E-02 0.  1.
       -2   -1    0    0    0  501  0.00000000000E+00  0.00000000000E+00 -0.30489618041E+03  0.30489618042E+03  0.25500000920E-02 0. -1.
    10030    2    1    2    0    0  0.00000000000E+00  0.00000000000E+00  0.10685742825E+04  0.16783666433E+04  0.12942424781E+04 0.  0.
        4    1    3    3  502    0 -0.16144671993E+03 -0.42013677954E+02 -0.27653007760E+03  0.32295617231E+03  0.12699999809E+01 0. -1.
       -4    1    3    3    0  502  0.16144671993E+03  0.42013677954E+02  0.13451043601E+04  0.13554104710E+04  0.12699999809E+01 0.  1.
</event>
<event>
 5   0  0.5957913E-04  0.1298916E+04  0.7818609E-02  0.9030425E-01
        2   -1    0    0  501    0  0.00000000000E+00  0.00000000000E+00  0.16659366070E+04  0.16659366070E+04  0.25500000920E-02 0.  1.
       -2   -1    0    0    0  501  0.00000000000E+00  0.00000000000E+00 -0.25318826462E+03  0.25318826463E+03  0.25500000920E-02 0. -1.
    10030    2    1    2    0    0  0.00000000000E+00  0.00000000000E+00  0.14127483424E+04  0.19191248716E+04  0.12989158533E+04 0.  0.
        1    1    3    3  502    0 -0.19716804726E+03 -0.24174330988E+03  0.15479951239E+04  0.15791149326E+04  0.50400001928E-02 0.  1.
       -1    1    3    3    0  502  0.19716804726E+03  0.24174330988E+03 -0.13524678149E+03  0.34000993906E+03  0.50400001928E-02 0. -1.
</event>
<event>
 5   0  0.6007125E-04  0.1303048E+04  0.7818609E-02  0.9027151E-01
       -2   -1    0    0    0  501  0.00000000000E+00  0.00000000000E+00  0.72365142335E+03  0.72365142335E+03  0.25500000920E-02 0.  1.
        2   -1    0    0  501    0  0.00000000000E+00  0.00000000000E+00 -0.58658604312E+03  0.58658604312E+03  0.25500000920E-02 0. -1.
    10030    2    1    2    0    0  0.00000000000E+00  0.00000000000E+00  0.13706538023E+03  0.13102374665E+04  0.13030484642E+04 0.  0.
        5    1    3    3  502    0  0.52736523722E+03 -0.28554209590E+03  0.32452191790E+03  0.68189804748E+03  0.46999998093E+01 0. -1.
       -5    1    3    3    0  502 -0.52736523722E+03  0.28554209590E+03 -0.18745653767E+03  0.62833941900E+03  0.46999998093E+01 0.  1.
</event>
<event>
 5   0  0.6052864E-04  0.1312594E+04  0.7818609E-02  0.9019637E-01
       -2   -1    0    0    0  501  0.00000000000E+00  0.00000000000E+00  0.44097457153E+03  0.44097457153E+03  0.25500000920E-02 0. -1.
        2   -1    0    0  501    0  0.00000000000E+00  0.00000000000E+00 -0.97675885290E+03  0.97675885291E+03  0.25500000920E-02 0.  1.
    10030    2    1    2    0    0  0.00000000000E+00  0.00000000000E+00 -0.53578428138E+03  0.14177334244E+04  0.13125940982E+04 0.  0.
        2    1    3    3  502    0 -0.45608501767E+03 -0.43207285405E+03 -0.62885434773E+02  0.63139137820E+03  0.25500000920E-02 0. -1.
       -2    1    3    3    0  502  0.45608501767E+03  0.43207285405E+03 -0.47289884661E+03  0.78634204624E+03  0.25500000920E-02 0.  1.
</event>
<event>
 5   0  0.3263679E-04  0.1294680E+04  0.7818609E-02  0.9033795E-01
       -1   -1    0    0    0  501  0.00000000000E+00  0.00000000000E+00  0.73571138789E+03  0.73571138791E+03  0.50400001928E-02 0.  1.
        1   -1    0    0  501    0  0.00000000000E+00  0.00000000000E+00 -0.56958328279E+03  0.56958328281E+03  0.50400001928E-02 0. -1.
    10030    2    1    2    0    0  0.00000000000E+00  0.00000000000E+00  0.16612810511E+03  0.13052946707E+04  0.12946797404E+04 0.  0.
        2    1    3    3  502    0  0.22688431491E+03 -0.33809184438E+03 -0.42431780346E+03  0.58807158232E+03  0.25500000920E-02 0. -1.
       -2    1    3    3    0  502 -0.22688431491E+03  0.33809184438E+03  0.59044590856E+03  0.71722308840E+03  0.25500000920E-02 0.  1.
</event>
<event>
 5   0  0.3403833E-04  0.1300131E+04  0.7818609E-02  0.9029461E-01
        1   -1    0    0  501    0  0.00000000000E+00  0.00000000000E+00  0.14825219160E+04  0.14825219160E+04  0.50400001928E-02 0. -1.
       -1   -1    0    0    0  501  0.00000000000E+00  0.00000000000E+00 -0.28504497556E+03  0.28504497561E+03  0.50400001928E-02 0.  1.
    10030    2    1    2    0    0  0.00000000000E+00  0.00000000000E+00  0.11974769404E+04  0.17675668916E+04  0.13001314139E+04 0.  0.
        1    1    3    3  502    0  0.29079125550E+03  0.42443591886E+03  0.11389355006E+04  0.12497517666E+04  0.50400001928E-02 0. -1.
       -1    1    3    3    0  502 -0.29079125550E+03 -0.42443591886E+03  0.58541439802E+02  0.51781512501E+03  0.50400001928E-02 0.  1.
</event>
<event>
 5   0  0.6007125E-04  0.1297253E+04  0.7818609E-02  0.9031746E-01
       -2   -1    0    0    0  501  0.00000000000E+00  0.00000000000E+00  0.11961099709E+04  0.11961099709E+04  0.25500000920E-02 0.  1.
        2   -1    0    0  501    0  0.00000000000E+00  0.00000000000E+00 -0.35173729742E+03  0.35173729743E+03  0.25500000920E-02 0. -1.
    10030    2    1    2    0    0  0.00000000000E+00  0.00000000000E+00  0.84437267344E+03  0.15478472683E+04  0.12972532345E+04 0.  0.
        5    1    3    3  502    0  0.35977847395E+03  0.46334577296E+03  0.75234081310E+03  0.95402759116E+03  0.46999998093E+01 0.  1.
       -5    1    3    3    0  502 -0.35977847395E+03 -0.46334577296E+03  0.92031860342E+02  0.59381967714E+03  0.46999998093E+01 0. -1.
</event>
<event>
 5   0  0.5957913E-04  0.1298663E+04  0.7818609E-02  0.9030626E-01
       -2   -1    0    0    0  501  0.00000000000E+00  0.00000000000E+00  0.54653221128E+03  0.54653221129E+03  0.25500000920E-02 0.  1.
        2   -1    0    0  501    0  0.00000000000E+00  0.00000000000E+00 -0.77146609809E+03  0.77146609809E+03  0.25500000920E-02 0. -1.
    10030    2    1    2    0    0  0.00000000000E+00  0.00000000000E+00 -0.22493388681E+03  0.13179983094E+04  0.12986625005E+04 0.  0.
        1    1    3    3  502    0 -0.62070359233E+03  0.18951666946E+03 -0.13379301872E+03  0.66263873220E+03  0.50400001928E-02 0.  1.
       -1    1    3    3    0  502  0.62070359233E+03 -0.18951666946E+03 -0.91140868087E+02  0.65535957717E+03  0.50400001928E-02 0. -1.
</event>
<event>
 5   0  0.3337520E-04  0.1318467E+04  0.7818609E-02  0.9015048E-01
        1   -1    0    0  501    0  0.00000000000E+00  0.00000000000E+00  0.97551444422E+03  0.97551444423E+03  0.50400001928E-02 0. -1.
       -1   -1    0    0    0  501  0.00000000000E+00  0.00000000000E+00 -0.44549680344E+03  0.44549680347E+03  0.50400001928E-02 0.  1.
    10030    2    1    2    0    0  0.00000000000E+00  0.00000000000E+00  0.53001764078E+03  0.14210112477E+04  0.13184666346E+04 0.  0.
        5    1    3    3  502    0  0.25065429387E+03 -0.56311974049E+03  0.51692965224E+03  0.80446862743E+03  0.46999998093E+01 0. -1.
       -5    1    3    3    0  502 -0.25065429387E+03  0.56311974049E+03  0.13087988538E+02  0.61654262027E+03  0.46999998093E+01 0.  1.
</event>
<event>
 5   0  0.3335747E-04  0.1284276E+04  0.7818609E-02  0.9042128E-01
        1   -1    0    0  501    0  0.00000000000E+00  0.00000000000E+00  0.15427944579E+04  0.15427944579E+04  0.50400001928E-02 0.  1.
       -1   -1    0    0    0  501  0.00000000000E+00  0.00000000000E+00 -0.26726895626E+03  0.26726895631E+03  0.50400001928E-02 0. -1.
    10030    2    1    2    0    0  0.00000000000E+00  0.00000000000E+00  0.12755255017E+04  0.18100634142E+04  0.12842757719E+04 0.  0.
        3    1    3    3  502    0 -0.63669843420E+03  0.81526420051E+02  0.61296360493E+03  0.88755610777E+03  0.10100000352E+00 0.  1.
       -3    1    3    3    0  502  0.63669843420E+03 -0.81526420051E+02  0.66256189672E+03  0.92250730646E+03  0.10100000352E+00 0. -1.
</event>
<event>
 5   0  0.6007125E-04  0.1301465E+04  0.7818609E-02  0.9028405E-01
       -2   -1    0    0    0  501  0.00000000000E+00  0.00000000000E+00  0.11414621942E+04  0.11414621942E+04  0.25500000920E-02 0.  1.
        2   -1    0    0  501    0  0.00000000000E+00  0.00000000000E+00 -0.37097371870E+03  0.37097371871E+03  0.25500000920E-02 0. -1.
    10030    2    1    2    0    0  0.00000000000E+00  0.00000000000E+00  0.77048847552E+03  0.15124359129E+04  0.13014645212E+04 0.  0.
        5    1    3    3  502    0  0.40377974296E+03 -0.17449752506E+03 -0.17201165130E+03  0.47233204979E+03  0.46999998093E+01 0. -1.
       -5    1    3    3    0  502 -0.40377974296E+03  0.17449752506E+03  0.94250012681E+03  0.10401038631E+04  0.46999998093E+01 0.  1.
</event>
<event>
 5   0  0.3335747E-04  0.1276165E+04  0.7818609E-02  0.9048683E-01
        1   -1    0    0  501    0  0.00000000000E+00  0.00000000000E+00  0.31130659361E+03  0.31130659365E+03  0.50400001928E-02 0. -1.
       -1   -1    0    0    0  501  0.00000000000E+00  0.00000000000E+00 -0.13078730844E+04  0.13078730845E+04  0.50400001928E-02 0.  1.
    10030    2    1    2    0    0  0.00000000000E+00  0.00000000000E+00 -0.99656649084E+03  0.16191796781E+04  0.12761653730E+04 0.  0.
        3    1    3    3  502    0 -0.20745540516E+03  0.29606863958E+03  0.16883129543E+03  0.39899674308E+03  0.10100000352E+00 0. -1.
       -3    1    3    3    0  502  0.20745540516E+03 -0.29606863958E+03 -0.11653977863E+04  0.12201829350E+04  0.10100000352E+00 0.  1.
</event>
<event>
 5   0  0.5384960E-04  0.1302947E+04  0.7818609E-02  0.9027232E-01
       -2   -1    0    0    0  501  0.00000000000E+00  0.00000000000E+00  0.65683307812E+03  0.65683307812E+03  0.25500000920E-02 0.  1.
        2   -1    0    0  501    0  0.00000000000E+00  0.00000000000E+00 -0.64615738633E+03  0.64615738634E+03  0.25500000920E-02 0. -1.
    10030    2    1    2    0    0  0.00000000000E+00  0.00000000000E+00  0.10675691785E+02  0.13029904645E+04  0.13029467296E+04 0.  0.
        3    1    3    3  502    0 -0.31081278407E+03  0.49739859929E+02 -0.56506616489E+03  0.64682178482E+03  0.10100000352E+00 0. -1.
       -3    1    3    3    0  502  0.31081278407E+03 -0.49739859929E+02  0.57574185668E+03  0.65616867964E+03  0.10100000352E+00 0.  1.
</event>
<event>
 5   0  0.3263679E-04  0.1277080E+04  0.7818609E-02  0.9047941E-01
        1   -1    0    0  501    0  0.00000000000E+00  0.00000000000E+00  0.49423358006E+03  0.49423358009E+03  0.50400001928E-02 0. -1.
       -1   -1    0    0    0  501  0.00000000000E+00  0.00000000000E+00 -0.82498124490E+03  0.82498124492E+03  0.50400001928E-02 0.  1.
    10030    2    1    2    0    0  0.00000000000E+00  0.00000000000E+00 -0.33074766484E+03  0.13192148250E+04  0.12770801607E+04 0.  0.
        2    1    3    3  502    0 -0.22578374775E+03  0.43590111030E+03 -0.58719098711E+03  0.76536353066E+03  0.25500000920E-02 0.  1.
       -2    1    3    3    0  502  0.22578374775E+03 -0.43590111030E+03  0.25644332227E+03  0.55385129435E+03  0.25500000920E-02 0. -1.
</event>
<event>
 5   0  0.5957913E-04  0.1301509E+04  0.7818609E-02  0.9028369E-01
       -2   -1    0    0    0  501  0.00000000000E+00  0.00000000000E+00  0.25096624331E+03  0.25096624332E+03  0.25500000920E-02 0.  1.
        2   -1    0    0  501    0  0.00000000000E+00  0.00000000000E+00 -0.16874049420E+04  0.16874049420E+04  0.25500000920E-02 0. -1.
    10030    2    1    2    0    0  0.00000000000E+00  0.00000000000E+00 -0.14364386987E+04  0.19383711853E+04  0.13015093995E+04 0.  0.
        1    1    3    3  502    0  0.21769327327E+03 -0.61299116806E+03 -0.74540294239E+03  0.98933011674E+03  0.50400001928E-02 0. -1.
       -1    1    3    3    0  502 -0.21769327327E+03  0.61299116806E+03 -0.69103575630E+03  0.94904106859E+03  0.50400001928E-02 0.  1.
</event>
<event>
 5   0  0.3263679E-04  0.1301922E+04  0.7818609E-02  0.9028043E-01
       -1   -1    0    0    0  501  0.00000000000E+00  0.00000000000E+00  0.12150419476E+04  0.12150419476E+04  0.50400001928E-02 0.  1.
        1   -1    0    0  501    0  0.00000000000E+00  0.00000000000E+00 -0.34875334882E+03  0.34875334886E+03  0.50400001928E-02 0. -1.
    10030    2    1    2    0    0  0.00000000000E+00  0.00000000000E+00  0.86628859873E+03  0.15637952964E+04  0.13019215771E+04 0.  0.
        2    1    3    3  502    0 -0.65072746180E+03 -0.31561986838E+01  0.41255748089E+03  0.77049326161E+03  0.25500000920E-02 0. -1.
       -2    1    3    3    0  502  0.65072746180E+03  0.31561986838E+01  0.45373111784E+03  0.79330203481E+03  0.25500000920E-02 0.  1.
</event>
<event>
 5   0  0.5787604E-04  0.1302238E+04  0.7818609E-02  0.9027792E-01
        2   -1    0    0  501    0  0.00000000000E+00  0.00000000000E+00  0.11690947420E+04  0.11690947420E+04  0.25500000920E-02 0. -1.
       -2   -1    0    0    0  501  0.00000000000E+00  0.00000000000E+00 -0.36263607629E+03  0.36263607630E+03  0.25500000920E-02 0.  1.
    10030    2    1    2    0    0  0.00000000000E+00  0.00000000000E+00  0.80645866573E+03  0.15317308183E+04  0.13022379661E+04 0.  0.
        4    1    3    3  502    0 -0.43084412400E+03 -0.17405070037E+03  0.93971641546E+03  0.10483266952E+04  0.12699999809E+01 0. -1.
       -4    1    3    3    0  502  0.43084412400E+03  0.17405070037E+03 -0.13325774973E+03  0.48340412312E+03  0.12699999809E+01 0.  1.
</event>
<event>
 5   0  0.3263679E-04  0.1290164E+04  0.7818609E-02  0.9037401E-01
        1   -1    0    0  501    0  0.00000000000E+00  0.00000000000E+00  0.18427025063E+04  0.18427025063E+04  0.50400001928E-02 0.  1.
       -1   -1    0    0    0  501  0.00000000000E+00  0.00000000000E+00 -0.22582652267E+03  0.22582652273E+03  0.50400001928E-02 0. -1.
    10030    2    1    2    0    0  0.00000000000E+00  0.00000000000E+00  0.16168759836E+04  0.20685290290E+04  0.12901644847E+04 0.  0.
        2    1    3    3  502    0 -0.29485645074E+03 -0.77335099082E+02  0.17199428111E+04  0.17467467812E+04  0.25500000920E-02 0.  1.
       -2    1    3    3    0  502  0.29485645074E+03  0.77335099082E+02 -0.10306682748E+03  0.32178224785E+03  0.25500000920E-02 0. -1.
</event>
<event>
 5   0  0.2255875E-04  0.1302296E+04  0.7818609E-02  0.9027747E-01
        4   -1    0    0  501    0  0.00000000000E+00  0.00000000000E+00  0.62641730946E+03  0.62641859686E+03  0.12699999809E+01 0.  1.
       -4   -1    0    0    0  501  0.00000000000E+00  0.00000000000E+00 -0.67685215850E+03  0.67685334997E+03  0.12699999809E+01 0. -1.
    10030    2    1    2    0    0  0.00000000000E+00  0.00000000000E+00 -0.50434849043E+02  0.13032719468E+04  0.13022957012E+04 0.  0.
        2    1    3    3  502    0  0.22921392168E+03 -0.58547583092E+03  0.14423922727E+03  0.64507823182E+03  0.25500000920E-02 0.  1.
       -2    1    3    3    0  502 -0.22921392168E+03  0.58547583092E+03 -0.19467407632E+03  0.65819371501E+03  0.25500000920E-02 0. -1.
</event>
<event>
 5   0  0.3335747E-04  0.1301503E+04  0.7818609E-02  0.9028374E-01
        1   -1    0    0  501    0  0.00000000000E+00  0.00000000000E+00  0.19150891053E+04  0.19150891053E+04  0.50400001928E-02 0.  1.
       -1   -1    0    0    0  501  0.00000000000E+00  0.00000000000E+00 -0.22112684848E+03  0.22112684854E+03  0.50400001928E-02 0. -1.
    10030    2    1    2    0    0  0.00000000000E+00  0.00000000000E+00  0.16939622568E+04  0.21362159539E+04  0.13015031594E+04 0.  0.
        3    1    3    3  502    0  0.73328395824E+02  0.64503996652E+03  0.77313890267E+03  0.10095530620E+04  0.10100000352E+00 0.  1.
       -3    1    3    3    0  502 -0.73328395824E+02 -0.64503996652E+03  0.92082335417E+03  0.11266628918E+04  0.10100000352E+00 0. -1.
</event>
<event>
 5   0  0.3263679E-04  0.1303035E+04  0.7818609E-02  0.9027162E-01
       -1   -1    0    0    0  501  0.00000000000E+00  0.00000000000E+00  0.93302908296E+03  0.93302908297E+03  0.50400001928E-02 0. -1.
        1   -1    0    0  501    0  0.00000000000E+00  0.00000000000E+00 -0.45494291759E+03  0.45494291762E+03  0.50400001928E-02 0.  1.
    10030    2    1    2    0    0  0.00000000000E+00  0.00000000000E+00  0.47808616536E+03  0.13879720006E+04  0.13030348779E+04 0.  0.
        2    1    3    3  502    0  0.45053101261E+03  0.33817494059E+03  0.58769279961E+03  0.81407819679E+03  0.25500000920E-02 0. -1.
       -2    1    3    3    0  502 -0.45053101261E+03 -0.33817494059E+03 -0.10960663424E+03  0.57389380380E+03  0.25500000920E-02 0.  1.
</event>
<event>
 5   0  0.3335747E-04  0.1302237E+04  0.7818609E-02  0.9027793E-01
        1   -1    0    0  501    0  0.00000000000E+00  0.00000000000E+00  0.16798022067E+04  0.16798022068E+04  0.50400001928E-02 0.  1.
       -1   -1    0    0    0  501  0.00000000000E+00  0.00000000000E+00 -0.25238397180E+03  0.25238397185E+03  0.50400001928E-02 0. -1.
    10030    2    1    2    0    0  0.00000000000E+00  0.00000000000E+00  0.14274182350E+04  0.19321861786E+04  0.13022367724E+04 0.  0.
        3    1    3    3  502    0 -0.33543137284E+03 -0.16727062093E+03  0.15036708227E+04  0.15496837161E+04  0.10100000352E+00 0.  1.
       -3    1    3    3    0  502  0.33543137284E+03  0.16727062093E+03 -0.76252587766E+02  0.38250246255E+03  0.10100000352E+00 0. -1.
</event>
<event>
 5   0  0.3337520E-04  0.1296227E+04  0.7818609E-02  0.9032562E-01
        1   -1    0    0  501    0  0.00000000000E+00  0.00000000000E+00  0.15889287959E+04  0.15889287959E+04  0.50400001928E-02 0.  1.
       -1   -1    0    0    0  501  0.00000000000E+00  0.00000000000E+00 -0.26436129538E+03  0.26436129543E+03  0.50400001928E-02 0. -1.
    10030    2    1    2    0    0  0.00000000000E+00  0.00000000000E+00  0.13245675005E+04  0.18532900913E+04  0.12962272560E+04 0.  0.
        5    1    3    3  502    0  0.69170923562E+02  0.74913005821E+02 -0.25279720259E+03  0.27262628403E+03  0.46999998093E+01 0. -1.
       -5    1    3    3    0  502 -0.69170923562E+02 -0.74913005821E+02  0.15773647031E+04  0.15806638073E+04  0.46999998093E+01 0.  1.
</event>
<event>
 5   0  0.3337520E-04  0.1308382E+04  0.7818609E-02  0.9022944E-01
       -1   -1    0    0    0  501  0.00000000000E+00  0.00000000000E+00  0.42479271148E+03  0.42479271151E+03  0.50400001928E-02 0.  1.
        1   -1    0    0  501    0  0.00000000000E+00  0.00000000000E+00 -0.10074704921E+04  0.10074704921E+04  0.50400001928E-02 0. -1.
    10030    2    1    2    0    0  0.00000000000E+00  0.00000000000E+00 -0.58267778066E+03  0.14322632037E+04  0.13083823938E+04 0.  0.
        5    1    3    3  502    0 -0.52183208511E+03 -0.32163912424E+03 -0.41272640207E+02  0.61439887054E+03  0.46999998093E+01 0.  1.
       -5    1    3    3    0  502  0.52183208511E+03  0.32163912424E+03 -0.54140514045E+03  0.81786433312E+03  0.46999998093E+01 0. -1.
</event>
<event>
 5   0  0.3337520E-04  0.1301192E+04  0.7818609E-02  0.9028621E-01
       -1   -1    0    0    0  501  0.00000000000E+00  0.00000000000E+00  0.88063134395E+03  0.88063134396E+03  0.50400001928E-02 0.  1.
        1   -1    0    0  501    0  0.00000000000E+00  0.00000000000E+00 -0.48064943974E+03  0.48064943977E+03  0.50400001928E-02 0. -1.
    10030    2    1    2    0    0  0.00000000000E+00  0.00000000000E+00  0.39998190421E+03  0.13612807837E+04  0.13011917032E+04 0.  0.
        5    1    3    3  502    0 -0.53749623597E+03 -0.23620434456E+03  0.49321671458E+03  0.76679822223E+03  0.46999998093E+01 0.  1.
       -5    1    3    3    0  502  0.53749623597E+03  0.23620434456E+03 -0.93234810374E+02  0.59448256150E+03  0.46999998093E+01 0. -1.
</event>
<event>
 5   0  0.5787604E-04  0.1277468E+04  0.7818609E-02  0.9047627E-01
        2   -1    0    0  501    0  0.00000000000E+00  0.00000000000E+00  0.98630794538E+03  0.98630794538E+03  0.25500000920E-02 0. -1.
       -2   -1    0    0    0  501  0.00000000000E+00  0.00000000000E+00 -0.41364450841E+03  0.41364450842E+03  0.25500000920E-02 0.  1.
    10030    2    1    2    0    0  0.00000000000E+00  0.00000000000E+00  0.57266343697E+03  0.13999524538E+04  0.12774675968E+04 0.  0.
        4    1    3    3  502    0  0.29018877677E+03  0.70338045414E+02 -0.33245036224E+03  0.44685772126E+03  0.12699999809E+01 0.  1.
       -4    1    3    3    0  502 -0.29018877677E+03 -0.70338045414E+02  0.90511379921E+03  0.95309473255E+03  0.12699999809E+01 0. -1.
</event>
<event>
 5   0  0.3274879E-04  0.1307651E+04  0.7818609E-02  0.9023520E-01
        1   -1    0    0  501    0  0.00000000000E+00  0.00000000000E+00  0.70382772124E+03  0.70382772125E+03  0.50400001928E-02 0. -1.
       -1   -1    0    0    0  501  0.00000000000E+00  0.00000000000E+00 -0.60737523802E+03  0.60737523804E+03  0.50400001928E-02 0.  1.
    10030    2    1    2    0    0  0.00000000000E+00  0.00000000000E+00  0.96452483215E+02  0.13112029593E+04  0.13076506104E+04 0.  0.
        4    1    3    3  502    0 -0.21120790272E+03 -0.66673065460E+01 -0.57218935203E+03  0.60996352238E+03  0.12699999809E+01 0.  1.
       -4    1    3    3    0  502  0.21120790272E+03  0.66673065460E+01  0.66864183525E+03  0.70123943692E+03  0.12699999809E+01 0. -1.
</event>
<event>
 5   0  0.5384960E-04  0.1300853E+04  0.7818609E-02  0.9028889E-01
       -2   -1    0    0    0  501  0.00000000000E+00  0.00000000000E+00  0.65510845460E+03  0.65510845461E+03  0.25500000920E-02 0. -1.
        2   -1    0    0  501    0  0.00000000000E+00  0.00000000000E+00 -0.64577839765E+03  0.64577839765E+03  0.25500000920E-02 0.  1.
    10030    2    1    2    0    0  0.00000000000E+00  0.00000000000E+00  0.93300569556E+01  0.13008868523E+04  0.13008533939E+04 0.  0.
        3    1    3    3  502    0  0.14735383543E+03  0.11683400067E+03  0.62732985383E+03  0.65490922442E+03  0.10100000352E+00 0. -1.
       -3    1    3    3    0  502 -0.14735383543E+03 -0.11683400067E+03 -0.61799979687E+03  0.64597762784E+03  0.10100000352E+00 0.  1.
</event>
<event>
 5   0  0.5957913E-04  0.1297147E+04  0.7818609E-02  0.9031831E-01
       -2   -1    0    0    0  501  0.00000000000E+00  0.00000000000E+00  0.43016674643E+03  0.43016674644E+03  0.25500000920E-02 0. -1.
        2   -1    0    0  501    0  0.00000000000E+00  0.00000000000E+00 -0.97787095914E+03  0.97787095915E+03  0.25500000920E-02 0.  1.
    10030    2    1    2    0    0  0.00000000000E+00  0.00000000000E+00 -0.54770421271E+03  0.14080377056E+04  0.12971469754E+04 0.  0.
        1    1    3    3  502    0  0.42432083731E+03 -0.22889933311E+03 -0.74476446588E+03  0.88719625075E+03  0.50400001928E-02 0.  1.
       -1    1    3    3    0  502 -0.42432083731E+03  0.22889933311E+03  0.19706025317E+03  0.52084145484E+03  0.50400001928E-02 0. -1.
</event>
<event>
 5   0  0.3274879E-04  0.1296818E+04  0.7818609E-02  0.9032092E-01
       -1   -1    0    0    0  501  0.00000000000E+00  0.00000000000E+00  0.66028251156E+03  0.66028251158E+03  0.50400001928E-02 0. -1.
        1   -1    0    0  501    0  0.00000000000E+00  0.00000000000E+00 -0.63674923076E+03  0.63674923078E+03  0.50400001928E-02 0.  1.
    10030    2    1    2    0    0  0.00000000000E+00  0.00000000000E+00  0.23533280796E+02  0.12970317424E+04  0.12968182314E+04 0.  0.
        4    1    3    3  502    0  0.55394377652E+02 -0.47987598371E+03  0.44436909102E+03  0.65636498899E+03  0.12699999809E+01 0. -1.
       -4    1    3    3    0  502 -0.55394377652E+02  0.47987598371E+03 -0.42083581022E+03  0.64066675337E+03  0.12699999809E+01 0.  1.
</event>
<event>
 5   0  0.5957913E-04  0.1269842E+04  0.7818609E-02  0.9053828E-01
        2   -1    0    0  501    0  0.00000000000E+00  0.00000000000E+00  0.22133115255E+03  0.22133115257E+03  0.25500000920E-02 0. -1.
       -2   -1    0    0    0  501  0.00000000000E+00  0.00000000000E+00 -0.18213649601E+04  0.18213649601E+04  0.25500000920E-02 0.  1.
    10030    2    1    2    0    0  0.00000000000E+00  0.00000000000E+00 -0.16000338075E+04  0.20426961127E+04  0.12698422041E+04 0.  0.
        1    1    3    3  502    0 -0.85998873675E+01 -0.49729418025E+03 -0.16517275480E+03  0.52407776019E+03  0.50400001928E-02 0. -1.
       -1    1    3    3    0  502  0.85998873675E+01  0.49729418025E+03 -0.14348610527E+04  0.15186183525E+04  0.50400001928E-02 0.  1.
</event>
<event>
 5   0  0.5384960E-04  0.1292347E+04  0.7818609E-02  0.9035656E-01
        2   -1    0    0  501    0  0.00000000000E+00  0.00000000000E+00  0.18992001535E+04  0.18992001535E+04  0.25500000920E-02 0.  1.
       -2   -1    0    0    0  501  0.00000000000E+00  0.00000000000E+00 -0.21985067642E+03  0.21985067643E+03  0.25500000920E-02 0. -1.
    10030    2    1    2    0    0  0.00000000000E+00  0.00000000000E+00  0.16793494771E+04  0.21190508300E+04  0.12923473812E+04 0.  0.
        3    1    3    3  502    0  0.35642516138E+03  0.26138668206E+03  0.66792803209E+02  0.44701586324E+03  0.10100000352E+00 0. -1.
       -3    1    3    3    0  502 -0.35642516138E+03 -0.26138668206E+03  0.16125566739E+04  0.16720349667E+04  0.10100000352E+00 0.  1.
</event>
<event>
 5   0  0.3263679E-04  0.1289680E+04  0.7818609E-02  0.9037789E-01
       -1   -1    0    0    0  501  0.00000000000E+00  0.00000000000E+00  0.10170034343E+04  0.10170034343E+04  0.50400001928E-02 0. -1.
        1   -1    0    0  501    0  0.00000000000E+00  0.00000000000E+00 -0.40886678772E+03  0.40886678775E+03  0.50400001928E-02 0.  1.
    10030    2    1    2    0    0  0.00000000000E+00  0.00000000000E+00  0.60813664655E+03  0.14258702220E+04  0.12896804679E+04 0.  0.
        2    1    3    3  502    0  0.60152791886E+03  0.15727967110E+03  0.49314265052E+03  0.79357570898E+03  0.25500000920E-02 0. -1.
       -2    1    3    3    0  502 -0.60152791886E+03 -0.15727967110E+03  0.11499399603E+03  0.63229451305E+03  0.25500000920E-02 0.  1.
</event>
<event>
 5   0  0.5384960E-04  0.1296096E+04  0.7818609E-02  0.9032667E-01
        2   -1    0    0  501    0  0.00000000000E+00  0.00000000000E+00  0.14236353066E+04  0.14236353066E+04  0.25500000920E-02 0. -1.
       -2   -1    0    0    0  501  0.00000000000E+00  0.00000000000E+00 -0.29499549240E+03  0.29499549241E+03  0.25500000920E-02 0.  1.
    10030    2    1    2    0    0  0.00000000000E+00  0.00000000000E+00  0.11286398142E+04  0.17186307990E+04  0.12960956728E+04 0.  0.
        3    1    3    3  502    0  0.49807710116E+03  0.39993598083E+03  0.41944865198E+03  0.76417718450E+03  0.10100000352E+00 0.  1.
       -3    1    3    3    0  502 -0.49807710116E+03 -0.39993598083E+03  0.70919116219E+03  0.95445361448E+03  0.10100000352E+00 0. -1.
</event>
<event>
 5   0  0.3274879E-04  0.1311521E+04  0.7818609E-02  0.9020478E-01
       -1   -1    0    0    0  501  0.00000000000E+00  0.00000000000E+00  0.86237870648E+03  0.86237870649E+03  0.50400001928E-02 0. -1.
        1   -1    0    0  501    0  0.00000000000E+00  0.00000000000E+00 -0.49864650387E+03  0.49864650389E+03  0.50400001928E-02 0.  1.
    10030    2    1    2    0    0  0.00000000000E+00  0.00000000000E+00  0.36373220261E+03  0.13610252104E+04  0.13115214478E+04 0.  0.
        4    1    3    3  502    0 -0.38236756523E+03 -0.40571835257E+03 -0.17643141435E+03  0.58475806401E+03  0.12699999809E+01 0.  1.
       -4    1    3    3    0  502  0.38236756523E+03  0.40571835257E+03  0.54016361697E+03  0.77626714638E+03  0.12699999809E+01 0. -1.
</event>
<event>
 5   0  0.2255875E-04  0.1300815E+04  0.7818609E-02  0.9028919E-01
       -4   -1    0    0    0  501  0.00000000000E+00  0.00000000000E+00  0.10656140718E+04  0.10656148286E+04  0.12699999809E+01 0. -1.
        4   -1    0    0  501    0  0.00000000000E+00  0.00000000000E+00 -0.39698039621E+03  0.39698242767E+03  0.12699999809E+01 0.  1.
    10030    2    1    2    0    0  0.00000000000E+00  0.00000000000E+00  0.66863367560E+03  0.14625972563E+04  0.13008150299E+04 0.  0.
        1    1    3    3  502    0  0.17594291791E+03 -0.46936169378E+03  0.80031848222E+03  0.94433361846E+03  0.50400001928E-02 0. -1.
       -1    1    3    3    0  502 -0.17594291791E+03  0.46936169378E+03 -0.13168480663E+03  0.51826363780E+03  0.50400001928E-02 0.  1.
</event>
<event>
 5   0  0.3274879E-04  0.1296276E+04  0.7818609E-02  0.9032523E-01
        1   -1    0    0  501    0  0.00000000000E+00  0.00000000000E+00  0.67509187835E+03  0.67509187837E+03  0.50400001928E-02 0. -1.
       -1   -1    0    0    0  501  0.00000000000E+00  0.00000000000E+00 -0.62226065678E+03  0.62226065680E+03  0.50400001928E-02 0.  1.
    10030    2    1    2    0    0  0.00000000000E+00  0.00000000000E+00  0.52831221572E+02  0.12973525352E+04  0.12962763835E+04 0.  0.
        4    1    3    3  502    0 -0.41225647966E+03  0.31514259796E+03 -0.36225101709E+03  0.63284885586E+03  0.12699999809E+01 0.  1.
       -4    1    3    3    0  502  0.41225647966E+03 -0.31514259796E+03  0.41508223866E+03  0.66450367932E+03  0.12699999809E+01 0. -1.
</event>
<event>
 5   0  0.5957913E-04  0.1296726E+04  0.7818609E-02  0.9032165E-01
        2   -1    0    0  501    0  0.00000000000E+00  0.00000000000E+00  0.12574328207E+04  0.12574328207E+04  0.25500000920E-02 0.  1.
       -2   -1    0    0    0  501  0.00000000000E+00  0.00000000000E+00 -0.33431178965E+03  0.33431178966E+03  0.25500000920E-02 0. -1.
    10030    2    1    2    0    0  0.00000000000E+00  0.00000000000E+00  0.92312103108E+03  0.15917446104E+04  0.12967260569E+04 0.  0.
        1    1    3    3  502    0  0.39123926276E+03  0.26096244029E+03 -0.86306726301E+02  0.47814057242E+03  0.50400001928E-02 0. -1.
       -1    1    3    3    0  502 -0.39123926276E+03 -0.26096244029E+03  0.10094277574E+04  0.11136040380E+04  0.50400001928E-02 0.  1.
</event>
<event>
 5   0  0.3403833E-04  0.1300743E+04  0.7818609E-02  0.9028976E-01
       -1   -1    0    0    0  501  0.00000000000E+00  0.00000000000E+00  0.30419579313E+03  0.30419579318E+03  0.50400001928E-02 0.  1.
        1   -1    0    0  501    0  0.00000000000E+00  0.00000000000E+00 -0.13904953232E+04  0.13904953232E+04  0.50400001928E-02 0. -1.
    10030    2    1    2    0    0  0.00000000000E+00  0.00000000000E+00 -0.10862995300E+04  0.16946911164E+04  0.13007425998E+04 0.  0.
        1    1    3    3  502    0 -0.99422911108E+00 -0.74444041526E+02 -0.13849250692E+04  0.13869247821E+04  0.50400001928E-02 0. -1.
       -1    1    3    3    0  502  0.99422911108E+00  0.74444041526E+02  0.29862553920E+03  0.30776633425E+03  0.50400001928E-02 0.  1.
</event>
<event>
 5   0  0.3263679E-04  0.1297010E+04  0.7818609E-02  0.9031940E-01
        1   -1    0    0  501    0  0.00000000000E+00  0.00000000000E+00  0.62025345533E+03  0.62025345535E+03  0.50400001928E-02 0. -1.
       -1   -1    0    0    0  501  0.00000000000E+00  0.00000000000E+00 -0.67804295182E+03  0.67804295184E+03  0.50400001928E-02 0.  1.
    10030    2    1    2    0    0  0.00000000000E+00  0.00000000000E+00 -0.57789496486E+02  0.12982964072E+04  0.12970096125E+04 0.  0.
        2    1    3    3  502    0 -0.33990077284E+03 -0.53667689336E+03  0.10163347524E+03  0.64333815878E+03  0.25500000920E-02 0.  1.
       -2    1    3    3    0  502  0.33990077284E+03  0.53667689336E+03 -0.15942297173E+03  0.65495824841E+03  0.25500000920E-02 0. -1.
</event>
<event>
 5   0  0.6052864E-04  0.1303305E+04  0.7818609E-02  0.9026948E-01
        2   -1    0    0  501    0  0.00000000000E+00  0.00000000000E+00  0.11319443025E+04  0.11319443025E+04  0.25500000920E-02 0.  1.
       -2   -1    0    0    0  501  0.00000000000E+00  0.00000000000E+00 -0.37515188060E+03  0.37515188060E+03  0.25500000920E-02 0. -1.
    10030    2    1    2    0    0  0.00000000000E+00  0.00000000000E+00  0.75679242186E+03  0.15070961831E+04  0.13033050814E+04 0.  0.
        2    1    3    3  502    0  0.81642581094E+02  0.11476008537E+03  0.11141347844E+04  0.11230012048E+04  0.25500000920E-02 0.  1.
       -2    1    3    3    0  502 -0.81642581094E+02 -0.11476008537E+03 -0.35734236253E+03  0.38409497824E+03  0.25500000920E-02 0. -1.
</event>
<event>
 5   0  0.6052864E-04  0.1325187E+04  0.7818609E-02  0.9009827E-01
        2   -1    0    0  501    0  0.00000000000E+00  0.00000000000E+00  0.13071298640E+04  0.13071298640E+04  0.25500000920E-02 0. -1.
       -2   -1    0    0    0  501  0.00000000000E+00  0.00000000000E+00 -0.33587314989E+03  0.33587314990E+03  0.25500000920E-02 0.  1.
    10030    2    1    2    0    0  0.00000000000E+00  0.00000000000E+00  0.97125671413E+03  0.16430030139E+04  0.13251865148E+04 0.  0.
        2    1    3    3  502    0  0.57302501393E+03  0.31776580728E+03  0.60771865883E+03  0.89367485316E+03  0.25500000920E-02 0. -1.
       -2    1    3    3    0  502 -0.57302501393E+03 -0.31776580728E+03  0.36353805529E+03  0.74932816077E+03  0.25500000920E-02 0.  1.
</event>
<event>
 5   0  0.6007125E-04  0.1237293E+04  0.7818609E-02  0.9080826E-01
        2   -1    0    0  501    0  0.00000000000E+00  0.00000000000E+00  0.10539868283E+04  0.10539868283E+04  0.25500000920E-02 0.  1.
       -2   -1    0    0    0  501  0.00000000000E+00  0.00000000000E+00 -0.36311957804E+03  0.36311957805E+03  0.25500000920E-02 0. -1.
    10030    2    1    2    0    0  0.00000000000E+00  0.00000000000E+00  0.69086725021E+03  0.14171064063E+04  0.12372926127E+04 0.  0.
        5    1    3    3  502    0  0.38275889027E+03  0.36696224148E+03 -0.19521119042E+02  0.53063058604E+03  0.46999998093E+01 0. -1.
       -5    1    3    3    0  502 -0.38275889027E+03 -0.36696224148E+03  0.71038836925E+03  0.88647582027E+03  0.46999998093E+01 0.  1.
</event>
<event>
 5   0  0.5957913E-04  0.1340292E+04  0.7818609E-02  0.8998210E-01
        2   -1    0    0  501    0  0.00000000000E+00  0.00000000000E+00  0.13551322936E+04  0.13551322936E+04  0.25500000920E-02 0.  1.
       -2   -1    0    0    0  501  0.00000000000E+00  0.00000000000E+00 -0.33140340835E+03  0.33140340836E+03  0.25500000920E-02 0. -1.
    10030    2    1    2    0    0  0.00000000000E+00  0.00000000000E+00  0.10237288853E+04  0.16865357020E+04  0.13402917009E+04 0.  0.
        1    1    3    3  502    0 -0.12626454741E+01 -0.56318568053E+03  0.54834613999E+02  0.56585028050E+03  0.50400001928E-02 0. -1.
       -1    1    3    3    0  502  0.12626454741E+01  0.56318568053E+03  0.96889427128E+03  0.11206854215E+04  0.50400001928E-02 0.  1.
</event>
<event>
 5   0  0.3335747E-04  0.1299947E+04  0.7818609E-02  0.9029607E-01
       -1   -1    0    0    0  501  0.00000000000E+00  0.00000000000E+00  0.73754104237E+03  0.73754104239E+03  0.50400001928E-02 0.  1.
        1   -1    0    0  501    0  0.00000000000E+00  0.00000000000E+00 -0.57280268839E+03  0.57280268841E+03  0.50400001928E-02 0. -1.
    10030    2    1    2    0    0  0.00000000000E+00  0.00000000000E+00  0.16473835398E+03  0.13103437308E+04  0.12999469095E+04 0.  0.
        3    1    3    3  502    0 -0.79005688209E+02  0.63587844183E+03  0.19224644898E+03  0.66898579872E+03  0.10100000352E+00 0. -1.
       -3    1    3    3    0  502  0.79005688209E+02 -0.63587844183E+03 -0.27508095000E+02  0.64135793208E+03  0.10100000352E+00 0.  1.
</event>
<event>
 5   0  0.5787604E-04  0.1293249E+04  0.7818609E-02  0.9034936E-01
       -2   -1    0    0    0  501  0.00000000000E+00  0.00000000000E+00  0.18483636957E+03  0.18483636959E+03  0.25500000920E-02 0. -1.
        2   -1    0    0  501    0  0.00000000000E+00  0.00000000000E+00 -0.22621265536E+04  0.22621265536E+04  0.25500000920E-02 0.  1.
    10030    2    1    2    0    0  0.00000000000E+00  0.00000000000E+00 -0.20772901840E+04  0.24469629232E+04  0.12932490243E+04 0.  0.
        4    1    3    3  502    0 -0.17923493301E+03 -0.41007117338E+03 -0.19217497347E+04  0.19731718588E+04  0.12699999809E+01 0.  1.
       -4    1    3    3    0  502  0.17923493301E+03  0.41007117338E+03 -0.15554044929E+03  0.47379106441E+03  0.12699999809E+01 0. -1.
</event>
<event>
 5   0  0.6007125E-04  0.1300978E+04  0.7818609E-02  0.9028790E-01
       -2   -1    0    0    0  501  0.00000000000E+00  0.00000000000E+00  0.39108804014E+03  0.39108804014E+03  0.25500000920E-02 0.  1.
        2   -1    0    0  501    0  0.00000000000E+00  0.00000000000E+00 -0.10819458181E+04  0.10819458181E+04  0.25500000920E-02 0. -1.
    10030    2    1    2    0    0  0.00000000000E+00  0.00000000000E+00 -0.69085777795E+03  0.14730338582E+04  0.13009782005E+04 0.  0.
        5    1    3    3  502    0  0.52805323721E+03 -0.21111040082E+03  0.12093874341E+02  0.56883756421E+03  0.46999998093E+01 0.  1.
       -5    1    3    3    0  502 -0.52805323721E+03  0.21111040082E+03 -0.70295165229E+03  0.90419629402E+03  0.46999998093E+01 0. -1.
</event>
<event>
 5   0  0.5384960E-04  0.1301561E+04  0.7818609E-02  0.9028328E-01
        2   -1    0    0  501    0  0.00000000000E+00  0.00000000000E+00  0.10822647375E+04  0.10822647375E+04  0.25500000920E-02 0. -1.
       -2   -1    0    0    0  501  0.00000000000E+00  0.00000000000E+00 -0.39132335552E+03  0.39132335552E+03  0.25500000920E-02 0.  1.
    10030    2    1    2    0    0  0.00000000000E+00  0.00000000000E+00  0.69094138199E+03  0.14735880930E+04  0.13015613219E+04 0.  0.
        3    1    3    3  502    0  0.31518489988E+02  0.63245493151E+03  0.17555922502E+03  0.65712533606E+03  0.10100000352E+00 0.  1.
       -3    1    3    3    0  502 -0.31518489988E+02 -0.63245493151E+03  0.51538215697E+03  0.81646275697E+03  0.10100000352E+00 0. -1.
</event>
<event>
 5   0  0.3403833E-04  0.1298527E+04  0.7818609E-02  0.9030734E-01
        1   -1    0    0  501    0  0.00000000000E+00  0.00000000000E+00  0.59434973555E+03  0.59434973557E+03  0.50400001928E-02 0. -1.
       -1   -1    0    0    0  501  0.00000000000E+00  0.00000000000E+00 -0.70925117450E+03  0.70925117452E+03  0.50400001928E-02 0.  1.
    10030    2    1    2    0    0  0.00000000000E+00  0.00000000000E+00 -0.11490143895E+03  0.13036009101E+04  0.12985272396E+04 0.  0.
        1    1    3    3  502    0 -0.59218522087E+03 -0.20872567244E+03 -0.22330368940E+03  0.66641899723E+03  0.50400001928E-02 0.  1.
       -1    1    3    3    0  502  0.59218522087E+03  0.20872567244E+03  0.10840225045E+03  0.63718191286E+03  0.50400001928E-02 0. -1.
</event>
<event>
 5   0  0.2255875E-04  0.1314457E+04  0.7818609E-02  0.9018179E-01
        4   -1    0    0  501    0  0.00000000000E+00  0.00000000000E+00  0.65752904134E+03  0.65753026783E+03  0.12699999809E+01 0.  1.
       -4   -1    0    0    0  501  0.00000000000E+00  0.00000000000E+00 -0.65692565772E+03  0.65692688533E+03  0.12699999809E+01 0. -1.
    10030    2    1    2    0    0  0.00000000000E+00  0.00000000000E+00  0.60338362251E+00  0.13144571532E+04  0.13144570147E+04 0.  0.
        2    1    3    3  502    0  0.37903872819E+03 -0.48963929114E+02  0.53498061160E+03  0.65747401364E+03  0.25500000920E-02 0.  1.
       -2    1    3    3    0  502 -0.37903872819E+03  0.48963929114E+02 -0.53437722798E+03  0.65698313952E+03  0.25500000920E-02 0. -1.
</event>
<event>
 5   0  0.3263679E-04  0.1294811E+04  0.7818609E-02  0.9033690E-01
        1   -1    0    0  501    0  0.00000000000E+00  0.00000000000E+00  0.96312458786E+03  0.96312458788E+03  0.50400001928E-02 0.  1.
       -1   -1    0    0    0  501  0.00000000000E+00  0.00000000000E+00 -0.43518148317E+03  0.43518148320E+03  0.50400001928E-02 0. -1.
    10030    2    1    2    0    0  0.00000000000E+00  0.00000000000E+00  0.52794310469E+03  0.13983060711E+04  0.12948111625E+04 0.  0.
        2    1    3    3  502    0 -0.21693826144E+03 -0.77845749236E+02  0.91731774088E+03  0.94582979848E+03  0.25500000920E-02 0.  1.
       -2    1    3    3    0  502  0.21693826144E+03  0.77845749236E+02 -0.38937463619E+03  0.45247627260E+03  0.25500000920E-02 0. -1.
</event>
<event>
 5   0  0.6052864E-04  0.1300125E+04  0.7818609E-02  0.9029466E-01
       -2   -1    0    0    0  501  0.00000000000E+00  0.00000000000E+00  0.51142187219E+03  0.51142187220E+03  0.25500000920E-02 0.  1.
        2   -1    0    0  501    0  0.00000000000E+00  0.00000000000E+00 -0.82628727489E+03  0.82628727489E+03  0.25500000920E-02 0. -1.
    10030    2    1    2    0    0  0.00000000000E+00  0.00000000000E+00 -0.31486540270E+03  0.13377091471E+04  0.13001252018E+04 0.  0.
        2    1    3    3  502    0  0.55190057322E+02 -0.46302058861E+03 -0.62345801172E+03  0.77854601681E+03  0.25500000920E-02 0.  1.
       -2    1    3    3    0  502 -0.55190057322E+02  0.46302058861E+03  0.30859260902E+03  0.55916313028E+03  0.25500000920E-02 0. -1.
</event>
<event>
 5   0  0.5787604E-04  0.1300975E+04  0.7818609E-02  0.9028793E-01
        2   -1    0    0  501    0  0.00000000000E+00  0.00000000000E+00  0.27594071866E+03  0.27594071867E+03  0.25500000920E-02 0.  1.
       -2   -1    0    0    0  501  0.00000000000E+00  0.00000000000E+00 -0.15334229521E+04  0.15334229521E+04  0.25500000920E-02 0. -1.
    10030    2    1    2    0    0  0.00000000000E+00  0.00000000000E+00 -0.12574822335E+04  0.18093636708E+04  0.13009747598E+04 0.  0.
        4    1    3    3  502    0  0.24364219449E+03  0.34032692808E+03 -0.13212694505E+04  0.13859792605E+04  0.12699999809E+01 0. -1.
       -4    1    3    3    0  502 -0.24364219449E+03 -0.34032692808E+03  0.63787217015E+02  0.42338441027E+03  0.12699999809E+01 0.  1.
</event>
<event>
 5   0  0.6007125E-04  0.1302863E+04  0.7818609E-02  0.9027298E-01
       -2   -1    0    0    0  501  0.00000000000E+00  0.00000000000E+00  0.24332115874E+03  0.24332115875E+03  0.25500000920E-02 0.  1.
        2   -1    0    0  501    0  0.00000000000E+00  0.00000000000E+00 -0.17440443361E+04  0.17440443361E+04  0.25500000920E-02 0. -1.
    10030    2    1    2    0    0  0.00000000000E+00  0.00000000000E+00 -0.15007231774E+04  0.19873654949E+04  0.13028628305E+04 0.  0.
        5    1    3    3  502    0  0.34292282627E+03 -0.31691440059E+03 -0.14432115341E+04  0.15168758763E+04  0.46999998093E+01 0. -1.
       -5    1    3    3    0  502 -0.34292282627E+03  0.31691440059E+03 -0.57511643345E+02  0.47048961859E+03  0.46999998093E+01 0.  1.
</event>
<event>
 5   0  0.3274879E-04  0.1299238E+04  0.7818609E-02  0.9030170E-01
       -1   -1    0    0    0  501  0.00000000000E+00  0.00000000000E+00  0.32963496359E+03  0.32963496363E+03  0.50400001928E-02 0. -1.
        1   -1    0    0  501    0  0.00000000000E+00  0.00000000000E+00 -0.12802186385E+04  0.12802186385E+04  0.50400001928E-02 0.  1.
    10030    2    1    2    0    0  0.00000000000E+00  0.00000000000E+00 -0.95058367493E+03  0.16098536022E+04  0.12992379679E+04 0.  0.
        4    1    3    3  502    0 -0.40740794693E+03  0.64792154106E+02  0.14650169234E+03  0.43777119276E+03  0.12699999809E+01 0. -1.
       -4    1    3    3    0  502  0.40740794693E+03 -0.64792154106E+02 -0.10970853673E+04  0.11720824094E+04  0.12699999809E+01 0.  1.
</event>
<event>
 5   0  0.3274879E-04  0.1299680E+04  0.7818609E-02  0.9029819E-01
        1   -1    0    0  501    0  0.00000000000E+00  0.00000000000E+00  0.83015367719E+03  0.83015367721E+03  0.50400001928E-02 0.  1.
       -1   -1    0    0    0  501  0.00000000000E+00  0.00000000000E+00 -0.50869137378E+03  0.50869137380E+03  0.50400001928E-02 0. -1.
    10030    2    1    2    0    0  0.00000000000E+00  0.00000000000E+00  0.32146230341E+03  0.13388450510E+04  0.12996799830E+04 0.  0.
        4    1    3    3  502    0 -0.35510835792E+03  0.52000802859E+03 -0.46691267809E+01  0.62970922600E+03  0.12699999809E+01 0. -1.
       -4    1    3    3    0  502  0.35510835792E+03 -0.52000802859E+03  0.32613143019E+03  0.70913582501E+03  0.12699999809E+01 0.  1.
</event>
<event>
 5   0  0.6052864E-04  0.1294849E+04  0.7818609E-02  0.9033660E-01
       -2   -1    0    0    0  501  0.00000000000E+00  0.00000000000E+00  0.38753899912E+03  0.38753899913E+03  0.25500000920E-02 0.  1.
        2   -1    0    0  501    0  0.00000000000E+00  0.00000000000E+00 -0.10815901802E+04  0.10815901802E+04  0.25500000920E-02 0. -1.
    10030    2    1    2    0    0  0.00000000000E+00  0.00000000000E+00 -0.69405118103E+03  0.14691291793E+04  0.12948488342E+04 0.  0.
        2    1    3    3  502    0 -0.69253019983E+02 -0.39341265049E+03 -0.92510028471E+03  0.10076606726E+04  0.25500000920E-02 0. -1.
       -2    1    3    3    0  502  0.69253019983E+02  0.39341265049E+03  0.23104910368E+03  0.46146850668E+03  0.25500000920E-02 0.  1.
</event>
<event>
 5   0  0.5957913E-04  0.1298176E+04  0.7818609E-02  0.9031013E-01
        2   -1    0    0  501    0  0.00000000000E+00  0.00000000000E+00  0.69200535559E+03  0.69200535559E+03  0.25500000920E-02 0.  1.
       -2   -1    0    0    0  501  0.00000000000E+00  0.00000000000E+00 -0.60883213586E+03  0.60883213587E+03  0.25500000920E-02 0. -1.
    10030    2    1    2    0    0  0.00000000000E+00  0.00000000000E+00  0.83173219723E+02  0.13008374915E+04  0.12981757950E+04 0.  0.
        1    1    3    3  502    0  0.26557986938E+03  0.55510798130E+03 -0.16532540676E+03  0.63718916192E+03  0.50400001928E-02 0. -1.
       -1    1    3    3    0  502 -0.26557986938E+03 -0.55510798130E+03  0.24849862648E+03  0.66364832954E+03  0.50400001928E-02 0.  1.
</event>
<event>
 5   0  0.5957913E-04  0.1293434E+04  0.7818609E-02  0.9034788E-01
       -2   -1    0    0    0  501  0.00000000000E+00  0.00000000000E+00  0.59990047375E+03  0.59990047376E+03  0.25500000920E-02 0.  1.
        2   -1    0    0  501    0  0.00000000000E+00  0.00000000000E+00 -0.69718695640E+03  0.69718695641E+03  0.25500000920E-02 0. -1.
    10030    2    1    2    0    0  0.00000000000E+00  0.00000000000E+00 -0.97286482650E+02  0.12970874302E+04  0.12934338567E+04 0.  0.
        1    1    3    3  502    0 -0.64526562552E+03 -0.41143153496E+02 -0.62183189651E+02  0.64955926262E+03  0.50400001928E-02 0. -1.
       -1    1    3    3    0  502  0.64526562552E+03  0.41143153496E+02 -0.35103292998E+02  0.64752816754E+03  0.50400001928E-02 0.  1.
</event>
<event>
 5   0  0.3263679E-04  0.1292634E+04  0.7818609E-02  0.9035427E-01
       -1   -1    0    0    0  501  0.00000000000E+00  0.00000000000E+00  0.40141094817E+03  0.40141094820E+03  0.50400001928E-02 0.  1.
        1   -1    0    0  501    0  0.00000000000E+00  0.00000000000E+00 -0.10406438846E+04  0.10406438847E+04  0.50400001928E-02 0. -1.
    10030    2    1    2    0    0  0.00000000000E+00  0.00000000000E+00 -0.63923293648E+03  0.14420548329E+04  0.12926342847E+04 0.  0.
        2    1    3    3  502    0 -0.47028486572E+03  0.84662094217E+02 -0.80511173092E+03  0.93623737609E+03  0.25500000920E-02 0. -1.
       -2    1    3    3    0  502  0.47028486572E+03 -0.84662094217E+02  0.16587879444E+03  0.50581745677E+03  0.25500000920E-02 0.  1.
</event>
<event>
 5   0  0.6007125E-04  0.1285956E+04  0.7818609E-02  0.9040777E-01
       -2   -1    0    0    0  501  0.00000000000E+00  0.00000000000E+00  0.49631053087E+03  0.49631053088E+03  0.25500000920E-02 0.  1.
        2   -1    0    0  501    0  0.00000000000E+00  0.00000000000E+00 -0.83298849981E+03  0.83298849982E+03  0.25500000920E-02 0. -1.
    10030    2    1    2    0    0  0.00000000000E+00  0.00000000000E+00 -0.33667796894E+03  0.13292990307E+04  0.12859563983E+04 0.  0.
        5    1    3    3  502    0 -0.21219609805E+03 -0.20087185649E+03  0.42369693262E+03  0.51470172670E+03  0.46999998093E+01 0.  1.
       -5    1    3    3    0  502  0.21219609805E+03  0.20087185649E+03 -0.76037490156E+03  0.81459730400E+03  0.46999998093E+01 0. -1.
</event>
<event>
 5   0  0.3274879E-04  0.1304547E+04  0.7818609E-02  0.9025967E-01
        1   -1    0    0  501    0  0.00000000000E+00  0.00000000000E+00  0.66432146091E+03  0.66432146093E+03  0.50400001928E-02 0.  1.
       -1   -1    0    0    0  501  0.00000000000E+00  0.00000000000E+00 -0.64044448431E+03  0.64044448433E+03  0.50400001928E-02 0. -1.
    10030    2    1    2    0    0  0.00000000000E+00  0.00000000000E+00  0.23876976597E+02  0.13047659453E+04  0.13045474548E+04 0.  0.
        4    1    3    3  502    0 -0.39718971274E+03  0.46587303018E+02  0.52732020022E+03  0.66181436308E+03  0.12699999809E+01 0.  1.
       -4    1    3    3    0  502  0.39718971274E+03 -0.46587303018E+02 -0.50344322363E+03  0.64295158218E+03  0.12699999809E+01 0. -1.
</event>
<event>
 5   0  0.3403833E-04  0.1298608E+04  0.7818609E-02  0.9030670E-01
       -1   -1    0    0    0  501  0.00000000000E+00  0.00000000000E+00  0.35811059063E+03  0.35811059066E+03  0.50400001928E-02 0. -1.
        1   -1    0    0  501    0  0.00000000000E+00  0.00000000000E+00 -0.11772780474E+04  0.11772780474E+04  0.50400001928E-02 0.  1.
    10030    2    1    2    0    0  0.00000000000E+00  0.00000000000E+00 -0.81916745681E+03  0.15353886381E+04  0.12986080809E+04 0.  0.
        1    1    3    3  502    0 -0.61316549321E+03  0.20501303911E+03 -0.33870806269E+03  0.72988041488E+03  0.50400001928E-02 0.  1.
       -1    1    3    3    0  502  0.61316549321E+03 -0.20501303911E+03 -0.48045939412E+03  0.80550822323E+03  0.50400001928E-02 0. -1.
</event>
<event>
 5   0  0.3403833E-04  0.1317580E+04  0.7818609E-02  0.9015739E-01
        1   -1    0    0  501    0  0.00000000000E+00  0.00000000000E+00  0.12635560605E+04  0.12635560605E+04  0.50400001928E-02 0. -1.
       -1   -1    0    0    0  501  0.00000000000E+00  0.00000000000E+00 -0.34347861062E+03  0.34347861066E+03  0.50400001928E-02 0.  1.
    10030    2    1    2    0    0  0.00000000000E+00  0.00000000000E+00  0.92007744987E+03  0.16070346712E+04  0.13175803279E+04 0.  0.
        1    1    3    3  502    0  0.40971077731E+03 -0.49156523127E+03  0.26910743130E+03  0.69420321754E+03  0.50400001928E-02 0.  1.
       -1    1    3    3    0  502 -0.40971077731E+03  0.49156523127E+03  0.65097001857E+03  0.91283145363E+03  0.50400001928E-02 0. -1.
</event>
<event>
 5   0  0.2255875E-04  0.1296986E+04  0.7818609E-02  0.9031959E-01
        4   -1    0    0  501    0  0.00000000000E+00  0.00000000000E+00  0.67320678688E+03  0.67320798480E+03  0.12699999809E+01 0. -1.
       -4   -1    0    0    0  501  0.00000000000E+00  0.00000000000E+00 -0.62468380551E+03  0.62468509648E+03  0.12699999809E+01 0.  1.
    10030    2    1    2    0    0  0.00000000000E+00  0.00000000000E+00  0.48522981363E+02  0.12978930813E+04  0.12969857249E+04 0.  0.
        5    1    3    3  502    0  0.20075030365E+02  0.59162832148E+03  0.28919909284E+03  0.65885148776E+03  0.46999998093E+01 0. -1.
       -5    1    3    3    0  502 -0.20075030365E+02 -0.59162832148E+03 -0.24067611148E+03  0.63904159353E+03  0.46999998093E+01 0.  1.
</event>
<event>
 5   0  0.2255875E-04  0.1306709E+04  0.7818609E-02  0.9024261E-01
        3   -1    0    0  501    0  0.00000000000E+00  0.00000000000E+00  0.53509645302E+03  0.53509646255E+03  0.10100000352E+00 0. -1.
       -3   -1    0    0    0  501  0.00000000000E+00  0.00000000000E+00 -0.79774839398E+03  0.79774840038E+03  0.10100000352E+00 0.  1.
    10030    2    1    2    0    0  0.00000000000E+00  0.00000000000E+00 -0.26265194096E+03  0.13328448629E+04  0.13067093734E+04 0.  0.
        5    1    3    3  502    0 -0.37384771123E+03  0.15613525145E+02  0.41496466520E+03  0.55876977077E+03  0.46999998093E+01 0. -1.
       -5    1    3    3    0  502  0.37384771123E+03 -0.15613525145E+02 -0.67761660617E+03  0.77407509216E+03  0.46999998093E+01 0.  1.
</event>
<event>
 5   0  0.3403833E-04  0.1297339E+04  0.7818609E-02  0.9031678E-01
       -1   -1    0    0    0  501  0.00000000000E+00  0.00000000000E+00  0.53502310249E+03  0.53502310251E+03  0.50400001928E-02 0.  1.
        1   -1    0    0  501    0  0.00000000000E+00  0.00000000000E+00 -0.78645591833E+03  0.78645591835E+03  0.50400001928E-02 0. -1.
    10030    2    1    2    0    0  0.00000000000E+00  0.00000000000E+00 -0.25143281584E+03  0.13214790209E+04  0.12973389463E+04 0.  0.
        1    1    3    3  502    0  0.58440919831E+03  0.24265708717E+03 -0.27104391917E+03  0.68839042641E+03  0.50400001928E-02 0. -1.
       -1    1    3    3    0  502 -0.58440919831E+03 -0.24265708717E+03  0.19611103323E+02  0.63308859445E+03  0.50400001928E-02 0.  1.
</event>
<event>
 5   0  0.5384960E-04  0.1318318E+04  0.7818609E-02  0.9015164E-01
       -2   -1    0    0    0  501  0.00000000000E+00  0.00000000000E+00  0.20752293325E+03  0.20752293327E+03  0.25500000920E-02 0. -1.
        2   -1    0    0  501    0  0.00000000000E+00  0.00000000000E+00 -0.20936989236E+04  0.20936989236E+04  0.25500000920E-02 0.  1.
    10030    2    1    2    0    0  0.00000000000E+00  0.00000000000E+00 -0.18861759904E+04  0.23012218569E+04  0.13183179313E+04 0.  0.
        3    1    3    3  502    0 -0.32880055063E+03  0.36063410716E+03 -0.16965129802E+03  0.51667043119E+03  0.10100000352E+00 0. -1.
       -3    1    3    3    0  502  0.32880055063E+03 -0.36063410716E+03 -0.17165246923E+04  0.17845514257E+04  0.10100000352E+00 0.  1.
</event>
<event>
 5   0  0.3403833E-04  0.1300269E+04  0.7818609E-02  0.9029352E-01
       -1   -1    0    0    0  501  0.00000000000E+00  0.00000000000E+00  0.14939154763E+04  0.14939154763E+04  0.50400001928E-02 0. -1.
        1   -1    0    0  501    0  0.00000000000E+00  0.00000000000E+00 -0.28293083463E+03  0.28293083467E+03  0.50400001928E-02 0.  1.
    10030    2    1    2    0    0  0.00000000000E+00  0.00000000000E+00  0.12109846417E+04  0.17768463110E+04  0.13002688224E+04 0.  0.
        1    1    3    3  502    0 -0.17618309372E+03  0.57375484590E+03  0.26402673935E+03  0.65570208542E+03  0.50400001928E-02 0.  1.
       -1    1    3    3    0  502  0.17618309372E+03 -0.57375484590E+03  0.94695790233E+03  0.11211442256E+04  0.50400001928E-02 0. -1.
</event>
<event>
 5   0  0.5787604E-04  0.1295321E+04  0.7818609E-02  0.9033284E-01
       -2   -1    0    0    0  501  0.00000000000E+00  0.00000000000E+00  0.29381703732E+03  0.29381703733E+03  0.25500000920E-02 0. -1.
        2   -1    0    0  501    0  0.00000000000E+00  0.00000000000E+00 -0.14276372728E+04  0.14276372728E+04  0.25500000920E-02 0.  1.
    10030    2    1    2    0    0  0.00000000000E+00  0.00000000000E+00 -0.11338202355E+04  0.17214543102E+04  0.12953210473E+04 0.  0.
        4    1    3    3  502    0  0.55296610099E+03 -0.25906544229E+03 -0.85372373873E+03  0.10496343398E+04  0.12699999809E+01 0.  1.
       -4    1    3    3    0  502 -0.55296610099E+03  0.25906544229E+03 -0.28009649677E+03  0.67181997040E+03  0.12699999809E+01 0. -1.
</event>
<event>
 5   0  0.5384960E-04  0.1338181E+04  0.7818609E-02  0.8999823E-01
       -2   -1    0    0    0  501  0.00000000000E+00  0.00000000000E+00  0.28652109268E+03  0.28652109269E+03  0.25500000920E-02 0. -1.
        2   -1    0    0  501    0  0.00000000000E+00  0.00000000000E+00 -0.15624760148E+04  0.15624760148E+04  0.25500000920E-02 0.  1.
    10030    2    1    2    0    0  0.00000000000E+00  0.00000000000E+00 -0.12759549221E+04  0.18489971075E+04  0.13381813555E+04 0.  0.
        3    1    3    3  502    0  0.55013849505E+03 -0.29632166185E+03 -0.96850542981E+03  0.11525891153E+04  0.10100000352E+00 0.  1.
       -3    1    3    3    0  502 -0.55013849505E+03  0.29632166185E+03 -0.30744949231E+03  0.69640799216E+03  0.10100000352E+00 0. -1.
</event>
<event>
 5   0  0.6052864E-04  0.1302803E+04  0.7818609E-02  0.9027345E-01
        2   -1    0    0  501    0  0.00000000000E+00  0.00000000000E+00  0.19801255469E+04  0.19801255469E+04  0.25500000920E-02 0.  1.
       -2   -1    0    0    0  501  0.00000000000E+00  0.00000000000E+00 -0.21429150603E+03  0.21429150605E+03  0.25500000920E-02 0. -1.
    10030    2    1    2    0    0  0.00000000000E+00  0.00000000000E+00  0.17658340409E+04  0.21944170530E+04  0.13028032631E+04 0.  0.
        2    1    3    3  502    0  0.19094109444E+03  0.62093499561E+03  0.80204365887E+03  0.10321302249E+04  0.25500000920E-02 0.  1.
       -2    1    3    3    0  502 -0.19094109444E+03 -0.62093499561E+03  0.96379038201E+03  0.11622868281E+04  0.25500000920E-02 0. -1.
</event>
<event>
 5   0  0.3337520E-04  0.1303312E+04  0.7818609E-02  0.9026943E-01
        1   -1    0    0  501    0  0.00000000000E+00  0.00000000000E+00  0.11357445764E+04  0.11357445764E+04  0.50400001928E-02 0.  1.
       -1   -1    0    0    0  501  0.00000000000E+00  0.00000000000E+00 -0.37390075802E+03  0.37390075806E+03  0.50400001928E-02 0. -1.
    10030    2    1    2    0    0  0.00000000000E+00  0.00000000000E+00  0.76184381834E+03  0.15096453344E+04  0.13033123310E+04 0.  0.
        5    1    3    3  502    0  0.14978089525E+03  0.59630914872E+03  0.13083664208E+03  0.62861692177E+03  0.46999998093E+01 0.  1.
       -5    1    3    3    0  502 -0.14978089525E+03 -0.59630914872E+03  0.63100717626E+03  0.88102841266E+03  0.46999998093E+01 0. -1.
</event>
<event>
 5   0  0.3403833E-04  0.1294730E+04  0.7818609E-02  0.9033755E-01
       -1   -1    0    0    0  501  0.00000000000E+00  0.00000000000E+00  0.34136570310E+03  0.34136570313E+03  0.50400001928E-02 0.  1.
        1   -1    0    0  501    0  0.00000000000E+00  0.00000000000E+00 -0.12276618679E+04  0.12276618679E+04  0.50400001928E-02 0. -1.
    10030    2    1    2    0    0  0.00000000000E+00  0.00000000000E+00 -0.88629616482E+03  0.15690275711E+04  0.12947303298E+04 0.  0.
        1    1    3    3  502    0  0.32373563345E+03 -0.27871054801E+01 -0.11225114322E+04  0.11682655707E+04  0.50400001928E-02 0. -1.
       -1    1    3    3    0  502 -0.32373563345E+03  0.27871054801E+01  0.23621526739E+03  0.40076200032E+03  0.50400001928E-02 0.  1.
</event>
<event>
 5   0  0.5787604E-04  0.1296743E+04  0.7818609E-02  0.9032152E-01
       -2   -1    0    0    0  501  0.00000000000E+00  0.00000000000E+00  0.79684480846E+03  0.79684480846E+03  0.25500000920E-02 0. -1.
        2   -1    0    0  501    0  0.00000000000E+00  0.00000000000E+00 -0.52756269958E+03  0.52756269959E+03  0.25500000920E-02 0.  1.
    10030    2    1    2    0    0  0.00000000000E+00  0.00000000000E+00  0.26928210887E+03  0.13244075080E+04  0.12967429943E+04 0.  0.
        4    1    3    3  502    0  0.19768140240E+03 -0.43142751746E+03 -0.31657164557E+03  0.57046197012E+03  0.12699999809E+01 0.  1.
       -4    1    3    3    0  502 -0.19768140240E+03  0.43142751746E+03  0.58585375444E+03  0.75394553793E+03  0.12699999809E+01 0. -1.
</event>
<event>
 5   0  0.5787604E-04  0.1249721E+04  0.7818609E-02  0.9070415E-01
       -2   -1    0    0    0  501  0.00000000000E+00  0.00000000000E+00  0.17806142127E+03  0.17806142129E+03  0.25500000920E-02 0.  1.
        2   -1    0    0  501    0  0.00000000000E+00  0.00000000000E+00 -0.21927869631E+04  0.21927869631E+04  0.25500000920E-02 0. -1.
    10030    2    1    2    0    0  0.00000000000E+00  0.00000000000E+00 -0.20147255418E+04  0.23708483844E+04  0.12497211901E+04 0.  0.
        4    1    3    3  502    0  0.29768553812E+03 -0.22356681588E+03 -0.55308014617E+02  0.37637665995E+03  0.12699999809E+01 0.  1.
       -4    1    3    3    0  502 -0.29768553812E+03  0.22356681588E+03 -0.19594175272E+04  0.19944717244E+04  0.12699999809E+01 0. -1.
</event>
<event>
 5   0  0.6007125E-04  0.1322840E+04  0.7818609E-02  0.9011647E-01
        2   -1    0    0  501    0  0.00000000000E+00  0.00000000000E+00  0.69095953339E+03  0.69095953340E+03  0.25500000920E-02 0. -1.
       -2   -1    0    0    0  501  0.00000000000E+00  0.00000000000E+00 -0.63314296576E+03  0.63314296576E+03  0.25500000920E-02 0.  1.
    10030    2    1    2    0    0  0.00000000000E+00  0.00000000000E+00  0.57816567634E+02  0.13241024992E+04  0.13228396247E+04 0.  0.
        5    1    3    3  502    0  0.65678391797E+03  0.52977149439E+02 -0.28438513045E+02  0.65954721763E+03  0.46999998093E+01 0.  1.
       -5    1    3    3    0  502 -0.65678391797E+03 -0.52977149439E+02  0.86255080680E+02  0.66455528153E+03  0.46999998093E+01 0. -1.
</event>
<event>
 5   0  0.5384960E-04  0.1303325E+04  0.7818609E-02  0.9026932E-01
       -2   -1    0    0    0  501  0.00000000000E+00  0.00000000000E+00  0.32607436628E+03  0.32607436629E+03  0.25500000920E-02 0.  1.
        2   -1    0    0  501    0  0.00000000000E+00  0.00000000000E+00 -0.13023541844E+04  0.13023541844E+04  0.25500000920E-02 0. -1.
    10030    2    1    2    0    0  0.00000000000E+00  0.00000000000E+00 -0.97627981809E+03  0.16284285507E+04  0.13033254626E+04 0.  0.
        3    1    3    3  502    0 -0.10984661120E+03 -0.39744999297E+03  0.14234096726E+03  0.43622670261E+03  0.10100000352E+00 0.  1.
       -3    1    3    3    0  502  0.10984661120E+03  0.39744999297E+03 -0.11186207853E+04  0.11922018481E+04  0.10100000352E+00 0. -1.
</event>
<event>
 5   0  0.5787604E-04  0.1293605E+04  0.7818609E-02  0.9034652E-01
       -2   -1    0    0    0  501  0.00000000000E+00  0.00000000000E+00  0.19535358297E+03  0.19535358299E+03  0.25500000920E-02 0.  1.
        2   -1    0    0  501    0  0.00000000000E+00  0.00000000000E+00 -0.21415179315E+04  0.21415179315E+04  0.25500000920E-02 0. -1.
    10030    2    1    2    0    0  0.00000000000E+00  0.00000000000E+00 -0.19461643486E+04  0.23368715145E+04  0.12936045778E+04 0.  0.
        4    1    3    3  502    0  0.18274570113E+03  0.59448766207E+03 -0.65226009554E+03  0.90125269307E+03  0.12699999809E+01 0.  1.
       -4    1    3    3    0  502 -0.18274570113E+03 -0.59448766207E+03 -0.12939042530E+04  0.14356188215E+04  0.12699999809E+01 0. -1.
</event>
<event>
 5   0  0.3337520E-04  0.1300250E+04  0.7818609E-02  0.9029367E-01
        1   -1    0    0  501    0  0.00000000000E+00  0.00000000000E+00  0.11856728293E+04  0.11856728293E+04  0.50400001928E-02 0. -1.
       -1   -1    0    0    0  501  0.00000000000E+00  0.00000000000E+00 -0.35647482023E+03  0.35647482027E+03  0.50400001928E-02 0.  1.
    10030    2    1    2    0    0  0.00000000000E+00  0.00000000000E+00  0.82919800910E+03  0.15421476496E+04  0.13002499894E+04 0.  0.
        5    1    3    3  502    0  0.12770318812E+03 -0.19988860675E+03 -0.30329960990E+03  0.38506662116E+03  0.46999998093E+01 0.  1.
       -5    1    3    3    0  502 -0.12770318812E+03  0.19988860675E+03  0.11324976190E+04  0.11570810285E+04  0.46999998093E+01 0. -1.
</event>
<event>
 5   0  0.3263679E-04  0.1301860E+04  0.7818609E-02  0.9028092E-01
        1   -1    0    0  501    0  0.00000000000E+00  0.00000000000E+00  0.17535207514E+04  0.17535207514E+04  0.50400001928E-02 0. -1.
       -1   -1    0    0    0  501  0.00000000000E+00  0.00000000000E+00 -0.24163363747E+03  0.24163363753E+03  0.50400001928E-02 0.  1.
    10030    2    1    2    0    0  0.00000000000E+00  0.00000000000E+00  0.15118871139E+04  0.19951543889E+04  0.13018595894E+04 0.  0.
        2    1    3    3  502    0  0.30139263935E+03  0.16384332498E+03  0.16037418654E+04  0.16400213806E+04  0.25500000920E-02 0. -1.
       -2    1    3    3    0  502 -0.30139263935E+03 -0.16384332498E+03 -0.91854751468E+02  0.35513300827E+03  0.25500000920E-02 0.  1.
</event>
<event>
 5   0  0.2255875E-04  0.1300274E+04  0.7818609E-02  0.9029348E-01
       -3   -1    0    0    0  501  0.00000000000E+00  0.00000000000E+00  0.59947045947E+03  0.59947046798E+03  0.10100000352E+00 0. -1.
        3   -1    0    0  501    0  0.00000000000E+00  0.00000000000E+00 -0.70508561098E+03  0.70508561822E+03  0.10100000352E+00 0.  1.
    10030    2    1    2    0    0  0.00000000000E+00  0.00000000000E+00 -0.10561515151E+03  0.13045560862E+04  0.13002738257E+04 0.  0.
        3    1    3    3  502    0 -0.13230038112E+03 -0.84834589223E+02  0.58012478664E+03  0.60103666831E+03  0.10100000352E+00 0. -1.
       -3    1    3    3    0  502  0.13230038112E+03  0.84834589223E+02 -0.68573993815E+03  0.70351941789E+03  0.10100000352E+00 0.  1.
</event>
<event>
 5   0  0.5787604E-04  0.1300932E+04  0.7818609E-02  0.9028826E-01
       -2   -1    0    0    0  501  0.00000000000E+00  0.00000000000E+00  0.52461484873E+03  0.52461484874E+03  0.25500000920E-02 0.  1.
        2   -1    0    0  501    0  0.00000000000E+00  0.00000000000E+00 -0.80650782282E+03  0.80650782282E+03  0.25500000920E-02 0. -1.
    10030    2    1    2    0    0  0.00000000000E+00  0.00000000000E+00 -0.28189297408E+03  0.13311226716E+04  0.13009319421E+04 0.  0.
        4    1    3    3  502    0  0.54346260688E+03 -0.85976377466E+02 -0.49592828062E+03  0.74073613047E+03  0.12699999809E+01 0. -1.
       -4    1    3    3    0  502 -0.54346260688E+03  0.85976377466E+02  0.21403530654E+03  0.59038654109E+03  0.12699999809E+01 0.  1.
</event>
<event>
 5   0  0.5384960E-04  0.1296381E+04  0.7818609E-02  0.9032440E-01
        2   -1    0    0  501    0  0.00000000000E+00  0.00000000000E+00  0.18801851124E+04  0.18801851124E+04  0.25500000920E-02 0. -1.
       -2   -1    0    0    0  501  0.00000000000E+00  0.00000000000E+00 -0.22346252073E+03  0.22346252075E+03  0.25500000920E-02 0.  1.
    10030    2    1    2    0    0  0.00000000000E+00  0.00000000000E+00  0.16567225916E+04  0.21036476331E+04  0.12963809697E+04 0.  0.
        3    1    3    3  502    0 -0.21107712375E+03 -0.60738994423E+03  0.96093561657E+03  0.11562324013E+04  0.10100000352E+00 0.  1.
       -3    1    3    3    0  502  0.21107712375E+03  0.60738994423E+03  0.69578697507E+03  0.94741523178E+03  0.10100000352E+00 0. -1.
</event>
<event>
 5   0  0.3337520E-04  0.1298394E+04  0.7818609E-02  0.9030840E-01
        1   -1    0    0  501    0  0.00000000000E+00  0.00000000000E+00  0.14262074360E+04  0.14262074360E+04  0.50400001928E-02 0.  1.
       -1   -1    0    0    0  501  0.00000000000E+00  0.00000000000E+00 -0.29550854193E+03  0.29550854197E+03  0.50400001928E-02 0. -1.
    10030    2    1    2    0    0  0.00000000000E+00  0.00000000000E+00  0.11306988941E+04  0.17217159780E+04  0.12983935920E+04 0.  0.
        5    1    3    3  502    0  0.53954024761E+03  0.29501317966E+03  0.84127297760E+03  0.10420646658E+04  0.46999998093E+01 0.  1.
       -5    1    3    3    0  502 -0.53954024761E+03 -0.29501317966E+03  0.28942591646E+03  0.67965131213E+03  0.46999998093E+01 0. -1.
</event>
<event>
 5   0  0.6052864E-04  0.1300688E+04  0.7818609E-02  0.9029020E-01
       -2   -1    0    0    0  501  0.00000000000E+00  0.00000000000E+00  0.32807476237E+03  0.32807476238E+03  0.25500000920E-02 0.  1.
        2   -1    0    0  501    0  0.00000000000E+00  0.00000000000E+00 -0.12891802645E+04  0.12891802645E+04  0.25500000920E-02 0. -1.
    10030    2    1    2    0    0  0.00000000000E+00  0.00000000000E+00 -0.96110550215E+03  0.16172550269E+04  0.13006882931E+04 0.  0.
        2    1    3    3  502    0  0.42976577388E+03 -0.47489330382E+03 -0.62081417528E+03  0.89198234884E+03  0.25500000920E-02 0. -1.
       -2    1    3    3    0  502 -0.42976577388E+03  0.47489330382E+03 -0.34029132688E+03  0.72527267807E+03  0.25500000920E-02 0.  1.
</event>
<event>
 5   0  0.5787604E-04  0.1296867E+04  0.7818609E-02  0.9032053E-01
       -2   -1    0    0    0  501  0.00000000000E+00  0.00000000000E+00  0.25466891319E+03  0.25466891320E+03  0.25500000920E-02 0.  1.
        2   -1    0    0  501    0  0.00000000000E+00  0.00000000000E+00 -0.16510297946E+04  0.16510297946E+04  0.25500000920E-02 0. -1.
    10030    2    1    2    0    0  0.00000000000E+00  0.00000000000E+00 -0.13963608814E+04  0.19056987078E+04  0.12968669376E+04 0.  0.
        4    1    3    3  502    0 -0.20218944034E+02 -0.62948210043E+03 -0.47144535561E+03  0.78671396117E+03  0.12699999809E+01 0.  1.
       -4    1    3    3    0  502  0.20218944034E+02  0.62948210043E+03 -0.92491552580E+03  0.11189847466E+04  0.12699999809E+01 0. -1.
</event>
<event>
 5   0  0.3403833E-04  0.1299846E+04  0.7818609E-02  0.9029688E-01
        1   -1    0    0  501    0  0.00000000000E+00  0.00000000000E+00  0.66401300117E+03  0.66401300119E+03  0.50400001928E-02 0. -1.
       -1   -1    0    0    0  501  0.00000000000E+00  0.00000000000E+00 -0.63613169756E+03  0.63613169758E+03  0.50400001928E-02 0.  1.
    10030    2    1    2    0    0  0.00000000000E+00  0.00000000000E+00  0.27881303613E+02  0.13001446988E+04  0.12998457103E+04 0.  0.
        1    1    3    3  502    0  0.35552047014E+03  0.25300270700E+03  0.49570956062E+03  0.66040377267E+03  0.50400001928E-02 0. -1.
       -1    1    3    3    0  502 -0.35552047014E+03 -0.25300270700E+03 -0.46782825701E+03  0.63974092610E+03  0.50400001928E-02 0.  1.
</event>
<event>
 5   0  0.6052864E-04  0.1298024E+04  0.7818609E-02  0.9031134E-01
        2   -1    0    0  501    0  0.00000000000E+00  0.00000000000E+00  0.79070903932E+03  0.79070903933E+03  0.25500000920E-02 0.  1.
       -2   -1    0    0    0  501  0.00000000000E+00  0.00000000000E+00 -0.53270726687E+03  0.53270726687E+03  0.25500000920E-02 0. -1.
    10030    2    1    2    0    0  0.00000000000E+00  0.00000000000E+00  0.25800177246E+03  0.13234163062E+04  0.12980238075E+04 0.  0.
        2    1    3    3  502    0 -0.25126233586E+03 -0.53524879497E+01  0.73908359942E+03  0.78064459102E+03  0.25500000920E-02 0.  1.
       -2    1    3    3    0  502  0.25126233586E+03  0.53524879497E+01 -0.48108182697E+03  0.54277171518E+03  0.25500000920E-02 0. -1.
</event>
<event>
 5   0  0.3337520E-04  0.1305042E+04  0.7818609E-02  0.9025576E-01
        1   -1    0    0  501    0  0.00000000000E+00  0.00000000000E+00  0.29383089733E+04  0.29383089733E+04  0.50400001928E-02 0. -1.
       -1   -1    0    0    0  501  0.00000000000E+00  0.00000000000E+00 -0.14490782610E+03  0.14490782619E+03  0.50400001928E-02 0.  1.
    10030    2    1    2    0    0  0.00000000000E+00  0.00000000000E+00  0.27934011472E+04  0.30832167995E+04  0.13050424757E+04 0.  0.
        5    1    3    3  502    0  0.60460731786E+03 -0.24042592281E+03  0.12807856490E+04  0.14365892251E+04  0.46999998093E+01 0.  1.
       -5    1    3    3    0  502 -0.60460731786E+03  0.24042592281E+03  0.15126154983E+04  0.16466275744E+04  0.46999998093E+01 0. -1.
</event>
<event>
 5   0  0.2255875E-04  0.1294631E+04  0.7818609E-02  0.9033834E-01
       -3   -1    0    0    0  501  0.00000000000E+00  0.00000000000E+00  0.15654026743E+04  0.15654026776E+04  0.10100000352E+00 0. -1.
        3   -1    0    0  501    0  0.00000000000E+00  0.00000000000E+00 -0.26767372455E+03  0.26767374361E+03  0.10100000352E+00 0.  1.
    10030    2    1    2    0    0  0.00000000000E+00  0.00000000000E+00  0.12977289497E+04  0.18330764212E+04  0.12946307345E+04 0.  0.
        1    1    3    3  502    0 -0.63628837248E+02 -0.54597598656E+03  0.11329281447E+04  0.12592317452E+04  0.50400001928E-02 0. -1.
       -1    1    3    3    0  502  0.63628837248E+02  0.54597598656E+03  0.16480080501E+03  0.57384467601E+03  0.50400001928E-02 0.  1.
</event>
<event>
 5   0  0.3403833E-04  0.1295648E+04  0.7818609E-02  0.9033023E-01
        1   -1    0    0  501    0  0.00000000000E+00  0.00000000000E+00  0.63246155934E+03  0.63246155936E+03  0.50400001928E-02 0. -1.
       -1   -1    0    0    0  501  0.00000000000E+00  0.00000000000E+00 -0.66356000131E+03  0.66356000133E+03  0.50400001928E-02 0.  1.
    10030    2    1    2    0    0  0.00000000000E+00  0.00000000000E+00 -0.31098441977E+02  0.12960215607E+04  0.12956483986E+04 0.  0.
        1    1    3    3  502    0 -0.21909987992E+03 -0.46839017598E+03  0.37479653541E+03  0.63864431205E+03  0.50400001928E-02 0.  1.
       -1    1    3    3    0  502  0.21909987992E+03  0.46839017598E+03 -0.40589497739E+03  0.65737724864E+03  0.50400001928E-02 0. -1.
</event>
<event>
 5   0  0.6007125E-04  0.1299713E+04  0.7818609E-02  0.9029793E-01
       -2   -1    0    0    0  501  0.00000000000E+00  0.00000000000E+00  0.74882613996E+03  0.74882613996E+03  0.25500000920E-02 0.  1.
        2   -1    0    0  501    0  0.00000000000E+00  0.00000000000E+00 -0.56396737804E+03  0.56396737805E+03  0.25500000920E-02 0. -1.
    10030    2    1    2    0    0  0.00000000000E+00  0.00000000000E+00  0.18485876191E+03  0.13127935180E+04  0.12997130680E+04 0.  0.
        5    1    3    3  502    0  0.21081531882E+03 -0.44462005453E+03 -0.33629652984E+03  0.59602645706E+03  0.46999998093E+01 0. -1.
       -5    1    3    3    0  502 -0.21081531882E+03  0.44462005453E+03  0.52115529175E+03  0.71676706095E+03  0.46999998093E+01 0.  1.
</event>
<event>
 5   0  0.3337520E-04  0.1297853E+04  0.7818609E-02  0.9031269E-01
       -1   -1    0    0    0  501  0.00000000000E+00  0.00000000000E+00  0.81274506116E+03  0.81274506117E+03  0.50400001928E-02 0. -1.
        1   -1    0    0  501    0  0.00000000000E+00  0.00000000000E+00 -0.51812766733E+03  0.51812766736E+03  0.50400001928E-02 0.  1.
    10030    2    1    2    0    0  0.00000000000E+00  0.00000000000E+00  0.29461739382E+03  0.13308727285E+04  0.12978531546E+04 0.  0.
        5    1    3    3  502    0 -0.72874092702E+02 -0.49755138550E+02  0.80654681097E+03  0.81137294476E+03  0.46999998093E+01 0. -1.
       -5    1    3    3    0  502  0.72874092702E+02  0.49755138550E+02 -0.51192941715E+03  0.51949978377E+03  0.46999998093E+01 0.  1.
</event>
<event>
 5   0  0.5384960E-04  0.1283021E+04  0.7818609E-02  0.9043139E-01
        2   -1    0    0  501    0  0.00000000000E+00  0.00000000000E+00  0.13030167092E+04  0.13030167092E+04  0.25500000920E-02 0.  1.
       -2   -1    0    0    0  501  0.00000000000E+00  0.00000000000E+00 -0.31583311096E+03  0.31583311097E+03  0.25500000920E-02 0. -1.
    10030    2    1    2    0    0  0.00000000000E+00  0.00000000000E+00  0.98718359824E+03  0.16188498202E+04  0.12830211548E+04 0.  0.
        3    1    3    3  502    0  0.76326519618E+02 -0.57488492699E+03  0.83963624653E+03  0.10204447332E+04  0.10100000352E+00 0.  1.
       -3    1    3    3    0  502 -0.76326519618E+02  0.57488492699E+03  0.14754735171E+03  0.59840508694E+03  0.10100000352E+00 0. -1.
</event>
<event>
 5   0  0.3403833E-04  0.1297415E+04  0.7818609E-02  0.9031618E-01
       -1   -1    0    0    0  501  0.00000000000E+00  0.00000000000E+00  0.26324027796E+03  0.26324027801E+03  0.50400001928E-02 0. -1.
        1   -1    0    0  501    0  0.00000000000E+00  0.00000000000E+00 -0.15986202606E+04  0.15986202606E+04  0.50400001928E-02 0.  1.
    10030    2    1    2    0    0  0.00000000000E+00  0.00000000000E+00 -0.13353799827E+04  0.18618605386E+04  0.12974147245E+04 0.  0.
        1    1    3    3  502    0  0.51540784074E+03 -0.38295096370E+03 -0.53519352913E+03  0.83589999195E+03  0.50400001928E-02 0. -1.
       -1    1    3    3    0  502 -0.51540784074E+03  0.38295096370E+03 -0.80018645354E+03  0.10259605467E+04  0.50400001928E-02 0.  1.
</event>
<event>
 5   0  0.3335747E-04  0.1298123E+04  0.7818609E-02  0.9031055E-01
       -1   -1    0    0    0  501  0.00000000000E+00  0.00000000000E+00  0.35429916022E+03  0.35429916026E+03  0.50400001928E-02 0. -1.
        1   -1    0    0  501    0  0.00000000000E+00  0.00000000000E+00 -0.11890546103E+04  0.11890546103E+04  0.50400001928E-02 0.  1.
    10030    2    1    2    0    0  0.00000000000E+00  0.00000000000E+00 -0.83475545006E+03  0.15433537705E+04  0.12981233376E+04 0.  0.
        3    1    3    3  502    0  0.35874109062E+03 -0.49739662308E+03 -0.67009475507E+03  0.90836422305E+03  0.10100000352E+00 0. -1.
       -3    1    3    3    0  502 -0.35874109062E+03  0.49739662308E+03 -0.16466069498E+03  0.63498954749E+03  0.10100000352E+00 0.  1.
</event>
<event>
 5   0  0.5384960E-04  0.1284210E+04  0.7818609E-02  0.9042181E-01
        2   -1    0    0  501    0  0.00000000000E+00  0.00000000000E+00  0.10936655119E+04  0.10936655119E+04  0.25500000920E-02 0. -1.
       -2   -1    0    0    0  501  0.00000000000E+00  0.00000000000E+00 -0.37698827024E+03  0.37698827025E+03  0.25500000920E-02 0.  1.
    10030    2    1    2    0    0  0.00000000000E+00  0.00000000000E+00  0.71667724169E+03  0.14706537822E+04  0.12842103715E+04 0.  0.
        3    1    3    3  502    0  0.14279049144E+03  0.28008847642E+02  0.10745353004E+04  0.10843430001E+04  0.10100000352E+00 0. -1.
       -3    1    3    3    0  502 -0.14279049144E+03 -0.28008847642E+02 -0.35785805866E+03  0.38631078207E+03  0.10100000352E+00 0.  1.
</event>
<event>
 5   0  0.6007125E-04  0.1295846E+04  0.7818609E-02  0.9032866E-01
        2   -1    0    0  501    0  0.00000000000E+00  0.00000000000E+00  0.99191224037E+03  0.99191224038E+03  0.25500000920E-02 0. -1.
       -2   -1    0    0    0  501  0.00000000000E+00  0.00000000000E+00 -0.42322693155E+03  0.42322693156E+03  0.25500000920E-02 0.  1.
    10030    2    1    2    0    0  0.00000000000E+00  0.00000000000E+00  0.56868530882E+03  0.14151391719E+04  0.12958456295E+04 0.  0.
        5    1    3    3  502    0 -0.22513086640E+03  0.12355858813E+02 -0.37898313286E+03  0.44100666576E+03  0.46999998093E+01 0.  1.
       -5    1    3    3    0  502  0.22513086640E+03 -0.12355858813E+02  0.94766844168E+03  0.97413250618E+03  0.46999998093E+01 0. -1.
</event>
<event>
 5   0  0.6007125E-04  0.1309420E+04  0.7818609E-02  0.9022128E-01
       -2   -1    0    0    0  501  0.00000000000E+00  0.00000000000E+00  0.95214486847E+03  0.95214486848E+03  0.25500000920E-02 0.  1.
        2   -1    0    0  501    0  0.00000000000E+00  0.00000000000E+00 -0.45018914870E+03  0.45018914870E+03  0.25500000920E-02 0. -1.
    10030    2    1    2    0    0  0.00000000000E+00  0.00000000000E+00  0.50195571978E+03  0.14023340172E+04  0.13094201584E+04 0.  0.
        5    1    3    3  502    0  0.31683913575E+03  0.53451142595E+03  0.47184901614E+03  0.78022630463E+03  0.46999998093E+01 0.  1.
       -5    1    3    3    0  502 -0.31683913575E+03 -0.53451142595E+03  0.30106703637E+02  0.62210771255E+03  0.46999998093E+01 0. -1.
</event>
<event>
 5   0  0.3274879E-04  0.1300976E+04  0.7818609E-02  0.9028792E-01
        1   -1    0    0  501    0  0.00000000000E+00  0.00000000000E+00  0.11668414358E+04  0.11668414359E+04  0.50400001928E-02 0. -1.
       -1   -1    0    0    0  501  0.00000000000E+00  0.00000000000E+00 -0.36263244837E+03  0.36263244841E+03  0.50400001928E-02 0.  1.
    10030    2    1    2    0    0  0.00000000000E+00  0.00000000000E+00  0.80420898747E+03  0.15294738843E+04  0.13009758903E+04 0.  0.
        4    1    3    3  502    0  0.26528863552E+03 -0.34654928425E+03 -0.16495975510E+03  0.46657025221E+03  0.12699999809E+01 0. -1.
       -4    1    3    3    0  502 -0.26528863552E+03  0.34654928425E+03  0.96916874257E+03  0.10629036321E+04  0.12699999809E+01 0.  1.
</event>
<event>
 5   0  0.3337520E-04  0.1296336E+04  0.7818609E-02  0.9032476E-01
        1   -1    0    0  501    0  0.00000000000E+00  0.00000000000E+00  0.48520533791E+03  0.48520533794E+03  0.50400001928E-02 0. -1.
       -1   -1    0    0    0  501  0.00000000000E+00  0.00000000000E+00 -0.86586396560E+03  0.86586396562E+03  0.50400001928E-02 0.  1.
    10030    2    1    2    0    0  0.00000000000E+00  0.00000000000E+00 -0.38065862769E+03  0.13510693036E+04  0.12963360954E+04 0.  0.
        5    1    3    3  502    0  0.42908344451E+03 -0.43604128694E+03  0.32850000318E+02  0.61265473049E+03  0.46999998093E+01 0. -1.
       -5    1    3    3    0  502 -0.42908344451E+03  0.43604128694E+03 -0.41350862801E+03  0.73841457306E+03  0.46999998093E+01 0.  1.
</event>
<event>
 5   0  0.3263679E-04  0.1299127E+04  0.7818609E-02  0.9030258E-01
       -1   -1    0    0    0  501  0.00000000000E+00  0.00000000000E+00  0.11742725738E+04  0.11742725738E+04  0.50400001928E-02 0. -1.
        1   -1    0    0  501    0  0.00000000000E+00  0.00000000000E+00 -0.35931398828E+03  0.35931398831E+03  0.50400001928E-02 0.  1.
    10030    2    1    2    0    0  0.00000000000E+00  0.00000000000E+00  0.81495858552E+03  0.15335865621E+04  0.12991267249E+04 0.  0.
        2    1    3    3  502    0  0.28940546957E+03  0.54902774387E+02  0.10908944892E+04  0.11299648786E+04  0.25500000920E-02 0. -1.
       -2    1    3    3    0  502 -0.28940546957E+03 -0.54902774387E+02 -0.27593590364E+03  0.40362168349E+03  0.25500000920E-02 0.  1.
</event>
<event>
 5   0  0.3403833E-04  0.1328301E+04  0.7818609E-02  0.9007419E-01
        1   -1    0    0  501    0  0.00000000000E+00  0.00000000000E+00  0.50399307606E+03  0.50399307608E+03  0.50400001928E-02 0. -1.
       -1   -1    0    0    0  501  0.00000000000E+00  0.00000000000E+00 -0.87520168591E+03  0.87520168593E+03  0.50400001928E-02 0.  1.
    10030    2    1    2    0    0  0.00000000000E+00  0.00000000000E+00 -0.37120860986E+03  0.13791947620E+04  0.13283005532E+04 0.  0.
        1    1    3    3  502    0  0.60286712761E+03 -0.36671349715E+02  0.10120767483E+03  0.61240228193E+03  0.50400001928E-02 0. -1.
       -1    1    3    3    0  502 -0.60286712761E+03  0.36671349715E+02 -0.47241628469E+03  0.76679248008E+03  0.50400001928E-02 0.  1.
</event>
<event>
 5   0  0.2255875E-04  0.1298237E+04  0.7818609E-02  0.9030965E-01
        3   -1    0    0  501    0  0.00000000000E+00  0.00000000000E+00  0.81103829496E+03  0.81103830125E+03  0.10100000352E+00 0. -1.
       -3   -1    0    0    0  501  0.00000000000E+00  0.00000000000E+00 -0.51952497953E+03  0.51952498934E+03  0.10100000352E+00 0.  1.
    10030    2    1    2    0    0  0.00000000000E+00  0.00000000000E+00  0.29151331544E+03  0.13305632906E+04  0.12982367493E+04 0.  0.
        5    1    3    3  502    0  0.16271893596E+03  0.53391014850E+03 -0.19384755557E+03  0.59087770612E+03  0.46999998093E+01 0. -1.
       -5    1    3    3    0  502 -0.16271893596E+03 -0.53391014850E+03  0.48536087100E+03  0.73968558448E+03  0.46999998093E+01 0.  1.
</event>
<event>
 5   0  0.3274879E-04  0.1300858E+04  0.7818609E-02  0.9028885E-01
        1   -1    0    0  501    0  0.00000000000E+00  0.00000000000E+00  0.38113650337E+03  0.38113650340E+03  0.50400001928E-02 0.  1.
       -1   -1    0    0    0  501  0.00000000000E+00  0.00000000000E+00 -0.11099898318E+04  0.11099898318E+04  0.50400001928E-02 0. -1.
    10030    2    1    2    0    0  0.00000000000E+00  0.00000000000E+00 -0.72885332840E+03  0.14911263352E+04  0.13008576299E+04 0.  0.
        4    1    3    3  502    0  0.15932515541E+03 -0.58498616529E+03 -0.94475489615E+02  0.61361270339E+03  0.12699999809E+01 0.  1.
       -4    1    3    3    0  502 -0.15932515541E+03  0.58498616529E+03 -0.63437783879E+03  0.87751363179E+03  0.12699999809E+01 0. -1.
</event>
<event>
 5   0  0.5384960E-04  0.1315530E+04  0.7818609E-02  0.9017340E-01
       -2   -1    0    0    0  501  0.00000000000E+00  0.00000000000E+00  0.95381315863E+03  0.95381315863E+03  0.25500000920E-02 0. -1.
        2   -1    0    0  501    0  0.00000000000E+00  0.00000000000E+00 -0.45360525006E+03  0.45360525007E+03  0.25500000920E-02 0.  1.
    10030    2    1    2    0    0  0.00000000000E+00  0.00000000000E+00  0.50020790856E+03  0.14074184087E+04  0.13155297889E+04 0.  0.
        3    1    3    3  502    0  0.46948860942E+02 -0.43544146533E+03  0.77513854210E+03  0.89031075189E+03  0.10100000352E+00 0. -1.
       -3    1    3    3    0  502 -0.46948860942E+02  0.43544146533E+03 -0.27493063354E+03  0.51710765681E+03  0.10100000352E+00 0.  1.
</event>
<event>
 5   0  0.6007125E-04  0.1301195E+04  0.7818609E-02  0.9028618E-01
        2   -1    0    0  501    0  0.00000000000E+00  0.00000000000E+00  0.34651371070E+03  0.34651371071E+03  0.25500000920E-02 0.  1.
       -2   -1    0    0    0  501  0.00000000000E+00  0.00000000000E+00 -0.12215301767E+04  0.12215301767E+04  0.25500000920E-02 0. -1.
    10030    2    1    2    0    0  0.00000000000E+00  0.00000000000E+00 -0.87501646599E+03  0.15680438874E+04  0.13011947652E+04 0.  0.
        5    1    3    3  502    0  0.58984076986E+03 -0.27170469824E+03 -0.48447988985E+03  0.81023356540E+03  0.46999998093E+01 0. -1.
       -5    1    3    3    0  502 -0.58984076986E+03  0.27170469824E+03 -0.39053657613E+03  0.75781032200E+03  0.46999998093E+01 0.  1.
</event>
<event>
 5   0  0.6007125E-04  0.1286868E+04  0.7818609E-02  0.9040044E-01
       -2   -1    0    0    0  501  0.00000000000E+00  0.00000000000E+00  0.37805494875E+03  0.37805494876E+03  0.25500000920E-02 0.  1.
        2   -1    0    0  501    0  0.00000000000E+00  0.00000000000E+00 -0.10950982298E+04  0.10950982298E+04  0.25500000920E-02 0. -1.
    10030    2    1    2    0    0  0.00000000000E+00  0.00000000000E+00 -0.71704328102E+03  0.14731531785E+04  0.12868679888E+04 0.  0.
        5    1    3    3  502    0 -0.20427009596E+03  0.33079736778E+03  0.22836343563E+03  0.45091586728E+03  0.46999998093E+01 0.  1.
       -5    1    3    3    0  502  0.20427009596E+03 -0.33079736778E+03 -0.94540671665E+03  0.10222373112E+04  0.46999998093E+01 0. -1.
</event>
<event>
 5   0  0.3403833E-04  0.1305445E+04  0.7818609E-02  0.9025259E-01
        1   -1    0    0  501    0  0.00000000000E+00  0.00000000000E+00  0.12579121664E+04  0.12579121664E+04  0.50400001928E-02 0.  1.
       -1   -1    0    0    0  501  0.00000000000E+00  0.00000000000E+00 -0.33869333376E+03  0.33869333380E+03  0.50400001928E-02 0. -1.
    10030    2    1    2    0    0  0.00000000000E+00  0.00000000000E+00  0.91921883259E+03  0.15966055002E+04  0.13054446985E+04 0.  0.
        1    1    3    3  502    0  0.27523628999E+03  0.22400658975E+03 -0.21040042647E+03  0.41255582297E+03  0.50400001928E-02 0. -1.
       -1    1    3    3    0  502 -0.27523628999E+03 -0.22400658975E+03  0.11296192591E+04  0.11840496772E+04  0.50400001928E-02 0.  1.
</event>
<event>
 5   0  0.5957913E-04  0.1302186E+04  0.7818609E-02  0.9027834E-01
       -2   -1    0    0    0  501  0.00000000000E+00  0.00000000000E+00  0.25738139393E+03  0.25738139394E+03  0.25500000920E-02 0. -1.
        2   -1    0    0  501    0  0.00000000000E+00  0.00000000000E+00 -0.16470568122E+04  0.16470568122E+04  0.25500000920E-02 0.  1.
    10030    2    1    2    0    0  0.00000000000E+00  0.00000000000E+00 -0.13896754183E+04  0.19044382062E+04  0.13021855140E+04 0.  0.
        1    1    3    3  502    0 -0.56232613874E+03 -0.31504695847E+03 -0.82932755712E+03  0.10503568296E+04  0.50400001928E-02 0.  1.
       -1    1    3    3    0  502  0.56232613874E+03  0.31504695847E+03 -0.56034786118E+03  0.85408137663E+03  0.50400001928E-02 0. -1.
</event>
<event>
 5   0  0.5957913E-04  0.1298833E+04  0.7818609E-02  0.9030491E-01
       -2   -1    0    0    0  501  0.00000000000E+00  0.00000000000E+00  0.30109230533E+03  0.30109230534E+03  0.25500000920E-02 0. -1.
        2   -1    0    0  501    0  0.00000000000E+00  0.00000000000E+00 -0.14007053755E+04  0.14007053755E+04  0.25500000920E-02 0.  1.
    10030    2    1    2    0    0  0.00000000000E+00  0.00000000000E+00 -0.10996130701E+04  0.17017976808E+04  0.12988327230E+04 0.  0.
        1    1    3    3  502    0  0.14979936575E+03  0.38036505807E+03 -0.12109634281E+04  0.12781040065E+04  0.50400001928E-02 0.  1.
       -1    1    3    3    0  502 -0.14979936575E+03 -0.38036505807E+03  0.11135035793E+03  0.42369367427E+03  0.50400001928E-02 0. -1.
</event>
<event>
 5   0  0.3403833E-04  0.1286912E+04  0.7818609E-02  0.9040009E-01
        1   -1    0    0  501    0  0.00000000000E+00  0.00000000000E+00  0.39116717154E+03  0.39116717158E+03  0.50400001928E-02 0.  1.
       -1   -1    0    0    0  501  0.00000000000E+00  0.00000000000E+00 -0.10584624347E+04  0.10584624347E+04  0.50400001928E-02 0. -1.
    10030    2    1    2    0    0  0.00000000000E+00  0.00000000000E+00 -0.66729526311E+03  0.14496296062E+04  0.12869122065E+04 0.  0.
        1    1    3    3  502    0 -0.23571948194E+03  0.14239861507E+03 -0.98872340685E+03  0.10263600806E+04  0.50400001928E-02 0. -1.
       -1    1    3    3    0  502  0.23571948194E+03 -0.14239861507E+03  0.32142814374E+03  0.42326952566E+03  0.50400001928E-02 0.  1.
</event>
<event>
 5   0  0.5787604E-04  0.1297991E+04  0.7818609E-02  0.9031160E-01
       -2   -1    0    0    0  501  0.00000000000E+00  0.00000000000E+00  0.28453450462E+03  0.28453450464E+03  0.25500000920E-02 0. -1.
        2   -1    0    0  501    0  0.00000000000E+00  0.00000000000E+00 -0.14802960919E+04  0.14802960919E+04  0.25500000920E-02 0.  1.
    10030    2    1    2    0    0  0.00000000000E+00  0.00000000000E+00 -0.11957615872E+04  0.17648305965E+04  0.12979912407E+04 0.  0.
        4    1    3    3  502    0  0.17781032170E+03  0.30656052038E+03 -0.13371147201E+04  0.13832835034E+04  0.12699999809E+01 0.  1.
       -4    1    3    3    0  502 -0.17781032170E+03 -0.30656052038E+03  0.14135313289E+03  0.38154709308E+03  0.12699999809E+01 0. -1.
</event>
<event>
 5   0  0.3263679E-04  0.1296318E+04  0.7818609E-02  0.9032490E-01
       -1   -1    0    0    0  501  0.00000000000E+00  0.00000000000E+00  0.49982575276E+03  0.49982575279E+03  0.50400001928E-02 0. -1.
        1   -1    0    0  501    0  0.00000000000E+00  0.00000000000E+00 -0.84051332139E+03  0.84051332141E+03  0.50400001928E-02 0.  1.
    10030    2    1    2    0    0  0.00000000000E+00  0.00000000000E+00 -0.34068756863E+03  0.13403390742E+04  0.12963181764E+04 0.  0.
        2    1    3    3  502    0 -0.57322097825E+03 -0.64524261021E+02 -0.47595595736E+03  0.74785008091E+03  0.25500000920E-02 0.  1.
       -2    1    3    3    0  502  0.57322097825E+03  0.64524261021E+02  0.13526838873E+03  0.59248899328E+03  0.25500000920E-02 0. -1.
</event>
<event>
 5   0  0.6052864E-04  0.1303980E+04  0.7818609E-02  0.9026415E-01
        2   -1    0    0  501    0  0.00000000000E+00  0.00000000000E+00  0.58151420159E+03  0.58151420159E+03  0.25500000920E-02 0. -1.
       -2   -1    0    0    0  501  0.00000000000E+00  0.00000000000E+00 -0.73100689795E+03  0.73100689796E+03  0.25500000920E-02 0.  1.
    10030    2    1    2    0    0  0.00000000000E+00  0.00000000000E+00 -0.14949269636E+03  0.13125210996E+04  0.13039798965E+04 0.  0.
        2    1    3    3  502    0 -0.17030618963E+03  0.59039535803E+03  0.14467237578E+03  0.63126933501E+03  0.25500000920E-02 0. -1.
       -2    1    3    3    0  502  0.17030618963E+03 -0.59039535803E+03 -0.29416507215E+03  0.68125176454E+03  0.25500000920E-02 0.  1.
</event>
<event>
 5   0  0.3403833E-04  0.1295368E+04  0.7818609E-02  0.9033246E-01
       -1   -1    0    0    0  501  0.00000000000E+00  0.00000000000E+00  0.14311042844E+04  0.14311042844E+04  0.50400001928E-02 0.  1.
        1   -1    0    0  501    0  0.00000000000E+00  0.00000000000E+00 -0.29312660688E+03  0.29312660692E+03  0.50400001928E-02 0. -1.
    10030    2    1    2    0    0  0.00000000000E+00  0.00000000000E+00  0.11379776775E+04  0.17242308913E+04  0.12953682766E+04 0.  0.
        1    1    3    3  502    0 -0.50051134494E+02  0.58236613258E+03  0.94035443355E+03  0.11072135698E+04  0.50400001928E-02 0. -1.
       -1    1    3    3    0  502  0.50051134494E+02 -0.58236613258E+03  0.19762324394E+03  0.61701732148E+03  0.50400001928E-02 0.  1.
</event>
<event>
 5   0  0.6052864E-04  0.1303085E+04  0.7818609E-02  0.9027122E-01
        2   -1    0    0  501    0  0.00000000000E+00  0.00000000000E+00  0.14094836134E+04  0.14094836134E+04  0.25500000920E-02 0.  1.
       -2   -1    0    0    0  501  0.00000000000E+00  0.00000000000E+00 -0.30117950868E+03  0.30117950869E+03  0.25500000920E-02 0. -1.
    10030    2    1    2    0    0  0.00000000000E+00  0.00000000000E+00  0.11083041047E+04  0.17106631221E+04  0.13030849277E+04 0.  0.
        2    1    3    3  502    0  0.79779300031E+02  0.22092580953E+03 -0.24366219577E+03  0.33844381466E+03  0.25500000920E-02 0. -1.
       -2    1    3    3    0  502 -0.79779300031E+02 -0.22092580953E+03  0.13519663005E+04  0.13722193074E+04  0.25500000920E-02 0.  1.
</event>
<event>
 5   0  0.6007125E-04  0.1274726E+04  0.7818609E-02  0.9049852E-01
       -2   -1    0    0    0  501  0.00000000000E+00  0.00000000000E+00  0.23815719059E+03  0.23815719060E+03  0.25500000920E-02 0.  1.
        2   -1    0    0  501    0  0.00000000000E+00  0.00000000000E+00 -0.17057278104E+04  0.17057278104E+04  0.25500000920E-02 0. -1.
    10030    2    1    2    0    0  0.00000000000E+00  0.00000000000E+00 -0.14675706198E+04  0.19438850010E+04  0.12747256069E+04 0.  0.
        5    1    3    3  502    0 -0.47777045792E+03  0.38614999659E+03 -0.99272429474E+03  0.11674331012E+04  0.46999998093E+01 0. -1.
       -5    1    3    3    0  502  0.47777045792E+03 -0.38614999659E+03 -0.47484632507E+03  0.77645189984E+03  0.46999998093E+01 0.  1.
</event>
<event>
 5   0  0.6007125E-04  0.1299588E+04  0.7818609E-02  0.9029892E-01
        2   -1    0    0  501    0  0.00000000000E+00  0.00000000000E+00  0.23307450013E+04  0.23307450013E+04  0.25500000920E-02 0.  1.
       -2   -1    0    0    0  501  0.00000000000E+00  0.00000000000E+00 -0.18115753461E+03  0.18115753463E+03  0.25500000920E-02 0. -1.
    10030    2    1    2    0    0  0.00000000000E+00  0.00000000000E+00  0.21495874667E+04  0.25119025359E+04  0.12995876550E+04 0.  0.
        5    1    3    3  502    0 -0.23451679164E+03  0.60288180395E+03  0.11930822093E+04  0.13571778967E+04  0.46999998093E+01 0. -1.
       -5    1    3    3    0  502  0.23451679164E+03 -0.60288180395E+03  0.95650525738E+03  0.11547246392E+04  0.46999998093E+01 0.  1.
</event>
<event>
 5   0  0.6007125E-04  0.1299502E+04  0.7818609E-02  0.9029960E-01
       -2   -1    0    0    0  501  0.00000000000E+00  0.00000000000E+00  0.14953575895E+03  0.14953575897E+03  0.25500000920E-02 0.  1.
        2   -1    0    0  501    0  0.00000000000E+00  0.00000000000E+00 -0.28232450802E+04  0.28232450802E+04  0.25500000920E-02 0. -1.
    10030    2    1    2    0    0  0.00000000000E+00  0.00000000000E+00 -0.26737093213E+04  0.29727808392E+04  0.12995015903E+04 0.  0.
        5    1    3    3  502    0 -0.20029340369E+03 -0.49042144964E+03 -0.47625703568E+03  0.71237174275E+03  0.46999998093E+01 0.  1.
       -5    1    3    3    0  502  0.20029340369E+03  0.49042144964E+03 -0.21974522856E+04  0.22604090964E+04  0.46999998093E+01 0. -1.
</event>
<event>
 5   0  0.3403833E-04  0.1284639E+04  0.7818609E-02  0.9041836E-01
       -1   -1    0    0    0  501  0.00000000000E+00  0.00000000000E+00  0.61321360110E+03  0.61321360113E+03  0.50400001928E-02 0. -1.
        1   -1    0    0  501    0  0.00000000000E+00  0.00000000000E+00 -0.67280664713E+03  0.67280664715E+03  0.50400001928E-02 0.  1.
    10030    2    1    2    0    0  0.00000000000E+00  0.00000000000E+00 -0.59593046026E+02  0.12860202483E+04  0.12846387616E+04 0.  0.
        1    1    3    3  502    0 -0.27866962689E+03  0.24623720768E+03 -0.55408166134E+03  0.66730503584E+03  0.50400001928E-02 0.  1.
       -1    1    3    3    0  502  0.27866962689E+03 -0.24623720768E+03  0.49448861532E+03  0.61871521244E+03  0.50400001928E-02 0. -1.
</event>
<event>
 5   0  0.3403833E-04  0.1307304E+04  0.7818609E-02  0.9023793E-01
       -1   -1    0    0    0  501  0.00000000000E+00  0.00000000000E+00  0.12012281273E+04  0.12012281273E+04  0.50400001928E-02 0.  1.
        1   -1    0    0  501    0  0.00000000000E+00  0.00000000000E+00 -0.35568663275E+03  0.35568663279E+03  0.50400001928E-02 0. -1.
    10030    2    1    2    0    0  0.00000000000E+00  0.00000000000E+00  0.84554149450E+03  0.15569147601E+04  0.13073037716E+04 0.  0.
        1    1    3    3  502    0  0.88458321145E+02 -0.44410030381E+03 -0.13862734934E+03  0.47356889301E+03  0.50400001928E-02 0. -1.
       -1    1    3    3    0  502 -0.88458321145E+02  0.44410030381E+03  0.98416884384E+03  0.10833458670E+04  0.50400001928E-02 0.  1.
</event>
<event>
 5   0  0.3335747E-04  0.1297279E+04  0.7818609E-02  0.9031726E-01
       -1   -1    0    0    0  501  0.00000000000E+00  0.00000000000E+00  0.26256680494E+03  0.26256680498E+03  0.50400001928E-02 0.  1.
        1   -1    0    0  501    0  0.00000000000E+00  0.00000000000E+00 -0.16023844913E+04  0.16023844913E+04  0.50400001928E-02 0. -1.
    10030    2    1    2    0    0  0.00000000000E+00  0.00000000000E+00 -0.13398176864E+04  0.18649512963E+04  0.12972786535E+04 0.  0.
        3    1    3    3  502    0  0.16204461134E+03  0.61370087904E+03 -0.86195318489E+03  0.10704440799E+04  0.10100000352E+00 0. -1.
       -3    1    3    3    0  502 -0.16204461134E+03 -0.61370087904E+03 -0.47786450151E+03  0.79450721645E+03  0.10100000352E+00 0.  1.
</event>
<event>
 5   0  0.5957913E-04  0.1303890E+04  0.7818609E-02  0.9026486E-01
       -2   -1    0    0    0  501  0.00000000000E+00  0.00000000000E+00  0.46604772697E+03  0.46604772697E+03  0.25500000920E-02 0.  1.
        2   -1    0    0  501    0  0.00000000000E+00  0.00000000000E+00 -0.91199342189E+03  0.91199342189E+03  0.25500000920E-02 0. -1.
    10030    2    1    2    0    0  0.00000000000E+00  0.00000000000E+00 -0.44594569492E+03  0.13780411489E+04  0.13038902734E+04 0.  0.
        1    1    3    3  502    0 -0.25801636474E+02  0.61514365699E+03 -0.44955977887E+03  0.76234600936E+03  0.50400001928E-02 0. -1.
       -1    1    3    3    0  502  0.25801636474E+02 -0.61514365699E+03  0.36140839497E+01  0.61569513951E+03  0.50400001928E-02 0.  1.
</event>
<event>
 5   0  0.3337520E-04  0.1307342E+04  0.7818609E-02  0.9023763E-01
        1   -1    0    0  501    0  0.00000000000E+00  0.00000000000E+00  0.52067241938E+03  0.52067241940E+03  0.50400001928E-02 0.  1.
       -1   -1    0    0    0  501  0.00000000000E+00  0.00000000000E+00 -0.82064197628E+03  0.82064197630E+03  0.50400001928E-02 0. -1.
    10030    2    1    2    0    0  0.00000000000E+00  0.00000000000E+00 -0.29996955691E+03  0.13413143957E+04  0.13073417966E+04 0.  0.
        5    1    3    3  502    0  0.21529517970E+03  0.29615673806E+03  0.40556814977E+03  0.54641416709E+03  0.46999998093E+01 0.  1.
       -5    1    3    3    0  502 -0.21529517970E+03 -0.29615673806E+03 -0.70553770668E+03  0.79490022860E+03  0.46999998093E+01 0. -1.
</event>
<event>
 5   0  0.5957913E-04  0.1295884E+04  0.7818609E-02  0.9032836E-01
        2   -1    0    0  501    0  0.00000000000E+00  0.00000000000E+00  0.21067971570E+04  0.21067971570E+04  0.25500000920E-02 0.  1.
       -2   -1    0    0    0  501  0.00000000000E+00  0.00000000000E+00 -0.19927347595E+03  0.19927347596E+03  0.25500000920E-02 0. -1.
    10030    2    1    2    0    0  0.00000000000E+00  0.00000000000E+00  0.19075236810E+04  0.23060706330E+04  0.12958839340E+04 0.  0.
        1    1    3    3  502    0  0.48072263434E+02 -0.58443442862E+03  0.14441980597E+04  0.15587118334E+04  0.50400001928E-02 0.  1.
       -1    1    3    3    0  502 -0.48072263434E+02  0.58443442862E+03  0.46332562132E+03  0.74735879955E+03  0.50400001928E-02 0. -1.
</event>
<event>
 5   0  0.5384960E-04  0.1298862E+04  0.7818609E-02  0.9030468E-01
        2   -1    0    0  501    0  0.00000000000E+00  0.00000000000E+00  0.10374328780E+04  0.10374328780E+04  0.25500000920E-02 0. -1.
       -2   -1    0    0    0  501  0.00000000000E+00  0.00000000000E+00 -0.40654261490E+03  0.40654261491E+03  0.25500000920E-02 0.  1.
    10030    2    1    2    0    0  0.00000000000E+00  0.00000000000E+00  0.63089026311E+03  0.14439754929E+04  0.12988620789E+04 0.  0.
        3    1    3    3  502    0 -0.41081737654E+03 -0.32042769206E+03  0.74646685798E+03  0.91030632370E+03  0.10100000352E+00 0. -1.
       -3    1    3    3    0  502  0.41081737654E+03  0.32042769206E+03 -0.11557659487E+03  0.53366916923E+03  0.10100000352E+00 0.  1.
</event>
<event>
 5   0  0.6052864E-04  0.1299556E+04  0.7818609E-02  0.9029917E-01
       -2   -1    0    0    0  501  0.00000000000E+00  0.00000000000E+00  0.72990874737E+03  0.72990874738E+03  0.25500000920E-02 0.  1.
        2   -1    0    0  501    0  0.00000000000E+00  0.00000000000E+00 -0.57844421895E+03  0.57844421896E+03  0.25500000920E-02 0. -1.
    10030    2    1    2    0    0  0.00000000000E+00  0.00000000000E+00  0.15146452842E+03  0.13083529663E+04  0.12995560708E+04 0.  0.
        2    1    3    3  502    0  0.17025424750E+03  0.14436318747E+03  0.69009597794E+03  0.72529972940E+03  0.25500000920E-02 0.  1.
       -2    1    3    3    0  502 -0.17025424750E+03 -0.14436318747E+03 -0.53863144952E+03  0.58305323694E+03  0.25500000920E-02 0. -1.
</event>
<event>
 5   0  0.3263679E-04  0.1302968E+04  0.7818609E-02  0.9027215E-01
        1   -1    0    0  501    0  0.00000000000E+00  0.00000000000E+00  0.61841196387E+03  0.61841196389E+03  0.50400001928E-02 0. -1.
       -1   -1    0    0    0  501  0.00000000000E+00  0.00000000000E+00 -0.68632469127E+03  0.68632469129E+03  0.50400001928E-02 0.  1.
    10030    2    1    2    0    0  0.00000000000E+00  0.00000000000E+00 -0.67912727397E+02  0.13047366552E+04  0.13029679969E+04 0.  0.
        2    1    3    3  502    0 -0.30479069692E+03 -0.36938124050E+03 -0.47624758818E+03  0.67538998735E+03  0.25500000920E-02 0.  1.
       -2    1    3    3    0  502  0.30479069692E+03  0.36938124050E+03  0.40833486079E+03  0.62934666782E+03  0.25500000920E-02 0. -1.
</event>
<event>
 5   0  0.6007125E-04  0.1303896E+04  0.7818609E-02  0.9026481E-01
        2   -1    0    0  501    0  0.00000000000E+00  0.00000000000E+00  0.11237201156E+04  0.11237201156E+04  0.25500000920E-02 0.  1.
       -2   -1    0    0    0  501  0.00000000000E+00  0.00000000000E+00 -0.37824052594E+03  0.37824052594E+03  0.25500000920E-02 0. -1.
    10030    2    1    2    0    0  0.00000000000E+00  0.00000000000E+00  0.74547958971E+03  0.15019606416E+04  0.13038964492E+04 0.  0.
        5    1    3    3  502    0 -0.37321908743E+03 -0.50040743356E+02  0.98576135409E+03  0.10552459905E+04  0.46999998093E+01 0.  1.
       -5    1    3    3    0  502  0.37321908743E+03  0.50040743356E+02 -0.24028176438E+03  0.44671465111E+03  0.46999998093E+01 0. -1.
</event>
<event>
 5   0  0.2255875E-04  0.1298299E+04  0.7818609E-02  0.9030915E-01
        3   -1    0    0  501    0  0.00000000000E+00  0.00000000000E+00  0.60861104058E+03  0.60861104896E+03  0.10100000352E+00 0. -1.
       -3   -1    0    0    0  501  0.00000000000E+00  0.00000000000E+00 -0.69238836443E+03  0.69238837180E+03  0.10100000352E+00 0.  1.
    10030    2    1    2    0    0  0.00000000000E+00  0.00000000000E+00 -0.83777323852E+02  0.13009994208E+04  0.12982992154E+04 0.  0.
        2    1    3    3  502    0  0.86401747792E+02 -0.15185400456E+03 -0.66838516546E+03  0.69084269565E+03  0.25500000920E-02 0.  1.
       -2    1    3    3    0  502 -0.86401747792E+02  0.15185400456E+03  0.58460784161E+03  0.61015672511E+03  0.25500000920E-02 0. -1.
</event>
<event>
 5   0  0.6007125E-04  0.1304104E+04  0.7818609E-02  0.9026317E-01
        2   -1    0    0  501    0  0.00000000000E+00  0.00000000000E+00  0.16602634344E+04  0.16602634344E+04  0.25500000920E-02 0.  1.
       -2   -1    0    0    0  501  0.00000000000E+00  0.00000000000E+00 -0.25608703233E+03  0.25608703234E+03  0.25500000920E-02 0. -1.
    10030    2    1    2    0    0  0.00000000000E+00  0.00000000000E+00  0.14041764021E+04  0.19163504668E+04  0.13041041919E+04 0.  0.
        5    1    3    3  502    0  0.42219335569E+03 -0.22941528378E+03  0.13497777752E+04  0.14327598314E+04  0.46999998093E+01 0.  1.
       -5    1    3    3    0  502 -0.42219335569E+03  0.22941528378E+03  0.54398626895E+02  0.48359063538E+03  0.46999998093E+01 0. -1.
</event>
<event>
 5   0  0.5957913E-04  0.1302959E+04  0.7818609E-02  0.9027222E-01
       -2   -1    0    0    0  501  0.00000000000E+00  0.00000000000E+00  0.21772596218E+03  0.21772596220E+03  0.25500000920E-02 0.  1.
        2   -1    0    0  501    0  0.00000000000E+00  0.00000000000E+00 -0.19493563936E+04  0.19493563936E+04  0.25500000920E-02 0. -1.
    10030    2    1    2    0    0  0.00000000000E+00  0.00000000000E+00 -0.17316304314E+04  0.21670823558E+04  0.13029589348E+04 0.  0.
        1    1    3    3  502    0  0.47872026773E+03  0.39513041905E+03 -0.11947942911E+04  0.13464154414E+04  0.50400001928E-02 0. -1.
       -1    1    3    3    0  502 -0.47872026773E+03 -0.39513041905E+03 -0.53683614029E+03  0.82066691437E+03  0.50400001928E-02 0.  1.
</event>
<event>
 5   0  0.5787604E-04  0.1302135E+04  0.7818609E-02  0.9027874E-01
        2   -1    0    0  501    0  0.00000000000E+00  0.00000000000E+00  0.11478990746E+04  0.11478990746E+04  0.25500000920E-02 0. -1.
       -2   -1    0    0    0  501  0.00000000000E+00  0.00000000000E+00 -0.36927366283E+03  0.36927366284E+03  0.25500000920E-02 0.  1.
    10030    2    1    2    0    0  0.00000000000E+00  0.00000000000E+00  0.77862541173E+03  0.15171727374E+04  0.13021350096E+04 0.  0.
        4    1    3    3  502    0  0.20272739721E+03  0.61860484414E+03  0.37671341853E+03  0.75212031177E+03  0.12699999809E+01 0. -1.
       -4    1    3    3    0  502 -0.20272739721E+03 -0.61860484414E+03  0.40191199320E+03  0.76505242563E+03  0.12699999809E+01 0.  1.
</event>
<event>
 5   0  0.3263679E-04  0.1300224E+04  0.7818609E-02  0.9029387E-01
        1   -1    0    0  501    0  0.00000000000E+00  0.00000000000E+00  0.13223015175E+04  0.13223015175E+04  0.50400001928E-02 0. -1.
       -1   -1    0    0    0  501  0.00000000000E+00  0.00000000000E+00 -0.31962891818E+03  0.31962891822E+03  0.50400001928E-02 0.  1.
    10030    2    1    2    0    0  0.00000000000E+00  0.00000000000E+00  0.10026725993E+04  0.16419304357E+04  0.13002242938E+04 0.  0.
        2    1    3    3  502    0 -0.42578368976E+03  0.40299169493E+03  0.85616386300E+03  0.10376466725E+04  0.25500000920E-02 0. -1.
       -2    1    3    3    0  502  0.42578368976E+03 -0.40299169493E+03  0.14650873629E+03  0.60428376320E+03  0.25500000920E-02 0.  1.
</event>
<event>
 5   0  0.3263679E-04  0.1228544E+04  0.7818609E-02  0.9088232E-01
       -1   -1    0    0    0  501  0.00000000000E+00  0.00000000000E+00  0.20584049278E+03  0.20584049284E+03  0.50400001928E-02 0.  1.
        1   -1    0    0  501    0  0.00000000000E+00  0.00000000000E+00 -0.18331198293E+04  0.18331198293E+04  0.50400001928E-02 0. -1.
    10030    2    1    2    0    0  0.00000000000E+00  0.00000000000E+00 -0.16272793365E+04  0.20389603221E+04  0.12285443241E+04 0.  0.
        2    1    3    3  502    0  0.54002936745E+03  0.15641356113E+02 -0.12987984958E+04  0.14066818768E+04  0.25500000920E-02 0. -1.
       -2    1    3    3    0  502 -0.54002936745E+03 -0.15641356113E+02 -0.32848084066E+03  0.63227844532E+03  0.25500000920E-02 0.  1.
</event>
<event>
 5   0  0.6007125E-04  0.1278520E+04  0.7818609E-02  0.9046775E-01
       -2   -1    0    0    0  501  0.00000000000E+00  0.00000000000E+00  0.23445777651E+03  0.23445777653E+03  0.25500000920E-02 0.  1.
        2   -1    0    0  501    0  0.00000000000E+00  0.00000000000E+00 -0.17429718079E+04  0.17429718079E+04  0.25500000920E-02 0. -1.
    10030    2    1    2    0    0  0.00000000000E+00  0.00000000000E+00 -0.15085140313E+04  0.19774295844E+04  0.12785199171E+04 0.  0.
        5    1    3    3  502    0  0.23868385909E+03  0.58850207665E+03 -0.86713663784E+03  0.10748268314E+04  0.46999998093E+01 0.  1.
       -5    1    3    3    0  502 -0.23868385909E+03 -0.58850207665E+03 -0.64137739350E+03  0.90260275298E+03  0.46999998093E+01 0. -1.
</event>
<event>
 5   0  0.5384960E-04  0.1301949E+04  0.7818609E-02  0.9028021E-01
       -2   -1    0    0    0  501  0.00000000000E+00  0.00000000000E+00  0.42618293528E+03  0.42618293529E+03  0.25500000920E-02 0.  1.
        2   -1    0    0  501    0  0.00000000000E+00  0.00000000000E+00 -0.99433240497E+03  0.99433240497E+03  0.25500000920E-02 0. -1.
    10030    2    1    2    0    0  0.00000000000E+00  0.00000000000E+00 -0.56814946969E+03  0.14205153403E+04  0.13019485443E+04 0.  0.
        3    1    3    3  502    0 -0.17854183981E+03 -0.59826996121E+03 -0.83000040310E+02  0.62983581348E+03  0.10100000352E+00 0.  1.
       -3    1    3    3    0  502  0.17854183981E+03  0.59826996121E+03 -0.48514942938E+03  0.79067952678E+03  0.10100000352E+00 0. -1.
</event>
<event>
 5   0  0.3263679E-04  0.1302328E+04  0.7818609E-02  0.9027721E-01
        1   -1    0    0  501    0  0.00000000000E+00  0.00000000000E+00  0.63193536063E+03  0.63193536065E+03  0.50400001928E-02 0. -1.
       -1   -1    0    0    0  501  0.00000000000E+00  0.00000000000E+00 -0.67097730123E+03  0.67097730125E+03  0.50400001928E-02 0.  1.
    10030    2    1    2    0    0  0.00000000000E+00  0.00000000000E+00 -0.39041940602E+02  0.13029126619E+04  0.13023275822E+04 0.  0.
        2    1    3    3  502    0  0.10848777884E+02 -0.57813093302E+03  0.28004837241E+03  0.64247969819E+03  0.25500000920E-02 0. -1.
       -2    1    3    3    0  502 -0.10848777884E+02  0.57813093302E+03 -0.31909031301E+03  0.66043296371E+03  0.25500000920E-02 0.  1.
</event>
<event>
 5   0  0.5787604E-04  0.1300992E+04  0.7818609E-02  0.9028779E-01
        2   -1    0    0  501    0  0.00000000000E+00  0.00000000000E+00  0.67538000767E+03  0.67538000767E+03  0.25500000920E-02 0. -1.
       -2   -1    0    0    0  501  0.00000000000E+00  0.00000000000E+00 -0.62652913577E+03  0.62652913578E+03  0.25500000920E-02 0.  1.
    10030    2    1    2    0    0  0.00000000000E+00  0.00000000000E+00  0.48850871899E+02  0.13019091435E+04  0.13009923175E+04 0.  0.
        4    1    3    3  502    0  0.28824261737E+03  0.17735814721E+03 -0.53148735247E+03  0.63009534007E+03  0.12699999809E+01 0.  1.
       -4    1    3    3    0  502 -0.28824261737E+03 -0.17735814721E+03  0.58033822437E+03  0.67181380338E+03  0.12699999809E+01 0. -1.
</event>
<event>
 5   0  0.3263679E-04  0.1303917E+04  0.7818609E-02  0.9026465E-01
        1   -1    0    0  501    0  0.00000000000E+00  0.00000000000E+00  0.17544432835E+04  0.17544432835E+04  0.50400001928E-02 0. -1.
       -1   -1    0    0    0  501  0.00000000000E+00  0.00000000000E+00 -0.24227043773E+03  0.24227043778E+03  0.50400001928E-02 0.  1.
    10030    2    1    2    0    0  0.00000000000E+00  0.00000000000E+00  0.15121728457E+04  0.19967137213E+04  0.13039167800E+04 0.  0.
        2    1    3    3  502    0 -0.42071425821E+03 -0.21528857065E+03  0.14438180080E+04  0.15191971880E+04  0.25500000920E-02 0. -1.
       -2    1    3    3    0  502  0.42071425821E+03  0.21528857065E+03  0.68354837748E+02  0.47751653329E+03  0.25500000920E-02 0.  1.
</event>
<event>
 5   0  0.3335747E-04  0.1304182E+04  0.7818609E-02  0.9026255E-01
       -1   -1    0    0    0  501  0.00000000000E+00  0.00000000000E+00  0.48328643530E+03  0.48328643533E+03  0.50400001928E-02 0. -1.
        1   -1    0    0  501    0  0.00000000000E+00  0.00000000000E+00 -0.87985643293E+03  0.87985643295E+03  0.50400001928E-02 0.  1.
    10030    2    1    2    0    0  0.00000000000E+00  0.00000000000E+00 -0.39656999763E+03  0.13631428683E+04  0.13041820104E+04 0.  0.
        3    1    3    3  502    0 -0.14993793449E+03  0.51820309233E+03  0.18461952327E+03  0.57017559372E+03  0.10100000352E+00 0.  1.
       -3    1    3    3    0  502  0.14993793449E+03 -0.51820309233E+03 -0.58118952090E+03  0.79296727455E+03  0.10100000352E+00 0. -1.
</event>
<event>
 5   0  0.5957913E-04  0.1278574E+04  0.7818609E-02  0.9046731E-01
        2   -1    0    0  501    0  0.00000000000E+00  0.00000000000E+00  0.55109655656E+03  0.55109655656E+03  0.25500000920E-02 0.  1.
       -2   -1    0    0    0  501  0.00000000000E+00  0.00000000000E+00 -0.74159049273E+03  0.74159049274E+03  0.25500000920E-02 0. -1.
    10030    2    1    2    0    0  0.00000000000E+00  0.00000000000E+00 -0.19049393617E+03  0.12926870493E+04  0.12785741542E+04 0.  0.
        1    1    3    3  502    0 -0.83356439036E+02 -0.84483317316E+01  0.54552167984E+03  0.55191808580E+03  0.50400001928E-02 0.  1.
       -1    1    3    3    0  502  0.83356439036E+02  0.84483317316E+01 -0.73601561601E+03  0.74076896349E+03  0.50400001928E-02 0. -1.
</event>
<event>
 5   0  0.3263679E-04  0.1302421E+04  0.7818609E-02  0.9027648E-01
        1   -1    0    0  501    0  0.00000000000E+00  0.00000000000E+00  0.42672604246E+03  0.42672604249E+03  0.50400001928E-02 0.  1.
       -1   -1    0    0    0  501  0.00000000000E+00  0.00000000000E+00 -0.99378741722E+03  0.99378741723E+03  0.50400001928E-02 0. -1.
    10030    2    1    2    0    0  0.00000000000E+00  0.00000000000E+00 -0.56706137476E+03  0.14205134597E+04  0.13024207794E+04 0.  0.
        2    1    3    3  502    0 -0.13846759087E+03 -0.62977646609E+03 -0.38279559647E+03  0.74988275060E+03  0.25500000920E-02 0. -1.
       -2    1    3    3    0  502  0.13846759087E+03  0.62977646609E+03 -0.18426577829E+03  0.67063070913E+03  0.25500000920E-02 0.  1.
</event>
<event>
 5   0  0.5957913E-04  0.1309241E+04  0.7818609E-02  0.9022269E-01
        2   -1    0    0  501    0  0.00000000000E+00  0.00000000000E+00  0.10874699871E+04  0.10874699871E+04  0.25500000920E-02 0.  1.
       -2   -1    0    0    0  501  0.00000000000E+00  0.00000000000E+00 -0.39405958269E+03  0.39405958270E+03  0.25500000920E-02 0. -1.
    10030    2    1    2    0    0  0.00000000000E+00  0.00000000000E+00  0.69341040444E+03  0.14815295698E+04  0.13092409546E+04 0.  0.
        1    1    3    3  502    0  0.24955627451E+03 -0.14973914916E+03  0.10102362517E+04  0.10513217544E+04  0.50400001928E-02 0.  1.
       -1    1    3    3    0  502 -0.24955627451E+03  0.14973914916E+03 -0.31682584728E+03  0.43020781545E+03  0.50400001928E-02 0. -1.
</event>
<event>
 5   0  0.5384960E-04  0.1297562E+04  0.7818609E-02  0.9031501E-01
       -2   -1    0    0    0  501  0.00000000000E+00  0.00000000000E+00  0.54442911576E+03  0.54442911577E+03  0.25500000920E-02 0. -1.
        2   -1    0    0  501    0  0.00000000000E+00  0.00000000000E+00 -0.77313365995E+03  0.77313365996E+03  0.25500000920E-02 0.  1.
    10030    2    1    2    0    0  0.00000000000E+00  0.00000000000E+00 -0.22870454419E+03  0.13175627757E+04  0.12975615205E+04 0.  0.
        3    1    3    3  502    0  0.49355134645E+03 -0.33526375895E+03  0.14437276080E+03  0.61387150439E+03  0.10100000352E+00 0. -1.
       -3    1    3    3    0  502 -0.49355134645E+03  0.33526375895E+03 -0.37307730499E+03  0.70369127133E+03  0.10100000352E+00 0.  1.
</event>
<event>
 5   0  0.3403833E-04  0.1300862E+04  0.7818609E-02  0.9028882E-01
        1   -1    0    0  501    0  0.00000000000E+00  0.00000000000E+00  0.90315398191E+03  0.90315398192E+03  0.50400001928E-02 0. -1.
       -1   -1    0    0    0  501  0.00000000000E+00  0.00000000000E+00 -0.46842544823E+03  0.46842544826E+03  0.50400001928E-02 0.  1.
    10030    2    1    2    0    0  0.00000000000E+00  0.00000000000E+00  0.43472853367E+03  0.13715794302E+04  0.13008617280E+04 0.  0.
        1    1    3    3  502    0  0.63646695267E+03  0.39079087215E+02  0.35256520952E+03  0.72864228802E+03  0.50400001928E-02 0.  1.
       -1    1    3    3    0  502 -0.63646695267E+03 -0.39079087215E+02  0.82163324151E+02  0.64293714216E+03  0.50400001928E-02 0. -1.
</event>
<event>
 5   0  0.3403833E-04  0.1301016E+04  0.7818609E-02  0.9028760E-01
        1   -1    0    0  501    0  0.00000000000E+00  0.00000000000E+00  0.79558355456E+03  0.79558355458E+03  0.50400001928E-02 0.  1.
       -1   -1    0    0    0  501  0.00000000000E+00  0.00000000000E+00 -0.53188693652E+03  0.53188693655E+03  0.50400001928E-02 0. -1.
    10030    2    1    2    0    0  0.00000000000E+00  0.00000000000E+00  0.26369661804E+03  0.13274704911E+04  0.13010157564E+04 0.  0.
        1    1    3    3  502    0  0.46293199717E+03  0.37596125454E+03 -0.13325714087E+03  0.61107312536E+03  0.50400001928E-02 0. -1.
       -1    1    3    3    0  502 -0.46293199717E+03 -0.37596125454E+03  0.39695375891E+03  0.71639736576E+03  0.50400001928E-02 0.  1.
</event>
<event>
 5   0  0.5957913E-04  0.1302466E+04  0.7818609E-02  0.9027612E-01
       -2   -1    0    0    0  501  0.00000000000E+00  0.00000000000E+00  0.58177174723E+03  0.58177174724E+03  0.25500000920E-02 0.  1.
        2   -1    0    0  501    0  0.00000000000E+00  0.00000000000E+00 -0.72898731755E+03  0.72898731755E+03  0.25500000920E-02 0. -1.
    10030    2    1    2    0    0  0.00000000000E+00  0.00000000000E+00 -0.14721557032E+03  0.13107590648E+04  0.13024657008E+04 0.  0.
        1    1    3    3  502    0 -0.38248573780E+03 -0.50681257516E+03 -0.21927021356E+03  0.67173934866E+03  0.50400001928E-02 0. -1.
       -1    1    3    3    0  502  0.38248573780E+03  0.50681257516E+03  0.72054643240E+02  0.63901971613E+03  0.50400001928E-02 0.  1.
</event>
<event>
 5   0  0.3263679E-04  0.1301286E+04  0.7818609E-02  0.9028546E-01
       -1   -1    0    0    0  501  0.00000000000E+00  0.00000000000E+00  0.49786802960E+03  0.49786802963E+03  0.50400001928E-02 0. -1.
        1   -1    0    0  501    0  0.00000000000E+00  0.00000000000E+00 -0.85029860865E+03  0.85029860866E+03  0.50400001928E-02 0.  1.
    10030    2    1    2    0    0  0.00000000000E+00  0.00000000000E+00 -0.35243057905E+03  0.13481666383E+04  0.13012862758E+04 0.  0.
        2    1    3    3  502    0 -0.56711519216E+03  0.43913914463E+02  0.15105817893E+03  0.58852922315E+03  0.25500000920E-02 0. -1.
       -2    1    3    3    0  502  0.56711519216E+03 -0.43913914463E+02 -0.50348875798E+03  0.75963741514E+03  0.25500000920E-02 0.  1.
</event>
<event>
 5   0  0.3403833E-04  0.1291271E+04  0.7818609E-02  0.9036516E-01
        1   -1    0    0  501    0  0.00000000000E+00  0.00000000000E+00  0.47579284341E+03  0.47579284344E+03  0.50400001928E-02 0.  1.
       -1   -1    0    0    0  501  0.00000000000E+00  0.00000000000E+00 -0.87610679863E+03  0.87610679865E+03  0.50400001928E-02 0. -1.
    10030    2    1    2    0    0  0.00000000000E+00  0.00000000000E+00 -0.40031395522E+03  0.13518996421E+04  0.12912712262E+04 0.  0.
        1    1    3    3  502    0 -0.65609722793E+02 -0.59400646974E+03  0.55644657743E+02  0.60020384019E+03  0.50400001928E-02 0.  1.
       -1    1    3    3    0  502  0.65609722793E+02  0.59400646974E+03 -0.45595861297E+03  0.75169580189E+03  0.50400001928E-02 0. -1.
</event>
<event>
 5   0  0.5384960E-04  0.1301457E+04  0.7818609E-02  0.9028411E-01
       -2   -1    0    0    0  501  0.00000000000E+00  0.00000000000E+00  0.43096538910E+03  0.43096538910E+03  0.25500000920E-02 0.  1.
        2   -1    0    0  501    0  0.00000000000E+00  0.00000000000E+00 -0.98255522860E+03  0.98255522860E+03  0.25500000920E-02 0. -1.
    10030    2    1    2    0    0  0.00000000000E+00  0.00000000000E+00 -0.55158983950E+03  0.14135206177E+04  0.13014565631E+04 0.  0.
        3    1    3    3  502    0  0.20831597528E+03  0.90241555116E+02  0.38655936189E+03  0.44829369200E+03  0.10100000352E+00 0.  1.
       -3    1    3    3    0  502 -0.20831597528E+03 -0.90241555116E+02 -0.93814920139E+03  0.96522692570E+03  0.10100000352E+00 0. -1.
</event>
<event>
 5   0  0.3274879E-04  0.1299811E+04  0.7818609E-02  0.9029715E-01
        1   -1    0    0  501    0  0.00000000000E+00  0.00000000000E+00  0.14412660545E+04  0.14412660545E+04  0.50400001928E-02 0. -1.
       -1   -1    0    0    0  501  0.00000000000E+00  0.00000000000E+00 -0.29305998278E+03  0.29305998282E+03  0.50400001928E-02 0.  1.
    10030    2    1    2    0    0  0.00000000000E+00  0.00000000000E+00  0.11482060717E+04  0.17343260373E+04  0.12998113788E+04 0.  0.
        4    1    3    3  502    0 -0.11383014517E+03  0.22402285653E+03 -0.22561716955E+03  0.33771032305E+03  0.12699999809E+01 0.  1.
       -4    1    3    3    0  502  0.11383014517E+03 -0.22402285653E+03  0.13738232412E+04  0.13966157143E+04  0.12699999809E+01 0. -1.
</event>
<event>
 5   0  0.3274879E-04  0.1297687E+04  0.7818609E-02  0.9031402E-01
        1   -1    0    0  501    0  0.00000000000E+00  0.00000000000E+00  0.89340864663E+03  0.89340864665E+03  0.50400001928E-02 0. -1.
       -1   -1    0    0    0  501  0.00000000000E+00  0.00000000000E+00 -0.47122624560E+03  0.47122624563E+03  0.50400001928E-02 0.  1.
    10030    2    1    2    0    0  0.00000000000E+00  0.00000000000E+00  0.42218240103E+03  0.13646348923E+04  0.12976865606E+04 0.  0.
        4    1    3    3  502    0 -0.60737037881E+03  0.20401972293E+03  0.31870937949E+03  0.71561170048E+03  0.12699999809E+01 0. -1.
       -4    1    3    3    0  502  0.60737037881E+03 -0.20401972293E+03  0.10347302154E+03  0.64902319179E+03  0.12699999809E+01 0.  1.
</event>
<event>
 5   0  0.3274879E-04  0.1299633E+04  0.7818609E-02  0.9029856E-01
       -1   -1    0    0    0  501  0.00000000000E+00  0.00000000000E+00  0.21949887496E+03  0.21949887502E+03  0.50400001928E-02 0.  1.
        1   -1    0    0  501    0  0.00000000000E+00  0.00000000000E+00 -0.19237537272E+04  0.19237537272E+04  0.50400001928E-02 0. -1.
    10030    2    1    2    0    0  0.00000000000E+00  0.00000000000E+00 -0.17042548522E+04  0.21432526022E+04  0.12996334543E+04 0.  0.
        4    1    3    3  502    0 -0.13333107917E+03 -0.28579439343E+03  0.84835277852E+02  0.32657962162E+03  0.12699999809E+01 0.  1.
       -4    1    3    3    0  502  0.13333107917E+03  0.28579439343E+03 -0.17890901301E+04  0.18166729806E+04  0.12699999809E+01 0. -1.
</event>
<event>
 5   0  0.6052864E-04  0.1296819E+04  0.7818609E-02  0.9032092E-01
        2   -1    0    0  501    0  0.00000000000E+00  0.00000000000E+00  0.60232441555E+03  0.60232441555E+03  0.25500000920E-02 0. -1.
       -2   -1    0    0    0  501  0.00000000000E+00  0.00000000000E+00 -0.69802053823E+03  0.69802053824E+03  0.25500000920E-02 0.  1.
    10030    2    1    2    0    0  0.00000000000E+00  0.00000000000E+00 -0.95696122685E+02  0.13003449538E+04  0.12968188967E+04 0.  0.
        2    1    3    3  502    0  0.33459724902E+03  0.35041828809E+03 -0.47993330173E+03  0.68197087166E+03  0.25500000920E-02 0.  1.
       -2    1    3    3    0  502 -0.33459724902E+03 -0.35041828809E+03  0.38423717905E+03  0.61837408213E+03  0.25500000920E-02 0. -1.
</event>
<event>
 5   0  0.5787604E-04  0.1289330E+04  0.7818609E-02  0.9038070E-01
        2   -1    0    0  501    0  0.00000000000E+00  0.00000000000E+00  0.15722474132E+04  0.15722474132E+04  0.25500000920E-02 0. -1.
       -2   -1    0    0    0  501  0.00000000000E+00  0.00000000000E+00 -0.26433031327E+03  0.26433031329E+03  0.25500000920E-02 0.  1.
    10030    2    1    2    0    0  0.00000000000E+00  0.00000000000E+00  0.13079170999E+04  0.18365777265E+04  0.12893295177E+04 0.  0.
        4    1    3    3  502    0 -0.57084095073E+03  0.29492803205E+03  0.72864484481E+03  0.97147663785E+03  0.12699999809E+01 0.  1.
       -4    1    3    3    0  502  0.57084095073E+03 -0.29492803205E+03  0.57927225510E+03  0.86510108863E+03  0.12699999809E+01 0. -1.
</event>
<event>
 5   0  0.5384960E-04  0.1298929E+04  0.7818609E-02  0.9030415E-01
        2   -1    0    0  501    0  0.00000000000E+00  0.00000000000E+00  0.11058588515E+04  0.11058588515E+04  0.25500000920E-02 0. -1.
       -2   -1    0    0    0  501  0.00000000000E+00  0.00000000000E+00 -0.38142653981E+03  0.38142653982E+03  0.25500000920E-02 0.  1.
    10030    2    1    2    0    0  0.00000000000E+00  0.00000000000E+00  0.72443231173E+03  0.14872853914E+04  0.12989286590E+04 0.  0.
        3    1    3    3  502    0  0.48542569207E+03  0.21777156084E+03 -0.64276906430E+02  0.53590492266E+03  0.10100000352E+00 0. -1.
       -3    1    3    3    0  502 -0.48542569207E+03 -0.21777156084E+03  0.78870921816E+03  0.95138046871E+03  0.10100000352E+00 0.  1.
</event>
<event>
 5   0  0.3335747E-04  0.1277029E+04  0.7818609E-02  0.9047982E-01
        1   -1    0    0  501    0  0.00000000000E+00  0.00000000000E+00  0.16438238171E+04  0.16438238171E+04  0.50400001928E-02 0. -1.
       -1   -1    0    0    0  501  0.00000000000E+00  0.00000000000E+00 -0.24801985882E+03  0.24801985887E+03  0.50400001928E-02 0.  1.
    10030    2    1    2    0    0  0.00000000000E+00  0.00000000000E+00  0.13958039583E+04  0.18918436760E+04  0.12770292888E+04 0.  0.
        3    1    3    3  502    0  0.47269714078E+03  0.12135558794E+03  0.87930995631E+02  0.49588470013E+03  0.10100000352E+00 0.  1.
       -3    1    3    3    0  502 -0.47269714078E+03 -0.12135558794E+03  0.13078729626E+04  0.13959589758E+04  0.10100000352E+00 0. -1.
</event>
<event>
 5   0  0.5384960E-04  0.1297682E+04  0.7818609E-02  0.9031405E-01
       -2   -1    0    0    0  501  0.00000000000E+00  0.00000000000E+00  0.80669991399E+03  0.80669991400E+03  0.25500000920E-02 0.  1.
        2   -1    0    0  501    0  0.00000000000E+00  0.00000000000E+00 -0.52187280856E+03  0.52187280856E+03  0.25500000920E-02 0. -1.
    10030    2    1    2    0    0  0.00000000000E+00  0.00000000000E+00  0.28482710543E+03  0.13285727226E+04  0.12976821641E+04 0.  0.
        3    1    3    3  502    0 -0.36172800420E+03 -0.51942912313E+02  0.69131931913E+03  0.78196395465E+03  0.10100000352E+00 0.  1.
       -3    1    3    3    0  502  0.36172800420E+03  0.51942912313E+02 -0.40649221370E+03  0.54660876791E+03  0.10100000352E+00 0. -1.
</event>
<event>
 5   0  0.2255875E-04  0.1300536E+04  0.7818609E-02  0.9029140E-01
        3   -1    0    0  501    0  0.00000000000E+00  0.00000000000E+00  0.73790923683E+03  0.73790924375E+03  0.10100000352E+00 0. -1.
       -3   -1    0    0    0  501  0.00000000000E+00  0.00000000000E+00 -0.57303563964E+03  0.57303564854E+03  0.10100000352E+00 0.  1.
    10030    2    1    2    0    0  0.00000000000E+00  0.00000000000E+00  0.16487359720E+03  0.13109448923E+04  0.13005357387E+04 0.  0.
        5    1    3    3  502    0 -0.60968560640E+03 -0.12258593147E+03  0.27391071845E+03  0.67955354529E+03  0.46999998093E+01 0. -1.
       -5    1    3    3    0  502  0.60968560640E+03  0.12258593147E+03 -0.10903712125E+03  0.63139134699E+03  0.46999998093E+01 0.  1.
</event>
<event>
 5   0  0.6052864E-04  0.1296428E+04  0.7818609E-02  0.9032403E-01
       -2   -1    0    0    0  501  0.00000000000E+00  0.00000000000E+00  0.34463848393E+03  0.34463848394E+03  0.25500000920E-02 0.  1.
        2   -1    0    0  501    0  0.00000000000E+00  0.00000000000E+00 -0.12191943667E+04  0.12191943667E+04  0.25500000920E-02 0. -1.
    10030    2    1    2    0    0  0.00000000000E+00  0.00000000000E+00 -0.87455588273E+03  0.15638328506E+04  0.12964278586E+04 0.  0.
        2    1    3    3  502    0 -0.34553665046E+02 -0.38219162692E+03 -0.10674471719E+04  0.11343314596E+04  0.25500000920E-02 0. -1.
       -2    1    3    3    0  502  0.34553665046E+02  0.38219162692E+03  0.19289128914E+03  0.42950139102E+03  0.25500000920E-02 0.  1.
</event>
<event>
 5   0  0.3335747E-04  0.1255349E+04  0.7818609E-02  0.9065743E-01
       -1   -1    0    0    0  501  0.00000000000E+00  0.00000000000E+00  0.24039022427E+03  0.24039022432E+03  0.50400001928E-02 0. -1.
        1   -1    0    0  501    0  0.00000000000E+00  0.00000000000E+00 -0.16388997976E+04  0.16388997976E+04  0.50400001928E-02 0.  1.
    10030    2    1    2    0    0  0.00000000000E+00  0.00000000000E+00 -0.13985095733E+04  0.18792900220E+04  0.12553493378E+04 0.  0.
        3    1    3    3  502    0 -0.21419367377E+03 -0.37754260873E+03 -0.13779839928E+04  0.14447343167E+04  0.10100000352E+00 0.  1.
       -3    1    3    3    0  502  0.21419367377E+03  0.37754260873E+03 -0.20525580545E+02  0.43455570523E+03  0.10100000352E+00 0. -1.
</event>
<event>
 5   0  0.6007125E-04  0.1299687E+04  0.7818609E-02  0.9029814E-01
       -2   -1    0    0    0  501  0.00000000000E+00  0.00000000000E+00  0.46607608326E+03  0.46607608326E+03  0.25500000920E-02 0.  1.
        2   -1    0    0  501    0  0.00000000000E+00  0.00000000000E+00 -0.90606764846E+03  0.90606764847E+03  0.25500000920E-02 0. -1.
    10030    2    1    2    0    0  0.00000000000E+00  0.00000000000E+00 -0.43999156521E+03  0.13721437317E+04  0.12996868250E+04 0.  0.
        5    1    3    3  502    0 -0.44986128454E+03 -0.36295264267E+03  0.93482852899E+02  0.58555181661E+03  0.46999998093E+01 0.  1.
       -5    1    3    3    0  502  0.44986128454E+03  0.36295264267E+03 -0.53347441811E+03  0.78659191512E+03  0.46999998093E+01 0. -1.
</event>
<event>
 5   0  0.3337520E-04  0.1297778E+04  0.7818609E-02  0.9031329E-01
        1   -1    0    0  501    0  0.00000000000E+00  0.00000000000E+00  0.13010978457E+04  0.13010978457E+04  0.50400001928E-02 0. -1.
       -1   -1    0    0    0  501  0.00000000000E+00  0.00000000000E+00 -0.32361670926E+03  0.32361670930E+03  0.50400001928E-02 0.  1.
    10030    2    1    2    0    0  0.00000000000E+00  0.00000000000E+00  0.97748113641E+03  0.16247145550E+04  0.12977781063E+04 0.  0.
        5    1    3    3  502    0  0.25727398106E+03  0.23290990763E+03 -0.19764739942E+03  0.39940394452E+03  0.46999998093E+01 0.  1.
       -5    1    3    3    0  502 -0.25727398106E+03 -0.23290990763E+03  0.11751285358E+04  0.12253106105E+04  0.46999998093E+01 0. -1.
</event>
<event>
 5   0  0.6007125E-04  0.1293618E+04  0.7818609E-02  0.9034642E-01
       -2   -1    0    0    0  501  0.00000000000E+00  0.00000000000E+00  0.43368856673E+03  0.43368856674E+03  0.25500000920E-02 0.  1.
        2   -1    0    0  501    0  0.00000000000E+00  0.00000000000E+00 -0.96465960280E+03  0.96465960280E+03  0.25500000920E-02 0. -1.
    10030    2    1    2    0    0  0.00000000000E+00  0.00000000000E+00 -0.53097103607E+03  0.13983481695E+04  0.12936179351E+04 0.  0.
        5    1    3    3  502    0 -0.44686966932E+03  0.80488314669E+02 -0.76339469681E+03  0.88823669327E+03  0.46999998093E+01 0. -1.
       -5    1    3    3    0  502  0.44686966932E+03 -0.80488314669E+02  0.23242366074E+03  0.51011147628E+03  0.46999998093E+01 0.  1.
</event>
<event>
 5   0  0.5957913E-04  0.1304277E+04  0.7818609E-02  0.9026181E-01
        2   -1    0    0  501    0  0.00000000000E+00  0.00000000000E+00  0.59201159080E+03  0.59201159081E+03  0.25500000920E-02 0.  1.
       -2   -1    0    0    0  501  0.00000000000E+00  0.00000000000E+00 -0.71837181974E+03  0.71837181975E+03  0.25500000920E-02 0. -1.
    10030    2    1    2    0    0  0.00000000000E+00  0.00000000000E+00 -0.12636022894E+03  0.13103834106E+04  0.13042767249E+04 0.  0.
        1    1    3    3  502    0  0.56602986666E+03 -0.30428290975E+03  0.48274154625E+02  0.64444417380E+03  0.50400001928E-02 0.  1.
       -1    1    3    3    0  502 -0.56602986666E+03  0.30428290975E+03 -0.17463438356E+03  0.66593923676E+03  0.50400001928E-02 0. -1.
</event>
<event>
 5   0  0.5787604E-04  0.1294580E+04  0.7818609E-02  0.9033875E-01
       -2   -1    0    0    0  501  0.00000000000E+00  0.00000000000E+00  0.34024179784E+03  0.34024179785E+03  0.25500000920E-02 0.  1.
        2   -1    0    0  501    0  0.00000000000E+00  0.00000000000E+00 -0.12314306700E+04  0.12314306700E+04  0.25500000920E-02 0. -1.
    10030    2    1    2    0    0  0.00000000000E+00  0.00000000000E+00 -0.89118887219E+03  0.15716724679E+04  0.12945797543E+04 0.  0.
        4    1    3    3  502    0 -0.40891403131E+03 -0.14366528562E+03  0.13807027407E+03  0.45487955854E+03  0.12699999809E+01 0.  1.
       -4    1    3    3    0  502  0.40891403131E+03  0.14366528562E+03 -0.10292591463E+04  0.11167929093E+04  0.12699999809E+01 0. -1.
</event>
<event>
 5   0  0.3335747E-04  0.1298960E+04  0.7818609E-02  0.9030390E-01
       -1   -1    0    0    0  501  0.00000000000E+00  0.00000000000E+00  0.48237027279E+03  0.48237027282E+03  0.50400001928E-02 0. -1.
        1   -1    0    0  501    0  0.00000000000E+00  0.00000000000E+00 -0.87448254533E+03  0.87448254535E+03  0.50400001928E-02 0.  1.
    10030    2    1    2    0    0  0.00000000000E+00  0.00000000000E+00 -0.39211227254E+03  0.13568528182E+04  0.12989601749E+04 0.  0.
        3    1    3    3  502    0 -0.35616251661E+03  0.47755234733E+03 -0.46626722059E+03  0.75651378962E+03  0.10100000352E+00 0.  1.
       -3    1    3    3    0  502  0.35616251661E+03 -0.47755234733E+03  0.74154948052E+02  0.60033902855E+03  0.10100000352E+00 0. -1.
</event>
<event>
 5   0  0.3274879E-04  0.1297792E+04  0.7818609E-02  0.9031318E-01
       -1   -1    0    0    0  501  0.00000000000E+00  0.00000000000E+00  0.56918339130E+03  0.56918339132E+03  0.50400001928E-02 0. -1.
        1   -1    0    0  501    0  0.00000000000E+00  0.00000000000E+00 -0.73977218886E+03  0.73977218888E+03  0.50400001928E-02 0.  1.
    10030    2    1    2    0    0  0.00000000000E+00  0.00000000000E+00 -0.17058879757E+03  0.13089555802E+04  0.12977920377E+04 0.  0.
        4    1    3    3  502    0  0.45185677442E+03  0.46558777445E+03 -0.96246443859E+02  0.65590510836E+03  0.12699999809E+01 0. -1.
       -4    1    3    3    0  502 -0.45185677442E+03 -0.46558777445E+03 -0.74342353707E+02  0.65305047184E+03  0.12699999809E+01 0.  1.
</event>
<event>
 5   0  0.5957913E-04  0.1320819E+04  0.7818609E-02  0.9013217E-01
       -2   -1    0    0    0  501  0.00000000000E+00  0.00000000000E+00  0.36321326522E+03  0.36321326523E+03  0.25500000920E-02 0.  1.
        2   -1    0    0  501    0  0.00000000000E+00  0.00000000000E+00 -0.12007834463E+04  0.12007834463E+04  0.25500000920E-02 0. -1.
    10030    2    1    2    0    0  0.00000000000E+00  0.00000000000E+00 -0.83757018104E+03  0.15639967115E+04  0.13208186497E+04 0.  0.
        1    1    3    3  502    0 -0.11180315702E+03 -0.45717822969E+03  0.12979044551E+03  0.48821863892E+03  0.50400001928E-02 0.  1.
       -1    1    3    3    0  502  0.11180315702E+03  0.45717822969E+03 -0.96736062655E+03  0.10757780726E+04  0.50400001928E-02 0. -1.
</event>
<event>
 5   0  0.3274879E-04  0.1294240E+04  0.7818609E-02  0.9034145E-01
       -1   -1    0    0    0  501  0.00000000000E+00  0.00000000000E+00  0.43275013294E+03  0.43275013297E+03  0.50400001928E-02 0.  1.
        1   -1    0    0  501    0  0.00000000000E+00  0.00000000000E+00 -0.96768145805E+03  0.96768145806E+03  0.50400001928E-02 0. -1.
    10030    2    1    2    0    0  0.00000000000E+00  0.00000000000E+00 -0.53493132511E+03  0.14004315910E+04  0.12942399772E+04 0.  0.
        4    1    3    3  502    0  0.17899645375E+03 -0.52535292086E+03 -0.62752521348E+03  0.83774991994E+03  0.12699999809E+01 0. -1.
       -4    1    3    3    0  502 -0.17899645375E+03  0.52535292086E+03  0.92593888372E+02  0.56268167108E+03  0.12699999809E+01 0.  1.
</event>
<event>
 5   0  0.5787604E-04  0.1286618E+04  0.7818609E-02  0.9040245E-01
        2   -1    0    0  501    0  0.00000000000E+00  0.00000000000E+00  0.60140221125E+03  0.60140221126E+03  0.25500000920E-02 0.  1.
       -2   -1    0    0    0  501  0.00000000000E+00  0.00000000000E+00 -0.68813563667E+03  0.68813563667E+03  0.25500000920E-02 0. -1.
    10030    2    1    2    0    0  0.00000000000E+00  0.00000000000E+00 -0.86733425414E+02  0.12895378479E+04  0.12866177265E+04 0.  0.
        4    1    3    3  502    0  0.21062761265E+03  0.95259445468E+02  0.55833433277E+03  0.60429892703E+03  0.12699999809E+01 0.  1.
       -4    1    3    3    0  502 -0.21062761265E+03 -0.95259445468E+02 -0.64506775819E+03  0.68523892090E+03  0.12699999809E+01 0. -1.
</event>
<event>
 5   0  0.5384960E-04  0.1301046E+04  0.7818609E-02  0.9028736E-01
        2   -1    0    0  501    0  0.00000000000E+00  0.00000000000E+00  0.51124912318E+03  0.51124912319E+03  0.25500000920E-02 0. -1.
       -2   -1    0    0    0  501  0.00000000000E+00  0.00000000000E+00 -0.82773800800E+03  0.82773800800E+03  0.25500000920E-02 0.  1.
    10030    2    1    2    0    0  0.00000000000E+00  0.00000000000E+00 -0.31648888482E+03  0.13389871312E+04  0.13010462418E+04 0.  0.
        3    1    3    3  502    0 -0.36340550352E+03 -0.26398184653E+03 -0.64253080463E+03  0.78396161920E+03  0.10100000352E+00 0.  1.
       -3    1    3    3    0  502  0.36340550352E+03  0.26398184653E+03  0.32604191981E+03  0.55502551199E+03  0.10100000352E+00 0. -1.
</event>
<event>
 5   0  0.6007125E-04  0.1304909E+04  0.7818609E-02  0.9025681E-01
        2   -1    0    0  501    0  0.00000000000E+00  0.00000000000E+00  0.13382578925E+04  0.13382578925E+04  0.25500000920E-02 0. -1.
       -2   -1    0    0    0  501  0.00000000000E+00  0.00000000000E+00 -0.31809774084E+03  0.31809774085E+03  0.25500000920E-02 0.  1.
    10030    2    1    2    0    0  0.00000000000E+00  0.00000000000E+00  0.10201601517E+04  0.16563556334E+04  0.13049089045E+04 0.  0.
        5    1    3    3  502    0  0.43998869177E+03  0.21098404139E+02 -0.10083343870E+03  0.45191223030E+03  0.46999998093E+01 0.  1.
       -5    1    3    3    0  502 -0.43998869177E+03 -0.21098404139E+02  0.11209935904E+04  0.12044434031E+04  0.46999998093E+01 0. -1.
</event>
<event>
 5   0  0.3263679E-04  0.1301128E+04  0.7818609E-02  0.9028671E-01
       -1   -1    0    0    0  501  0.00000000000E+00  0.00000000000E+00  0.38737451158E+03  0.38737451162E+03  0.50400001928E-02 0. -1.
        1   -1    0    0  501    0  0.00000000000E+00  0.00000000000E+00 -0.10925695142E+04  0.10925695142E+04  0.50400001928E-02 0.  1.
    10030    2    1    2    0    0  0.00000000000E+00  0.00000000000E+00 -0.70519500263E+03  0.14799440258E+04  0.13011280982E+04 0.  0.
        2    1    3    3  502    0  0.14446179299E+02 -0.31946932432E+03 -0.99699457411E+03  0.10470279471E+04  0.25500000920E-02 0.  1.
       -2    1    3    3    0  502 -0.14446179299E+02  0.31946932432E+03  0.29179957148E+03  0.43291607870E+03  0.25500000920E-02 0. -1.
</event>
<event>
 5   0  0.3274879E-04  0.1323027E+04  0.7818609E-02  0.9011501E-01
        1   -1    0    0  501    0  0.00000000000E+00  0.00000000000E+00  0.16813004690E+04  0.16813004690E+04  0.50400001928E-02 0.  1.
       -1   -1    0    0    0  501  0.00000000000E+00  0.00000000000E+00 -0.26027488248E+03  0.26027488253E+03  0.50400001928E-02 0. -1.
    10030    2    1    2    0    0  0.00000000000E+00  0.00000000000E+00  0.14210255865E+04  0.19415753515E+04  0.13230272590E+04 0.  0.
        4    1    3    3  502    0 -0.99101256504E+02  0.61757514639E+03  0.39447135127E+03  0.73947912774E+03  0.12699999809E+01 0.  1.
       -4    1    3    3    0  502  0.99101256504E+02 -0.61757514639E+03  0.10265542352E+04  0.12020962238E+04  0.12699999809E+01 0. -1.
</event>
<event>
 5   0  0.2255875E-04  0.1317839E+04  0.7818609E-02  0.9015537E-01
        3   -1    0    0  501    0  0.00000000000E+00  0.00000000000E+00  0.61596205215E+03  0.61596206043E+03  0.10100000352E+00 0.  1.
       -3   -1    0    0    0  501  0.00000000000E+00  0.00000000000E+00 -0.70487304911E+03  0.70487305635E+03  0.10100000352E+00 0. -1.
    10030    2    1    2    0    0  0.00000000000E+00  0.00000000000E+00 -0.88910996960E+02  0.13208351168E+04  0.13178392316E+04 0.  0.
        3    1    3    3  502    0  0.48455724883E+03 -0.40250846693E+03  0.14928747924E+03  0.64737589930E+03  0.10100000352E+00 0.  1.
       -3    1    3    3    0  502 -0.48455724883E+03  0.40250846693E+03 -0.23819847620E+03  0.67345921748E+03  0.10100000352E+00 0. -1.
</event>
<event>
 5   0  0.3403833E-04  0.1302942E+04  0.7818609E-02  0.9027235E-01
       -1   -1    0    0    0  501  0.00000000000E+00  0.00000000000E+00  0.45344791059E+03  0.45344791062E+03  0.50400001928E-02 0. -1.
        1   -1    0    0  501    0  0.00000000000E+00  0.00000000000E+00 -0.93597252191E+03  0.93597252193E+03  0.50400001928E-02 0.  1.
    10030    2    1    2    0    0  0.00000000000E+00  0.00000000000E+00 -0.48252461133E+03  0.13894204325E+04  0.13029424921E+04 0.  0.
        1    1    3    3  502    0 -0.37911812333E+03 -0.12194291500E+03  0.30852851983E+03  0.50377621374E+03  0.50400001928E-02 0. -1.
       -1    1    3    3    0  502  0.37911812333E+03  0.12194291500E+03 -0.79105313116E+03  0.88564421880E+03  0.50400001928E-02 0.  1.
</event>
<event>
 5   0  0.6007125E-04  0.1296158E+04  0.7818609E-02  0.9032618E-01
        2   -1    0    0  501    0  0.00000000000E+00  0.00000000000E+00  0.13581057334E+04  0.13581057334E+04  0.25500000920E-02 0.  1.
       -2   -1    0    0    0  501  0.00000000000E+00  0.00000000000E+00 -0.30925877830E+03  0.30925877831E+03  0.25500000920E-02 0. -1.
    10030    2    1    2    0    0  0.00000000000E+00  0.00000000000E+00  0.10488469551E+04  0.16673645117E+04  0.12961575829E+04 0.  0.
        5    1    3    3  502    0  0.31471232101E+03  0.22305207883E+03 -0.14547338976E+03  0.41228712325E+03  0.46999998093E+01 0. -1.
       -5    1    3    3    0  502 -0.31471232101E+03 -0.22305207883E+03  0.11943203449E+04  0.12550773885E+04  0.46999998093E+01 0.  1.
</event>
<event>
 5   0  0.5787604E-04  0.1298832E+04  0.7818609E-02  0.9030492E-01
       -2   -1    0    0    0  501  0.00000000000E+00  0.00000000000E+00  0.53292716716E+03  0.53292716716E+03  0.25500000920E-02 0.  1.
        2   -1    0    0  501    0  0.00000000000E+00  0.00000000000E+00 -0.79136698253E+03  0.79136698253E+03  0.25500000920E-02 0. -1.
    10030    2    1    2    0    0  0.00000000000E+00  0.00000000000E+00 -0.25843981537E+03  0.13242941497E+04  0.12988317277E+04 0.  0.
        4    1    3    3  502    0  0.27874206217E+03  0.44340895923E+03 -0.52071430251E+03  0.73854833294E+03  0.12699999809E+01 0. -1.
       -4    1    3    3    0  502 -0.27874206217E+03 -0.44340895923E+03  0.26227448714E+03  0.58574581676E+03  0.12699999809E+01 0.  1.
</event>
<event>
 5   0  0.5957913E-04  0.1301049E+04  0.7818609E-02  0.9028734E-01
       -2   -1    0    0    0  501  0.00000000000E+00  0.00000000000E+00  0.24979179445E+03  0.24979179446E+03  0.25500000920E-02 0.  1.
        2   -1    0    0  501    0  0.00000000000E+00  0.00000000000E+00 -0.16941394797E+04  0.16941394797E+04  0.25500000920E-02 0. -1.
    10030    2    1    2    0    0  0.00000000000E+00  0.00000000000E+00 -0.14443476852E+04  0.19439312741E+04  0.13010490240E+04 0.  0.
        1    1    3    3  502    0  0.41301081056E+03  0.16619214100E+03 -0.13472211316E+02  0.44539786469E+03  0.50400001928E-02 0.  1.
       -1    1    3    3    0  502 -0.41301081056E+03 -0.16619214100E+03 -0.14308754739E+04  0.14985334094E+04  0.50400001928E-02 0. -1.
</event>
<event>
 5   0  0.5957913E-04  0.1306624E+04  0.7818609E-02  0.9024328E-01
       -2   -1    0    0    0  501  0.00000000000E+00  0.00000000000E+00  0.29012214794E+03  0.29012214795E+03  0.25500000920E-02 0. -1.
        2   -1    0    0  501    0  0.00000000000E+00  0.00000000000E+00 -0.14711622610E+04  0.14711622610E+04  0.25500000920E-02 0.  1.
    10030    2    1    2    0    0  0.00000000000E+00  0.00000000000E+00 -0.11810401131E+04  0.17612844090E+04  0.13066242844E+04 0.  0.
        1    1    3    3  502    0  0.21738709514E+03  0.56929719477E+03 -0.27307401813E+03  0.66777680740E+03  0.50400001928E-02 0. -1.
       -1    1    3    3    0  502 -0.21738709514E+03 -0.56929719477E+03 -0.90796609497E+03  0.10935076016E+04  0.50400001928E-02 0.  1.
</event>
<event>
 5   0  0.3263679E-04  0.1311777E+04  0.7818609E-02  0.9020278E-01
        1   -1    0    0  501    0  0.00000000000E+00  0.00000000000E+00  0.17108640522E+04  0.17108640522E+04  0.50400001928E-02 0.  1.
       -1   -1    0    0    0  501  0.00000000000E+00  0.00000000000E+00 -0.25144573955E+03  0.25144573960E+03  0.50400001928E-02 0. -1.
    10030    2    1    2    0    0  0.00000000000E+00  0.00000000000E+00  0.14594183126E+04  0.19623097918E+04  0.13117766227E+04 0.  0.
        2    1    3    3  502    0  0.54327642446E+03 -0.35699615515E+03  0.59935000771E+03  0.88420357380E+03  0.25500000920E-02 0. -1.
       -2    1    3    3    0  502 -0.54327642446E+03  0.35699615515E+03  0.86006830492E+03  0.10781062180E+04  0.25500000920E-02 0.  1.
</event>
<event>
 5   0  0.3337520E-04  0.1308705E+04  0.7818609E-02  0.9022691E-01
        1   -1    0    0  501    0  0.00000000000E+00  0.00000000000E+00  0.54505489835E+03  0.54505489837E+03  0.50400001928E-02 0. -1.
       -1   -1    0    0    0  501  0.00000000000E+00  0.00000000000E+00 -0.78556654796E+03  0.78556654797E+03  0.50400001928E-02 0.  1.
    10030    2    1    2    0    0  0.00000000000E+00  0.00000000000E+00 -0.24051164961E+03  0.13306214463E+04  0.13087045426E+04 0.  0.
        5    1    3    3  502    0 -0.49415123402E+03  0.30709396352E+03 -0.42470774643E+03  0.72034082516E+03  0.46999998093E+01 0. -1.
       -5    1    3    3    0  502  0.49415123402E+03 -0.30709396352E+03  0.18419609682E+03  0.61028062119E+03  0.46999998093E+01 0.  1.
</event>
<event>
 5   0  0.6007125E-04  0.1303731E+04  0.7818609E-02  0.9026611E-01
       -2   -1    0    0    0  501  0.00000000000E+00  0.00000000000E+00  0.24842044099E+03  0.24842044100E+03  0.25500000920E-02 0.  1.
        2   -1    0    0  501    0  0.00000000000E+00  0.00000000000E+00 -0.17105230691E+04  0.17105230691E+04  0.25500000920E-02 0. -1.
    10030    2    1    2    0    0  0.00000000000E+00  0.00000000000E+00 -0.14621026281E+04  0.19589435101E+04  0.13037314066E+04 0.  0.
        5    1    3    3  502    0 -0.19652495262E+03  0.13720486366E+03  0.17978128980E+03  0.29965085312E+03  0.46999998093E+01 0.  1.
       -5    1    3    3    0  502  0.19652495262E+03 -0.13720486366E+03 -0.16418839179E+04  0.16592926570E+04  0.46999998093E+01 0. -1.
</event>
<event>
 5   0  0.3274879E-04  0.1299681E+04  0.7818609E-02  0.9029818E-01
       -1   -1    0    0    0  501  0.00000000000E+00  0.00000000000E+00  0.39695164349E+03  0.39695164352E+03  0.50400001928E-02 0. -1.
        1   -1    0    0  501    0  0.00000000000E+00  0.00000000000E+00 -0.10638389941E+04  0.10638389941E+04  0.50400001928E-02 0.  1.
    10030    2    1    2    0    0  0.00000000000E+00  0.00000000000E+00 -0.66688735059E+03  0.14607906376E+04  0.12996809411E+04 0.  0.
        4    1    3    3  502    0 -0.60801652454E+03 -0.36920067721E+02 -0.79011486355E+02  0.61424068034E+03  0.12699999809E+01 0. -1.
       -4    1    3    3    0  502  0.60801652454E+03  0.36920067721E+02 -0.58787586423E+03  0.84654995727E+03  0.12699999809E+01 0.  1.
</event>
<event>
 5   0  0.6052864E-04  0.1296546E+04  0.7818609E-02  0.9032309E-01
        2   -1    0    0  501    0  0.00000000000E+00  0.00000000000E+00  0.13106179200E+04  0.13106179200E+04  0.25500000920E-02 0. -1.
       -2   -1    0    0    0  501  0.00000000000E+00  0.00000000000E+00 -0.32065629405E+03  0.32065629406E+03  0.25500000920E-02 0.  1.
    10030    2    1    2    0    0  0.00000000000E+00  0.00000000000E+00  0.98996162597E+03  0.16312742141E+04  0.12965460041E+04 0.  0.
        2    1    3    3  502    0  0.91134494550E+01 -0.49034548483E+03  0.10283853929E+04  0.11393411543E+04  0.25500000920E-02 0. -1.
       -2    1    3    3    0  502 -0.91134494550E+01  0.49034548483E+03 -0.38423766942E+02  0.49193305981E+03  0.25500000920E-02 0.  1.
</event>
<event>
 5   0  0.3403833E-04  0.1310026E+04  0.7818609E-02  0.9021652E-01
        1   -1    0    0  501    0  0.00000000000E+00  0.00000000000E+00  0.13456044262E+04  0.13456044263E+04  0.50400001928E-02 0.  1.
       -1   -1    0    0    0  501  0.00000000000E+00  0.00000000000E+00 -0.31884721184E+03  0.31884721188E+03  0.50400001928E-02 0. -1.
    10030    2    1    2    0    0  0.00000000000E+00  0.00000000000E+00  0.10267572144E+04  0.16644516381E+04  0.13100262892E+04 0.  0.
        1    1    3    3  502    0 -0.52429580413E+03  0.28202175912E+02  0.10109418680E+04  0.11391597401E+04  0.50400001928E-02 0.  1.
       -1    1    3    3    0  502  0.52429580413E+03 -0.28202175912E+02  0.15815346427E+02  0.52529189805E+03  0.50400001928E-02 0. -1.
</event>
<event>
 5   0  0.5384960E-04  0.1303365E+04  0.7818609E-02  0.9026901E-01
        2   -1    0    0  501    0  0.00000000000E+00  0.00000000000E+00  0.11884606127E+04  0.11884606128E+04  0.25500000920E-02 0.  1.
       -2   -1    0    0    0  501  0.00000000000E+00  0.00000000000E+00 -0.35734468857E+03  0.35734468858E+03  0.25500000920E-02 0. -1.
    10030    2    1    2    0    0  0.00000000000E+00  0.00000000000E+00  0.83111592418E+03  0.15458053013E+04  0.13033650104E+04 0.  0.
        3    1    3    3  502    0  0.18672173813E+03  0.49258545945E+03  0.87056694643E+03  0.10175422649E+04  0.10100000352E+00 0.  1.
       -3    1    3    3    0  502 -0.18672173813E+03 -0.49258545945E+03 -0.39451022255E+02  0.52826303648E+03  0.10100000352E+00 0. -1.
</event>
<event>
 5   0  0.6007125E-04  0.1296716E+04  0.7818609E-02  0.9032174E-01
        2   -1    0    0  501    0  0.00000000000E+00  0.00000000000E+00  0.20313585106E+04  0.20313585106E+04  0.25500000920E-02 0. -1.
       -2   -1    0    0    0  501  0.00000000000E+00  0.00000000000E+00 -0.20693933694E+03  0.20693933695E+03  0.25500000920E-02 0.  1.
    10030    2    1    2    0    0  0.00000000000E+00  0.00000000000E+00  0.18244191736E+04  0.22382978475E+04  0.12967158259E+04 0.  0.
        5    1    3    3  502    0 -0.43607326048E+02  0.32143742730E+03  0.18811846872E+04  0.19089529947E+04  0.46999998093E+01 0. -1.
       -5    1    3    3    0  502  0.43607326048E+02 -0.32143742730E+03 -0.56765513582E+02  0.32934485283E+03  0.46999998093E+01 0.  1.
</event>
<event>
 5   0  0.3403833E-04  0.1297966E+04  0.7818609E-02  0.9031179E-01
        1   -1    0    0  501    0  0.00000000000E+00  0.00000000000E+00  0.57175983676E+03  0.57175983678E+03  0.50400001928E-02 0.  1.
       -1   -1    0    0    0  501  0.00000000000E+00  0.00000000000E+00 -0.73663642716E+03  0.73663642718E+03  0.50400001928E-02 0. -1.
    10030    2    1    2    0    0  0.00000000000E+00  0.00000000000E+00 -0.16487659040E+03  0.13083962640E+04  0.12979662914E+04 0.  0.
        1    1    3    3  502    0 -0.54681240812E+03  0.28628830159E+03 -0.28458480964E+03  0.67967147594E+03  0.50400001928E-02 0. -1.
       -1    1    3    3    0  502  0.54681240812E+03 -0.28628830159E+03  0.11970821924E+03  0.62872478803E+03  0.50400001928E-02 0.  1.
</event>
<event>
 5   0  0.3274879E-04  0.1305371E+04  0.7818609E-02  0.9025316E-01
       -1   -1    0    0    0  501  0.00000000000E+00  0.00000000000E+00  0.53516569018E+03  0.53516569020E+03  0.50400001928E-02 0.  1.
        1   -1    0    0  501    0  0.00000000000E+00  0.00000000000E+00 -0.79601251365E+03  0.79601251366E+03  0.50400001928E-02 0. -1.
    10030    2    1    2    0    0  0.00000000000E+00  0.00000000000E+00 -0.26084682347E+03  0.13311782039E+04  0.13053713438E+04 0.  0.
        4    1    3    3  502    0 -0.56593093861E+03 -0.31427853701E+03 -0.21542687714E+03  0.68224568771E+03  0.12699999809E+01 0.  1.
       -4    1    3    3    0  502  0.56593093861E+03  0.31427853701E+03 -0.45419946333E+02  0.64893251616E+03  0.12699999809E+01 0. -1.
</event>
<event>
 5   0  0.3337520E-04  0.1300453E+04  0.7818609E-02  0.9029206E-01
        1   -1    0    0  501    0  0.00000000000E+00  0.00000000000E+00  0.75208417565E+03  0.75208417567E+03  0.50400001928E-02 0.  1.
       -1   -1    0    0    0  501  0.00000000000E+00  0.00000000000E+00 -0.56216352585E+03  0.56216352587E+03  0.50400001928E-02 0. -1.
    10030    2    1    2    0    0  0.00000000000E+00  0.00000000000E+00  0.18992064981E+03  0.13142477015E+04  0.13004526780E+04 0.  0.
        5    1    3    3  502    0 -0.93028817239E+02  0.32179260690E+03  0.65815764222E+03  0.73851094420E+03  0.46999998093E+01 0.  1.
       -5    1    3    3    0  502  0.93028817239E+02 -0.32179260690E+03 -0.46823699241E+03  0.57573675734E+03  0.46999998093E+01 0. -1.
</event>
<event>
 5   0  0.3337520E-04  0.1304583E+04  0.7818609E-02  0.9025939E-01
        1   -1    0    0  501    0  0.00000000000E+00  0.00000000000E+00  0.34610885254E+03  0.34610885258E+03  0.50400001928E-02 0.  1.
       -1   -1    0    0    0  501  0.00000000000E+00  0.00000000000E+00 -0.12293357312E+04  0.12293357312E+04  0.50400001928E-02 0. -1.
    10030    2    1    2    0    0  0.00000000000E+00  0.00000000000E+00 -0.88322687861E+03  0.15754445837E+04  0.13045826602E+04 0.  0.
        5    1    3    3  502    0 -0.34943389914E+03 -0.55070737362E+03 -0.45236251658E+03  0.79374844733E+03  0.46999998093E+01 0.  1.
       -5    1    3    3    0  502  0.34943389914E+03  0.55070737362E+03 -0.43086436203E+03  0.78169613642E+03  0.46999998093E+01 0. -1.
</event>
<event>
 5   0  0.6007125E-04  0.1308076E+04  0.7818609E-02  0.9023185E-01
       -2   -1    0    0    0  501  0.00000000000E+00  0.00000000000E+00  0.41019434314E+03  0.41019434314E+03  0.25500000920E-02 0. -1.
        2   -1    0    0  501    0  0.00000000000E+00  0.00000000000E+00 -0.10428362116E+04  0.10428362116E+04  0.25500000920E-02 0.  1.
    10030    2    1    2    0    0  0.00000000000E+00  0.00000000000E+00 -0.63264186849E+03  0.14530305548E+04  0.13080757086E+04 0.  0.
        5    1    3    3  502    0 -0.58585741842E+03 -0.13359039822E+03 -0.60313533694E+03  0.85139276123E+03  0.46999998093E+01 0.  1.
       -5    1    3    3    0  502  0.58585741842E+03  0.13359039822E+03 -0.29506531547E+02  0.60163779354E+03  0.46999998093E+01 0. -1.
</event>
<event>
 5   0  0.6007125E-04  0.1305263E+04  0.7818609E-02  0.9025402E-01
        2   -1    0    0  501    0  0.00000000000E+00  0.00000000000E+00  0.82052919185E+03  0.82052919185E+03  0.25500000920E-02 0.  1.
       -2   -1    0    0    0  501  0.00000000000E+00  0.00000000000E+00 -0.51908940860E+03  0.51908940861E+03  0.25500000920E-02 0. -1.
    10030    2    1    2    0    0  0.00000000000E+00  0.00000000000E+00  0.30143978324E+03  0.13396186005E+04  0.13052632117E+04 0.  0.
        5    1    3    3  502    0  0.53010244285E+03 -0.13927240836E+03  0.51430478693E+03  0.75162284925E+03  0.46999998093E+01 0. -1.
       -5    1    3    3    0  502 -0.53010244285E+03  0.13927240836E+03 -0.21286500369E+03  0.58799575121E+03  0.46999998093E+01 0.  1.
</event>
<event>
 5   0  0.5384960E-04  0.1300177E+04  0.7818609E-02  0.9029425E-01
       -2   -1    0    0    0  501  0.00000000000E+00  0.00000000000E+00  0.72923684732E+03  0.72923684733E+03  0.25500000920E-02 0.  1.
        2   -1    0    0  501    0  0.00000000000E+00  0.00000000000E+00 -0.57953034559E+03  0.57953034559E+03  0.25500000920E-02 0. -1.
    10030    2    1    2    0    0  0.00000000000E+00  0.00000000000E+00  0.14970650174E+03  0.13087671929E+04  0.13001767298E+04 0.  0.
        3    1    3    3  502    0 -0.75987127134E+01 -0.44988300458E+03  0.54716810043E+03  0.70841047323E+03  0.10100000352E+00 0.  1.
       -3    1    3    3    0  502  0.75987127134E+01  0.44988300458E+03 -0.39746159870E+03  0.60035671969E+03  0.10100000352E+00 0. -1.
</event>
<event>
 5   0  0.6007125E-04  0.1306704E+04  0.7818609E-02  0.9024265E-01
        2   -1    0    0  501    0  0.00000000000E+00  0.00000000000E+00  0.15176030127E+04  0.15176030127E+04  0.25500000920E-02 0.  1.
       -2   -1    0    0    0  501  0.00000000000E+00  0.00000000000E+00 -0.28127844088E+03  0.28127844089E+03  0.25500000920E-02 0. -1.
    10030    2    1    2    0    0  0.00000000000E+00  0.00000000000E+00  0.12363245719E+04  0.17988814536E+04  0.13067042654E+04 0.  0.
        5    1    3    3  502    0 -0.21293925079E+03  0.59025564082E+03  0.36769394833E+03  0.72730033390E+03  0.46999998093E+01 0.  1.
       -5    1    3    3    0  502  0.21293925079E+03 -0.59025564082E+03  0.86863062354E+03  0.10715811197E+04  0.46999998093E+01 0. -1.
</event>
<event>
 5   0  0.3263679E-04  0.1326463E+04  0.7818609E-02  0.9008839E-01
        1   -1    0    0  501    0  0.00000000000E+00  0.00000000000E+00  0.27029297172E+04  0.27029297172E+04  0.50400001928E-02 0. -1.
       -1   -1    0    0    0  501  0.00000000000E+00  0.00000000000E+00 -0.16274057506E+03  0.16274057513E+03  0.50400001928E-02 0.  1.
    10030    2    1    2    0    0  0.00000000000E+00  0.00000000000E+00  0.25401891421E+04  0.28656702923E+04  0.13264634735E+04 0.  0.
        2    1    3    3  502    0  0.18152204860E+03 -0.29605033895E+03  0.49372003667E+02  0.35076153164E+03  0.25500000920E-02 0.  1.
       -2    1    3    3    0  502 -0.18152204860E+03  0.29605033895E+03  0.24908171384E+04  0.25149087607E+04  0.25500000920E-02 0. -1.
</event>
<event>
 5   0  0.5384960E-04  0.1297203E+04  0.7818609E-02  0.9031786E-01
       -2   -1    0    0    0  501  0.00000000000E+00  0.00000000000E+00  0.56532101741E+03  0.56532101742E+03  0.25500000920E-02 0.  1.
        2   -1    0    0  501    0  0.00000000000E+00  0.00000000000E+00 -0.74415055811E+03  0.74415055812E+03  0.25500000920E-02 0. -1.
    10030    2    1    2    0    0  0.00000000000E+00  0.00000000000E+00 -0.17882954070E+03  0.13094715755E+04  0.12972030691E+04 0.  0.
        3    1    3    3  502    0  0.37035074449E+02  0.11637300374E+03  0.55361028853E+03  0.56692030702E+03  0.10100000352E+00 0.  1.
       -3    1    3    3    0  502 -0.37035074449E+02 -0.11637300374E+03 -0.73243982923E+03  0.74255126852E+03  0.10100000352E+00 0. -1.
</event>
<event>
 5   0  0.5787604E-04  0.1298412E+04  0.7818609E-02  0.9030825E-01
        2   -1    0    0  501    0  0.00000000000E+00  0.00000000000E+00  0.23761561289E+04  0.23761561289E+04  0.25500000920E-02 0.  1.
       -2   -1    0    0    0  501  0.00000000000E+00  0.00000000000E+00 -0.17737412509E+03  0.17737412511E+03  0.25500000920E-02 0. -1.
    10030    2    1    2    0    0  0.00000000000E+00  0.00000000000E+00  0.21987820038E+04  0.25535302540E+04  0.12984122835E+04 0.  0.
        4    1    3    3  502    0 -0.61903092209E+03 -0.11075721540E+03  0.78227385242E+03  0.10037033607E+04  0.12699999809E+01 0. -1.
       -4    1    3    3    0  502  0.61903092209E+03  0.11075721540E+03  0.14165081514E+04  0.15498268933E+04  0.12699999809E+01 0.  1.
</event>
<event>
 5   0  0.5384960E-04  0.1303145E+04  0.7818609E-02  0.9027075E-01
        2   -1    0    0  501    0  0.00000000000E+00  0.00000000000E+00  0.80141246861E+03  0.80141246862E+03  0.25500000920E-02 0.  1.
       -2   -1    0    0    0  501  0.00000000000E+00  0.00000000000E+00 -0.52974811861E+03  0.52974811862E+03  0.25500000920E-02 0. -1.
    10030    2    1    2    0    0  0.00000000000E+00  0.00000000000E+00  0.27166435000E+03  0.13311605872E+04  0.13031450380E+04 0.  0.
        3    1    3    3  502    0  0.89081492641E+02 -0.17550143541E+03  0.77032205735E+03  0.79506751186E+03  0.10100000352E+00 0.  1.
       -3    1    3    3    0  502 -0.89081492641E+02  0.17550143541E+03 -0.49865770736E+03  0.53609307538E+03  0.10100000352E+00 0. -1.
</event>
<event>
 5   0  0.2255875E-04  0.1306198E+04  0.7818609E-02  0.9024665E-01
       -4   -1    0    0    0  501  0.00000000000E+00  0.00000000000E+00  0.14294315644E+04  0.14294321286E+04  0.12699999809E+01 0.  1.
        4   -1    0    0  501    0  0.00000000000E+00  0.00000000000E+00 -0.29839501529E+03  0.29839771790E+03  0.12699999809E+01 0. -1.
    10030    2    1    2    0    0  0.00000000000E+00  0.00000000000E+00  0.11310365491E+04  0.17278298465E+04  0.13061976508E+04 0.  0.
        5    1    3    3  502    0  0.10135373412E+03  0.60592843809E+03  0.27242430948E+03  0.67205576100E+03  0.46999998093E+01 0.  1.
       -5    1    3    3    0  502 -0.10135373412E+03 -0.60592843809E+03  0.85861223964E+03  0.10557740855E+04  0.46999998093E+01 0. -1.
</event>
<event>
 5   0  0.6052864E-04  0.1293857E+04  0.7818609E-02  0.9034451E-01
        2   -1    0    0  501    0  0.00000000000E+00  0.00000000000E+00  0.18608157370E+04  0.18608157370E+04  0.25500000920E-02 0. -1.
       -2   -1    0    0    0  501  0.00000000000E+00  0.00000000000E+00 -0.22491036175E+03  0.22491036176E+03  0.25500000920E-02 0.  1.
    10030    2    1    2    0    0  0.00000000000E+00  0.00000000000E+00  0.16359053752E+04  0.20857260988E+04  0.12938573964E+04 0.  0.
        2    1    3    3  502    0  0.54644211018E+02  0.21926492251E+03  0.17951272259E+04  0.18092940207E+04  0.25500000920E-02 0. -1.
       -2    1    3    3    0  502 -0.54644211018E+02 -0.21926492251E+03 -0.15922185068E+03  0.27643207806E+03  0.25500000920E-02 0.  1.
</event>
<event>
 5   0  0.3274879E-04  0.1293007E+04  0.7818609E-02  0.9035129E-01
        1   -1    0    0  501    0  0.00000000000E+00  0.00000000000E+00  0.11350304402E+04  0.11350304402E+04  0.50400001928E-02 0.  1.
       -1   -1    0    0    0  501  0.00000000000E+00  0.00000000000E+00 -0.36824285628E+03  0.36824285631E+03  0.50400001928E-02 0. -1.
    10030    2    1    2    0    0  0.00000000000E+00  0.00000000000E+00  0.76678758391E+03  0.15032732965E+04  0.12930071172E+04 0.  0.
        4    1    3    3  502    0  0.60840475519E+03 -0.20791282330E+03  0.30470293209E+03  0.71149812224E+03  0.12699999809E+01 0.  1.
       -4    1    3    3    0  502 -0.60840475519E+03  0.20791282330E+03  0.46208465182E+03  0.79177517427E+03  0.12699999809E+01 0. -1.
</event>
<event>
 5   0  0.3263679E-04  0.1301577E+04  0.7818609E-02  0.9028315E-01
        1   -1    0    0  501    0  0.00000000000E+00  0.00000000000E+00  0.79375099264E+03  0.79375099266E+03  0.50400001928E-02 0.  1.
       -1   -1    0    0    0  501  0.00000000000E+00  0.00000000000E+00 -0.53357517445E+03  0.53357517448E+03  0.50400001928E-02 0. -1.
    10030    2    1    2    0    0  0.00000000000E+00  0.00000000000E+00  0.26017581819E+03  0.13273261671E+04  0.13015772346E+04 0.  0.
        2    1    3    3  502    0 -0.54000066287E+03  0.30201568673E+02  0.49920560354E+03  0.73601568276E+03  0.25500000920E-02 0.  1.
       -2    1    3    3    0  502  0.54000066287E+03 -0.30201568673E+02 -0.23902978535E+03  0.59131048438E+03  0.25500000920E-02 0. -1.
</event>
<event>
 5   0  0.5787604E-04  0.1297934E+04  0.7818609E-02  0.9031205E-01
       -2   -1    0    0    0  501  0.00000000000E+00  0.00000000000E+00  0.77555716381E+03  0.77555716382E+03  0.25500000920E-02 0. -1.
        2   -1    0    0  501    0  0.00000000000E+00  0.00000000000E+00 -0.54303915905E+03  0.54303915905E+03  0.25500000920E-02 0.  1.
    10030    2    1    2    0    0  0.00000000000E+00  0.00000000000E+00  0.23251800477E+03  0.13185963229E+04  0.12979336039E+04 0.  0.
        4    1    3    3  502    0  0.35989296696E+03  0.26420772418E+03 -0.36222475668E+03  0.57492352225E+03  0.12699999809E+01 0.  1.
       -4    1    3    3    0  502 -0.35989296696E+03 -0.26420772418E+03  0.59474276144E+03  0.74367280062E+03  0.12699999809E+01 0. -1.
</event>
<event>
 5   0  0.3335747E-04  0.1357864E+04  0.7818609E-02  0.8984897E-01
        1   -1    0    0  501    0  0.00000000000E+00  0.00000000000E+00  0.83898137872E+03  0.83898137874E+03  0.50400001928E-02 0. -1.
       -1   -1    0    0    0  501  0.00000000000E+00  0.00000000000E+00 -0.54941444474E+03  0.54941444476E+03  0.50400001928E-02 0.  1.
    10030    2    1    2    0    0  0.00000000000E+00  0.00000000000E+00  0.28956693398E+03  0.13883958235E+04  0.13578637463E+04 0.  0.
        3    1    3    3  502    0  0.20983328625E+03 -0.56319721794E+03 -0.17811372999E+03  0.62685375115E+03  0.10100000352E+00 0.  1.
       -3    1    3    3    0  502 -0.20983328625E+03  0.56319721794E+03  0.46768066397E+03  0.76154207235E+03  0.10100000352E+00 0. -1.
</event>
<event>
 5   0  0.2255875E-04  0.1316228E+04  0.7818609E-02  0.9016794E-01
       -4   -1    0    0    0  501  0.00000000000E+00  0.00000000000E+00  0.77191461603E+03  0.77191566077E+03  0.12699999809E+01 0.  1.
        4   -1    0    0  501    0  0.00000000000E+00  0.00000000000E+00 -0.56108832176E+03  0.56108975905E+03  0.12699999809E+01 0. -1.
    10030    2    1    2    0    0  0.00000000000E+00  0.00000000000E+00  0.21082629428E+03  0.13330054198E+04  0.13162278385E+04 0.  0.
        4    1    3    3  502    0  0.25301932178E+03  0.40279428288E+03  0.56601844341E+03  0.73935140677E+03  0.12699999809E+01 0.  1.
       -4    1    3    3    0  502 -0.25301932178E+03 -0.40279428288E+03 -0.35519214913E+03  0.59365401305E+03  0.12699999809E+01 0. -1.
</event>
<event>
 5   0  0.5384960E-04  0.1303058E+04  0.7818609E-02  0.9027143E-01
       -2   -1    0    0    0  501  0.00000000000E+00  0.00000000000E+00  0.42238631939E+03  0.42238631940E+03  0.25500000920E-02 0. -1.
        2   -1    0    0  501    0  0.00000000000E+00  0.00000000000E+00 -0.10049810920E+04  0.10049810920E+04  0.25500000920E-02 0.  1.
    10030    2    1    2    0    0  0.00000000000E+00  0.00000000000E+00 -0.58259477265E+03  0.14273674114E+04  0.13030583479E+04 0.  0.
        3    1    3    3  502    0 -0.38467543157E+02  0.28002500370E+03  0.35172685415E+03  0.45122671098E+03  0.10100000352E+00 0. -1.
       -3    1    3    3    0  502  0.38467543157E+02 -0.28002500370E+03 -0.93432162680E+03  0.97614070046E+03  0.10100000352E+00 0.  1.
</event>
<event>
 5   0  0.5384960E-04  0.1300982E+04  0.7818609E-02  0.9028787E-01
        2   -1    0    0  501    0  0.00000000000E+00  0.00000000000E+00  0.57964001111E+03  0.57964001112E+03  0.25500000920E-02 0. -1.
       -2   -1    0    0    0  501  0.00000000000E+00  0.00000000000E+00 -0.73000228270E+03  0.73000228271E+03  0.25500000920E-02 0.  1.
    10030    2    1    2    0    0  0.00000000000E+00  0.00000000000E+00 -0.15036227159E+03  0.13096422938E+04  0.13009819849E+04 0.  0.
        3    1    3    3  502    0 -0.34229335464E+03 -0.52144593569E+03 -0.26098476672E+03  0.67615357955E+03  0.10100000352E+00 0. -1.
       -3    1    3    3    0  502  0.34229335464E+03  0.52144593569E+03  0.11062249513E+03  0.63348871427E+03  0.10100000352E+00 0.  1.
</event>
<event>
 5   0  0.5787604E-04  0.1300413E+04  0.7818609E-02  0.9029238E-01
       -2   -1    0    0    0  501  0.00000000000E+00  0.00000000000E+00  0.38836247306E+03  0.38836247307E+03  0.25500000920E-02 0.  1.
        2   -1    0    0  501    0  0.00000000000E+00  0.00000000000E+00 -0.10885923992E+04  0.10885923992E+04  0.25500000920E-02 0. -1.
    10030    2    1    2    0    0  0.00000000000E+00  0.00000000000E+00 -0.70022992617E+03  0.14769548723E+04  0.13004129134E+04 0.  0.
        4    1    3    3  502    0 -0.23842523307E+03 -0.40851385363E+03  0.15658689085E+03  0.49824815872E+03  0.12699999809E+01 0.  1.
       -4    1    3    3    0  502  0.23842523307E+03  0.40851385363E+03 -0.85681681702E+03  0.97870671358E+03  0.12699999809E+01 0. -1.
</event>
<event>
 5   0  0.3403833E-04  0.1300672E+04  0.7818609E-02  0.9029033E-01
        1   -1    0    0  501    0  0.00000000000E+00  0.00000000000E+00  0.12174798406E+04  0.12174798406E+04  0.50400001928E-02 0. -1.
       -1   -1    0    0    0  501  0.00000000000E+00  0.00000000000E+00 -0.34738708055E+03  0.34738708059E+03  0.50400001928E-02 0.  1.
    10030    2    1    2    0    0  0.00000000000E+00  0.00000000000E+00  0.87009276002E+03  0.15648669212E+04  0.13006717764E+04 0.  0.
        1    1    3    3  502    0 -0.24405214465E+03 -0.57345562680E+03  0.65859397930E+03  0.90672974740E+03  0.50400001928E-02 0. -1.
       -1    1    3    3    0  502  0.24405214465E+03  0.57345562680E+03  0.21149878072E+03  0.65813717376E+03  0.50400001928E-02 0.  1.
</event>
<event>
 5   0  0.5787604E-04  0.1310099E+04  0.7818609E-02  0.9021595E-01
       -2   -1    0    0    0  501  0.00000000000E+00  0.00000000000E+00  0.76903938955E+03  0.76903938956E+03  0.25500000920E-02 0. -1.
        2   -1    0    0  501    0  0.00000000000E+00  0.00000000000E+00 -0.55795572906E+03  0.55795572907E+03  0.25500000920E-02 0.  1.
    10030    2    1    2    0    0  0.00000000000E+00  0.00000000000E+00  0.21108366049E+03  0.13269951186E+04  0.13100991310E+04 0.  0.
        4    1    3    3  502    0 -0.39014485033E+03 -0.20663938578E+03 -0.38461592300E+03  0.58552870222E+03  0.12699999809E+01 0.  1.
       -4    1    3    3    0  502  0.39014485033E+03  0.20663938578E+03  0.59569958348E+03  0.74146641641E+03  0.12699999809E+01 0. -1.
</event>
<event>
 5   0  0.3335747E-04  0.1302883E+04  0.7818609E-02  0.9027282E-01
       -1   -1    0    0    0  501  0.00000000000E+00  0.00000000000E+00  0.10935912118E+04  0.10935912118E+04  0.50400001928E-02 0. -1.
        1   -1    0    0  501    0  0.00000000000E+00  0.00000000000E+00 -0.38805720131E+03  0.38805720134E+03  0.50400001928E-02 0.  1.
    10030    2    1    2    0    0  0.00000000000E+00  0.00000000000E+00  0.70553401052E+03  0.14816484132E+04  0.13028828728E+04 0.  0.
        3    1    3    3  502    0 -0.39361485683E+03  0.51368130592E+03  0.26785790330E+03  0.70039203745E+03  0.10100000352E+00 0.  1.
       -3    1    3    3    0  502  0.39361485683E+03 -0.51368130592E+03  0.43767610722E+03  0.78125637572E+03  0.10100000352E+00 0. -1.
</event>
<event>
 5   0  0.5384960E-04  0.1301302E+04  0.7818609E-02  0.9028533E-01
       -2   -1    0    0    0  501  0.00000000000E+00  0.00000000000E+00  0.26064814048E+03  0.26064814049E+03  0.25500000920E-02 0.  1.
        2   -1    0    0  501    0  0.00000000000E+00  0.00000000000E+00 -0.16242073965E+04  0.16242073965E+04  0.25500000920E-02 0. -1.
    10030    2    1    2    0    0  0.00000000000E+00  0.00000000000E+00 -0.13635592560E+04  0.18848555370E+04  0.13013018676E+04 0.  0.
        3    1    3    3  502    0  0.12179691200E+03  0.34287764769E+03  0.99500902734E+02  0.37722673408E+03  0.10100000352E+00 0.  1.
       -3    1    3    3    0  502 -0.12179691200E+03 -0.34287764769E+03 -0.14630601588E+04  0.15076288029E+04  0.10100000352E+00 0. -1.
</event>
<event>
 5   0  0.5384960E-04  0.1296272E+04  0.7818609E-02  0.9032527E-01
        2   -1    0    0  501    0  0.00000000000E+00  0.00000000000E+00  0.79443333496E+03  0.79443333497E+03  0.25500000920E-02 0. -1.
       -2   -1    0    0    0  501  0.00000000000E+00  0.00000000000E+00 -0.52877986655E+03  0.52877986656E+03  0.25500000920E-02 0.  1.
    10030    2    1    2    0    0  0.00000000000E+00  0.00000000000E+00  0.26565346841E+03  0.13232132015E+04  0.12962721209E+04 0.  0.
        3    1    3    3  502    0  0.51579988781E+03  0.18291001175E+03  0.48728231801E+03  0.73276849299E+03  0.10100000352E+00 0. -1.
       -3    1    3    3    0  502 -0.51579988781E+03 -0.18291001175E+03 -0.22162884961E+03  0.59044470854E+03  0.10100000352E+00 0.  1.
</event>
<event>
 5   0  0.3274879E-04  0.1291862E+04  0.7818609E-02  0.9036043E-01
        1   -1    0    0  501    0  0.00000000000E+00  0.00000000000E+00  0.80699569418E+03  0.80699569419E+03  0.50400001928E-02 0. -1.
       -1   -1    0    0    0  501  0.00000000000E+00  0.00000000000E+00 -0.51701285214E+03  0.51701285216E+03  0.50400001928E-02 0.  1.
    10030    2    1    2    0    0  0.00000000000E+00  0.00000000000E+00  0.28998284204E+03  0.13240085464E+04  0.12918624471E+04 0.  0.
        4    1    3    3  502    0 -0.46125394274E+03 -0.26494026119E+03  0.52054794841E+03  0.74425823555E+03  0.12699999809E+01 0. -1.
       -4    1    3    3    0  502  0.46125394274E+03  0.26494026119E+03 -0.23056510637E+03  0.57975031080E+03  0.12699999809E+01 0.  1.
</event>
<event>
 5   0  0.3403833E-04  0.1303898E+04  0.7818609E-02  0.9026480E-01
       -1   -1    0    0    0  501  0.00000000000E+00  0.00000000000E+00  0.80277283450E+03  0.80277283452E+03  0.50400001928E-02 0.  1.
        1   -1    0    0  501    0  0.00000000000E+00  0.00000000000E+00 -0.52946153035E+03  0.52946153037E+03  0.50400001928E-02 0. -1.
    10030    2    1    2    0    0  0.00000000000E+00  0.00000000000E+00  0.27331130415E+03  0.13322343649E+04  0.13038977468E+04 0.  0.
        1    1    3    3  502    0  0.62764470079E+03 -0.17371915097E+03  0.16766517740E+03  0.67247886627E+03  0.50400001928E-02 0.  1.
       -1    1    3    3    0  502 -0.62764470079E+03  0.17371915097E+03  0.10564612675E+03  0.65975549862E+03  0.50400001928E-02 0. -1.
</event>
<event>
 5   0  0.5957913E-04  0.1298677E+04  0.7818609E-02  0.9030615E-01
       -2   -1    0    0    0  501  0.00000000000E+00  0.00000000000E+00  0.14270626722E+04  0.14270626722E+04  0.25500000920E-02 0.  1.
        2   -1    0    0  501    0  0.00000000000E+00  0.00000000000E+00 -0.29546026777E+03  0.29546026778E+03  0.25500000920E-02 0. -1.
    10030    2    1    2    0    0  0.00000000000E+00  0.00000000000E+00  0.11316024044E+04  0.17225229400E+04  0.12986767408E+04 0.  0.
        1    1    3    3  502    0 -0.44447365270E+03 -0.47335929342E+03  0.56075566161E+03  0.85794682857E+03  0.50400001928E-02 0. -1.
       -1    1    3    3    0  502  0.44447365270E+03  0.47335929342E+03  0.57084674283E+03  0.86457611142E+03  0.50400001928E-02 0.  1.
</event>
<event>
 5   0  0.3263679E-04  0.1300241E+04  0.7818609E-02  0.9029374E-01
       -1   -1    0    0    0  501  0.00000000000E+00  0.00000000000E+00  0.12425665139E+04  0.12425665140E+04  0.50400001928E-02 0.  1.
        1   -1    0    0  501    0  0.00000000000E+00  0.00000000000E+00 -0.34014826158E+03  0.34014826162E+03  0.50400001928E-02 0. -1.
    10030    2    1    2    0    0  0.00000000000E+00  0.00000000000E+00  0.90241825236E+03  0.15827147756E+04  0.13002412694E+04 0.  0.
        2    1    3    3  502    0 -0.48096173264E+03  0.15807425941E+03 -0.45250368573E+02  0.50829052284E+03  0.25500000920E-02 0. -1.
       -2    1    3    3    0  502  0.48096173264E+03 -0.15807425941E+03  0.94766862093E+03  0.10744242527E+04  0.25500000920E-02 0.  1.
</event>
<event>
 5   0  0.6007125E-04  0.1303341E+04  0.7818609E-02  0.9026920E-01
       -2   -1    0    0    0  501  0.00000000000E+00  0.00000000000E+00  0.50808852929E+03  0.50808852930E+03  0.25500000920E-02 0.  1.
        2   -1    0    0  501    0  0.00000000000E+00  0.00000000000E+00 -0.83582784895E+03  0.83582784896E+03  0.25500000920E-02 0. -1.
    10030    2    1    2    0    0  0.00000000000E+00  0.00000000000E+00 -0.32773931966E+03  0.13439163783E+04  0.13033411564E+04 0.  0.
        5    1    3    3  502    0 -0.56310394571E+03 -0.20860557375E+03  0.97090427426E+02  0.60831815703E+03  0.46999998093E+01 0.  1.
       -5    1    3    3    0  502  0.56310394571E+03  0.20860557375E+03 -0.42482974708E+03  0.73559822123E+03  0.46999998093E+01 0. -1.
</event>
<event>
 5   0  0.3263679E-04  0.1298760E+04  0.7818609E-02  0.9030549E-01
       -1   -1    0    0    0  501  0.00000000000E+00  0.00000000000E+00  0.16843330268E+03  0.16843330276E+03  0.50400001928E-02 0. -1.
        1   -1    0    0  501    0  0.00000000000E+00  0.00000000000E+00 -0.25036269126E+04  0.25036269126E+04  0.50400001928E-02 0.  1.
    10030    2    1    2    0    0  0.00000000000E+00  0.00000000000E+00 -0.23351936099E+04  0.26720602154E+04  0.12987596386E+04 0.  0.
        2    1    3    3  502    0 -0.40531465706E+03 -0.67036325718E+02 -0.22022845600E+04  0.22402747875E+04  0.25500000920E-02 0.  1.
       -2    1    3    3    0  502  0.40531465706E+03  0.67036325718E+02 -0.13290904994E+03  0.43178542791E+03  0.25500000920E-02 0. -1.
</event>
<event>
 5   0  0.3337520E-04  0.1305063E+04  0.7818609E-02  0.9025560E-01
       -1   -1    0    0    0  501  0.00000000000E+00  0.00000000000E+00  0.89079412036E+03  0.89079412038E+03  0.50400001928E-02 0.  1.
        1   -1    0    0  501    0  0.00000000000E+00  0.00000000000E+00 -0.47799754442E+03  0.47799754445E+03  0.50400001928E-02 0. -1.
    10030    2    1    2    0    0  0.00000000000E+00  0.00000000000E+00  0.41279657594E+03  0.13687916648E+04  0.13050630669E+04 0.  0.
        5    1    3    3  502    0  0.53692084978E+03  0.33751624635E+03  0.45362136642E+02  0.63583097512E+03  0.46999998093E+01 0. -1.
       -5    1    3    3    0  502 -0.53692084978E+03 -0.33751624635E+03  0.36743443930E+03  0.73296068971E+03  0.46999998093E+01 0.  1.
</event>
<event>
 5   0  0.3403833E-04  0.1303805E+04  0.7818609E-02  0.9026553E-01
       -1   -1    0    0    0  501  0.00000000000E+00  0.00000000000E+00  0.26123081267E+03  0.26123081271E+03  0.50400001928E-02 0.  1.
        1   -1    0    0  501    0  0.00000000000E+00  0.00000000000E+00 -0.16268258237E+04  0.16268258237E+04  0.50400001928E-02 0. -1.
    10030    2    1    2    0    0  0.00000000000E+00  0.00000000000E+00 -0.13655950110E+04  0.18880566364E+04  0.13038052493E+04 0.  0.
        1    1    3    3  502    0  0.14457472589E+03 -0.25853264748E+03 -0.15237457920E+04  0.15522700215E+04  0.50400001928E-02 0. -1.
       -1    1    3    3    0  502 -0.14457472589E+03  0.25853264748E+03  0.15815078096E+03  0.33578661486E+03  0.50400001928E-02 0.  1.
</event>
<event>
 5   0  0.6007125E-04  0.1300014E+04  0.7818609E-02  0.9029554E-01
       -2   -1    0    0    0  501  0.00000000000E+00  0.00000000000E+00  0.63979862422E+03  0.63979862423E+03  0.25500000920E-02 0.  1.
        2   -1    0    0  501    0  0.00000000000E+00  0.00000000000E+00 -0.66037801787E+03  0.66037801787E+03  0.25500000920E-02 0. -1.
    10030    2    1    2    0    0  0.00000000000E+00  0.00000000000E+00 -0.20579393644E+02  0.13001766421E+04  0.13000137650E+04 0.  0.
        5    1    3    3  502    0  0.18315972166E+03 -0.42433325433E+02  0.61199303707E+03  0.64023873529E+03  0.46999998093E+01 0.  1.
       -5    1    3    3    0  502 -0.18315972166E+03  0.42433325433E+02 -0.63257243072E+03  0.65993790681E+03  0.46999998093E+01 0. -1.
</event>
<event>
 5   0  0.3263679E-04  0.1296364E+04  0.7818609E-02  0.9032453E-01
       -1   -1    0    0    0  501  0.00000000000E+00  0.00000000000E+00  0.10066948262E+04  0.10066948262E+04  0.50400001928E-02 0.  1.
        1   -1    0    0  501    0  0.00000000000E+00  0.00000000000E+00 -0.41734602237E+03  0.41734602240E+03  0.50400001928E-02 0. -1.
    10030    2    1    2    0    0  0.00000000000E+00  0.00000000000E+00  0.58934880384E+03  0.14240408486E+04  0.12963642721E+04 0.  0.
        2    1    3    3  502    0  0.44823106110E+03  0.19189808641E+03 -0.17447667526E+03  0.51785912169E+03  0.25500000920E-02 0. -1.
       -2    1    3    3    0  502 -0.44823106110E+03 -0.19189808641E+03  0.76382547910E+03  0.90618172693E+03  0.25500000920E-02 0.  1.
</event>
<event>
 5   0  0.3335747E-04  0.1287914E+04  0.7818609E-02  0.9039205E-01
       -1   -1    0    0    0  501  0.00000000000E+00  0.00000000000E+00  0.31426459339E+03  0.31426459343E+03  0.50400001928E-02 0. -1.
        1   -1    0    0  501    0  0.00000000000E+00  0.00000000000E+00 -0.13195272858E+04  0.13195272858E+04  0.50400001928E-02 0.  1.
    10030    2    1    2    0    0  0.00000000000E+00  0.00000000000E+00 -0.10052626924E+04  0.16337918792E+04  0.12879141369E+04 0.  0.
        3    1    3    3  502    0  0.24125433566E+03  0.50960204725E+03 -0.10798425859E+03  0.57407186950E+03  0.10100000352E+00 0. -1.
       -3    1    3    3    0  502 -0.24125433566E+03 -0.50960204725E+03 -0.89727843383E+03  0.10597200097E+04  0.10100000352E+00 0.  1.
</event>
<event>
 5   0  0.5384960E-04  0.1302275E+04  0.7818609E-02  0.9027763E-01
       -2   -1    0    0    0  501  0.00000000000E+00  0.00000000000E+00  0.62879483741E+03  0.62879483742E+03  0.25500000920E-02 0.  1.
        2   -1    0    0  501    0  0.00000000000E+00  0.00000000000E+00 -0.67427356734E+03  0.67427356735E+03  0.25500000920E-02 0. -1.
    10030    2    1    2    0    0  0.00000000000E+00  0.00000000000E+00 -0.45478729929E+02  0.13030684048E+04  0.13022745304E+04 0.  0.
        3    1    3    3  502    0 -0.50158557310E+03 -0.26055735777E+03  0.30072462445E+03  0.64024490141E+03  0.10100000352E+00 0.  1.
       -3    1    3    3    0  502  0.50158557310E+03  0.26055735777E+03 -0.34620335438E+03  0.66282350336E+03  0.10100000352E+00 0. -1.
</event>
<event>
 5   0  0.6007125E-04  0.1291001E+04  0.7818609E-02  0.9036732E-01
       -2   -1    0    0    0  501  0.00000000000E+00  0.00000000000E+00  0.64310322628E+03  0.64310322629E+03  0.25500000920E-02 0.  1.
        2   -1    0    0  501    0  0.00000000000E+00  0.00000000000E+00 -0.64790705437E+03  0.64790705437E+03  0.25500000920E-02 0. -1.
    10030    2    1    2    0    0  0.00000000000E+00  0.00000000000E+00 -0.48038280867E+01  0.12910102807E+04  0.12910013431E+04 0.  0.
        5    1    3    3  502    0  0.49809744705E+03 -0.33909925434E+03 -0.23383310800E+03  0.64636629201E+03  0.46999998093E+01 0. -1.
       -5    1    3    3    0  502 -0.49809744705E+03  0.33909925434E+03  0.22902927991E+03  0.64464398865E+03  0.46999998093E+01 0.  1.
</event>
<event>
 5   0  0.5957913E-04  0.1319815E+04  0.7818609E-02  0.9013998E-01
        2   -1    0    0  501    0  0.00000000000E+00  0.00000000000E+00  0.64627622620E+03  0.64627622621E+03  0.25500000920E-02 0. -1.
       -2   -1    0    0    0  501  0.00000000000E+00  0.00000000000E+00 -0.67382584769E+03  0.67382584769E+03  0.25500000920E-02 0.  1.
    10030    2    1    2    0    0  0.00000000000E+00  0.00000000000E+00 -0.27549621486E+02  0.13201020739E+04  0.13198145718E+04 0.  0.
        1    1    3    3  502    0 -0.44821453412E+03 -0.20217663350E+03  0.42644146267E+03  0.65086402638E+03  0.50400001928E-02 0. -1.
       -1    1    3    3    0  502  0.44821453412E+03  0.20217663350E+03 -0.45399108415E+03  0.66923804752E+03  0.50400001928E-02 0.  1.
</event>
<event>
 5   0  0.3274879E-04  0.1298893E+04  0.7818609E-02  0.9030443E-01
        1   -1    0    0  501    0  0.00000000000E+00  0.00000000000E+00  0.15968431753E+04  0.15968431753E+04  0.50400001928E-02 0. -1.
       -1   -1    0    0    0  501  0.00000000000E+00  0.00000000000E+00 -0.26413425848E+03  0.26413425853E+03  0.50400001928E-02 0.  1.
    10030    2    1    2    0    0  0.00000000000E+00  0.00000000000E+00  0.13327089168E+04  0.18609774339E+04  0.12988933568E+04 0.  0.
        4    1    3    3  502    0 -0.30316792999E+03 -0.12229830091E+03 -0.13765658564E+03  0.35470920012E+03  0.12699999809E+01 0.  1.
       -4    1    3    3    0  502  0.30316792999E+03  0.12229830091E+03  0.14703655025E+04  0.15062682337E+04  0.12699999809E+01 0. -1.
</event>
<event>
 5   0  0.3335747E-04  0.1302122E+04  0.7818609E-02  0.9027884E-01
       -1   -1    0    0    0  501  0.00000000000E+00  0.00000000000E+00  0.21501271984E+03  0.21501271990E+03  0.50400001928E-02 0. -1.
        1   -1    0    0  501    0  0.00000000000E+00  0.00000000000E+00 -0.19714187887E+04  0.19714187887E+04  0.50400001928E-02 0.  1.
    10030    2    1    2    0    0  0.00000000000E+00  0.00000000000E+00 -0.17564060689E+04  0.21864315086E+04  0.13021215239E+04 0.  0.
        3    1    3    3  502    0  0.62370769067E+03 -0.15974400793E+03 -0.10405730454E+04  0.12236509733E+04  0.10100000352E+00 0. -1.
       -3    1    3    3    0  502 -0.62370769067E+03  0.15974400793E+03 -0.71583302348E+03  0.96278053531E+03  0.10100000352E+00 0.  1.
</event>
<event>
 5   0  0.3403833E-04  0.1292016E+04  0.7818609E-02  0.9035920E-01
        1   -1    0    0  501    0  0.00000000000E+00  0.00000000000E+00  0.13177011798E+04  0.13177011798E+04  0.50400001928E-02 0. -1.
       -1   -1    0    0    0  501  0.00000000000E+00  0.00000000000E+00 -0.31670800495E+03  0.31670800499E+03  0.50400001928E-02 0.  1.
    10030    2    1    2    0    0  0.00000000000E+00  0.00000000000E+00  0.10009931749E+04  0.16344091848E+04  0.12920162721E+04 0.  0.
        1    1    3    3  502    0 -0.24519786205E+03  0.53280758433E+03  0.15796091149E+03  0.60741877074E+03  0.50400001928E-02 0.  1.
       -1    1    3    3    0  502  0.24519786205E+03 -0.53280758433E+03  0.84303226338E+03  0.10269904141E+04  0.50400001928E-02 0. -1.
</event>
<event>
 5   0  0.6052864E-04  0.1286682E+04  0.7818609E-02  0.9040193E-01
        2   -1    0    0  501    0  0.00000000000E+00  0.00000000000E+00  0.12236130686E+04  0.12236130686E+04  0.25500000920E-02 0.  1.
       -2   -1    0    0    0  501  0.00000000000E+00  0.00000000000E+00 -0.33825057835E+03  0.33825057836E+03  0.25500000920E-02 0. -1.
    10030    2    1    2    0    0  0.00000000000E+00  0.00000000000E+00  0.88536249020E+03  0.15618636469E+04  0.12866822889E+04 0.  0.
        2    1    3    3  502    0  0.49687938908E+03 -0.18430810666E+03  0.88541773781E+03  0.10319026969E+04  0.25500000920E-02 0.  1.
       -2    1    3    3    0  502 -0.49687938908E+03  0.18430810666E+03 -0.55247601800E-01  0.52996095001E+03  0.25500000920E-02 0. -1.
</event>
<event>
 5   0  0.3403833E-04  0.1299278E+04  0.7818609E-02  0.9030138E-01
       -1   -1    0    0    0  501  0.00000000000E+00  0.00000000000E+00  0.22032543178E+03  0.22032543184E+03  0.50400001928E-02 0. -1.
        1   -1    0    0  501    0  0.00000000000E+00  0.00000000000E+00 -0.19154873368E+04  0.19154873368E+04  0.50400001928E-02 0.  1.
    10030    2    1    2    0    0  0.00000000000E+00  0.00000000000E+00 -0.16951619050E+04  0.21358127686E+04  0.12992776064E+04 0.  0.
        1    1    3    3  502    0 -0.58974368695E+03 -0.25177956229E+03 -0.67643127979E+03  0.93206750860E+03  0.50400001928E-02 0.  1.
       -1    1    3    3    0  502  0.58974368695E+03  0.25177956229E+03 -0.10187306252E+04  0.12037452600E+04  0.50400001928E-02 0. -1.
</event>
<event>
 5   0  0.2255875E-04  0.1298802E+04  0.7818609E-02  0.9030516E-01
       -4   -1    0    0    0  501  0.00000000000E+00  0.00000000000E+00  0.10113079028E+04  0.10113087003E+04  0.12699999809E+01 0.  1.
        4   -1    0    0  501    0  0.00000000000E+00  0.00000000000E+00 -0.41700427231E+03  0.41700620622E+03  0.12699999809E+01 0. -1.
    10030    2    1    2    0    0  0.00000000000E+00  0.00000000000E+00  0.59430363053E+03  0.14283149065E+04  0.12988020122E+04 0.  0.
        2    1    3    3  502    0  0.10543959861E+03  0.25572038932E+03 -0.34898350209E+03  0.44530878186E+03  0.25500000920E-02 0. -1.
       -2    1    3    3    0  502 -0.10543959861E+03 -0.25572038932E+03  0.94328713262E+03  0.98300612462E+03  0.25500000920E-02 0.  1.
</event>
<event>
 5   0  0.3274879E-04  0.1307296E+04  0.7818609E-02  0.9023799E-01
       -1   -1    0    0    0  501  0.00000000000E+00  0.00000000000E+00  0.68580951306E+03  0.68580951308E+03  0.50400001928E-02 0.  1.
        1   -1    0    0  501    0  0.00000000000E+00  0.00000000000E+00 -0.62299464825E+03  0.62299464827E+03  0.50400001928E-02 0. -1.
    10030    2    1    2    0    0  0.00000000000E+00  0.00000000000E+00  0.62814864808E+02  0.13088041613E+04  0.13072959212E+04 0.  0.
        4    1    3    3  502    0  0.67917263175E+02  0.64963086697E+03  0.56356567030E+02  0.65559949169E+03  0.12699999809E+01 0.  1.
       -4    1    3    3    0  502 -0.67917263175E+02 -0.64963086697E+03  0.64582977783E+01  0.65320466966E+03  0.12699999809E+01 0. -1.
</event>
<event>
 5   0  0.5957913E-04  0.1301032E+04  0.7818609E-02  0.9028747E-01
        2   -1    0    0  501    0  0.00000000000E+00  0.00000000000E+00  0.10887426116E+04  0.10887426116E+04  0.25500000920E-02 0.  1.
       -2   -1    0    0    0  501  0.00000000000E+00  0.00000000000E+00 -0.38867898381E+03  0.38867898381E+03  0.25500000920E-02 0. -1.
    10030    2    1    2    0    0  0.00000000000E+00  0.00000000000E+00  0.70006362784E+03  0.14774215955E+04  0.13010324699E+04 0.  0.
        1    1    3    3  502    0  0.59885266569E+03 -0.19729512722E+03  0.16826336801E+03  0.65258136923E+03  0.50400001928E-02 0. -1.
       -1    1    3    3    0  502 -0.59885266569E+03  0.19729512722E+03  0.53180025982E+03  0.82484022623E+03  0.50400001928E-02 0.  1.
</event>
<event>
 5   0  0.5384960E-04  0.1306524E+04  0.7818609E-02  0.9024407E-01
       -2   -1    0    0    0  501  0.00000000000E+00  0.00000000000E+00  0.21922344201E+03  0.21922344202E+03  0.25500000920E-02 0. -1.
        2   -1    0    0  501    0  0.00000000000E+00  0.00000000000E+00 -0.19466499139E+04  0.19466499139E+04  0.25500000920E-02 0.  1.
    10030    2    1    2    0    0  0.00000000000E+00  0.00000000000E+00 -0.17274264719E+04  0.21658733559E+04  0.13065240825E+04 0.  0.
        3    1    3    3  502    0  0.38154960934E+03 -0.30756684867E+03 -0.14766713583E+03  0.51184281181E+03  0.10100000352E+00 0. -1.
       -3    1    3    3    0  502 -0.38154960934E+03  0.30756684867E+03 -0.15797593361E+04  0.16540305441E+04  0.10100000352E+00 0.  1.
</event>
<event>
 5   0  0.3263679E-04  0.1306826E+04  0.7818609E-02  0.9024170E-01
       -1   -1    0    0    0  501  0.00000000000E+00  0.00000000000E+00  0.28183938450E+04  0.28183938450E+04  0.50400001928E-02 0. -1.
        1   -1    0    0  501    0  0.00000000000E+00  0.00000000000E+00 -0.15148643981E+03  0.15148643990E+03  0.50400001928E-02 0.  1.
    10030    2    1    2    0    0  0.00000000000E+00  0.00000000000E+00  0.26669074052E+04  0.29698802849E+04  0.13068258487E+04 0.  0.
        2    1    3    3  502    0 -0.21517177280E+03  0.32004119342E+03  0.13473331440E+03  0.40850743361E+03  0.25500000920E-02 0.  1.
       -2    1    3    3    0  502  0.21517177280E+03 -0.32004119342E+03  0.25321740908E+04  0.25613728513E+04  0.25500000920E-02 0. -1.
</event>
<event>
 5   0  0.2255875E-04  0.1298417E+04  0.7818609E-02  0.9030822E-01
        3   -1    0    0  501    0  0.00000000000E+00  0.00000000000E+00  0.60900955972E+03  0.60900956810E+03  0.10100000352E+00 0.  1.
       -3   -1    0    0    0  501  0.00000000000E+00  0.00000000000E+00 -0.69206068561E+03  0.69206069298E+03  0.10100000352E+00 0. -1.
    10030    2    1    2    0    0  0.00000000000E+00  0.00000000000E+00 -0.83051125890E+02  0.13010702611E+04  0.12984168571E+04 0.  0.
        4    1    3    3  502    0 -0.25585144408E+03  0.86601696793E+02  0.55002833972E+03  0.61277451214E+03  0.12699999809E+01 0.  1.
       -4    1    3    3    0  502  0.25585144408E+03 -0.86601696793E+02 -0.63307946561E+03  0.68829574894E+03  0.12699999809E+01 0. -1.
</event>
<event>
 5   0  0.3337520E-04  0.1304354E+04  0.7818609E-02  0.9026120E-01
       -1   -1    0    0    0  501  0.00000000000E+00  0.00000000000E+00  0.42749690531E+03  0.42749690534E+03  0.50400001928E-02 0.  1.
        1   -1    0    0  501    0  0.00000000000E+00  0.00000000000E+00 -0.99494211910E+03  0.99494211911E+03  0.50400001928E-02 0. -1.
    10030    2    1    2    0    0  0.00000000000E+00  0.00000000000E+00 -0.56744521379E+03  0.14224390245E+04  0.13043537510E+04 0.  0.
        5    1    3    3  502    0  0.42107620922E+03  0.49758392198E+03 -0.30600933651E+03  0.72011022588E+03  0.46999998093E+01 0.  1.
       -5    1    3    3    0  502 -0.42107620922E+03 -0.49758392198E+03 -0.26143587728E+03  0.70232879858E+03  0.46999998093E+01 0. -1.
</event>
<event>
 5   0  0.6007125E-04  0.1299306E+04  0.7818609E-02  0.9030115E-01
       -2   -1    0    0    0  501  0.00000000000E+00  0.00000000000E+00  0.25680289874E+03  0.25680289875E+03  0.25500000920E-02 0.  1.
        2   -1    0    0  501    0  0.00000000000E+00  0.00000000000E+00 -0.16434757109E+04  0.16434757109E+04  0.25500000920E-02 0. -1.
    10030    2    1    2    0    0  0.00000000000E+00  0.00000000000E+00 -0.13866728121E+04  0.19002786096E+04  0.12993064713E+04 0.  0.
        5    1    3    3  502    0  0.39553693799E+03 -0.39208635742E+03 -0.11824570742E+04  0.13070608262E+04  0.46999998093E+01 0. -1.
       -5    1    3    3    0  502 -0.39553693799E+03  0.39208635742E+03 -0.20421573795E+03  0.59321778346E+03  0.46999998093E+01 0.  1.
</event>
<event>
 5   0  0.5957913E-04  0.1298207E+04  0.7818609E-02  0.9030988E-01
        2   -1    0    0  501    0  0.00000000000E+00  0.00000000000E+00  0.14482297072E+04  0.14482297072E+04  0.25500000920E-02 0.  1.
       -2   -1    0    0    0  501  0.00000000000E+00  0.00000000000E+00 -0.29093150095E+03  0.29093150096E+03  0.25500000920E-02 0. -1.
    10030    2    1    2    0    0  0.00000000000E+00  0.00000000000E+00  0.11572982063E+04  0.17391612082E+04  0.12982074448E+04 0.  0.
        1    1    3    3  502    0 -0.52910970712E+03  0.71498412678E+02  0.10731764978E+04  0.11986562896E+04  0.50400001928E-02 0.  1.
       -1    1    3    3    0  502  0.52910970712E+03 -0.71498412678E+02  0.84121708527E+02  0.54050491862E+03  0.50400001928E-02 0. -1.
</event>
<event>
 5   0  0.3337520E-04  0.1279216E+04  0.7818609E-02  0.9046211E-01
       -1   -1    0    0    0  501  0.00000000000E+00  0.00000000000E+00  0.79208049112E+03  0.79208049114E+03  0.50400001928E-02 0.  1.
        1   -1    0    0  501    0  0.00000000000E+00  0.00000000000E+00 -0.51648610922E+03  0.51648610924E+03  0.50400001928E-02 0. -1.
    10030    2    1    2    0    0  0.00000000000E+00  0.00000000000E+00  0.27559438190E+03  0.13085666004E+04  0.12792162774E+04 0.  0.
        5    1    3    3  502    0 -0.38762251548E+03 -0.40567853742E+03  0.45184297927E+03  0.72042380454E+03  0.46999998093E+01 0.  1.
       -5    1    3    3    0  502  0.38762251548E+03  0.40567853742E+03 -0.17624859737E+03  0.58814279584E+03  0.46999998093E+01 0. -1.
</event>
<event>
 5   0  0.3263679E-04  0.1298940E+04  0.7818609E-02  0.9030406E-01
       -1   -1    0    0    0  501  0.00000000000E+00  0.00000000000E+00  0.40878249046E+03  0.40878249049E+03  0.50400001928E-02 0. -1.
        1   -1    0    0  501    0  0.00000000000E+00  0.00000000000E+00 -0.10318727237E+04  0.10318727237E+04  0.50400001928E-02 0.  1.
    10030    2    1    2    0    0  0.00000000000E+00  0.00000000000E+00 -0.62309023325E+03  0.14406552142E+04  0.12989403402E+04 0.  0.
        2    1    3    3  502    0  0.28897082307E+03 -0.21420665225E+03  0.28821353640E+03  0.46092913666E+03  0.25500000920E-02 0. -1.
       -2    1    3    3    0  502 -0.28897082307E+03  0.21420665225E+03 -0.91130376965E+03  0.97972607756E+03  0.25500000920E-02 0.  1.
</event>
<event>
 5   0  0.5787604E-04  0.1290370E+04  0.7818609E-02  0.9037237E-01
        2   -1    0    0  501    0  0.00000000000E+00  0.00000000000E+00  0.15335779372E+04  0.15335779372E+04  0.25500000920E-02 0. -1.
       -2   -1    0    0    0  501  0.00000000000E+00  0.00000000000E+00 -0.27143285565E+03  0.27143285566E+03  0.25500000920E-02 0.  1.
    10030    2    1    2    0    0  0.00000000000E+00  0.00000000000E+00  0.12621450815E+04  0.18050107928E+04  0.12903696197E+04 0.  0.
        4    1    3    3  502    0 -0.31926515849E+03  0.42754539670E+03  0.11384005553E+04  0.12572520610E+04  0.12699999809E+01 0. -1.
       -4    1    3    3    0  502  0.31926515849E+03 -0.42754539670E+03  0.12374452626E+03  0.54775873187E+03  0.12699999809E+01 0.  1.
</event>
<event>
 5   0  0.5384960E-04  0.1300389E+04  0.7818609E-02  0.9029257E-01
       -2   -1    0    0    0  501  0.00000000000E+00  0.00000000000E+00  0.31139775952E+03  0.31139775953E+03  0.25500000920E-02 0.  1.
        2   -1    0    0  501    0  0.00000000000E+00  0.00000000000E+00 -0.13575982762E+04  0.13575982762E+04  0.25500000920E-02 0. -1.
    10030    2    1    2    0    0  0.00000000000E+00  0.00000000000E+00 -0.10462005166E+04  0.16689960357E+04  0.13003892672E+04 0.  0.
        3    1    3    3  502    0  0.21242354720E+01  0.54471534308E+02 -0.13546601229E+04  0.13557565118E+04  0.10100000352E+00 0. -1.
       -3    1    3    3    0  502 -0.21242354720E+01 -0.54471534308E+02  0.30845960628E+03  0.31323952390E+03  0.10100000352E+00 0.  1.
</event>
<event>
 5   0  0.6007125E-04  0.1297336E+04  0.7818609E-02  0.9031681E-01
       -2   -1    0    0    0  501  0.00000000000E+00  0.00000000000E+00  0.25447183530E+03  0.25447183531E+03  0.25500000920E-02 0.  1.
        2   -1    0    0  501    0  0.00000000000E+00  0.00000000000E+00 -0.16535030155E+04  0.16535030155E+04  0.25500000920E-02 0. -1.
    10030    2    1    2    0    0  0.00000000000E+00  0.00000000000E+00 -0.13990311802E+04  0.19079748508E+04  0.12973356497E+04 0.  0.
        5    1    3    3  502    0  0.42438303492E+03  0.12263384396E+02 -0.14207470783E+04  0.14828336729E+04  0.46999998093E+01 0. -1.
       -5    1    3    3    0  502 -0.42438303492E+03 -0.12263384396E+02  0.21715898116E+02  0.42514117791E+03  0.46999998093E+01 0.  1.
</event>
<event>
 5   0  0.6007125E-04  0.1284450E+04  0.7818609E-02  0.9041988E-01
        2   -1    0    0  501    0  0.00000000000E+00  0.00000000000E+00  0.83151684853E+03  0.83151684854E+03  0.25500000920E-02 0. -1.
       -2   -1    0    0    0  501  0.00000000000E+00  0.00000000000E+00 -0.49602444331E+03  0.49602444332E+03  0.25500000920E-02 0.  1.
    10030    2    1    2    0    0  0.00000000000E+00  0.00000000000E+00  0.33549240522E+03  0.13275412919E+04  0.12844495816E+04 0.  0.
        5    1    3    3  502    0  0.17029998875E+03 -0.54540027068E+03 -0.13529172677E+03  0.58718777470E+03  0.46999998093E+01 0.  1.
       -5    1    3    3    0  502 -0.17029998875E+03  0.54540027068E+03  0.47078413199E+03  0.74035351715E+03  0.46999998093E+01 0. -1.
</event>
<event>
 5   0  0.6007125E-04  0.1300874E+04  0.7818609E-02  0.9028873E-01
       -2   -1    0    0    0  501  0.00000000000E+00  0.00000000000E+00  0.93891064880E+03  0.93891064881E+03  0.25500000920E-02 0. -1.
        2   -1    0    0  501    0  0.00000000000E+00  0.00000000000E+00 -0.45059468238E+03  0.45059468238E+03  0.25500000920E-02 0.  1.
    10030    2    1    2    0    0  0.00000000000E+00  0.00000000000E+00  0.48831596643E+03  0.13895053312E+04  0.13008737765E+04 0.  0.
        5    1    3    3  502    0 -0.38076230908E+03  0.37182882603E+03  0.64354442004E+03  0.83510964696E+03  0.46999998093E+01 0. -1.
       -5    1    3    3    0  502  0.38076230908E+03 -0.37182882603E+03 -0.15522845361E+03  0.55439568423E+03  0.46999998093E+01 0.  1.
</event>
<event>
 5   0  0.3337520E-04  0.1301399E+04  0.7818609E-02  0.9028457E-01
       -1   -1    0    0    0  501  0.00000000000E+00  0.00000000000E+00  0.35529022524E+03  0.35529022527E+03  0.50400001928E-02 0. -1.
        1   -1    0    0  501    0  0.00000000000E+00  0.00000000000E+00 -0.11917292756E+04  0.11917292756E+04  0.50400001928E-02 0.  1.
    10030    2    1    2    0    0  0.00000000000E+00  0.00000000000E+00 -0.83643905033E+03  0.15470195009E+04  0.13013988824E+04 0.  0.
        5    1    3    3  502    0  0.11801894845E+03  0.18772055848E+03 -0.11454113162E+04  0.11666861847E+04  0.46999998093E+01 0.  1.
       -5    1    3    3    0  502 -0.11801894845E+03 -0.18772055848E+03  0.30897226590E+03  0.38033331613E+03  0.46999998093E+01 0. -1.
</event>
<event>
 5   0  0.5957913E-04  0.1314151E+04  0.7818609E-02  0.9018418E-01
        2   -1    0    0  501    0  0.00000000000E+00  0.00000000000E+00  0.82796094567E+03  0.82796094567E+03  0.25500000920E-02 0.  1.
       -2   -1    0    0    0  501  0.00000000000E+00  0.00000000000E+00 -0.52145977098E+03  0.52145977099E+03  0.25500000920E-02 0. -1.
    10030    2    1    2    0    0  0.00000000000E+00  0.00000000000E+00  0.30650117468E+03  0.13494207167E+04  0.13141511711E+04 0.  0.
        1    1    3    3  502    0  0.19286355218E+03 -0.42498117805E+03  0.62820405277E+03  0.78258908976E+03  0.50400001928E-02 0.  1.
       -1    1    3    3    0  502 -0.19286355218E+03  0.42498117805E+03 -0.32170287809E+03  0.56683162690E+03  0.50400001928E-02 0. -1.
</event>
<event>
 5   0  0.3263679E-04  0.1306743E+04  0.7818609E-02  0.9024235E-01
        1   -1    0    0  501    0  0.00000000000E+00  0.00000000000E+00  0.15010497209E+04  0.15010497210E+04  0.50400001928E-02 0.  1.
       -1   -1    0    0    0  501  0.00000000000E+00  0.00000000000E+00 -0.28439717246E+03  0.28439717251E+03  0.50400001928E-02 0. -1.
    10030    2    1    2    0    0  0.00000000000E+00  0.00000000000E+00  0.12166525485E+04  0.17854468935E+04  0.13067429685E+04 0.  0.
        2    1    3    3  502    0  0.56047902706E+03  0.74838863003E+02  0.16105971047E+03  0.58794372650E+03  0.25500000920E-02 0. -1.
       -2    1    3    3    0  502 -0.56047902706E+03 -0.74838863003E+02  0.10555928380E+04  0.11975031670E+04  0.25500000920E-02 0.  1.
</event>
<event>
 5   0  0.3263679E-04  0.1301267E+04  0.7818609E-02  0.9028561E-01
       -1   -1    0    0    0  501  0.00000000000E+00  0.00000000000E+00  0.60213467778E+03  0.60213467780E+03  0.50400001928E-02 0.  1.
        1   -1    0    0  501    0  0.00000000000E+00  0.00000000000E+00 -0.70303886408E+03  0.70303886409E+03  0.50400001928E-02 0. -1.
    10030    2    1    2    0    0  0.00000000000E+00  0.00000000000E+00 -0.10090418630E+03  0.13051735419E+04  0.13012671976E+04 0.  0.
        2    1    3    3  502    0 -0.35228783415E+02 -0.64383400987E+03  0.36761683424E+02  0.64584419237E+03  0.25500000920E-02 0.  1.
       -2    1    3    3    0  502  0.35228783415E+02  0.64383400987E+03 -0.13766586972E+03  0.65932934952E+03  0.25500000920E-02 0. -1.
</event>
<event>
 5   0  0.3335747E-04  0.1295459E+04  0.7818609E-02  0.9033174E-01
        1   -1    0    0  501    0  0.00000000000E+00  0.00000000000E+00  0.69032897926E+03  0.69032897928E+03  0.50400001928E-02 0.  1.
       -1   -1    0    0    0  501  0.00000000000E+00  0.00000000000E+00 -0.60775844138E+03  0.60775844140E+03  0.50400001928E-02 0. -1.
    10030    2    1    2    0    0  0.00000000000E+00  0.00000000000E+00  0.82570537879E+02  0.12980874207E+04  0.12954586284E+04 0.  0.
        3    1    3    3  502    0  0.32317078950E+03 -0.51198045038E+03 -0.18937723322E+03  0.63437141125E+03  0.10100000352E+00 0. -1.
       -3    1    3    3    0  502 -0.32317078950E+03  0.51198045038E+03  0.27194777110E+03  0.66371600942E+03  0.10100000352E+00 0.  1.
</event>
<event>
 5   0  0.5957913E-04  0.1296905E+04  0.7818609E-02  0.9032023E-01
        2   -1    0    0  501    0  0.00000000000E+00  0.00000000000E+00  0.64850042937E+03  0.64850042937E+03  0.25500000920E-02 0.  1.
       -2   -1    0    0    0  501  0.00000000000E+00  0.00000000000E+00 -0.64840458748E+03  0.64840458749E+03  0.25500000920E-02 0. -1.
    10030    2    1    2    0    0  0.00000000000E+00  0.00000000000E+00  0.95841885726E-01  0.12969050169E+04  0.12969050133E+04 0.  0.
        1    1    3    3  502    0  0.17976786339E+03  0.42397164557E+03  0.45658073855E+03  0.64848624642E+03  0.50400001928E-02 0.  1.
       -1    1    3    3    0  502 -0.17976786339E+03 -0.42397164557E+03 -0.45648489667E+03  0.64841877044E+03  0.50400001928E-02 0. -1.
</event>
<event>
 5   0  0.3274879E-04  0.1257446E+04  0.7818609E-02  0.9064009E-01
       -1   -1    0    0    0  501  0.00000000000E+00  0.00000000000E+00  0.23352196864E+03  0.23352196869E+03  0.50400001928E-02 0.  1.
        1   -1    0    0  501    0  0.00000000000E+00  0.00000000000E+00 -0.16927429720E+04  0.16927429720E+04  0.50400001928E-02 0. -1.
    10030    2    1    2    0    0  0.00000000000E+00  0.00000000000E+00 -0.14592210034E+04  0.19262649407E+04  0.12574460963E+04 0.  0.
        4    1    3    3  502    0  0.42841580588E+02  0.21982278754E+03  0.17034339902E+03  0.28138220526E+03  0.12699999809E+01 0.  1.
       -4    1    3    3    0  502 -0.42841580588E+02 -0.21982278754E+03 -0.16295644024E+04  0.16448827355E+04  0.12699999809E+01 0. -1.
</event>
<event>
 5   0  0.3274879E-04  0.1299433E+04  0.7818609E-02  0.9030015E-01
        1   -1    0    0  501    0  0.00000000000E+00  0.00000000000E+00  0.67090113350E+03  0.67090113352E+03  0.50400001928E-02 0.  1.
       -1   -1    0    0    0  501  0.00000000000E+00  0.00000000000E+00 -0.62920047955E+03  0.62920047957E+03  0.50400001928E-02 0. -1.
    10030    2    1    2    0    0  0.00000000000E+00  0.00000000000E+00  0.41700653957E+02  0.13001016131E+04  0.12994326684E+04 0.  0.
        4    1    3    3  502    0  0.31517187210E+03  0.55880514525E+03  0.12353455390E+03  0.65334439481E+03  0.12699999809E+01 0. -1.
       -4    1    3    3    0  502 -0.31517187210E+03 -0.55880514525E+03 -0.81833899945E+02  0.64675721828E+03  0.12699999809E+01 0.  1.
</event>
<event>
 5   0  0.3337520E-04  0.1300020E+04  0.7818609E-02  0.9029550E-01
        1   -1    0    0  501    0  0.00000000000E+00  0.00000000000E+00  0.88503606221E+03  0.88503606222E+03  0.50400001928E-02 0.  1.
       -1   -1    0    0    0  501  0.00000000000E+00  0.00000000000E+00 -0.47739615918E+03  0.47739615920E+03  0.50400001928E-02 0. -1.
    10030    2    1    2    0    0  0.00000000000E+00  0.00000000000E+00  0.40763990303E+03  0.13624322214E+04  0.13000197181E+04 0.  0.
        5    1    3    3  502    0  0.51009257427E+03 -0.39287041377E+03  0.11038168332E+03  0.65325936836E+03  0.46999998093E+01 0.  1.
       -5    1    3    3    0  502 -0.51009257427E+03  0.39287041377E+03  0.29725821971E+03  0.70917285307E+03  0.46999998093E+01 0. -1.
</event>
<event>
 5   0  0.6052864E-04  0.1279975E+04  0.7818609E-02  0.9045598E-01
        2   -1    0    0  501    0  0.00000000000E+00  0.00000000000E+00  0.10080067274E+04  0.10080067274E+04  0.25500000920E-02 0. -1.
       -2   -1    0    0    0  501  0.00000000000E+00  0.00000000000E+00 -0.40633069634E+03  0.40633069635E+03  0.25500000920E-02 0.  1.
    10030    2    1    2    0    0  0.00000000000E+00  0.00000000000E+00  0.60167603107E+03  0.14143374238E+04  0.12799751177E+04 0.  0.
        2    1    3    3  502    0 -0.23597326176E+02 -0.11175158264E+03  0.99665394005E+03  0.10031771161E+04  0.25500000920E-02 0. -1.
       -2    1    3    3    0  502  0.23597326176E+02  0.11175158264E+03 -0.39497790897E+03  0.41116030768E+03  0.25500000920E-02 0.  1.
</event>
<event>
 5   0  0.5787604E-04  0.1299875E+04  0.7818609E-02  0.9029664E-01
        2   -1    0    0  501    0  0.00000000000E+00  0.00000000000E+00  0.83454631738E+03  0.83454631738E+03  0.25500000920E-02 0. -1.
       -2   -1    0    0    0  501  0.00000000000E+00  0.00000000000E+00 -0.50616579765E+03  0.50616579766E+03  0.25500000920E-02 0.  1.
    10030    2    1    2    0    0  0.00000000000E+00  0.00000000000E+00  0.32838051972E+03  0.13407121150E+04  0.12998750746E+04 0.  0.
        4    1    3    3  502    0  0.12497637224E+01  0.64886844651E+02 -0.50281413710E+03  0.50698671963E+03  0.12699999809E+01 0.  1.
       -4    1    3    3    0  502 -0.12497637224E+01 -0.64886844651E+02  0.83119465682E+03  0.83372539541E+03  0.12699999809E+01 0. -1.
</event>
<event>
 5   0  0.6007125E-04  0.1299244E+04  0.7818609E-02  0.9030165E-01
        2   -1    0    0  501    0  0.00000000000E+00  0.00000000000E+00  0.56255901450E+03  0.56255901451E+03  0.25500000920E-02 0.  1.
       -2   -1    0    0    0  501  0.00000000000E+00  0.00000000000E+00 -0.75015958789E+03  0.75015958789E+03  0.25500000920E-02 0. -1.
    10030    2    1    2    0    0  0.00000000000E+00  0.00000000000E+00 -0.18760057338E+03  0.13127186024E+04  0.12992444550E+04 0.  0.
        5    1    3    3  502    0 -0.27103403557E+03 -0.84910290640E+02  0.49648261017E+03  0.57200199133E+03  0.46999998093E+01 0.  1.
       -5    1    3    3    0  502  0.27103403557E+03  0.84910290640E+02 -0.68408318355E+03  0.74071661106E+03  0.46999998093E+01 0. -1.
</event>
<event>
 5   0  0.5384960E-04  0.1299123E+04  0.7818609E-02  0.9030261E-01
       -2   -1    0    0    0  501  0.00000000000E+00  0.00000000000E+00  0.33578606879E+03  0.33578606880E+03  0.25500000920E-02 0.  1.
        2   -1    0    0  501    0  0.00000000000E+00  0.00000000000E+00 -0.12565436132E+04  0.12565436132E+04  0.25500000920E-02 0. -1.
    10030    2    1    2    0    0  0.00000000000E+00  0.00000000000E+00 -0.92075754438E+03  0.15923296820E+04  0.12991225349E+04 0.  0.
        3    1    3    3  502    0  0.53092322242E+03 -0.25034054564E+03 -0.11942369531E+03  0.59900908682E+03  0.10100000352E+00 0.  1.
       -3    1    3    3    0  502 -0.53092322242E+03  0.25034054564E+03 -0.80133384906E+03  0.99332059515E+03  0.10100000352E+00 0. -1.
</event>
<event>
 5   0  0.6007125E-04  0.1283298E+04  0.7818609E-02  0.9042915E-01
       -2   -1    0    0    0  501  0.00000000000E+00  0.00000000000E+00  0.83254696826E+03  0.83254696827E+03  0.25500000920E-02 0. -1.
        2   -1    0    0  501    0  0.00000000000E+00  0.00000000000E+00 -0.49452311283E+03  0.49452311284E+03  0.25500000920E-02 0.  1.
    10030    2    1    2    0    0  0.00000000000E+00  0.00000000000E+00  0.33802385543E+03  0.13270700811E+04  0.12832984350E+04 0.  0.
        5    1    3    3  502    0 -0.78975223233E+02 -0.16035522666E+02 -0.48925118763E+03  0.49586594809E+03  0.46999998093E+01 0.  1.
       -5    1    3    3    0  502  0.78975223233E+02  0.16035522666E+02  0.82727504307E+03  0.83120413302E+03  0.46999998093E+01 0. -1.
</event>
<event>
 5   0  0.6052864E-04  0.1302918E+04  0.7818609E-02  0.9027255E-01
       -2   -1    0    0    0  501  0.00000000000E+00  0.00000000000E+00  0.51233721274E+03  0.51233721275E+03  0.25500000920E-02 0.  1.
        2   -1    0    0  501    0  0.00000000000E+00  0.00000000000E+00 -0.82835794013E+03  0.82835794013E+03  0.25500000920E-02 0. -1.
    10030    2    1    2    0    0  0.00000000000E+00  0.00000000000E+00 -0.31602072739E+03  0.13406951529E+04  0.13029176462E+04 0.  0.
        2    1    3    3  502    0 -0.62039601564E+03 -0.87677117843E+02 -0.34156437394E+03  0.71361384149E+03  0.25500000920E-02 0. -1.
       -2    1    3    3    0  502  0.62039601564E+03  0.87677117843E+02  0.25543646549E+02  0.62708131139E+03  0.25500000920E-02 0.  1.
</event>
<event>
 5   0  0.3403833E-04  0.1318129E+04  0.7818609E-02  0.9015311E-01
       -1   -1    0    0    0  501  0.00000000000E+00  0.00000000000E+00  0.32179065707E+03  0.32179065711E+03  0.50400001928E-02 0.  1.
        1   -1    0    0  501    0  0.00000000000E+00  0.00000000000E+00 -0.13498397140E+04  0.13498397140E+04  0.50400001928E-02 0. -1.
    10030    2    1    2    0    0  0.00000000000E+00  0.00000000000E+00 -0.10280490570E+04  0.16716303711E+04  0.13181286865E+04 0.  0.
        1    1    3    3  502    0 -0.80688088901E+02  0.68561988653E+02  0.31093362719E+03  0.32846770697E+03  0.50400001928E-02 0.  1.
       -1    1    3    3    0  502  0.80688088901E+02 -0.68561988653E+02 -0.13389826841E+04  0.13431626642E+04  0.50400001928E-02 0. -1.
</event>
<event>
 5   0  0.3274879E-04  0.1301578E+04  0.7818609E-02  0.9028315E-01
       -1   -1    0    0    0  501  0.00000000000E+00  0.00000000000E+00  0.70770452345E+03  0.70770452346E+03  0.50400001928E-02 0. -1.
        1   -1    0    0  501    0  0.00000000000E+00  0.00000000000E+00 -0.59845031827E+03  0.59845031829E+03  0.50400001928E-02 0.  1.
    10030    2    1    2    0    0  0.00000000000E+00  0.00000000000E+00  0.10925420518E+03  0.13061548418E+04  0.13015775003E+04 0.  0.
        4    1    3    3  502    0 -0.16452573713E+03  0.61839990933E+03 -0.64268326978E+02  0.64313233226E+03  0.12699999809E+01 0. -1.
       -4    1    3    3    0  502  0.16452573713E+03 -0.61839990933E+03  0.17352253215E+03  0.66302250950E+03  0.12699999809E+01 0.  1.
</event>
<event>
 5   0  0.5787604E-04  0.1303211E+04  0.7818609E-02  0.9027023E-01
        2   -1    0    0  501    0  0.00000000000E+00  0.00000000000E+00  0.14630444301E+03  0.14630444303E+03  0.25500000920E-02 0.  1.
       -2   -1    0    0    0  501  0.00000000000E+00  0.00000000000E+00 -0.29020982593E+04  0.29020982593E+04  0.25500000920E-02 0. -1.
    10030    2    1    2    0    0  0.00000000000E+00  0.00000000000E+00 -0.27557938163E+04  0.30484027023E+04  0.13032112176E+04 0.  0.
        4    1    3    3  502    0 -0.25769163376E+03  0.56862374137E+03 -0.18145745016E+04  0.19189633066E+04  0.12699999809E+01 0. -1.
       -4    1    3    3    0  502  0.25769163376E+03 -0.56862374137E+03 -0.94121931473E+03  0.11294393958E+04  0.12699999809E+01 0.  1.
</event>
<event>
 5   0  0.5787604E-04  0.1333429E+04  0.7818609E-02  0.9003468E-01
        2   -1    0    0  501    0  0.00000000000E+00  0.00000000000E+00  0.89161403475E+03  0.89161403476E+03  0.25500000920E-02 0.  1.
       -2   -1    0    0    0  501  0.00000000000E+00  0.00000000000E+00 -0.49854336525E+03  0.49854336525E+03  0.25500000920E-02 0. -1.
    10030    2    1    2    0    0  0.00000000000E+00  0.00000000000E+00  0.39307066951E+03  0.13901574000E+04  0.13334290553E+04 0.  0.
        4    1    3    3  502    0  0.75492240283E+02  0.13506596548E+03 -0.47956398490E+03  0.50390983508E+03  0.12699999809E+01 0. -1.
       -4    1    3    3    0  502 -0.75492240283E+02 -0.13506596548E+03  0.87263465441E+03  0.88624756493E+03  0.12699999809E+01 0.  1.
</event>
<event>
 5   0  0.3263679E-04  0.1304545E+04  0.7818609E-02  0.9025968E-01
        1   -1    0    0  501    0  0.00000000000E+00  0.00000000000E+00  0.13455264593E+04  0.13455264593E+04  0.50400001928E-02 0.  1.
       -1   -1    0    0    0  501  0.00000000000E+00  0.00000000000E+00 -0.31620315412E+03  0.31620315417E+03  0.50400001928E-02 0. -1.
    10030    2    1    2    0    0  0.00000000000E+00  0.00000000000E+00  0.10293233052E+04  0.16617296135E+04  0.13045454541E+04 0.  0.
        2    1    3    3  502    0  0.63736747585E+03 -0.48759498903E+02  0.34933774899E+03  0.72845840711E+03  0.25500000920E-02 0.  1.
       -2    1    3    3    0  502 -0.63736747585E+03  0.48759498903E+02  0.67998555616E+03  0.93327120635E+03  0.25500000920E-02 0. -1.
</event>
<event>
 5   0  0.2255875E-04  0.1299572E+04  0.7818609E-02  0.9029904E-01
        4   -1    0    0  501    0  0.00000000000E+00  0.00000000000E+00  0.12706491168E+04  0.12706497514E+04  0.12699999809E+01 0.  1.
       -4   -1    0    0    0  501  0.00000000000E+00  0.00000000000E+00 -0.33228646906E+03  0.33228889602E+03  0.12699999809E+01 0. -1.
    10030    2    1    2    0    0  0.00000000000E+00  0.00000000000E+00  0.93836264770E+03  0.16029386475E+04  0.12995721792E+04 0.  0.
        3    1    3    3  502    0  0.59790419589E+03 -0.66675620968E+02  0.16633108474E+03  0.62418034721E+03  0.10100000352E+00 0. -1.
       -3    1    3    3    0  502 -0.59790419589E+03  0.66675620968E+02  0.77203156296E+03  0.97875830024E+03  0.10100000352E+00 0.  1.
</event>
<event>
 5   0  0.6052864E-04  0.1267821E+04  0.7818609E-02  0.9055480E-01
        2   -1    0    0  501    0  0.00000000000E+00  0.00000000000E+00  0.13527243592E+04  0.13527243592E+04  0.25500000920E-02 0. -1.
       -2   -1    0    0    0  501  0.00000000000E+00  0.00000000000E+00 -0.29706184012E+03  0.29706184013E+03  0.25500000920E-02 0.  1.
    10030    2    1    2    0    0  0.00000000000E+00  0.00000000000E+00  0.10556625190E+04  0.16497861993E+04  0.12678214185E+04 0.  0.
        2    1    3    3  502    0 -0.56903982256E+03 -0.27612899934E+03  0.47278798150E+03  0.78967209612E+03  0.25500000920E-02 0.  1.
       -2    1    3    3    0  502  0.56903982256E+03  0.27612899934E+03  0.58287453754E+03  0.86011410316E+03  0.25500000920E-02 0. -1.
</event>
<event>
 5   0  0.5384960E-04  0.1302074E+04  0.7818609E-02  0.9027922E-01
       -2   -1    0    0    0  501  0.00000000000E+00  0.00000000000E+00  0.27767016123E+03  0.27767016124E+03  0.25500000920E-02 0. -1.
        2   -1    0    0  501    0  0.00000000000E+00  0.00000000000E+00 -0.15264477393E+04  0.15264477393E+04  0.25500000920E-02 0.  1.
    10030    2    1    2    0    0  0.00000000000E+00  0.00000000000E+00 -0.12487775781E+04  0.18041179006E+04  0.13020737151E+04 0.  0.
        3    1    3    3  502    0  0.33886268574E+02  0.30812977420E+03 -0.14176298034E+04  0.14511259444E+04  0.10100000352E+00 0.  1.
       -3    1    3    3    0  502 -0.33886268574E+02 -0.30812977420E+03  0.16885222525E+03  0.35299195617E+03  0.10100000352E+00 0. -1.
</event>
<event>
 5   0  0.2255875E-04  0.1301375E+04  0.7818609E-02  0.9028475E-01
       -3   -1    0    0    0  501  0.00000000000E+00  0.00000000000E+00  0.83668184840E+03  0.83668185450E+03  0.10100000352E+00 0. -1.
        3   -1    0    0  501    0  0.00000000000E+00  0.00000000000E+00 -0.50604004628E+03  0.50604005636E+03  0.10100000352E+00 0.  1.
    10030    2    1    2    0    0  0.00000000000E+00  0.00000000000E+00  0.33064180212E+03  0.13427219109E+04  0.13013754756E+04 0.  0.
        5    1    3    3  502    0  0.99017941643E+01 -0.36628830830E+03  0.72009089786E+03  0.80797163410E+03  0.46999998093E+01 0. -1.
       -5    1    3    3    0  502 -0.99017941643E+01  0.36628830830E+03 -0.38944909574E+03  0.53475027676E+03  0.46999998093E+01 0.  1.
</event>
<event>
 5   0  0.6052864E-04  0.1288866E+04  0.7818609E-02  0.9038441E-01
        2   -1    0    0  501    0  0.00000000000E+00  0.00000000000E+00  0.99235050108E+03  0.99235050108E+03  0.25500000920E-02 0. -1.
       -2   -1    0    0    0  501  0.00000000000E+00  0.00000000000E+00 -0.41849512525E+03  0.41849512525E+03  0.25500000920E-02 0.  1.
    10030    2    1    2    0    0  0.00000000000E+00  0.00000000000E+00  0.57385537583E+03  0.14108456263E+04  0.12888659313E+04 0.  0.
        2    1    3    3  502    0  0.59929096249E+03  0.11096447745E+02  0.54601575248E+03  0.81080576641E+03  0.25500000920E-02 0. -1.
       -2    1    3    3    0  502 -0.59929096249E+03 -0.11096447745E+02  0.27839623353E+02  0.60003985993E+03  0.25500000920E-02 0.  1.
</event>
<event>
 5   0  0.5957913E-04  0.1305155E+04  0.7818609E-02  0.9025487E-01
       -2   -1    0    0    0  501  0.00000000000E+00  0.00000000000E+00  0.35065150639E+03  0.35065150640E+03  0.25500000920E-02 0.  1.
        2   -1    0    0  501    0  0.00000000000E+00  0.00000000000E+00 -0.12144743363E+04  0.12144743363E+04  0.25500000920E-02 0. -1.
    10030    2    1    2    0    0  0.00000000000E+00  0.00000000000E+00 -0.86382282990E+03  0.15651258427E+04  0.13051547885E+04 0.  0.
        1    1    3    3  502    0  0.87452401195E+02  0.30979327166E+03  0.24881915683E+03  0.40685472404E+03  0.50400001928E-02 0.  1.
       -1    1    3    3    0  502 -0.87452401195E+02 -0.30979327166E+03 -0.11126419867E+04  0.11582711187E+04  0.50400001928E-02 0. -1.
</event>
<event>
 5   0  0.3335747E-04  0.1294493E+04  0.7818609E-02  0.9033943E-01
       -1   -1    0    0    0  501  0.00000000000E+00  0.00000000000E+00  0.30699091344E+03  0.30699091348E+03  0.50400001928E-02 0. -1.
        1   -1    0    0  501    0  0.00000000000E+00  0.00000000000E+00 -0.13646274832E+04  0.13646274832E+04  0.50400001928E-02 0.  1.
    10030    2    1    2    0    0  0.00000000000E+00  0.00000000000E+00 -0.10576365698E+04  0.16716183967E+04  0.12944933181E+04 0.  0.
        3    1    3    3  502    0  0.57976836088E+03  0.15284594711E+03 -0.84363547030E+03  0.10349947115E+04  0.10100000352E+00 0.  1.
       -3    1    3    3    0  502 -0.57976836088E+03 -0.15284594711E+03 -0.21400109948E+03  0.63662368524E+03  0.10100000352E+00 0. -1.
</event>
<event>
 5   0  0.6007125E-04  0.1294029E+04  0.7818609E-02  0.9034314E-01
        2   -1    0    0  501    0  0.00000000000E+00  0.00000000000E+00  0.97823096824E+03  0.97823096824E+03  0.25500000920E-02 0. -1.
       -2   -1    0    0    0  501  0.00000000000E+00  0.00000000000E+00 -0.42794357210E+03  0.42794357211E+03  0.25500000920E-02 0.  1.
    10030    2    1    2    0    0  0.00000000000E+00  0.00000000000E+00  0.55028739614E+03  0.14061745404E+04  0.12940288326E+04 0.  0.
        5    1    3    3  502    0 -0.71367040710E+02  0.62582797072E+03  0.43577771111E+03  0.76594921955E+03  0.46999998093E+01 0. -1.
       -5    1    3    3    0  502  0.71367040710E+02 -0.62582797072E+03  0.11450968503E+03  0.64022532080E+03  0.46999998093E+01 0.  1.
</event>
<event>
 5   0  0.5787604E-04  0.1300848E+04  0.7818609E-02  0.9028893E-01
       -2   -1    0    0    0  501  0.00000000000E+00  0.00000000000E+00  0.42757183310E+03  0.42757183311E+03  0.25500000920E-02 0.  1.
        2   -1    0    0  501    0  0.00000000000E+00  0.00000000000E+00 -0.98942773850E+03  0.98942773850E+03  0.25500000920E-02 0. -1.
    10030    2    1    2    0    0  0.00000000000E+00  0.00000000000E+00 -0.56185590540E+03  0.14169995716E+04  0.13008480801E+04 0.  0.
        4    1    3    3  502    0  0.19408377714E+03 -0.12443223576E+02 -0.95701279718E+03  0.97657485797E+03  0.12699999809E+01 0. -1.
       -4    1    3    3    0  502 -0.19408377714E+03  0.12443223576E+02  0.39515689178E+03  0.44042471364E+03  0.12699999809E+01 0.  1.
</event>
<event>
 5   0  0.6052864E-04  0.1296856E+04  0.7818609E-02  0.9032062E-01
       -2   -1    0    0    0  501  0.00000000000E+00  0.00000000000E+00  0.40354150312E+03  0.40354150313E+03  0.25500000920E-02 0.  1.
        2   -1    0    0  501    0  0.00000000000E+00  0.00000000000E+00 -0.10419224045E+04  0.10419224045E+04  0.25500000920E-02 0. -1.
    10030    2    1    2    0    0  0.00000000000E+00  0.00000000000E+00 -0.63838090141E+03  0.14454639077E+04  0.12968560957E+04 0.  0.
        2    1    3    3  502    0 -0.44266419730E+02 -0.27926571027E+03  0.33120942705E+03  0.43548655252E+03  0.25500000920E-02 0.  1.
       -2    1    3    3    0  502  0.44266419730E+02  0.27926571027E+03 -0.96959032846E+03  0.10099773551E+04  0.25500000920E-02 0. -1.
</event>
<event>
 5   0  0.3335747E-04  0.1350095E+04  0.7818609E-02  0.8990756E-01
       -1   -1    0    0    0  501  0.00000000000E+00  0.00000000000E+00  0.26311759997E+03  0.26311760002E+03  0.50400001928E-02 0. -1.
        1   -1    0    0  501    0  0.00000000000E+00  0.00000000000E+00 -0.17318843420E+04  0.17318843420E+04  0.50400001928E-02 0.  1.
    10030    2    1    2    0    0  0.00000000000E+00  0.00000000000E+00 -0.14687667420E+04  0.19950019420E+04  0.13500951841E+04 0.  0.
        3    1    3    3  502    0  0.34495869501E+03  0.17350862521E+02  0.12265755771E+03  0.36652754379E+03  0.10100000352E+00 0. -1.
       -3    1    3    3    0  502 -0.34495869501E+03 -0.17350862521E+02 -0.15914242998E+04  0.16284743982E+04  0.10100000352E+00 0.  1.
</event>
<event>
 5   0  0.3337520E-04  0.1304986E+04  0.7818609E-02  0.9025620E-01
        1   -1    0    0  501    0  0.00000000000E+00  0.00000000000E+00  0.11491174539E+04  0.11491174539E+04  0.50400001928E-02 0.  1.
       -1   -1    0    0    0  501  0.00000000000E+00  0.00000000000E+00 -0.37049932250E+03  0.37049932253E+03  0.50400001928E-02 0. -1.
    10030    2    1    2    0    0  0.00000000000E+00  0.00000000000E+00  0.77861813142E+03  0.15196167765E+04  0.13049861887E+04 0.  0.
        5    1    3    3  502    0  0.13949523135E+03 -0.63144569152E+03  0.49044087108E+03  0.81162609552E+03  0.46999998093E+01 0.  1.
       -5    1    3    3    0  502 -0.13949523135E+03  0.63144569152E+03  0.28817726034E+03  0.70799068093E+03  0.46999998093E+01 0. -1.
</event>
<event>
 5   0  0.5957913E-04  0.1283934E+04  0.7818609E-02  0.9042403E-01
        2   -1    0    0  501    0  0.00000000000E+00  0.00000000000E+00  0.13228849079E+04  0.13228849079E+04  0.25500000920E-02 0.  1.
       -2   -1    0    0    0  501  0.00000000000E+00  0.00000000000E+00 -0.31153265075E+03  0.31153265076E+03  0.25500000920E-02 0. -1.
    10030    2    1    2    0    0  0.00000000000E+00  0.00000000000E+00  0.10113522572E+04  0.16344175587E+04  0.12839343317E+04 0.  0.
        1    1    3    3  502    0  0.50629547128E+03 -0.13190080097E+03  0.32120653673E+02  0.52417999003E+03  0.50400001928E-02 0. -1.
       -1    1    3    3    0  502 -0.50629547128E+03  0.13190080097E+03  0.97923160349E+03  0.11102375686E+04  0.50400001928E-02 0.  1.
</event>
<event>
 5   0  0.6007125E-04  0.1301939E+04  0.7818609E-02  0.9028029E-01
       -2   -1    0    0    0  501  0.00000000000E+00  0.00000000000E+00  0.21772919488E+03  0.21772919489E+03  0.25500000920E-02 0.  1.
        2   -1    0    0  501    0  0.00000000000E+00  0.00000000000E+00 -0.19462770159E+04  0.19462770159E+04  0.25500000920E-02 0. -1.
    10030    2    1    2    0    0  0.00000000000E+00  0.00000000000E+00 -0.17285478210E+04  0.21640062108E+04  0.13019390580E+04 0.  0.
        5    1    3    3  502    0 -0.16603285048E+03  0.62941464498E+03 -0.85914143543E+03  0.10779034274E+04  0.46999998093E+01 0.  1.
       -5    1    3    3    0  502  0.16603285048E+03 -0.62941464498E+03 -0.86940638555E+03  0.10861027833E+04  0.46999998093E+01 0. -1.
</event>
<event>
 5   0  0.6007125E-04  0.1299968E+04  0.7818609E-02  0.9029591E-01
        2   -1    0    0  501    0  0.00000000000E+00  0.00000000000E+00  0.17221039240E+04  0.17221039240E+04  0.25500000920E-02 0.  1.
       -2   -1    0    0    0  501  0.00000000000E+00  0.00000000000E+00 -0.24532716660E+03  0.24532716662E+03  0.25500000920E-02 0. -1.
    10030    2    1    2    0    0  0.00000000000E+00  0.00000000000E+00  0.14767767574E+04  0.19674310907E+04  0.12999675016E+04 0.  0.
        5    1    3    3  502    0  0.32937874375E+03 -0.22845067841E+03 -0.35953135109E+02  0.40248576027E+03  0.46999998093E+01 0. -1.
       -5    1    3    3    0  502 -0.32937874375E+03  0.22845067841E+03  0.15127298926E+04  0.15649453304E+04  0.46999998093E+01 0.  1.
</event>
<event>
 5   0  0.3274879E-04  0.1296683E+04  0.7818609E-02  0.9032200E-01
       -1   -1    0    0    0  501  0.00000000000E+00  0.00000000000E+00  0.41262469885E+03  0.41262469888E+03  0.50400001928E-02 0.  1.
        1   -1    0    0  501    0  0.00000000000E+00  0.00000000000E+00 -0.10187139613E+04  0.10187139613E+04  0.50400001928E-02 0. -1.
    10030    2    1    2    0    0  0.00000000000E+00  0.00000000000E+00 -0.60608926244E+03  0.14313386602E+04  0.12966827546E+04 0.  0.
        4    1    3    3  502    0 -0.15846609058E+03 -0.29333683717E+02  0.39016124055E+03  0.42213667620E+03  0.12699999809E+01 0.  1.
       -4    1    3    3    0  502  0.15846609058E+03  0.29333683717E+02 -0.99625050299E+03  0.10092019840E+04  0.12699999809E+01 0. -1.
</event>
<event>
 5   0  0.3274879E-04  0.1297086E+04  0.7818609E-02  0.9031879E-01
       -1   -1    0    0    0  501  0.00000000000E+00  0.00000000000E+00  0.55024585642E+03  0.55024585645E+03  0.50400001928E-02 0. -1.
        1   -1    0    0  501    0  0.00000000000E+00  0.00000000000E+00 -0.76439972382E+03  0.76439972384E+03  0.50400001928E-02 0.  1.
    10030    2    1    2    0    0  0.00000000000E+00  0.00000000000E+00 -0.21415386740E+03  0.13146455803E+04  0.12970856266E+04 0.  0.
        4    1    3    3  502    0 -0.13367095888E+03 -0.31763742698E+03  0.44976485725E+03  0.56661406617E+03  0.12699999809E+01 0. -1.
       -4    1    3    3    0  502  0.13367095888E+03  0.31763742698E+03 -0.66391872465E+03  0.74803151411E+03  0.12699999809E+01 0.  1.
</event>
<event>
 5   0  0.3263679E-04  0.1298208E+04  0.7818609E-02  0.9030988E-01
       -1   -1    0    0    0  501  0.00000000000E+00  0.00000000000E+00  0.59236461171E+03  0.59236461173E+03  0.50400001928E-02 0. -1.
        1   -1    0    0  501    0  0.00000000000E+00  0.00000000000E+00 -0.71127800257E+03  0.71127800258E+03  0.50400001928E-02 0.  1.
    10030    2    1    2    0    0  0.00000000000E+00  0.00000000000E+00 -0.11891339086E+03  0.13036426143E+04  0.12982078691E+04 0.  0.
        2    1    3    3  502    0 -0.15001450819E+03 -0.59147948716E+03  0.16279218346E+03  0.63154859781E+03  0.25500000920E-02 0. -1.
       -2    1    3    3    0  502  0.15001450819E+03  0.59147948716E+03 -0.28170557432E+03  0.67209401650E+03  0.25500000920E-02 0.  1.
</event>
<event>
 5   0  0.5957913E-04  0.1298001E+04  0.7818609E-02  0.9031152E-01
        2   -1    0    0  501    0  0.00000000000E+00  0.00000000000E+00  0.27510789248E+04  0.27510789248E+04  0.25500000920E-02 0.  1.
       -2   -1    0    0    0  501  0.00000000000E+00  0.00000000000E+00 -0.15310415171E+03  0.15310415173E+03  0.25500000920E-02 0. -1.
    10030    2    1    2    0    0  0.00000000000E+00  0.00000000000E+00  0.25979747730E+04  0.29041830765E+04  0.12980009324E+04 0.  0.
        1    1    3    3  502    0  0.30797822639E+03  0.40497854973E+03  0.22004885531E+04  0.22585411411E+04  0.50400001928E-02 0.  1.
       -1    1    3    3    0  502 -0.30797822639E+03 -0.40497854973E+03  0.39748621994E+03  0.64564193540E+03  0.50400001928E-02 0. -1.
</event>
<event>
 5   0  0.6007125E-04  0.1301383E+04  0.7818609E-02  0.9028469E-01
       -2   -1    0    0    0  501  0.00000000000E+00  0.00000000000E+00  0.21787003947E+03  0.21787003949E+03  0.25500000920E-02 0. -1.
        2   -1    0    0  501    0  0.00000000000E+00  0.00000000000E+00 -0.19433570037E+04  0.19433570037E+04  0.25500000920E-02 0.  1.
    10030    2    1    2    0    0  0.00000000000E+00  0.00000000000E+00 -0.17254869642E+04  0.21612270432E+04  0.13013827525E+04 0.  0.
        5    1    3    3  502    0  0.21824185154E+02 -0.17377577016E+03 -0.19034478581E+04  0.19114942197E+04  0.46999998093E+01 0.  1.
       -5    1    3    3    0  502 -0.21824185154E+02  0.17377577016E+03  0.17796089392E+03  0.24973282347E+03  0.46999998093E+01 0. -1.
</event>
<event>
 5   0  0.5384960E-04  0.1294640E+04  0.7818609E-02  0.9033827E-01
        2   -1    0    0  501    0  0.00000000000E+00  0.00000000000E+00  0.10998215538E+04  0.10998215538E+04  0.25500000920E-02 0.  1.
       -2   -1    0    0    0  501  0.00000000000E+00  0.00000000000E+00 -0.38099168403E+03  0.38099168404E+03  0.25500000920E-02 0. -1.
    10030    2    1    2    0    0  0.00000000000E+00  0.00000000000E+00  0.71882986974E+03  0.14808132378E+04  0.12946395111E+04 0.  0.
        3    1    3    3  502    0 -0.42890409608E+03 -0.35874174305E+03 -0.13627241345E+02  0.55932108287E+03  0.10100000352E+00 0. -1.
       -3    1    3    3    0  502  0.42890409608E+03  0.35874174305E+03  0.73245711109E+03  0.92149215494E+03  0.10100000352E+00 0.  1.
</event>
<event>
 5   0  0.3274879E-04  0.1301410E+04  0.7818609E-02  0.9028448E-01
       -1   -1    0    0    0  501  0.00000000000E+00  0.00000000000E+00  0.27483526529E+03  0.27483526533E+03  0.50400001928E-02 0. -1.
        1   -1    0    0  501    0  0.00000000000E+00  0.00000000000E+00 -0.15406218487E+04  0.15406218487E+04  0.50400001928E-02 0.  1.
    10030    2    1    2    0    0  0.00000000000E+00  0.00000000000E+00 -0.12657865834E+04  0.18154571140E+04  0.13014103343E+04 0.  0.
        4    1    3    3  502    0  0.14593991470E+03  0.11623566801E+03  0.23672111185E+03  0.30140950038E+03  0.12699999809E+01 0. -1.
       -4    1    3    3    0  502 -0.14593991470E+03 -0.11623566801E+03 -0.15025076952E+04  0.15140476136E+04  0.12699999809E+01 0.  1.
</event>
<event>
 5   0  0.5957913E-04  0.1292323E+04  0.7818609E-02  0.9035676E-01
       -2   -1    0    0    0  501  0.00000000000E+00  0.00000000000E+00  0.52253264851E+03  0.52253264852E+03  0.25500000920E-02 0. -1.
        2   -1    0    0  501    0  0.00000000000E+00  0.00000000000E+00 -0.79903997981E+03  0.79903997982E+03  0.25500000920E-02 0.  1.
    10030    2    1    2    0    0  0.00000000000E+00  0.00000000000E+00 -0.27650733130E+03  0.13215726283E+04  0.12923226794E+04 0.  0.
        1    1    3    3  502    0  0.27595912022E+03 -0.36099851240E+03 -0.60805461993E+03  0.75908088030E+03  0.50400001928E-02 0.  1.
       -1    1    3    3    0  502 -0.27595912022E+03  0.36099851240E+03  0.33154728863E+03  0.56249174804E+03  0.50400001928E-02 0. -1.
</event>
<event>
 5   0  0.3274879E-04  0.1296318E+04  0.7818609E-02  0.9032490E-01
        1   -1    0    0  501    0  0.00000000000E+00  0.00000000000E+00  0.12134845972E+04  0.12134845972E+04  0.50400001928E-02 0. -1.
       -1   -1    0    0    0  501  0.00000000000E+00  0.00000000000E+00 -0.34620133663E+03  0.34620133667E+03  0.50400001928E-02 0.  1.
    10030    2    1    2    0    0  0.00000000000E+00  0.00000000000E+00  0.86728326060E+03  0.15596859339E+04  0.12963178462E+04 0.  0.
        4    1    3    3  502    0 -0.40116270243E+03  0.43589144138E+03  0.11719399585E+03  0.60387822287E+03  0.12699999809E+01 0. -1.
       -4    1    3    3    0  502  0.40116270243E+03 -0.43589144138E+03  0.75008926475E+03  0.95580771105E+03  0.12699999809E+01 0.  1.
</event>
<event>
 5   0  0.5384960E-04  0.1300488E+04  0.7818609E-02  0.9029178E-01
       -2   -1    0    0    0  501  0.00000000000E+00  0.00000000000E+00  0.26776171072E+03  0.26776171073E+03  0.25500000920E-02 0.  1.
        2   -1    0    0  501    0  0.00000000000E+00  0.00000000000E+00 -0.15790807653E+04  0.15790807653E+04  0.25500000920E-02 0. -1.
    10030    2    1    2    0    0  0.00000000000E+00  0.00000000000E+00 -0.13113190546E+04  0.18468424761E+04  0.13004881654E+04 0.  0.
        3    1    3    3  502    0  0.27639620617E+03 -0.42272081480E+03 -0.74054282109E+02  0.51046233646E+03  0.10100000352E+00 0.  1.
       -3    1    3    3    0  502 -0.27639620617E+03  0.42272081480E+03 -0.12372647725E+04  0.13363801396E+04  0.10100000352E+00 0. -1.
</event>
<event>
 5   0  0.5787604E-04  0.1301981E+04  0.7818609E-02  0.9027995E-01
        2   -1    0    0  501    0  0.00000000000E+00  0.00000000000E+00  0.24224600635E+04  0.24224600635E+04  0.25500000920E-02 0. -1.
       -2   -1    0    0    0  501  0.00000000000E+00  0.00000000000E+00 -0.17494153237E+03  0.17494153239E+03  0.25500000920E-02 0.  1.
    10030    2    1    2    0    0  0.00000000000E+00  0.00000000000E+00  0.22475185312E+04  0.25974015959E+04  0.13019813757E+04 0.  0.
        4    1    3    3  502    0 -0.14851964978E+03  0.12697660912E+03 -0.11505525879E+03  0.22676082358E+03  0.12699999809E+01 0.  1.
       -4    1    3    3    0  502  0.14851964978E+03 -0.12697660912E+03  0.23625737900E+04  0.23706407723E+04  0.12699999809E+01 0. -1.
</event>
<event>
 5   0  0.3403833E-04  0.1297463E+04  0.7818609E-02  0.9031579E-01
       -1   -1    0    0    0  501  0.00000000000E+00  0.00000000000E+00  0.70135683546E+03  0.70135683547E+03  0.50400001928E-02 0. -1.
        1   -1    0    0  501    0  0.00000000000E+00  0.00000000000E+00 -0.60005524313E+03  0.60005524315E+03  0.50400001928E-02 0.  1.
    10030    2    1    2    0    0  0.00000000000E+00  0.00000000000E+00  0.10130159233E+03  0.13014120786E+04  0.12974634429E+04 0.  0.
        1    1    3    3  502    0 -0.37678457625E+03  0.43301081869E+03 -0.25257347295E+03  0.62710313766E+03  0.50400001928E-02 0.  1.
       -1    1    3    3    0  502  0.37678457625E+03 -0.43301081869E+03  0.35387506528E+03  0.67430894096E+03  0.50400001928E-02 0. -1.
</event>
<event>
 5   0  0.5957913E-04  0.1298800E+04  0.7818609E-02  0.9030517E-01
        2   -1    0    0  501    0  0.00000000000E+00  0.00000000000E+00  0.71472114658E+03  0.71472114658E+03  0.25500000920E-02 0.  1.
       -2   -1    0    0    0  501  0.00000000000E+00  0.00000000000E+00 -0.59004863351E+03  0.59004863351E+03  0.25500000920E-02 0. -1.
    10030    2    1    2    0    0  0.00000000000E+00  0.00000000000E+00  0.12467251307E+03  0.13047697801E+04  0.12987998089E+04 0.  0.
        1    1    3    3  502    0 -0.23281495928E+02 -0.45540838123E+03 -0.40215404037E+03  0.60800221542E+03  0.50400001928E-02 0. -1.
       -1    1    3    3    0  502  0.23281495928E+02  0.45540838123E+03  0.52682655344E+03  0.69676756467E+03  0.50400001928E-02 0.  1.
</event>
<event>
 5   0  0.3335747E-04  0.1297113E+04  0.7818609E-02  0.9031857E-01
       -1   -1    0    0    0  501  0.00000000000E+00  0.00000000000E+00  0.62740695085E+03  0.62740695087E+03  0.50400001928E-02 0.  1.
        1   -1    0    0  501    0  0.00000000000E+00  0.00000000000E+00 -0.67041938311E+03  0.67041938313E+03  0.50400001928E-02 0. -1.
    10030    2    1    2    0    0  0.00000000000E+00  0.00000000000E+00 -0.43012432260E+02  0.12978263340E+04  0.12971133813E+04 0.  0.
        3    1    3    3  502    0  0.27791661313E+03  0.58579298063E+03 -0.61775225321E+01  0.64840514495E+03  0.10100000352E+00 0. -1.
       -3    1    3    3    0  502 -0.27791661313E+03 -0.58579298063E+03 -0.36834909728E+02  0.64942118905E+03  0.10100000352E+00 0.  1.
</event>
<event>
 5   0  0.3337520E-04  0.1299128E+04  0.7818609E-02  0.9030257E-01
        1   -1    0    0  501    0  0.00000000000E+00  0.00000000000E+00  0.14206833928E+04  0.14206833928E+04  0.50400001928E-02 0.  1.
       -1   -1    0    0    0  501  0.00000000000E+00  0.00000000000E+00 -0.29699312833E+03  0.29699312837E+03  0.50400001928E-02 0. -1.
    10030    2    1    2    0    0  0.00000000000E+00  0.00000000000E+00  0.11236902645E+04  0.17176765212E+04  0.12991277154E+04 0.  0.
        5    1    3    3  502    0  0.47814374220E+03 -0.24096197085E+03  0.10480521769E+04  0.11769110269E+04  0.46999998093E+01 0.  1.
       -5    1    3    3    0  502 -0.47814374220E+03  0.24096197085E+03  0.75638087590E+02  0.54076549436E+03  0.46999998093E+01 0. -1.
</event>
<event>
 5   0  0.3274879E-04  0.1333246E+04  0.7818609E-02  0.9003608E-01
       -1   -1    0    0    0  501  0.00000000000E+00  0.00000000000E+00  0.40600115683E+03  0.40600115686E+03  0.50400001928E-02 0.  1.
        1   -1    0    0  501    0  0.00000000000E+00  0.00000000000E+00 -0.10945445297E+04  0.10945445298E+04  0.50400001928E-02 0. -1.
    10030    2    1    2    0    0  0.00000000000E+00  0.00000000000E+00 -0.68854337291E+03  0.15005456866E+04  0.13332461818E+04 0.  0.
        4    1    3    3  502    0 -0.59048316925E+02  0.27299621622E+03  0.33696727029E+03  0.43767818309E+03  0.12699999809E+01 0.  1.
       -4    1    3    3    0  502  0.59048316925E+02 -0.27299621622E+03 -0.10255106432E+04  0.10628675035E+04  0.12699999809E+01 0. -1.
</event>
<event>
 5   0  0.3335747E-04  0.1305132E+04  0.7818609E-02  0.9025505E-01
       -1   -1    0    0    0  501  0.00000000000E+00  0.00000000000E+00  0.28674158489E+03  0.28674158493E+03  0.50400001928E-02 0.  1.
        1   -1    0    0  501    0  0.00000000000E+00  0.00000000000E+00 -0.14851090040E+04  0.14851090040E+04  0.50400001928E-02 0. -1.
    10030    2    1    2    0    0  0.00000000000E+00  0.00000000000E+00 -0.11983674191E+04  0.17718505890E+04  0.13051321919E+04 0.  0.
        3    1    3    3  502    0 -0.42283117926E+03 -0.17694360806E+03 -0.12297710280E+04  0.13124145832E+04  0.10100000352E+00 0. -1.
       -3    1    3    3    0  502  0.42283117926E+03  0.17694360806E+03  0.31403608858E+02  0.45943600581E+03  0.10100000352E+00 0.  1.
</event>
<event>
 5   0  0.3335747E-04  0.1300569E+04  0.7818609E-02  0.9029114E-01
        1   -1    0    0  501    0  0.00000000000E+00  0.00000000000E+00  0.11007435993E+04  0.11007435993E+04  0.50400001928E-02 0. -1.
       -1   -1    0    0    0  501  0.00000000000E+00  0.00000000000E+00 -0.38416748799E+03  0.38416748803E+03  0.50400001928E-02 0.  1.
    10030    2    1    2    0    0  0.00000000000E+00  0.00000000000E+00  0.71657611134E+03  0.14849110874E+04  0.13005689578E+04 0.  0.
        3    1    3    3  502    0  0.48793895754E+03 -0.29729087279E+03  0.71278598359E+03  0.91352622181E+03  0.10100000352E+00 0. -1.
       -3    1    3    3    0  502 -0.48793895754E+03  0.29729087279E+03  0.37901277548E+01  0.57138486557E+03  0.10100000352E+00 0.  1.
</event>
<event>
 5   0  0.3274879E-04  0.1301580E+04  0.7818609E-02  0.9028313E-01
       -1   -1    0    0    0  501  0.00000000000E+00  0.00000000000E+00  0.38785429286E+03  0.38785429289E+03  0.50400001928E-02 0. -1.
        1   -1    0    0  501    0  0.00000000000E+00  0.00000000000E+00 -0.10919754511E+04  0.10919754511E+04  0.50400001928E-02 0.  1.
    10030    2    1    2    0    0  0.00000000000E+00  0.00000000000E+00 -0.70412115822E+03  0.14798297440E+04  0.13015796041E+04 0.  0.
        4    1    3    3  502    0  0.41900515351E+03  0.21768095741E+03  0.15712944882E+03  0.49763600600E+03  0.12699999809E+01 0. -1.
       -4    1    3    3    0  502 -0.41900515351E+03 -0.21768095741E+03 -0.86125060704E+03  0.98219373797E+03  0.12699999809E+01 0.  1.
</event>
<event>
 5   0  0.3335747E-04  0.1299473E+04  0.7818609E-02  0.9029983E-01
       -1   -1    0    0    0  501  0.00000000000E+00  0.00000000000E+00  0.54352734955E+03  0.54352734957E+03  0.50400001928E-02 0.  1.
        1   -1    0    0  501    0  0.00000000000E+00  0.00000000000E+00 -0.77670025150E+03  0.77670025152E+03  0.50400001928E-02 0. -1.
    10030    2    1    2    0    0  0.00000000000E+00  0.00000000000E+00 -0.23317290195E+03  0.13202276011E+04  0.12994734766E+04 0.  0.
        3    1    3    3  502    0  0.26565120992E+03 -0.54474838449E+03 -0.35449829268E+03  0.70213276341E+03  0.10100000352E+00 0.  1.
       -3    1    3    3    0  502 -0.26565120992E+03  0.54474838449E+03  0.12132539073E+03  0.61809483769E+03  0.10100000352E+00 0. -1.
</event>
<event>
 5   0  0.3403833E-04  0.1302778E+04  0.7818609E-02  0.9027365E-01
        1   -1    0    0  501    0  0.00000000000E+00  0.00000000000E+00  0.14723099865E+04  0.14723099865E+04  0.50400001928E-02 0.  1.
       -1   -1    0    0    0  501  0.00000000000E+00  0.00000000000E+00 -0.28819187886E+03  0.28819187891E+03  0.50400001928E-02 0. -1.
    10030    2    1    2    0    0  0.00000000000E+00  0.00000000000E+00  0.11841181077E+04  0.17605018654E+04  0.13027782334E+04 0.  0.
        1    1    3    3  502    0  0.47918862090E+03 -0.19843482279E+03  0.59503103542E+02  0.52205242327E+03  0.50400001928E-02 0. -1.
       -1    1    3    3    0  502 -0.47918862090E+03  0.19843482279E+03  0.11246150041E+04  0.12384494422E+04  0.50400001928E-02 0.  1.
</event>
<event>
 5   0  0.3337520E-04  0.1294293E+04  0.7818609E-02  0.9034103E-01
        1   -1    0    0  501    0  0.00000000000E+00  0.00000000000E+00  0.11539228321E+04  0.11539228321E+04  0.50400001928E-02 0. -1.
       -1   -1    0    0    0  501  0.00000000000E+00  0.00000000000E+00 -0.36293470865E+03  0.36293470868E+03  0.50400001928E-02 0.  1.
    10030    2    1    2    0    0  0.00000000000E+00  0.00000000000E+00  0.79098812343E+03  0.15168575408E+04  0.12942930841E+04 0.  0.
        5    1    3    3  502    0  0.13905829217E+03 -0.36357962153E+02  0.11349593111E+04  0.11440340195E+04  0.46999998093E+01 0. -1.
       -5    1    3    3    0  502 -0.13905829217E+03  0.36357962153E+02 -0.34397118767E+03  0.37282352123E+03  0.46999998093E+01 0.  1.
</event>
<event>
 5   0  0.5384960E-04  0.1295038E+04  0.7818609E-02  0.9033509E-01
        2   -1    0    0  501    0  0.00000000000E+00  0.00000000000E+00  0.14422387170E+04  0.14422387170E+04  0.25500000920E-02 0. -1.
       -2   -1    0    0    0  501  0.00000000000E+00  0.00000000000E+00 -0.29071532802E+03  0.29071532804E+03  0.25500000920E-02 0.  1.
    10030    2    1    2    0    0  0.00000000000E+00  0.00000000000E+00  0.11515233889E+04  0.17329540450E+04  0.12950380716E+04 0.  0.
        3    1    3    3  502    0  0.13735802627E+03 -0.66800184370E+02 -0.26626420753E+03  0.30696275088E+03  0.10100000352E+00 0.  1.
       -3    1    3    3    0  502 -0.13735802627E+03  0.66800184370E+02  0.14177875965E+04  0.14259912941E+04  0.10100000352E+00 0. -1.
</event>
<event>
 5   0  0.6052864E-04  0.1301852E+04  0.7818609E-02  0.9028098E-01
        2   -1    0    0  501    0  0.00000000000E+00  0.00000000000E+00  0.10451297168E+04  0.10451297168E+04  0.25500000920E-02 0. -1.
       -2   -1    0    0    0  501  0.00000000000E+00  0.00000000000E+00 -0.40540846421E+03  0.40540846422E+03  0.25500000920E-02 0.  1.
    10030    2    1    2    0    0  0.00000000000E+00  0.00000000000E+00  0.63972125258E+03  0.14505381810E+04  0.13018516557E+04 0.  0.
        2    1    3    3  502    0 -0.66071837216E+02  0.92307366730E+02  0.10340157449E+04  0.10402281954E+04  0.25500000920E-02 0. -1.
       -2    1    3    3    0  502  0.66071837216E+02 -0.92307366730E+02 -0.39429449235E+03  0.41030998566E+03  0.25500000920E-02 0.  1.
</event>
<event>
 5   0  0.3337520E-04  0.1300343E+04  0.7818609E-02  0.9029293E-01
       -1   -1    0    0    0  501  0.00000000000E+00  0.00000000000E+00  0.70508661009E+03  0.70508661011E+03  0.50400001928E-02 0.  1.
        1   -1    0    0  501    0  0.00000000000E+00  0.00000000000E+00 -0.59953361771E+03  0.59953361773E+03  0.50400001928E-02 0. -1.
    10030    2    1    2    0    0  0.00000000000E+00  0.00000000000E+00  0.10555299238E+03  0.13046202278E+04  0.13003432257E+04 0.  0.
        5    1    3    3  502    0  0.52119971554E+03 -0.15837640962E+02  0.44238489294E+03  0.68383218544E+03  0.46999998093E+01 0.  1.
       -5    1    3    3    0  502 -0.52119971554E+03  0.15837640962E+02 -0.33683190056E+03  0.62078804240E+03  0.46999998093E+01 0. -1.
</event>
<event>
 5   0  0.5384960E-04  0.1300769E+04  0.7818609E-02  0.9028956E-01
       -2   -1    0    0    0  501  0.00000000000E+00  0.00000000000E+00  0.94811758189E+03  0.94811758190E+03  0.25500000920E-02 0.  1.
        2   -1    0    0  501    0  0.00000000000E+00  0.00000000000E+00 -0.44614704271E+03  0.44614704271E+03  0.25500000920E-02 0. -1.
    10030    2    1    2    0    0  0.00000000000E+00  0.00000000000E+00  0.50197053919E+03  0.13942646246E+04  0.13007687808E+04 0.  0.
        3    1    3    3  502    0 -0.51207496273E+03  0.36027464237E+03  0.43965170308E+03  0.76505700154E+03  0.10100000352E+00 0.  1.
       -3    1    3    3    0  502  0.51207496273E+03 -0.36027464237E+03  0.62318836108E+02  0.62920762307E+03  0.10100000352E+00 0. -1.
</event>
<event>
 5   0  0.5957913E-04  0.1296739E+04  0.7818609E-02  0.9032156E-01
       -2   -1    0    0    0  501  0.00000000000E+00  0.00000000000E+00  0.23457389038E+03  0.23457389039E+03  0.25500000920E-02 0.  1.
        2   -1    0    0  501    0  0.00000000000E+00  0.00000000000E+00 -0.17921121860E+04  0.17921121860E+04  0.25500000920E-02 0. -1.
    10030    2    1    2    0    0  0.00000000000E+00  0.00000000000E+00 -0.15575382957E+04  0.20266860764E+04  0.12967385665E+04 0.  0.
        1    1    3    3  502    0 -0.38428748560E+03 -0.14858400106E+02 -0.15946099528E+04  0.16403287918E+04  0.50400001928E-02 0. -1.
       -1    1    3    3    0  502  0.38428748560E+03  0.14858400106E+02  0.37071657082E+02  0.38635728468E+03  0.50400001928E-02 0.  1.
</event>
<event>
 5   0  0.5787604E-04  0.1301779E+04  0.7818609E-02  0.9028156E-01
       -2   -1    0    0    0  501  0.00000000000E+00  0.00000000000E+00  0.26093872905E+03  0.26093872907E+03  0.25500000920E-02 0. -1.
        2   -1    0    0  501    0  0.00000000000E+00  0.00000000000E+00 -0.16235888347E+04  0.16235888347E+04  0.25500000920E-02 0.  1.
    10030    2    1    2    0    0  0.00000000000E+00  0.00000000000E+00 -0.13626501057E+04  0.18845275638E+04  0.13017791011E+04 0.  0.
        4    1    3    3  502    0  0.39016279411E+03 -0.26227398686E+03 -0.29653446551E+02  0.47105794748E+03  0.12699999809E+01 0. -1.
       -4    1    3    3    0  502 -0.39016279411E+03  0.26227398686E+03 -0.13329966591E+04  0.14134696163E+04  0.12699999809E+01 0.  1.
</event>
<event>
 5   0  0.6052864E-04  0.1311406E+04  0.7818609E-02  0.9020568E-01
       -2   -1    0    0    0  501  0.00000000000E+00  0.00000000000E+00  0.96498684423E+03  0.96498684424E+03  0.25500000920E-02 0.  1.
        2   -1    0    0  501    0  0.00000000000E+00  0.00000000000E+00 -0.44554674682E+03  0.44554674683E+03  0.25500000920E-02 0. -1.
    10030    2    1    2    0    0  0.00000000000E+00  0.00000000000E+00  0.51944009742E+03  0.14105335911E+04  0.13114064956E+04 0.  0.
        2    1    3    3  502    0 -0.50132044503E+03 -0.31156446839E+03  0.56687943448E+03  0.81838065704E+03  0.25500000920E-02 0.  1.
       -2    1    3    3    0  502  0.50132044503E+03  0.31156446839E+03 -0.47439337060E+02  0.59215293403E+03  0.25500000920E-02 0. -1.
</event>
<event>
 5   0  0.3337520E-04  0.1306513E+04  0.7818609E-02  0.9024416E-01
       -1   -1    0    0    0  501  0.00000000000E+00  0.00000000000E+00  0.22732759492E+03  0.22732759497E+03  0.50400001928E-02 0. -1.
        1   -1    0    0  501    0  0.00000000000E+00  0.00000000000E+00 -0.18772205641E+04  0.18772205641E+04  0.50400001928E-02 0.  1.
    10030    2    1    2    0    0  0.00000000000E+00  0.00000000000E+00 -0.16498929692E+04  0.21045481591E+04  0.13065129713E+04 0.  0.
        5    1    3    3  502    0  0.24896261818E+03 -0.13360941079E+02  0.14764457558E+03  0.28979632623E+03  0.46999998093E+01 0. -1.
       -5    1    3    3    0  502 -0.24896261818E+03  0.13360941079E+02 -0.17975375448E+04  0.18147518329E+04  0.46999998093E+01 0.  1.
</event>
<event>
 5   0  0.6052864E-04  0.1357714E+04  0.7818609E-02  0.8985009E-01
       -2   -1    0    0    0  501  0.00000000000E+00  0.00000000000E+00  0.55595957980E+03  0.55595957980E+03  0.25500000920E-02 0. -1.
        2   -1    0    0  501    0  0.00000000000E+00  0.00000000000E+00 -0.82892099005E+03  0.82892099005E+03  0.25500000920E-02 0.  1.
    10030    2    1    2    0    0  0.00000000000E+00  0.00000000000E+00 -0.27296141025E+03  0.13848805699E+04  0.13577136153E+04 0.  0.
        2    1    3    3  502    0 -0.57138936743E+03 -0.27190287836E+03 -0.38722377566E+03  0.74186200665E+03  0.25500000920E-02 0.  1.
       -2    1    3    3    0  502  0.57138936743E+03  0.27190287836E+03  0.11426236541E+03  0.64301856320E+03  0.25500000920E-02 0. -1.
</event>
<event>
 5   0  0.3337520E-04  0.1301061E+04  0.7818609E-02  0.9028724E-01
        1   -1    0    0  501    0  0.00000000000E+00  0.00000000000E+00  0.78543070956E+03  0.78543070958E+03  0.50400001928E-02 0. -1.
       -1   -1    0    0    0  501  0.00000000000E+00  0.00000000000E+00 -0.53879987398E+03  0.53879987400E+03  0.50400001928E-02 0.  1.
    10030    2    1    2    0    0  0.00000000000E+00  0.00000000000E+00  0.24663083559E+03  0.13242305836E+04  0.13010610552E+04 0.  0.
        5    1    3    3  502    0  0.46223545231E+03 -0.31167451756E+02  0.58810379860E+03  0.74867963198E+03  0.46999998093E+01 0. -1.
       -5    1    3    3    0  502 -0.46223545231E+03  0.31167451756E+02 -0.34147296301E+03  0.57555095160E+03  0.46999998093E+01 0.  1.
</event>
<event>
 5   0  0.3263679E-04  0.1346782E+04  0.7818609E-02  0.8993267E-01
       -1   -1    0    0    0  501  0.00000000000E+00  0.00000000000E+00  0.10903703942E+04  0.10903703942E+04  0.50400001928E-02 0.  1.
        1   -1    0    0  501    0  0.00000000000E+00  0.00000000000E+00 -0.41587304295E+03  0.41587304298E+03  0.50400001928E-02 0. -1.
    10030    2    1    2    0    0  0.00000000000E+00  0.00000000000E+00  0.67449735126E+03  0.15062434372E+04  0.13467823192E+04 0.  0.
        2    1    3    3  502    0  0.13125101222E+03  0.62675896071E+01 -0.40139568472E+03  0.42235601879E+03  0.25500000920E-02 0. -1.
       -2    1    3    3    0  502 -0.13125101222E+03 -0.62675896071E+01  0.10758930360E+04  0.10838874184E+04  0.25500000920E-02 0.  1.
</event>
<event>
 5   0  0.3263679E-04  0.1218217E+04  0.7818609E-02  0.9097059E-01
        1   -1    0    0  501    0  0.00000000000E+00  0.00000000000E+00  0.12502298067E+04  0.12502298067E+04  0.50400001928E-02 0. -1.
       -1   -1    0    0    0  501  0.00000000000E+00  0.00000000000E+00 -0.29675604776E+03  0.29675604780E+03  0.50400001928E-02 0.  1.
    10030    2    1    2    0    0  0.00000000000E+00  0.00000000000E+00  0.95347375896E+03  0.15469858545E+04  0.12182171502E+04 0.  0.
        2    1    3    3  502    0 -0.14731791425E+03  0.47557734838E+02  0.12248323080E+04  0.12345762385E+04  0.25500000920E-02 0. -1.
       -2    1    3    3    0  502  0.14731791425E+03 -0.47557734838E+02 -0.27135854906E+03  0.31240961598E+03  0.25500000920E-02 0.  1.
</event>
<event>
 5   0  0.3263679E-04  0.1310228E+04  0.7818609E-02  0.9021494E-01
        1   -1    0    0  501    0  0.00000000000E+00  0.00000000000E+00  0.12461994934E+04  0.12461994934E+04  0.50400001928E-02 0.  1.
       -1   -1    0    0    0  501  0.00000000000E+00  0.00000000000E+00 -0.34438636701E+03  0.34438636705E+03  0.50400001928E-02 0. -1.
    10030    2    1    2    0    0  0.00000000000E+00  0.00000000000E+00  0.90181312635E+03  0.15905858604E+04  0.13102276384E+04 0.  0.
        2    1    3    3  502    0  0.38621074744E+03 -0.10951172996E+03  0.10793931785E+04  0.11516254575E+04  0.25500000920E-02 0.  1.
       -2    1    3    3    0  502 -0.38621074744E+03  0.10951172996E+03 -0.17758005216E+03  0.43896040296E+03  0.25500000920E-02 0. -1.
</event>
<event>
 5   0  0.5957913E-04  0.1316034E+04  0.7818609E-02  0.9016946E-01
       -2   -1    0    0    0  501  0.00000000000E+00  0.00000000000E+00  0.35943107476E+03  0.35943107477E+03  0.25500000920E-02 0.  1.
        2   -1    0    0  501    0  0.00000000000E+00  0.00000000000E+00 -0.12046437936E+04  0.12046437936E+04  0.25500000920E-02 0. -1.
    10030    2    1    2    0    0  0.00000000000E+00  0.00000000000E+00 -0.84521271885E+03  0.15640748684E+04  0.13160340626E+04 0.  0.
        1    1    3    3  502    0  0.60293015789E+03  0.21089449041E+03 -0.23474761905E+03  0.68052017314E+03  0.50400001928E-02 0. -1.
       -1    1    3    3    0  502 -0.60293015789E+03 -0.21089449041E+03 -0.61046509981E+03  0.88355469524E+03  0.50400001928E-02 0.  1.
</event>
<event>
 5   0  0.5787604E-04  0.1309365E+04  0.7818609E-02  0.9022171E-01
       -2   -1    0    0    0  501  0.00000000000E+00  0.00000000000E+00  0.65945839580E+03  0.65945839581E+03  0.25500000920E-02 0. -1.
        2   -1    0    0  501    0  0.00000000000E+00  0.00000000000E+00 -0.64994129176E+03  0.64994129177E+03  0.25500000920E-02 0.  1.
    10030    2    1    2    0    0  0.00000000000E+00  0.00000000000E+00  0.95171040381E+01  0.13093996876E+04  0.13093651006E+04 0.  0.
        4    1    3    3  502    0  0.32001725774E+03 -0.87647729142E+02  0.56914431236E+03  0.65880196635E+03  0.12699999809E+01 0. -1.
       -4    1    3    3    0  502 -0.32001725774E+03  0.87647729142E+02 -0.55962720832E+03  0.65059772123E+03  0.12699999809E+01 0.  1.
</event>
<event>
 5   0  0.3335747E-04  0.1292053E+04  0.7818609E-02  0.9035891E-01
        1   -1    0    0  501    0  0.00000000000E+00  0.00000000000E+00  0.44958866842E+03  0.44958866845E+03  0.50400001928E-02 0.  1.
       -1   -1    0    0    0  501  0.00000000000E+00  0.00000000000E+00 -0.92829351647E+03  0.92829351649E+03  0.50400001928E-02 0. -1.
    10030    2    1    2    0    0  0.00000000000E+00  0.00000000000E+00 -0.47870484805E+03  0.13778821849E+04  0.12920530113E+04 0.  0.
        3    1    3    3  502    0 -0.23658073563E+03 -0.28524005243E+03 -0.80367139783E+03  0.88499720783E+03  0.10100000352E+00 0. -1.
       -3    1    3    3    0  502  0.23658073563E+03  0.28524005243E+03  0.32496654978E+03  0.49288497711E+03  0.10100000352E+00 0.  1.
</event>
<event>
 5   0  0.5384960E-04  0.1300506E+04  0.7818609E-02  0.9029164E-01
       -2   -1    0    0    0  501  0.00000000000E+00  0.00000000000E+00  0.21453489566E+03  0.21453489568E+03  0.25500000920E-02 0.  1.
        2   -1    0    0  501    0  0.00000000000E+00  0.00000000000E+00 -0.19709113510E+04  0.19709113510E+04  0.25500000920E-02 0. -1.
    10030    2    1    2    0    0  0.00000000000E+00  0.00000000000E+00 -0.17563764553E+04  0.21854462467E+04  0.13005064568E+04 0.  0.
        3    1    3    3  502    0 -0.55717459144E+03  0.68309319446E+02 -0.14297255502E+04  0.15359768382E+04  0.10100000352E+00 0. -1.
       -3    1    3    3    0  502  0.55717459144E+03 -0.68309319446E+02 -0.32665090511E+03  0.64946940843E+03  0.10100000352E+00 0.  1.
</event>
<event>
 5   0  0.3335747E-04  0.1301290E+04  0.7818609E-02  0.9028543E-01
       -1   -1    0    0    0  501  0.00000000000E+00  0.00000000000E+00  0.71734198124E+03  0.71734198126E+03  0.50400001928E-02 0.  1.
        1   -1    0    0  501    0  0.00000000000E+00  0.00000000000E+00 -0.59014955513E+03  0.59014955515E+03  0.50400001928E-02 0. -1.
    10030    2    1    2    0    0  0.00000000000E+00  0.00000000000E+00  0.12719242611E+03  0.13074915364E+04  0.13012902077E+04 0.  0.
        3    1    3    3  502    0 -0.43500261198E+03  0.42419351982E+03 -0.17026094159E+03  0.63099620690E+03  0.10100000352E+00 0. -1.
       -3    1    3    3    0  502  0.43500261198E+03 -0.42419351982E+03  0.29745336770E+03  0.67649532951E+03  0.10100000352E+00 0.  1.
</event>
<event>
 5   0  0.3263679E-04  0.1287151E+04  0.7818609E-02  0.9039817E-01
       -1   -1    0    0    0  501  0.00000000000E+00  0.00000000000E+00  0.58098690616E+03  0.58098690618E+03  0.50400001928E-02 0.  1.
        1   -1    0    0  501    0  0.00000000000E+00  0.00000000000E+00 -0.71290708503E+03  0.71290708504E+03  0.50400001928E-02 0. -1.
    10030    2    1    2    0    0  0.00000000000E+00  0.00000000000E+00 -0.13192017887E+03  0.12938939912E+04  0.12871514002E+04 0.  0.
        2    1    3    3  502    0 -0.20382575268E+03 -0.40454722546E+03  0.39358481749E+03  0.60009366239E+03  0.25500000920E-02 0.  1.
       -2    1    3    3    0  502  0.20382575268E+03  0.40454722546E+03 -0.52550499636E+03  0.69380032883E+03  0.25500000920E-02 0. -1.
</event>
<event>
 5   0  0.6052864E-04  0.1299328E+04  0.7818609E-02  0.9030098E-01
       -2   -1    0    0    0  501  0.00000000000E+00  0.00000000000E+00  0.50343279595E+03  0.50343279596E+03  0.25500000920E-02 0. -1.
        2   -1    0    0  501    0  0.00000000000E+00  0.00000000000E+00 -0.83837033780E+03  0.83837033781E+03  0.25500000920E-02 0.  1.
    10030    2    1    2    0    0  0.00000000000E+00  0.00000000000E+00 -0.33493754185E+03  0.13418031338E+04  0.12993277080E+04 0.  0.
        2    1    3    3  502    0  0.49935620266E+03  0.47539495684E+01 -0.59660584305E+03  0.77802168938E+03  0.25500000920E-02 0.  1.
       -2    1    3    3    0  502 -0.49935620266E+03 -0.47539495684E+01  0.26166830120E+03  0.56378144438E+03  0.25500000920E-02 0. -1.
</event>
<event>
 5   0  0.3337520E-04  0.1295314E+04  0.7818609E-02  0.9033289E-01
       -1   -1    0    0    0  501  0.00000000000E+00  0.00000000000E+00  0.52165509951E+03  0.52165509953E+03  0.50400001928E-02 0. -1.
        1   -1    0    0  501    0  0.00000000000E+00  0.00000000000E+00 -0.80409394152E+03  0.80409394154E+03  0.50400001928E-02 0.  1.
    10030    2    1    2    0    0  0.00000000000E+00  0.00000000000E+00 -0.28243884201E+03  0.13257490411E+04  0.12953141783E+04 0.  0.
        5    1    3    3  502    0 -0.61491985276E+03 -0.14711581234E+03  0.23188498969E+01  0.63229499020E+03  0.46999998093E+01 0.  1.
       -5    1    3    3    0  502  0.61491985276E+03  0.14711581234E+03 -0.28475769191E+03  0.69345405087E+03  0.46999998093E+01 0. -1.
</event>
<event>
 5   0  0.3403833E-04  0.1302363E+04  0.7818609E-02  0.9027694E-01
        1   -1    0    0  501    0  0.00000000000E+00  0.00000000000E+00  0.19355617107E+04  0.19355617107E+04  0.50400001928E-02 0.  1.
       -1   -1    0    0    0  501  0.00000000000E+00  0.00000000000E+00 -0.21907705043E+03  0.21907705049E+03  0.50400001928E-02 0. -1.
    10030    2    1    2    0    0  0.00000000000E+00  0.00000000000E+00  0.17164846602E+04  0.21546387612E+04  0.13023627000E+04 0.  0.
        1    1    3    3  502    0  0.48871125920E+03  0.41937922436E+03  0.10179549870E+04  0.12045538528E+04  0.50400001928E-02 0. -1.
       -1    1    3    3    0  502 -0.48871125920E+03 -0.41937922436E+03  0.69852967321E+03  0.95008490835E+03  0.50400001928E-02 0.  1.
</event>
<event>
 5   0  0.5787604E-04  0.1296227E+04  0.7818609E-02  0.9032563E-01
       -2   -1    0    0    0  501  0.00000000000E+00  0.00000000000E+00  0.36904266536E+03  0.36904266537E+03  0.25500000920E-02 0. -1.
        2   -1    0    0  501    0  0.00000000000E+00  0.00000000000E+00 -0.11382176258E+04  0.11382176258E+04  0.25500000920E-02 0.  1.
    10030    2    1    2    0    0  0.00000000000E+00  0.00000000000E+00 -0.76917496041E+03  0.15072602911E+04  0.12962266258E+04 0.  0.
        4    1    3    3  502    0  0.38973062092E+03 -0.37554663610E+03  0.30004722434E+02  0.54205823399E+03  0.12699999809E+01 0. -1.
       -4    1    3    3    0  502 -0.38973062092E+03  0.37554663610E+03 -0.79917968285E+03  0.96520205716E+03  0.12699999809E+01 0.  1.
</event>
<event>
 5   0  0.3403833E-04  0.1306256E+04  0.7818609E-02  0.9024619E-01
       -1   -1    0    0    0  501  0.00000000000E+00  0.00000000000E+00  0.79330472379E+03  0.79330472380E+03  0.50400001928E-02 0.  1.
        1   -1    0    0  501    0  0.00000000000E+00  0.00000000000E+00 -0.53772062121E+03  0.53772062124E+03  0.50400001928E-02 0. -1.
    10030    2    1    2    0    0  0.00000000000E+00  0.00000000000E+00  0.25558410257E+03  0.13310253450E+04  0.13062561907E+04 0.  0.
        1    1    3    3  502    0 -0.18477922777E+03  0.38885341651E+03  0.62825276509E+03  0.76161137033E+03  0.50400001928E-02 0.  1.
       -1    1    3    3    0  502  0.18477922777E+03 -0.38885341651E+03 -0.37266866252E+03  0.56941397471E+03  0.50400001928E-02 0. -1.
</event>
<event>
 5   0  0.5787604E-04  0.1302331E+04  0.7818609E-02  0.9027719E-01
        2   -1    0    0  501    0  0.00000000000E+00  0.00000000000E+00  0.88223808092E+03  0.88223808092E+03  0.25500000920E-02 0.  1.
       -2   -1    0    0    0  501  0.00000000000E+00  0.00000000000E+00 -0.48061434826E+03  0.48061434826E+03  0.25500000920E-02 0. -1.
    10030    2    1    2    0    0  0.00000000000E+00  0.00000000000E+00  0.40162373266E+03  0.13628524292E+04  0.13023306497E+04 0.  0.
        4    1    3    3  502    0  0.36731195679E+03 -0.66369586741E+01 -0.36180917403E+03  0.51562545916E+03  0.12699999809E+01 0. -1.
       -4    1    3    3    0  502 -0.36731195679E+03  0.66369586741E+01  0.76343290669E+03  0.84722697003E+03  0.12699999809E+01 0.  1.
</event>
<event>
 5   0  0.6007125E-04  0.1300781E+04  0.7818609E-02  0.9028946E-01
        2   -1    0    0  501    0  0.00000000000E+00  0.00000000000E+00  0.18303135582E+04  0.18303135582E+04  0.25500000920E-02 0.  1.
       -2   -1    0    0    0  501  0.00000000000E+00  0.00000000000E+00 -0.23111220781E+03  0.23111220783E+03  0.25500000920E-02 0. -1.
    10030    2    1    2    0    0  0.00000000000E+00  0.00000000000E+00  0.15992013504E+04  0.20614257661E+04  0.13007810076E+04 0.  0.
        5    1    3    3  502    0  0.25568877157E+03 -0.21601474363E+03 -0.84102507349E+02  0.34515857097E+03  0.46999998093E+01 0. -1.
       -5    1    3    3    0  502 -0.25568877157E+03  0.21601474363E+03  0.16833038578E+04  0.17162671951E+04  0.46999998093E+01 0.  1.
</event>
<event>
 5   0  0.3274879E-04  0.1299935E+04  0.7818609E-02  0.9029617E-01
       -1   -1    0    0    0  501  0.00000000000E+00  0.00000000000E+00  0.25569002371E+03  0.25569002376E+03  0.50400001928E-02 0.  1.
        1   -1    0    0  501    0  0.00000000000E+00  0.00000000000E+00 -0.16522267465E+04  0.16522267465E+04  0.50400001928E-02 0. -1.
    10030    2    1    2    0    0  0.00000000000E+00  0.00000000000E+00 -0.13965367227E+04  0.19079167702E+04  0.12999352230E+04 0.  0.
        4    1    3    3  502    0  0.13805725168E+03 -0.56920887469E+03 -0.11118314513E+04  0.12566739182E+04  0.12699999809E+01 0.  1.
       -4    1    3    3    0  502 -0.13805725168E+03  0.56920887469E+03 -0.28470527145E+03  0.65124285199E+03  0.12699999809E+01 0. -1.
</event>
<event>
 5   0  0.6007125E-04  0.1300041E+04  0.7818609E-02  0.9029533E-01
       -2   -1    0    0    0  501  0.00000000000E+00  0.00000000000E+00  0.33094322333E+03  0.33094322334E+03  0.25500000920E-02 0.  1.
        2   -1    0    0  501    0  0.00000000000E+00  0.00000000000E+00 -0.12767336876E+04  0.12767336876E+04  0.25500000920E-02 0. -1.
    10030    2    1    2    0    0  0.00000000000E+00  0.00000000000E+00 -0.94579046430E+03  0.16076769110E+04  0.13000405562E+04 0.  0.
        5    1    3    3  502    0  0.15129108078E+03  0.53071392036E+03 -0.48172405614E+02  0.55397556539E+03  0.46999998093E+01 0.  1.
       -5    1    3    3    0  502 -0.15129108078E+03 -0.53071392036E+03 -0.89761805869E+03  0.10537013456E+04  0.46999998093E+01 0. -1.
</event>
<event>
 5   0  0.2255875E-04  0.1304116E+04  0.7818609E-02  0.9026308E-01
       -4   -1    0    0    0  501  0.00000000000E+00  0.00000000000E+00  0.73093697940E+03  0.73093808271E+03  0.12699999809E+01 0. -1.
        4   -1    0    0  501    0  0.00000000000E+00  0.00000000000E+00 -0.58168856737E+03  0.58168995376E+03  0.12699999809E+01 0.  1.
    10030    2    1    2    0    0  0.00000000000E+00  0.00000000000E+00  0.14924841203E+03  0.13126280365E+04  0.13041155139E+04 0.  0.
        4    1    3    3  502    0 -0.49932635238E+03  0.63942651645E+02  0.49177152636E+03  0.70374449619E+03  0.12699999809E+01 0. -1.
       -4    1    3    3    0  502  0.49932635238E+03 -0.63942651645E+02 -0.34252311433E+03  0.60888354028E+03  0.12699999809E+01 0.  1.
</event>
<event>
 5   0  0.6052864E-04  0.1302214E+04  0.7818609E-02  0.9027811E-01
        2   -1    0    0  501    0  0.00000000000E+00  0.00000000000E+00  0.89929384122E+03  0.89929384123E+03  0.25500000920E-02 0. -1.
       -2   -1    0    0    0  501  0.00000000000E+00  0.00000000000E+00 -0.47141459374E+03  0.47141459375E+03  0.25500000920E-02 0.  1.
    10030    2    1    2    0    0  0.00000000000E+00  0.00000000000E+00  0.42787924748E+03  0.13707084350E+04  0.13022138700E+04 0.  0.
        2    1    3    3  502    0 -0.98903904501E+02  0.63178892250E+03  0.34286045713E+03  0.72559804161E+03  0.25500000920E-02 0. -1.
       -2    1    3    3    0  502  0.98903904501E+02 -0.63178892250E+03  0.85018790347E+02  0.64511039337E+03  0.25500000920E-02 0.  1.
</event>
<event>
 5   0  0.3335747E-04  0.1301302E+04  0.7818609E-02  0.9028533E-01
        1   -1    0    0  501    0  0.00000000000E+00  0.00000000000E+00  0.28310574059E+04  0.28310574059E+04  0.50400001928E-02 0.  1.
       -1   -1    0    0    0  501  0.00000000000E+00  0.00000000000E+00 -0.14953659517E+03  0.14953659525E+03  0.50400001928E-02 0. -1.
    10030    2    1    2    0    0  0.00000000000E+00  0.00000000000E+00  0.26815208107E+04  0.29805940011E+04  0.13013019409E+04 0.  0.
        3    1    3    3  502    0  0.81844606928E+01 -0.63708606665E+03  0.10386175939E+04  0.12184712382E+04  0.10100000352E+00 0. -1.
       -3    1    3    3    0  502 -0.81844606928E+01  0.63708606665E+03  0.16429032168E+04  0.17621227629E+04  0.10100000352E+00 0.  1.
</event>
</LesHouchesEvents>
