<LesHouchesEvents version="3.0">
<header>
<!--
#*********************************************************************
#                                                                    *
#                        MadGraph5_aMC@NLO                           *
#                                                                    *
#                           Going Beyond                             *
#                                                                    *
#                   http://madgraph.hep.uiuc.edu                     *
#                   http://madgraph.phys.ucl.ac.be                   *
#                   http://amcatnlo.cern.ch                          *
#                                                                    *
#                     The MadGraph5_aMC@NLO team                     *
#                                                                    *
#....................................................................*
#                                                                    *
# This file contains all the information necessary to reproduce      *
# the events generated:                                              *
#                                                                    *
# 1. software version                                                *
# 2. proc_card          : code generation info including model       *
# 3. param_card         : model primary parameters in the LH format  *
# 4. run_card           : running parameters (collider and cuts)     *
# 5. pythia_card        : present only if pythia has been run        *
# 6. pgs_card           : present only if pgs has been run           *
# 7. delphes_cards      : present only if delphes has been run       *
#                                                                    *
#                                                                    *
#*********************************************************************
-->
<MGVersion>
#5.2.2.3
</MGVersion>
<MG5ProcCard>
#************************************************************
#*                     MadGraph5_aMC@NLO                    *
#*                                                          *
#*                *                       *                 *
#*                  *        * *        *                   *
#*                    * * * * 5 * * * *                     *
#*                  *        * *        *                   *
#*                *                       *                 *
#*                                                          *
#*                                                          *
#*         VERSION 2.2.3                 2015-02-10         *
#*                                                          *
#*    The MadGraph5_aMC@NLO Development Team - Find us at   *
#*    https://server06.fynu.ucl.ac.be/projects/madgraph     *
#*                                                          *
#************************************************************
#*                                                          *
#*               Command File for MadGraph5_aMC@NLO         *
#*                                                          *
#*     run as ./bin/mg5_aMC  filename                       *
#*                                                          *
#************************************************************
set group_subprocesses Auto
set ignore_six_quark_processes False
set loop_optimized_output True
set gauge unitary
set complex_mass_scheme False
import model sm
define p = g u c d s u~ c~ d~ s~
define j = g u c d s u~ c~ d~ s~
define l+ = e+ mu+
define l- = e- mu-
define vl = ve vm vt
define vl~ = ve~ vm~ vt~
import model Zprime_UFO
generate p p > zph, zph > j j
add process p p > zph, zph > b b~
output Dijet_signal
</MG5ProcCard>
<MGProcCard>
#*********************************************************************
#                        MadGraph/MadEvent                           *
#                   http://madgraph.hep.uiuc.edu                     *
#                                                                    *
#                          proc_card.dat                             *
#*********************************************************************
#                                                                    *
#            This Files is generated by MADGRAPH 5                   *
#                                                                    *
# WARNING: This Files is generated for MADEVENT (compatibility issue)*
#          This files is NOT a valid MG4 proc_card.dat               *
#          Running this in MG4 will NEVER reproduce the result of MG5*
#                                                                    *
#*********************************************************************
#*********************************************************************
# Process(es) requested : mg2 input                                  *
#*********************************************************************
# Begin PROCESS # This is TAG. Do not modify this line
p p > zph , zph > j j           #Process
# Be carefull the coupling are here in MG5 convention
          
end_coup           # End the couplings input

done               # this tells MG there are no more procs
# End PROCESS  # This is TAG. Do not modify this line
#*********************************************************************
# Model information                                                  *
#*********************************************************************
# Begin MODEL  # This is TAG. Do not modify this line
Zprime_UFO
# End   MODEL  # This is TAG. Do not modify this line
#*********************************************************************
# Start multiparticle definitions                                    *
#*********************************************************************
# Begin MULTIPARTICLES # This is TAG. Do not modify this line

# End  MULTIPARTICLES # This is TAG. Do not modify this line
</MGProcCard>
<MGRunCard>
#*********************************************************************
#                       MadGraph5_aMC@NLO                            *
#                                                                    *
#                     run_card.dat MadEvent                          *
#                                                                    *
#  This file is used to set the parameters of the run.               *
#                                                                    *
#  Some notation/conventions:                                        *
#                                                                    *
#   Lines starting with a '# ' are info or comments                  *
#                                                                    *
#   mind the format:   value    = variable     ! comment             *
#*********************************************************************
#
#*******************                                                 
# Running parameters
#*******************                                                 
#                                                                    
#*********************************************************************
# Tag name for the run (one word)                                    *
#*********************************************************************
  tag_1     = run_tag ! name of the run 
#*********************************************************************
# Run to generate the grid pack                                      *
#*********************************************************************
  .false.     = gridpack  !True = setting up the grid pack
#*********************************************************************
# Number of events and rnd seed                                      *
# Warning: Do not generate more than 1M events in a single run       *
# If you want to run Pythia, avoid more than 50k events in a run.    *
#*********************************************************************
  2000 = nevents ! Number of unweighted events requested 
 2793 = iseed   ! rnd seed (0=assigned automatically=default))
#*********************************************************************
# Collider type and energy                                           *
# lpp: 0=No PDF, 1=proton, -1=antiproton, 2=photon from proton,      *
#                                         3=photon from electron     *
#*********************************************************************
        1     = lpp1    ! beam 1 type 
        1     = lpp2    ! beam 2 type
     4000     = ebeam1  ! beam 1 total energy in GeV
     4000     = ebeam2  ! beam 2 total energy in GeV
#*********************************************************************
# Beam polarization from -100 (left-handed) to 100 (right-handed)    *
#*********************************************************************
        0     = polbeam1 ! beam polarization for beam 1
        0     = polbeam2 ! beam polarization for beam 2
#*********************************************************************
# PDF CHOICE: this automatically fixes also alpha_s and its evol.    *
#*********************************************************************
 'nn23lo1'    = pdlabel     ! PDF set                                     
 230000    = lhaid     ! if pdlabel=lhapdf, this is the lhapdf number
#*********************************************************************
# Renormalization and factorization scales                           *
#*********************************************************************
 F        = fixed_ren_scale  ! if .true. use fixed ren scale
 F        = fixed_fac_scale  ! if .true. use fixed fac scale
 91.1880  = scale            ! fixed ren scale
 91.1880  = dsqrt_q2fact1    ! fixed fact scale for pdf1
 91.1880  = dsqrt_q2fact2    ! fixed fact scale for pdf2
 1        = scalefact        ! scale factor for event-by-event scales
#*********************************************************************
# Matching - Warning! ickkw > 1 is still beta
#*********************************************************************
 0        = ickkw            ! 0 no matching, 1 MLM, 2 CKKW matching
 1        = highestmult      ! for ickkw=2, highest mult group
 1        = ktscheme         ! for ickkw=1, 1 Durham kT, 2 Pythia pTE
 1        = alpsfact         ! scale factor for QCD emission vx
 F        = chcluster        ! cluster only according to channel diag
 T        = pdfwgt           ! for ickkw=1, perform pdf reweighting
 5        = asrwgtflavor     ! highest quark flavor for a_s reweight
 T        = clusinfo         ! include clustering tag in output
 3.0      = lhe_version       ! Change the way clustering information pass to shower.        
#*********************************************************************
#**********************************************************
#
#**********************************************************
# Automatic ptj and mjj cuts if xqcut > 0
# (turn off for VBF and single top processes)
#**********************************************************
   T  = auto_ptj_mjj  ! Automatic setting of ptj and mjj
#**********************************************************
#                                                                    
#**********************************
# BW cutoff (M+/-bwcutoff*Gamma)
#**********************************
  15  = bwcutoff      ! (M+/-bwcutoff*Gamma)
#**********************************************************
# Apply pt/E/eta/dr/mij cuts on decay products or not
# (note that etmiss/ptll/ptheavy/ht/sorted cuts always apply)
#**********************************************************
   T  = cut_decays    ! Cut decay products 
#*************************************************************
# Number of helicities to sum per event (0 = all helicities)
# 0 gives more stable result, but longer run time (needed for
# long decay chains e.g.).
# Use >=2 if most helicities contribute, e.g. pure QCD.
#*************************************************************
   0  = nhel          ! Number of helicities used per event
#*******************                                                 
# Standard Cuts
#*******************                                                 
#                                                                    
#*********************************************************************
# Minimum and maximum pt's (for max, -1 means no cut)                *
#*********************************************************************
 20  = ptj       ! minimum pt for the jets 
  0  = ptb       ! minimum pt for the b 
 10  = pta       ! minimum pt for the photons 
 10  = ptl       ! minimum pt for the charged leptons 
  0  = misset    ! minimum missing Et (sum of neutrino's momenta)
  0  = ptheavy   ! minimum pt for one heavy final state
 1.0 = ptonium   ! minimum pt for the quarkonium states
 -1  = ptjmax    ! maximum pt for the jets
 -1  = ptbmax    ! maximum pt for the b
 -1  = ptamax    ! maximum pt for the photons
 -1  = ptlmax    ! maximum pt for the charged leptons
 -1  = missetmax ! maximum missing Et (sum of neutrino's momenta)
#*********************************************************************
# Minimum and maximum E's (in the center of mass frame)              *
#*********************************************************************
  0  = ej     ! minimum E for the jets 
  0  = eb     ! minimum E for the b 
  0  = ea     ! minimum E for the photons 
  0  = el     ! minimum E for the charged leptons 
 -1   = ejmax ! maximum E for the jets
 -1   = ebmax ! maximum E for the b
 -1   = eamax ! maximum E for the photons
 -1   = elmax ! maximum E for the charged leptons
#*********************************************************************
# Maximum and minimum absolute rapidity (for max, -1 means no cut)   *
#*********************************************************************
   5  = etaj    ! max rap for the jets 
  -1  = etab    ! max rap for the b
 2.5  = etaa    ! max rap for the photons 
 2.5  = etal    ! max rap for the charged leptons 
 0.6  = etaonium ! max rap for the quarkonium states
   0  = etajmin ! min rap for the jets
   0  = etabmin ! min rap for the b
   0  = etaamin ! min rap for the photons
   0  = etalmin ! main rap for the charged leptons
#*********************************************************************
# Minimum and maximum DeltaR distance                                *
#*********************************************************************
 0.4 = drjj    ! min distance between jets 
 0   = drbb    ! min distance between b's 
 0.4 = drll    ! min distance between leptons 
 0.4 = draa    ! min distance between gammas 
 0   = drbj    ! min distance between b and jet 
 0.4 = draj    ! min distance between gamma and jet 
 0.4 = drjl    ! min distance between jet and lepton 
 0   = drab    ! min distance between gamma and b 
 0   = drbl    ! min distance between b and lepton 
 0.4 = dral    ! min distance between gamma and lepton 
 -1  = drjjmax ! max distance between jets
 -1  = drbbmax ! max distance between b's
 -1  = drllmax ! max distance between leptons
 -1  = draamax ! max distance between gammas
 -1  = drbjmax ! max distance between b and jet
 -1  = drajmax ! max distance between gamma and jet
 -1  = drjlmax ! max distance between jet and lepton
 -1  = drabmax ! max distance between gamma and b
 -1  = drblmax ! max distance between b and lepton
 -1  = dralmax ! maxdistance between gamma and lepton
#*********************************************************************
# Minimum and maximum invariant mass for pairs                       *
# WARNING: for four lepton final state mmll cut require to have      *
#          different lepton masses for each flavor!                  *           
#*********************************************************************
 0   = mmjj    ! min invariant mass of a jet pair 
 0   = mmbb    ! min invariant mass of a b pair 
 0   = mmaa    ! min invariant mass of gamma gamma pair
 0   = mmll    ! min invariant mass of l+l- (same flavour) lepton pair
 -1  = mmjjmax ! max invariant mass of a jet pair
 -1  = mmbbmax ! max invariant mass of a b pair
 -1  = mmaamax ! max invariant mass of gamma gamma pair
 -1  = mmllmax ! max invariant mass of l+l- (same flavour) lepton pair
#*********************************************************************
# Minimum and maximum invariant mass for all letpons                 *
#*********************************************************************
 0   = mmnl    ! min invariant mass for all letpons (l+- and vl) 
 -1  = mmnlmax ! max invariant mass for all letpons (l+- and vl) 
#*********************************************************************
# Minimum and maximum pt for 4-momenta sum of leptons                *
#*********************************************************************
 0   = ptllmin  ! Minimum pt for 4-momenta sum of leptons(l and vl)
 -1  = ptllmax  ! Maximum pt for 4-momenta sum of leptons(l and vl)
#*********************************************************************
# Inclusive cuts                                                     *
#*********************************************************************
 0  = xptj ! minimum pt for at least one jet  
 0  = xptb ! minimum pt for at least one b 
 0  = xpta ! minimum pt for at least one photon 
 0  = xptl ! minimum pt for at least one charged lepton 
#*********************************************************************
# Control the pt's of the jets sorted by pt                          *
#*********************************************************************
 0   = ptj1min ! minimum pt for the leading jet in pt
 0   = ptj2min ! minimum pt for the second jet in pt
 0   = ptj3min ! minimum pt for the third jet in pt
 0   = ptj4min ! minimum pt for the fourth jet in pt
 -1  = ptj1max ! maximum pt for the leading jet in pt 
 -1  = ptj2max ! maximum pt for the second jet in pt
 -1  = ptj3max ! maximum pt for the third jet in pt
 -1  = ptj4max ! maximum pt for the fourth jet in pt
 0   = cutuse  ! reject event if fails any (0) / all (1) jet pt cuts
#*********************************************************************
# Control the pt's of leptons sorted by pt                           *
#*********************************************************************
 0   = ptl1min ! minimum pt for the leading lepton in pt
 0   = ptl2min ! minimum pt for the second lepton in pt
 0   = ptl3min ! minimum pt for the third lepton in pt
 0   = ptl4min ! minimum pt for the fourth lepton in pt
 -1  = ptl1max ! maximum pt for the leading lepton in pt 
 -1  = ptl2max ! maximum pt for the second lepton in pt
 -1  = ptl3max ! maximum pt for the third lepton in pt
 -1  = ptl4max ! maximum pt for the fourth lepton in pt
#*********************************************************************
# Control the Ht(k)=Sum of k leading jets                            *
#*********************************************************************
 0   = htjmin ! minimum jet HT=Sum(jet pt)
 -1  = htjmax ! maximum jet HT=Sum(jet pt)
 0   = ihtmin  !inclusive Ht for all partons (including b)
 -1  = ihtmax  !inclusive Ht for all partons (including b)
 0   = ht2min ! minimum Ht for the two leading jets
 0   = ht3min ! minimum Ht for the three leading jets
 0   = ht4min ! minimum Ht for the four leading jets
 -1  = ht2max ! maximum Ht for the two leading jets
 -1  = ht3max ! maximum Ht for the three leading jets
 -1  = ht4max ! maximum Ht for the four leading jets
#***********************************************************************
# Photon-isolation cuts, according to hep-ph/9801442                   *
# When ptgmin=0, all the other parameters are ignored                  *
# When ptgmin>0, pta and draj are not going to be used                 *
#***********************************************************************
   0 = ptgmin ! Min photon transverse momentum
 0.4 = R0gamma ! Radius of isolation code
 1.0 = xn ! n parameter of eq.(3.4) in hep-ph/9801442
 1.0 = epsgamma ! epsilon_gamma parameter of eq.(3.4) in hep-ph/9801442
 .true. = isoEM ! isolate photons from EM energy (photons and leptons)
#*********************************************************************
# WBF cuts                                                           *
#*********************************************************************
 0   = xetamin ! minimum rapidity for two jets in the WBF case  
 0   = deltaeta ! minimum rapidity for two jets in the WBF case 
#*********************************************************************
# KT DURHAM CUT                                                      *
#*********************************************************************
 -1    =  ktdurham        
 0.4  =  dparameter 
#*********************************************************************
# maximal pdg code for quark to be considered as a light jet         *
# (otherwise b cuts are applied)                                     *
#*********************************************************************
 4 = maxjetflavor    ! Maximum jet pdg code
#*********************************************************************
# Jet measure cuts                                                   *
#*********************************************************************
 0   = xqcut   ! minimum kt jet measure between partons
#*********************************************************************
#
#*********************************************************************
# Store info for systematics studies                                 *
# WARNING: If use_syst is T, matched Pythia output is                *
#          meaningful ONLY if plotted taking matchscale              *
#          reweighting into account!                                 *
#*********************************************************************
   F  = use_syst      ! Enable systematics studies
#
#**************************************
# Parameter of the systematics study
#  will be used by SysCalc (if installed)
#**************************************                                  
#
0.5 1 2 = sys_scalefact  # factorization/renormalization scale factor
0.5 1 2 = sys_alpsfact  # \alpha_s emission scale factors
30 50 = sys_matchscale # variation of merging scale
# PDF sets and number of members (0 or none for all members).
CT10nlo.LHgrid = sys_pdf # matching scales
# MSTW2008nlo68cl.LHgrid 1  = sys_pdf
</MGRunCard>
<slha>
######################################################################
## PARAM_CARD AUTOMATICALY GENERATED BY MG5 FOLLOWING UFO MODEL   ####
######################################################################
##                                                                  ##
##  Width set on Auto will be computed following the information    ##
##        present in the decay.py files of the model.               ##
##        See  arXiv:1402.1178 for more details.                    ##
##                                                                  ##
######################################################################

###################################
## INFORMATION FOR CKMBLOCK
###################################
Block ckmblock 
    1 2.277360e-01 # cabi 

###################################
## INFORMATION FOR FRBLOCK
###################################
Block frblock 
    1 1.600000e+00 # gz 

###################################
## INFORMATION FOR MASS
###################################
Block mass 
    1 5.040000e-03 # MD 
    2 2.550000e-03 # MU 
    3 1.010000e-01 # MS 
    4 1.270000e+00 # MC 
    5 4.700000e+00 # MB 
    6 1.720000e+02 # MT 
   11 5.110000e-04 # Me 
   13 1.056600e-01 # MM 
   15 1.777000e+00 # MTA 
   23 9.118760e+01 # MZ 
   25 1.200000e+02 # MH 
  10030 8.000000e+02 # MZph 
  10031 3.000000e+02 # MZpl 
## Dependent parameters, given by model restrictions.
## Those values should be edited following the 
## analytical expression. MG5 ignores those values 
## but they are important for interfacing the output of MG5
## to external program such as Pythia.
  12 0.000000 # ve : 0.0 
  14 0.000000 # vm : 0.0 
  16 0.000000 # vt : 0.0 
  21 0.000000 # g : 0.0 
  22 0.000000 # a : 0.0 
  24 79.824360 # w+ : cmath.sqrt(MZ__exp__2/2. + cmath.sqrt(MZ__exp__4/4. - (aEW*cmath.pi*MZ__exp__2)/(Gf*sqrt__2))) 

###################################
## INFORMATION FOR SMINPUTS
###################################
Block sminputs 
    1 1.279000e+02 # aEWM1 
    2 1.166370e-05 # Gf 
    3 1.184000e-01 # aS 

###################################
## INFORMATION FOR YUKAWA
###################################
Block yukawa 
    1 5.040000e-03 # ymdo 
    2 2.550000e-03 # ymup 
    3 1.010000e-01 # yms 
    4 1.270000e+00 # ymc 
    5 4.700000e+00 # ymb 
    6 1.720000e+02 # ymt 
   11 5.110000e-04 # yme 
   13 1.056600e-01 # ymm 
   15 1.777000e+00 # ymtau 

###################################
## INFORMATION FOR DECAY
###################################
DECAY   6 1.508336e+00 # WT 
DECAY  23 2.495200e+00 # WZ 
DECAY  24 2.085000e+00 # WW 
DECAY  25 5.753088e-03 # WH 
## Dependent parameters, given by model restrictions.
## Those values should be edited following the 
## analytical expression. MG5 ignores those values 
## but they are important for interfacing the output of MG5
## to external program such as Pythia.
DECAY  1 0.000000 # d : 0.0 
DECAY  2 0.000000 # u : 0.0 
DECAY  3 0.000000 # s : 0.0 
DECAY  4 0.000000 # c : 0.0 
DECAY  5 0.000000 # b : 0.0 
DECAY  11 0.000000 # e- : 0.0 
DECAY  12 0.000000 # ve : 0.0 
DECAY  13 0.000000 # mu- : 0.0 
DECAY  14 0.000000 # vm : 0.0 
DECAY  15 0.000000 # ta- : 0.0 
DECAY  16 0.000000 # vt : 0.0 
DECAY  21 0.000000 # g : 0.0 
DECAY  22 0.000000 # a : 0.0 
DECAY  10030 0.308725 # zph : (gz__exp__2*MZph*(5 + cmath.sqrt(1 - (4*MT__exp__2)/MZph__exp__2)))/(144.*cmath.pi) 
DECAY  10031 0.132629 # zpl : (5*gz__exp__2*MZpl)/(144.*cmath.pi) 
#===========================================================
# QUANTUM NUMBERS OF NEW STATE(S) (NON SM PDG CODE)
#===========================================================

Block QNUMBERS 10030  # zph 
        1 0  # 3 times electric charge
        2 3  # number of spin states (2S+1)
        3 1  # colour rep (1: singlet, 3: triplet, 8: octet)
        4 0  # Particle/Antiparticle distinction (0=own anti)
Block QNUMBERS 10031  # zpl 
        1 0  # 3 times electric charge
        2 3  # number of spin states (2S+1)
        3 1  # colour rep (1: singlet, 3: triplet, 8: octet)
        4 0  # Particle/Antiparticle distinction (0=own anti)
</slha>
## END BANNER##
<MGGenerationInfo>
#  Number of Events        :         4075
#  Integrated weight (pb)  :  0.14292E+02
#  Max wgt                 :  0.47002E-02
#  Average wgt             :  0.35072E-02
</MGGenerationInfo>
</header>
<init>
     2212     2212  0.40000000000E+04  0.40000000000E+04 0 0  247000  247000 2   1
  0.14279780050E+02  0.24920674084E-01  0.47002200000E-02   0
</init>
<event>
 5   0  0.4684283E-02  0.8052201E+03  0.7818609E-02  0.9552492E-01
        2   -1    0    0  501    0  0.00000000000E+00  0.00000000000E+00  0.30364182941E+03  0.30364182942E+03  0.25500000920E-02 0.  1.
       -2   -1    0    0    0  501  0.00000000000E+00  0.00000000000E+00 -0.53383574567E+03  0.53383574568E+03  0.25500000920E-02 0. -1.
    10030    2    1    2    0    0  0.00000000000E+00  0.00000000000E+00 -0.23019391627E+03  0.83747757510E+03  0.80522012500E+03 0.  0.
        1    1    3    3  502    0 -0.15976019378E+03  0.21951663104E+03 -0.42430114910E+03  0.50372843475E+03  0.50400001928E-02 0. -1.
       -1    1    3    3    0  502  0.15976019378E+03 -0.21951663104E+03  0.19410723284E+03  0.33374914035E+03  0.50400001928E-02 0.  1.
</event>
<event>
 5   0  0.1786500E-02  0.7859098E+03  0.7818609E-02  0.9580639E-01
       -3   -1    0    0    0  501  0.00000000000E+00  0.00000000000E+00  0.19773054085E+03  0.19773056664E+03  0.10100000352E+00 0. -1.
        3   -1    0    0  501    0  0.00000000000E+00  0.00000000000E+00 -0.78092912266E+03  0.78092912919E+03  0.10100000352E+00 0.  1.
    10030    2    1    2    0    0  0.00000000000E+00  0.00000000000E+00 -0.58319858181E+03  0.97865969583E+03  0.78590980044E+03 0.  0.
        5    1    3    3  502    0  0.67283133247E+01 -0.30940711222E+03  0.98800627164E+01  0.30967359741E+03  0.46999998093E+01 0. -1.
       -5    1    3    3    0  502 -0.67283133247E+01  0.30940711222E+03 -0.59307864452E+03  0.66898609842E+03  0.46999998093E+01 0.  1.
</event>
<event>
 5   0  0.4684283E-02  0.7918419E+03  0.7818609E-02  0.9571901E-01
       -2   -1    0    0    0  501  0.00000000000E+00  0.00000000000E+00  0.14161941485E+03  0.14161941487E+03  0.25500000920E-02 0. -1.
        2   -1    0    0  501    0  0.00000000000E+00  0.00000000000E+00 -0.11068638071E+04  0.11068638071E+04  0.25500000920E-02 0.  1.
    10030    2    1    2    0    0  0.00000000000E+00  0.00000000000E+00 -0.96524439226E+03  0.12484832220E+04  0.79184191529E+03 0.  0.
        1    1    3    3  502    0 -0.10897370852E+03 -0.28720957975E+03 -0.87644196656E+03  0.92871692814E+03  0.50400001928E-02 0.  1.
       -1    1    3    3    0  502  0.10897370852E+03  0.28720957975E+03 -0.88802425705E+02  0.31976629385E+03  0.50400001928E-02 0. -1.
</event>
<event>
 5   0  0.4590462E-02  0.8112861E+03  0.7818609E-02  0.9543823E-01
       -2   -1    0    0    0  501  0.00000000000E+00  0.00000000000E+00  0.79543730571E+02  0.79543730611E+02  0.25500000920E-02 0.  1.
        2   -1    0    0  501    0  0.00000000000E+00  0.00000000000E+00 -0.20686265737E+04  0.20686265737E+04  0.25500000920E-02 0. -1.
    10030    2    1    2    0    0  0.00000000000E+00  0.00000000000E+00 -0.19890828431E+04  0.21481703043E+04  0.81128607747E+03 0.  0.
        3    1    3    3  502    0 -0.34858375220E+03  0.15904906473E+03 -0.64187867324E+03  0.74753961677E+03  0.10100000352E+00 0.  1.
       -3    1    3    3    0  502  0.34858375220E+03 -0.15904906473E+03 -0.13472041699E+04  0.14006306875E+04  0.10100000352E+00 0. -1.
</event>
<event>
 5   0  0.4684283E-02  0.7900145E+03  0.7818609E-02  0.9574584E-01
       -2   -1    0    0    0  501  0.00000000000E+00  0.00000000000E+00  0.20935182460E+03  0.20935182461E+03  0.25500000920E-02 0. -1.
        2   -1    0    0  501    0  0.00000000000E+00  0.00000000000E+00 -0.74530391844E+03  0.74530391845E+03  0.25500000920E-02 0.  1.
    10030    2    1    2    0    0  0.00000000000E+00  0.00000000000E+00 -0.53595209384E+03  0.95465574306E+03  0.79001451940E+03 0.  0.
        1    1    3    3  502    0  0.17762279380E+02  0.23593839555E+03  0.11424675800E+03  0.26274464182E+03  0.50400001928E-02 0. -1.
       -1    1    3    3    0  502 -0.17762279380E+02 -0.23593839555E+03 -0.65019885184E+03  0.69191110125E+03  0.50400001928E-02 0.  1.
</event>
<event>
 5   0  0.4590462E-02  0.8076167E+03  0.7818609E-02  0.9549057E-01
        2   -1    0    0  501    0  0.00000000000E+00  0.00000000000E+00  0.41211729735E+03  0.41211729736E+03  0.25500000920E-02 0.  1.
       -2   -1    0    0    0  501  0.00000000000E+00  0.00000000000E+00 -0.39566691053E+03  0.39566691054E+03  0.25500000920E-02 0. -1.
    10030    2    1    2    0    0  0.00000000000E+00  0.00000000000E+00  0.16450386825E+02  0.80778420790E+03  0.80761668587E+03 0.  0.
        3    1    3    3  502    0 -0.61225658825E+02 -0.99824078892E+02 -0.37831032077E+03  0.39602037451E+03  0.10100000352E+00 0. -1.
       -3    1    3    3    0  502  0.61225658825E+02  0.99824078892E+02  0.39476070759E+03  0.41176383339E+03  0.10100000352E+00 0.  1.
</event>
<event>
 5   0  0.2635243E-02  0.7782428E+03  0.7818609E-02  0.9592055E-01
       -1   -1    0    0    0  501  0.00000000000E+00  0.00000000000E+00  0.20763610980E+03  0.20763610986E+03  0.50400001928E-02 0. -1.
        1   -1    0    0  501    0  0.00000000000E+00  0.00000000000E+00 -0.72923480576E+03  0.72923480578E+03  0.50400001928E-02 0.  1.
    10030    2    1    2    0    0  0.00000000000E+00  0.00000000000E+00 -0.52159869597E+03  0.93687091564E+03  0.77824283674E+03 0.  0.
        1    1    3    3  502    0 -0.29943266363E+03  0.13316332397E+03 -0.82159084464E+01  0.32781075650E+03  0.50400001928E-02 0. -1.
       -1    1    3    3    0  502  0.29943266363E+03 -0.13316332397E+03 -0.51338278752E+03  0.60906015914E+03  0.50400001928E-02 0.  1.
</event>
<event>
 5   0  0.2759559E-02  0.8088223E+03  0.7818609E-02  0.9547334E-01
       -1   -1    0    0    0  501  0.00000000000E+00  0.00000000000E+00  0.22621427057E+03  0.22621427063E+03  0.50400001928E-02 0.  1.
        1   -1    0    0  501    0  0.00000000000E+00  0.00000000000E+00 -0.72297997096E+03  0.72297997098E+03  0.50400001928E-02 0. -1.
    10030    2    1    2    0    0  0.00000000000E+00  0.00000000000E+00 -0.49676570039E+03  0.94919424161E+03  0.80882232116E+03 0.  0.
        3    1    3    3  502    0  0.27921644208E+03 -0.23219916942E+03 -0.45722910407E+03  0.58389788458E+03  0.10100000352E+00 0. -1.
       -3    1    3    3    0  502 -0.27921644208E+03  0.23219916942E+03 -0.39536596318E+02  0.36529635703E+03  0.10100000352E+00 0.  1.
</event>
<event>
 5   0  0.4684283E-02  0.7974664E+03  0.7818609E-02  0.9563692E-01
        2   -1    0    0  501    0  0.00000000000E+00  0.00000000000E+00  0.11325300684E+04  0.11325300684E+04  0.25500000920E-02 0. -1.
       -2   -1    0    0    0  501  0.00000000000E+00  0.00000000000E+00 -0.14038315844E+03  0.14038315847E+03  0.25500000920E-02 0.  1.
    10030    2    1    2    0    0  0.00000000000E+00  0.00000000000E+00  0.99214690994E+03  0.12729132269E+04  0.79746635804E+03 0.  0.
        1    1    3    3  502    0 -0.11227672388E+03 -0.17093263550E+03 -0.50292644520E+02  0.21060241860E+03  0.50400001928E-02 0.  1.
       -1    1    3    3    0  502  0.11227672388E+03  0.17093263550E+03  0.10424395545E+04  0.10623108083E+04  0.50400001928E-02 0. -1.
</event>
<event>
 5   0  0.2769394E-02  0.7902309E+03  0.7818609E-02  0.9574266E-01
       -1   -1    0    0    0  501  0.00000000000E+00  0.00000000000E+00  0.51820535037E+03  0.51820535039E+03  0.50400001928E-02 0. -1.
        1   -1    0    0  501    0  0.00000000000E+00  0.00000000000E+00 -0.30126322437E+03  0.30126322441E+03  0.50400001928E-02 0.  1.
    10030    2    1    2    0    0  0.00000000000E+00  0.00000000000E+00  0.21694212600E+03  0.81946857480E+03  0.79023088971E+03 0.  0.
        2    1    3    3  502    0 -0.19938453690E+02  0.39123496906E+03  0.16189283290E+03  0.42387690701E+03  0.25500000920E-02 0. -1.
       -2    1    3    3    0  502  0.19938453690E+02 -0.39123496906E+03  0.55049293107E+02  0.39559166779E+03  0.25500000920E-02 0.  1.
</event>
<event>
 5   0  0.4684283E-02  0.7891325E+03  0.7818609E-02  0.9575882E-01
        2   -1    0    0  501    0  0.00000000000E+00  0.00000000000E+00  0.11831460593E+04  0.11831460593E+04  0.25500000920E-02 0. -1.
       -2   -1    0    0    0  501  0.00000000000E+00  0.00000000000E+00 -0.13158353369E+03  0.13158353371E+03  0.25500000920E-02 0.  1.
    10030    2    1    2    0    0  0.00000000000E+00  0.00000000000E+00  0.10515625257E+04  0.13147295931E+04  0.78913253481E+03 0.  0.
        1    1    3    3  502    0  0.19057630989E+03 -0.29509273924E+03  0.22643303407E+03  0.41793656646E+03  0.50400001928E-02 0.  1.
       -1    1    3    3    0  502 -0.19057630989E+03  0.29509273924E+03  0.82512949158E+03  0.89679302659E+03  0.50400001928E-02 0. -1.
</event>
<event>
 5   0  0.1786500E-02  0.8303368E+03  0.7818609E-02  0.9517115E-01
        4   -1    0    0  501    0  0.00000000000E+00  0.00000000000E+00  0.10570173932E+04  0.10570181562E+04  0.12699999809E+01 0. -1.
       -4   -1    0    0    0  501  0.00000000000E+00  0.00000000000E+00 -0.16306382312E+03  0.16306876865E+03  0.12699999809E+01 0.  1.
    10030    2    1    2    0    0  0.00000000000E+00  0.00000000000E+00  0.89395357011E+03  0.12200869248E+04  0.83033675013E+03 0.  0.
        1    1    3    3  502    0  0.60414313403E+02 -0.27777915731E+03  0.23718310447E+01  0.28428291385E+03  0.50400001928E-02 0.  1.
       -1    1    3    3    0  502 -0.60414313403E+02  0.27777915731E+03  0.89158173907E+03  0.93580401098E+03  0.50400001928E-02 0. -1.
</event>
<event>
 5   0  0.4663634E-02  0.7775086E+03  0.7818609E-02  0.9593155E-01
        2   -1    0    0  501    0  0.00000000000E+00  0.00000000000E+00  0.12064847634E+03  0.12064847637E+03  0.25500000920E-02 0.  1.
       -2   -1    0    0    0  501  0.00000000000E+00  0.00000000000E+00 -0.12526465993E+04  0.12526465993E+04  0.25500000920E-02 0. -1.
    10030    2    1    2    0    0  0.00000000000E+00  0.00000000000E+00 -0.11319981230E+04  0.13732950757E+04  0.77750859446E+03 0.  0.
        5    1    3    3  502    0 -0.27608640517E+03  0.13592243324E+03 -0.98550068398E+03  0.10324399736E+04  0.46999998093E+01 0. -1.
       -5    1    3    3    0  502  0.27608640517E+03 -0.13592243324E+03 -0.14649743898E+03  0.34085510206E+03  0.46999998093E+01 0.  1.
</event>
<event>
 5   0  0.2606520E-02  0.8127766E+03  0.7818609E-02  0.9541705E-01
       -1   -1    0    0    0  501  0.00000000000E+00  0.00000000000E+00  0.38610413867E+03  0.38610413870E+03  0.50400001928E-02 0. -1.
        1   -1    0    0  501    0  0.00000000000E+00  0.00000000000E+00 -0.42773808249E+03  0.42773808252E+03  0.50400001928E-02 0.  1.
    10030    2    1    2    0    0  0.00000000000E+00  0.00000000000E+00 -0.41633943828E+02  0.81384222122E+03  0.81277658416E+03 0.  0.
        5    1    3    3  502    0 -0.31026974675E+03  0.69390042013E+02  0.23259004349E+03  0.39395750026E+03  0.46999998093E+01 0. -1.
       -5    1    3    3    0  502  0.31026974675E+03 -0.69390042013E+02 -0.27422398732E+03  0.41988472096E+03  0.46999998093E+01 0.  1.
</event>
<event>
 5   0  0.1786500E-02  0.8021944E+03  0.7818609E-02  0.9556846E-01
       -3   -1    0    0    0  501  0.00000000000E+00  0.00000000000E+00  0.13271150969E+04  0.13271151008E+04  0.10100000352E+00 0.  1.
        3   -1    0    0  501    0  0.00000000000E+00  0.00000000000E+00 -0.12122454217E+03  0.12122458425E+03  0.10100000352E+00 0. -1.
    10030    2    1    2    0    0  0.00000000000E+00  0.00000000000E+00  0.12058905548E+04  0.14483396850E+04  0.80219437367E+03 0.  0.
        1    1    3    3  502    0  0.16031788878E+03 -0.27863236504E+03  0.10360371395E+04  0.10847630040E+04  0.50400001928E-02 0.  1.
       -1    1    3    3    0  502 -0.16031788878E+03  0.27863236504E+03  0.16985341528E+03  0.36357668108E+03  0.50400001928E-02 0. -1.
</event>
<event>
 5   0  0.2635243E-02  0.5581470E+03  0.7818609E-02  0.9996256E-01
       -1   -1    0    0    0  501  0.00000000000E+00  0.00000000000E+00  0.21668748897E+03  0.21668748903E+03  0.50400001928E-02 0.  1.
        1   -1    0    0  501    0  0.00000000000E+00  0.00000000000E+00 -0.35942086381E+03  0.35942086384E+03  0.50400001928E-02 0. -1.
    10030    2    1    2    0    0  0.00000000000E+00  0.00000000000E+00 -0.14273337484E+03  0.57610835287E+03  0.55814695015E+03 0.  0.
        1    1    3    3  502    0  0.26488459725E+03  0.80399511166E+02 -0.10791918533E+03  0.29711021834E+03  0.50400001928E-02 0.  1.
       -1    1    3    3    0  502 -0.26488459725E+03 -0.80399511166E+02 -0.34814189509E+02  0.27899813453E+03  0.50400001928E-02 0. -1.
</event>
<event>
 5   0  0.2759559E-02  0.8223892E+03  0.7818609E-02  0.9528163E-01
        1   -1    0    0  501    0  0.00000000000E+00  0.00000000000E+00  0.47330469634E+03  0.47330469637E+03  0.50400001928E-02 0.  1.
       -1   -1    0    0    0  501  0.00000000000E+00  0.00000000000E+00 -0.35723498777E+03  0.35723498781E+03  0.50400001928E-02 0. -1.
    10030    2    1    2    0    0  0.00000000000E+00  0.00000000000E+00  0.11606970857E+03  0.83053968418E+03  0.82238919603E+03 0.  0.
        3    1    3    3  502    0 -0.16098513469E+03  0.11324178222E+03 -0.30657099958E+03  0.36431538921E+03  0.10100000352E+00 0. -1.
       -3    1    3    3    0  502  0.16098513469E+03 -0.11324178222E+03  0.42264070815E+03  0.46622429497E+03  0.10100000352E+00 0.  1.
</event>
<event>
 5   0  0.2759559E-02  0.7977074E+03  0.7818609E-02  0.9563342E-01
        1   -1    0    0  501    0  0.00000000000E+00  0.00000000000E+00  0.18986168994E+04  0.18986168994E+04  0.50400001928E-02 0. -1.
       -1   -1    0    0    0  501  0.00000000000E+00  0.00000000000E+00 -0.83789556097E+02  0.83789556248E+02  0.50400001928E-02 0.  1.
    10030    2    1    2    0    0  0.00000000000E+00  0.00000000000E+00  0.18148273433E+04  0.19824064557E+04  0.79770738334E+03 0.  0.
        3    1    3    3  502    0  0.31226737446E+03 -0.24557301418E+03  0.81894728130E+03  0.91021518235E+03  0.10100000352E+00 0.  1.
       -3    1    3    3    0  502 -0.31226737446E+03  0.24557301418E+03  0.99588006202E+03  0.10721912733E+04  0.10100000352E+00 0. -1.
</event>
<event>
 5   0  0.4684283E-02  0.7729874E+03  0.7818609E-02  0.9599961E-01
        2   -1    0    0  501    0  0.00000000000E+00  0.00000000000E+00  0.80890120076E+03  0.80890120076E+03  0.25500000920E-02 0. -1.
       -2   -1    0    0    0  501  0.00000000000E+00  0.00000000000E+00 -0.18466703755E+03  0.18466703757E+03  0.25500000920E-02 0.  1.
    10030    2    1    2    0    0  0.00000000000E+00  0.00000000000E+00  0.62423416321E+03  0.99356823833E+03  0.77298742143E+03 0.  0.
        1    1    3    3  502    0  0.50980515409E+02 -0.27935053798E+02 -0.17901549140E+03  0.18821776316E+03  0.50400001928E-02 0.  1.
       -1    1    3    3    0  502 -0.50980515409E+02  0.27935053798E+02  0.80324965462E+03  0.80535047517E+03  0.50400001928E-02 0. -1.
</event>
<event>
 5   0  0.2689372E-02  0.7882261E+03  0.7818609E-02  0.9577217E-01
        1   -1    0    0  501    0  0.00000000000E+00  0.00000000000E+00  0.12928780828E+04  0.12928780828E+04  0.50400001928E-02 0.  1.
       -1   -1    0    0    0  501  0.00000000000E+00  0.00000000000E+00 -0.12013902721E+03  0.12013902732E+03  0.50400001928E-02 0. -1.
    10030    2    1    2    0    0  0.00000000000E+00  0.00000000000E+00  0.11727390556E+04  0.14130171102E+04  0.78822614841E+03 0.  0.
        4    1    3    3  502    0  0.22859629390E+03 -0.12619914279E+03  0.11155549663E+04  0.11457080714E+04  0.12699999809E+01 0.  1.
       -4    1    3    3    0  502 -0.22859629390E+03  0.12619914279E+03  0.57184089349E+02  0.26730903875E+03  0.12699999809E+01 0. -1.
</event>
<event>
 5   0  0.2635243E-02  0.8077434E+03  0.7818609E-02  0.9548876E-01
        1   -1    0    0  501    0  0.00000000000E+00  0.00000000000E+00  0.71233309928E+03  0.71233309930E+03  0.50400001928E-02 0. -1.
       -1   -1    0    0    0  501  0.00000000000E+00  0.00000000000E+00 -0.22898323304E+03  0.22898323310E+03  0.50400001928E-02 0.  1.
    10030    2    1    2    0    0  0.00000000000E+00  0.00000000000E+00  0.48334986624E+03  0.94131633240E+03  0.80774336546E+03 0.  0.
        1    1    3    3  502    0  0.16034583763E+03  0.18948400259E+03  0.61294468699E+03  0.66129884638E+03  0.50400001928E-02 0. -1.
       -1    1    3    3    0  502 -0.16034583763E+03 -0.18948400259E+03 -0.12959482075E+03  0.28001748602E+03  0.50400001928E-02 0.  1.
</event>
<event>
 5   0  0.4377843E-02  0.7876861E+03  0.7818609E-02  0.9578014E-01
       -2   -1    0    0    0  501  0.00000000000E+00  0.00000000000E+00  0.14345800416E+03  0.14345800418E+03  0.25500000920E-02 0. -1.
        2   -1    0    0  501    0  0.00000000000E+00  0.00000000000E+00 -0.10812388204E+04  0.10812388204E+04  0.25500000920E-02 0.  1.
    10030    2    1    2    0    0  0.00000000000E+00  0.00000000000E+00 -0.93778081622E+03  0.12246968246E+04  0.78768613851E+03 0.  0.
        2    1    3    3  502    0  0.38632285360E+03  0.76204975797E+02 -0.48091554574E+03  0.62155635922E+03  0.25500000920E-02 0. -1.
       -2    1    3    3    0  502 -0.38632285360E+03 -0.76204975797E+02 -0.45686527048E+03  0.60314046533E+03  0.25500000920E-02 0.  1.
</event>
<event>
 5   0  0.2759559E-02  0.9192671E+03  0.7818609E-02  0.9401812E-01
       -1   -1    0    0    0  501  0.00000000000E+00  0.00000000000E+00  0.16073868193E+03  0.16073868201E+03  0.50400001928E-02 0. -1.
        1   -1    0    0  501    0  0.00000000000E+00  0.00000000000E+00 -0.13143257659E+04  0.13143257659E+04  0.50400001928E-02 0.  1.
    10030    2    1    2    0    0  0.00000000000E+00  0.00000000000E+00 -0.11535870840E+04  0.14750644479E+04  0.91926708045E+03 0.  0.
        3    1    3    3  502    0 -0.32127492442E+03 -0.11683800730E+03 -0.83798971561E+02  0.35198149788E+03  0.10100000352E+00 0. -1.
       -3    1    3    3    0  502  0.32127492442E+03  0.11683800730E+03 -0.10697881124E+04  0.11230829500E+04  0.10100000352E+00 0.  1.
</event>
<event>
 5   0  0.1786500E-02  0.7692555E+03  0.7818609E-02  0.9605617E-01
       -3   -1    0    0    0  501  0.00000000000E+00  0.00000000000E+00  0.13243966370E+04  0.13243966409E+04  0.10100000352E+00 0.  1.
        3   -1    0    0  501    0  0.00000000000E+00  0.00000000000E+00 -0.11170254079E+03  0.11170258646E+03  0.10100000352E+00 0. -1.
    10030    2    1    2    0    0  0.00000000000E+00  0.00000000000E+00  0.12126940962E+04  0.14360992273E+04  0.76925549703E+03 0.  0.
        1    1    3    3  502    0 -0.19703917927E+03 -0.18976743628E+03  0.11111008733E+04  0.11442819883E+04  0.50400001928E-02 0.  1.
       -1    1    3    3    0  502  0.19703917927E+03  0.18976743628E+03  0.10159322294E+03  0.29181723905E+03  0.50400001928E-02 0. -1.
</event>
<event>
 5   0  0.4590462E-02  0.7902344E+03  0.7818609E-02  0.9574261E-01
       -2   -1    0    0    0  501  0.00000000000E+00  0.00000000000E+00  0.88057836707E+03  0.88057836707E+03  0.25500000920E-02 0.  1.
        2   -1    0    0  501    0  0.00000000000E+00  0.00000000000E+00 -0.17728983649E+03  0.17728983651E+03  0.25500000920E-02 0. -1.
    10030    2    1    2    0    0  0.00000000000E+00  0.00000000000E+00  0.70328853058E+03  0.10578682036E+04  0.79023438226E+03 0.  0.
        3    1    3    3  502    0  0.48903030892E+02  0.19402854543E+03 -0.10444775545E+03  0.22571647412E+03  0.10100000352E+00 0. -1.
       -3    1    3    3    0  502 -0.48903030892E+02 -0.19402854543E+03  0.80773628602E+03  0.83215172945E+03  0.10100000352E+00 0.  1.
</event>
<event>
 5   0  0.2635243E-02  0.8036303E+03  0.7818609E-02  0.9554777E-01
       -1   -1    0    0    0  501  0.00000000000E+00  0.00000000000E+00  0.16823582347E+03  0.16823582355E+03  0.50400001928E-02 0.  1.
        1   -1    0    0  501    0  0.00000000000E+00  0.00000000000E+00 -0.95969711675E+03  0.95969711677E+03  0.50400001928E-02 0. -1.
    10030    2    1    2    0    0  0.00000000000E+00  0.00000000000E+00 -0.79146129328E+03  0.11279329403E+04  0.80363034978E+03 0.  0.
        1    1    3    3  502    0  0.33819024343E+02 -0.13100306787E+03  0.13530354095E+03  0.19134413609E+03  0.50400001928E-02 0.  1.
       -1    1    3    3    0  502 -0.33819024343E+02  0.13100306787E+03 -0.92676483423E+03  0.93658880422E+03  0.50400001928E-02 0. -1.
</event>
<event>
 5   0  0.4377843E-02  0.8172757E+03  0.7818609E-02  0.9535342E-01
       -2   -1    0    0    0  501  0.00000000000E+00  0.00000000000E+00  0.21804869375E+03  0.21804869377E+03  0.25500000920E-02 0.  1.
        2   -1    0    0  501    0  0.00000000000E+00  0.00000000000E+00 -0.76581477882E+03  0.76581477883E+03  0.25500000920E-02 0. -1.
    10030    2    1    2    0    0  0.00000000000E+00  0.00000000000E+00 -0.54776608507E+03  0.98386347260E+03  0.81727574830E+03 0.  0.
        2    1    3    3  502    0 -0.10149000665E+03  0.14509144234E+03 -0.71723555273E+03  0.73876828993E+03  0.25500000920E-02 0. -1.
       -2    1    3    3    0  502  0.10149000665E+03 -0.14509144234E+03  0.16946946766E+03  0.24509518267E+03  0.25500000920E-02 0.  1.
</event>
<event>
 5   0  0.2769394E-02  0.7970684E+03  0.7818609E-02  0.9564270E-01
       -1   -1    0    0    0  501  0.00000000000E+00  0.00000000000E+00  0.26973291076E+03  0.26973291080E+03  0.50400001928E-02 0. -1.
        1   -1    0    0  501    0  0.00000000000E+00  0.00000000000E+00 -0.58883997635E+03  0.58883997637E+03  0.50400001928E-02 0.  1.
    10030    2    1    2    0    0  0.00000000000E+00  0.00000000000E+00 -0.31910706559E+03  0.85857288717E+03  0.79706843074E+03 0.  0.
        2    1    3    3  502    0 -0.23134038959E+03  0.22853815591E+03 -0.40772564428E+03  0.52152494243E+03  0.25500000920E-02 0. -1.
       -2    1    3    3    0  502  0.23134038959E+03 -0.22853815591E+03  0.88618578690E+02  0.33704794475E+03  0.25500000920E-02 0.  1.
</event>
<event>
 5   0  0.4590462E-02  0.8285436E+03  0.7818609E-02  0.9519596E-01
       -2   -1    0    0    0  501  0.00000000000E+00  0.00000000000E+00  0.32822848990E+03  0.32822848991E+03  0.25500000920E-02 0.  1.
        2   -1    0    0  501    0  0.00000000000E+00  0.00000000000E+00 -0.52287090034E+03  0.52287090035E+03  0.25500000920E-02 0. -1.
    10030    2    1    2    0    0  0.00000000000E+00  0.00000000000E+00 -0.19464241045E+03  0.85109939026E+03  0.82854360425E+03 0.  0.
        3    1    3    3  502    0  0.24515382326E+03 -0.19241054538E+03 -0.37769656421E+03  0.48967021540E+03  0.10100000352E+00 0.  1.
       -3    1    3    3    0  502 -0.24515382326E+03  0.19241054538E+03  0.18305415376E+03  0.36142917486E+03  0.10100000352E+00 0. -1.
</event>
<event>
 5   0  0.4663634E-02  0.7860005E+03  0.7818609E-02  0.9580505E-01
        2   -1    0    0  501    0  0.00000000000E+00  0.00000000000E+00  0.21810044774E+03  0.21810044776E+03  0.25500000920E-02 0. -1.
       -2   -1    0    0    0  501  0.00000000000E+00  0.00000000000E+00 -0.70815630141E+03  0.70815630142E+03  0.25500000920E-02 0.  1.
    10030    2    1    2    0    0  0.00000000000E+00  0.00000000000E+00 -0.49005585367E+03  0.92625674917E+03  0.78600052524E+03 0.  0.
        5    1    3    3  502    0  0.12854523429E+03  0.29182983478E+03  0.25600113562E+02  0.31994684800E+03  0.46999998093E+01 0. -1.
       -5    1    3    3    0  502 -0.12854523429E+03 -0.29182983478E+03 -0.51565596723E+03  0.60630990118E+03  0.46999998093E+01 0.  1.
</event>
<event>
 5   0  0.2769394E-02  0.8100357E+03  0.7818609E-02  0.9545603E-01
       -1   -1    0    0    0  501  0.00000000000E+00  0.00000000000E+00  0.26428351611E+03  0.26428351616E+03  0.50400001928E-02 0.  1.
        1   -1    0    0  501    0  0.00000000000E+00  0.00000000000E+00 -0.62069506219E+03  0.62069506221E+03  0.50400001928E-02 0. -1.
    10030    2    1    2    0    0  0.00000000000E+00  0.00000000000E+00 -0.35641154607E+03  0.88497857837E+03  0.81003573625E+03 0.  0.
        2    1    3    3  502    0 -0.71887257087E+02 -0.39395215965E+02 -0.61153716479E+03  0.61700685952E+03  0.25500000920E-02 0. -1.
       -2    1    3    3    0  502  0.71887257087E+02  0.39395215965E+02  0.25512561871E+03  0.26797171885E+03  0.25500000920E-02 0.  1.
</event>
<event>
 5   0  0.4590462E-02  0.7956094E+03  0.7818609E-02  0.9566394E-01
        2   -1    0    0  501    0  0.00000000000E+00  0.00000000000E+00  0.12553746505E+04  0.12553746505E+04  0.25500000920E-02 0. -1.
       -2   -1    0    0    0  501  0.00000000000E+00  0.00000000000E+00 -0.12605684555E+03  0.12605684557E+03  0.25500000920E-02 0.  1.
    10030    2    1    2    0    0  0.00000000000E+00  0.00000000000E+00  0.11293178049E+04  0.13814314961E+04  0.79560937260E+03 0.  0.
        3    1    3    3  502    0 -0.16224083524E+03  0.19545224609E+03  0.10962245790E+04  0.11252697485E+04  0.10100000352E+00 0. -1.
       -3    1    3    3    0  502  0.16224083524E+03 -0.19545224609E+03  0.33093225979E+02  0.25616174759E+03  0.10100000352E+00 0.  1.
</event>
<event>
 5   0  0.4684283E-02  0.8024445E+03  0.7818609E-02  0.9556486E-01
       -2   -1    0    0    0  501  0.00000000000E+00  0.00000000000E+00  0.14167565012E+03  0.14167565014E+03  0.25500000920E-02 0. -1.
        2   -1    0    0  501    0  0.00000000000E+00  0.00000000000E+00 -0.11362524183E+04  0.11362524183E+04  0.25500000920E-02 0.  1.
    10030    2    1    2    0    0  0.00000000000E+00  0.00000000000E+00 -0.99457676821E+03  0.12779280685E+04  0.80244451542E+03 0.  0.
        1    1    3    3  502    0  0.26452539659E+03 -0.27763610156E+03 -0.30936949520E+03  0.49271185790E+03  0.50400001928E-02 0. -1.
       -1    1    3    3    0  502 -0.26452539659E+03  0.27763610156E+03 -0.68520727301E+03  0.78521621057E+03  0.50400001928E-02 0.  1.
</event>
<event>
 5   0  0.2606520E-02  0.7935426E+03  0.7818609E-02  0.9569411E-01
       -1   -1    0    0    0  501  0.00000000000E+00  0.00000000000E+00  0.16253027621E+03  0.16253027629E+03  0.50400001928E-02 0.  1.
        1   -1    0    0  501    0  0.00000000000E+00  0.00000000000E+00 -0.96860394534E+03  0.96860394535E+03  0.50400001928E-02 0. -1.
    10030    2    1    2    0    0  0.00000000000E+00  0.00000000000E+00 -0.80607366913E+03  0.11311342216E+04  0.79354260585E+03 0.  0.
        5    1    3    3  502    0 -0.38133308929E+03  0.88050969158E+02 -0.31024758660E+03  0.49944324317E+03  0.46999998093E+01 0.  1.
       -5    1    3    3    0  502  0.38133308929E+03 -0.88050969158E+02 -0.49582608253E+03  0.63169097847E+03  0.46999998093E+01 0. -1.
</event>
<event>
 5   0  0.4590462E-02  0.8064886E+03  0.7818609E-02  0.9550672E-01
       -2   -1    0    0    0  501  0.00000000000E+00  0.00000000000E+00  0.18042096330E+03  0.18042096332E+03  0.25500000920E-02 0. -1.
        2   -1    0    0  501    0  0.00000000000E+00  0.00000000000E+00 -0.90125864028E+03  0.90125864028E+03  0.25500000920E-02 0.  1.
    10030    2    1    2    0    0  0.00000000000E+00  0.00000000000E+00 -0.72083767697E+03  0.10816796036E+04  0.80648856676E+03 0.  0.
        3    1    3    3  502    0  0.30338863478E+03 -0.26039267682E+03 -0.28999601154E+03  0.49390961396E+03  0.10100000352E+00 0.  1.
       -3    1    3    3    0  502 -0.30338863478E+03  0.26039267682E+03 -0.43084166544E+03  0.58776998965E+03  0.10100000352E+00 0. -1.
</event>
<event>
 5   0  0.2689372E-02  0.8544522E+03  0.7818609E-02  0.9484381E-01
        1   -1    0    0  501    0  0.00000000000E+00  0.00000000000E+00  0.43585093064E+03  0.43585093066E+03  0.50400001928E-02 0. -1.
       -1   -1    0    0    0  501  0.00000000000E+00  0.00000000000E+00 -0.41877194664E+03  0.41877194667E+03  0.50400001928E-02 0.  1.
    10030    2    1    2    0    0  0.00000000000E+00  0.00000000000E+00  0.17078983998E+02  0.85462287733E+03  0.85445220508E+03 0.  0.
        4    1    3    3  502    0  0.85881626757E+01 -0.15079990058E+03 -0.39117286772E+03  0.41932349313E+03  0.12699999809E+01 0.  1.
       -4    1    3    3    0  502 -0.85881626757E+01  0.15079990058E+03  0.40825185172E+03  0.43529938420E+03  0.12699999809E+01 0. -1.
</event>
<event>
 5   0  0.2635243E-02  0.7878548E+03  0.7818609E-02  0.9577765E-01
       -1   -1    0    0    0  501  0.00000000000E+00  0.00000000000E+00  0.21982861878E+04  0.21982861878E+04  0.50400001928E-02 0.  1.
        1   -1    0    0  501    0  0.00000000000E+00  0.00000000000E+00 -0.70590803328E+02  0.70590803508E+02  0.50400001928E-02 0. -1.
    10030    2    1    2    0    0  0.00000000000E+00  0.00000000000E+00  0.21276953845E+04  0.22688769914E+04  0.78785477889E+03 0.  0.
        1    1    3    3  502    0 -0.34175189188E+03 -0.17936910325E+03  0.83688679372E+03  0.92160031268E+03  0.50400001928E-02 0. -1.
       -1    1    3    3    0  502  0.34175189188E+03  0.17936910325E+03  0.12908085908E+04  0.13472766787E+04  0.50400001928E-02 0.  1.
</event>
<event>
 5   0  0.2759559E-02  0.7342165E+03  0.7818609E-02  0.9660443E-01
       -1   -1    0    0    0  501  0.00000000000E+00  0.00000000000E+00  0.31363946535E+03  0.31363946539E+03  0.50400001928E-02 0. -1.
        1   -1    0    0  501    0  0.00000000000E+00  0.00000000000E+00 -0.42969235210E+03  0.42969235213E+03  0.50400001928E-02 0.  1.
    10030    2    1    2    0    0  0.00000000000E+00  0.00000000000E+00 -0.11605288675E+03  0.74333181752E+03  0.73421653373E+03 0.  0.
        3    1    3    3  502    0  0.21342339750E+03 -0.26320658567E+03  0.84940088519E+02  0.34934521920E+03  0.10100000352E+00 0. -1.
       -3    1    3    3    0  502 -0.21342339750E+03  0.26320658567E+03 -0.20099297527E+03  0.39398659831E+03  0.10100000352E+00 0.  1.
</event>
<event>
 5   0  0.4700220E-02  0.7947990E+03  0.7818609E-02  0.9567576E-01
        2   -1    0    0  501    0  0.00000000000E+00  0.00000000000E+00  0.10913414284E+04  0.10913414285E+04  0.25500000920E-02 0. -1.
       -2   -1    0    0    0  501  0.00000000000E+00  0.00000000000E+00 -0.14470849823E+03  0.14470849825E+03  0.25500000920E-02 0.  1.
    10030    2    1    2    0    0  0.00000000000E+00  0.00000000000E+00  0.94663293022E+03  0.12360499267E+04  0.79479904172E+03 0.  0.
        4    1    3    3  502    0  0.21805147290E+03 -0.55911916779E+02 -0.35992992127E+02  0.22796862867E+03  0.12699999809E+01 0.  1.
       -4    1    3    3    0  502 -0.21805147290E+03  0.55911916779E+02  0.98262592235E+03  0.10080812980E+04  0.12699999809E+01 0. -1.
</event>
<event>
 5   0  0.4700220E-02  0.8127204E+03  0.7818609E-02  0.9541785E-01
       -2   -1    0    0    0  501  0.00000000000E+00  0.00000000000E+00  0.13002274664E+03  0.13002274666E+03  0.25500000920E-02 0. -1.
        2   -1    0    0  501    0  0.00000000000E+00  0.00000000000E+00 -0.12699977515E+04  0.12699977515E+04  0.25500000920E-02 0.  1.
    10030    2    1    2    0    0  0.00000000000E+00  0.00000000000E+00 -0.11399750049E+04  0.14000204982E+04  0.81272036000E+03 0.  0.
        4    1    3    3  502    0 -0.19427359822E+03 -0.25791409704E+03 -0.99497614065E+03  0.10460597716E+04  0.12699999809E+01 0.  1.
       -4    1    3    3    0  502  0.19427359822E+03  0.25791409704E+03 -0.14499886420E+03  0.35396072654E+03  0.12699999809E+01 0. -1.
</event>
<event>
 5   0  0.1786500E-02  0.7876344E+03  0.7818609E-02  0.9578090E-01
        4   -1    0    0  501    0  0.00000000000E+00  0.00000000000E+00  0.69057704873E+03  0.69057821652E+03  0.12699999809E+01 0. -1.
       -4   -1    0    0    0  501  0.00000000000E+00  0.00000000000E+00 -0.22458004803E+03  0.22458363893E+03  0.12699999809E+01 0.  1.
    10030    2    1    2    0    0  0.00000000000E+00  0.00000000000E+00  0.46599700069E+03  0.91516185545E+03  0.78763444377E+03 0.  0.
        3    1    3    3  502    0 -0.19599968227E+03 -0.18324289971E+03 -0.10194296009E+03  0.28702998633E+03  0.10100000352E+00 0.  1.
       -3    1    3    3    0  502  0.19599968227E+03  0.18324289971E+03  0.56793996078E+03  0.62813186911E+03  0.10100000352E+00 0. -1.
</event>
<event>
 5   0  0.2759559E-02  0.7433135E+03  0.7818609E-02  0.9645899E-01
       -1   -1    0    0    0  501  0.00000000000E+00  0.00000000000E+00  0.40671236377E+03  0.40671236380E+03  0.50400001928E-02 0. -1.
        1   -1    0    0  501    0  0.00000000000E+00  0.00000000000E+00 -0.33962270310E+03  0.33962270313E+03  0.50400001928E-02 0.  1.
    10030    2    1    2    0    0  0.00000000000E+00  0.00000000000E+00  0.67089660668E+02  0.74633506693E+03  0.74331353382E+03 0.  0.
        3    1    3    3  502    0 -0.34731448043E+03 -0.84345475533E+02  0.13587690483E+03  0.38236638323E+03  0.10100000352E+00 0.  1.
       -3    1    3    3    0  502  0.34731448043E+03  0.84345475533E+02 -0.68787244159E+02  0.36396868370E+03  0.10100000352E+00 0. -1.
</event>
<event>
 5   0  0.2606520E-02  0.7980323E+03  0.7818609E-02  0.9562870E-01
        1   -1    0    0  501    0  0.00000000000E+00  0.00000000000E+00  0.11023121354E+04  0.11023121354E+04  0.50400001928E-02 0.  1.
       -1   -1    0    0    0  501  0.00000000000E+00  0.00000000000E+00 -0.14443631394E+03  0.14443631403E+03  0.50400001928E-02 0. -1.
    10030    2    1    2    0    0  0.00000000000E+00  0.00000000000E+00  0.95787582145E+03  0.12467484494E+04  0.79803233447E+03 0.  0.
        5    1    3    3  502    0  0.18430703818E+02 -0.12901513637E+03 -0.11020297691E+03  0.17073775908E+03  0.46999998093E+01 0. -1.
       -5    1    3    3    0  502 -0.18430703818E+02  0.12901513637E+03  0.10680787984E+04  0.10760106904E+04  0.46999998093E+01 0.  1.
</event>
<event>
 5   0  0.4377843E-02  0.7623436E+03  0.7818609E-02  0.9616182E-01
       -2   -1    0    0    0  501  0.00000000000E+00  0.00000000000E+00  0.39002055768E+03  0.39002055769E+03  0.25500000920E-02 0.  1.
        2   -1    0    0  501    0  0.00000000000E+00  0.00000000000E+00 -0.37252376203E+03  0.37252376203E+03  0.25500000920E-02 0. -1.
    10030    2    1    2    0    0  0.00000000000E+00  0.00000000000E+00  0.17496795660E+02  0.76254431973E+03  0.76234355883E+03 0.  0.
        2    1    3    3  502    0 -0.21120544579E+03 -0.10541281875E+03  0.30811356973E+03  0.38814117863E+03  0.25500000920E-02 0.  1.
       -2    1    3    3    0  502  0.21120544579E+03  0.10541281875E+03 -0.29061677407E+03  0.37440314110E+03  0.25500000920E-02 0. -1.
</event>
<event>
 5   0  0.4590462E-02  0.8067231E+03  0.7818609E-02  0.9550336E-01
        2   -1    0    0  501    0  0.00000000000E+00  0.00000000000E+00  0.33863757620E+03  0.33863757620E+03  0.25500000920E-02 0.  1.
       -2   -1    0    0    0  501  0.00000000000E+00  0.00000000000E+00 -0.48045624646E+03  0.48045624646E+03  0.25500000920E-02 0. -1.
    10030    2    1    2    0    0  0.00000000000E+00  0.00000000000E+00 -0.14181867026E+03  0.81909382267E+03  0.80672309692E+03 0.  0.
        3    1    3    3  502    0 -0.84068265880E+00  0.54664919575E+02 -0.47667691687E+03  0.47980188981E+03  0.10100000352E+00 0. -1.
       -3    1    3    3    0  502  0.84068265880E+00 -0.54664919575E+02  0.33485824661E+03  0.33929193286E+03  0.10100000352E+00 0.  1.
</event>
<event>
 5   0  0.4684283E-02  0.7822674E+03  0.7818609E-02  0.9586045E-01
       -2   -1    0    0    0  501  0.00000000000E+00  0.00000000000E+00  0.76994033258E+03  0.76994033259E+03  0.25500000920E-02 0. -1.
        2   -1    0    0  501    0  0.00000000000E+00  0.00000000000E+00 -0.19869797324E+03  0.19869797325E+03  0.25500000920E-02 0.  1.
    10030    2    1    2    0    0  0.00000000000E+00  0.00000000000E+00  0.57124235935E+03  0.96863830584E+03  0.78226743153E+03 0.  0.
        1    1    3    3  502    0  0.21981276697E+03  0.19394324184E+03  0.60626182460E+03  0.67341297401E+03  0.50400001928E-02 0. -1.
       -1    1    3    3    0  502 -0.21981276697E+03 -0.19394324184E+03 -0.35019465251E+02  0.29522533183E+03  0.50400001928E-02 0.  1.
</event>
<event>
 5   0  0.4377843E-02  0.8023054E+03  0.7818609E-02  0.9556686E-01
       -2   -1    0    0    0  501  0.00000000000E+00  0.00000000000E+00  0.51702179819E+02  0.51702179882E+02  0.25500000920E-02 0. -1.
        2   -1    0    0  501    0  0.00000000000E+00  0.00000000000E+00 -0.31125084601E+04  0.31125084601E+04  0.25500000920E-02 0.  1.
    10030    2    1    2    0    0  0.00000000000E+00  0.00000000000E+00 -0.30608062803E+04  0.31642106400E+04  0.80230535881E+03 0.  0.
        2    1    3    3  502    0 -0.21325798554E+02 -0.90376079007E+02 -0.30695386310E+04  0.30709428573E+04  0.25500000920E-02 0.  1.
       -2    1    3    3    0  502  0.21325798554E+02  0.90376079007E+02  0.87323507095E+01  0.93267782733E+02  0.25500000920E-02 0. -1.
</event>
<event>
 5   0  0.4590462E-02  0.8074662E+03  0.7818609E-02  0.9549273E-01
       -2   -1    0    0    0  501  0.00000000000E+00  0.00000000000E+00  0.19663888385E+03  0.19663888387E+03  0.25500000920E-02 0. -1.
        2   -1    0    0  501    0  0.00000000000E+00  0.00000000000E+00 -0.82893282520E+03  0.82893282521E+03  0.25500000920E-02 0.  1.
    10030    2    1    2    0    0  0.00000000000E+00  0.00000000000E+00 -0.63229394135E+03  0.10255717091E+04  0.80746622356E+03 0.  0.
        3    1    3    3  502    0 -0.33499968276E+03  0.52842682505E+02 -0.37928071576E+02  0.34125604077E+03  0.10100000352E+00 0. -1.
       -3    1    3    3    0  502  0.33499968276E+03 -0.52842682505E+02 -0.59436586978E+03  0.68431566831E+03  0.10100000352E+00 0.  1.
</event>
<event>
 5   0  0.2759559E-02  0.8019335E+03  0.7818609E-02  0.9557223E-01
        1   -1    0    0  501    0  0.00000000000E+00  0.00000000000E+00  0.54618918181E+03  0.54618918183E+03  0.50400001928E-02 0. -1.
       -1   -1    0    0    0  501  0.00000000000E+00  0.00000000000E+00 -0.29435649304E+03  0.29435649308E+03  0.50400001928E-02 0.  1.
    10030    2    1    2    0    0  0.00000000000E+00  0.00000000000E+00  0.25183268877E+03  0.84054567491E+03  0.80193349380E+03 0.  0.
        3    1    3    3  502    0 -0.28320703513E+03  0.25383152213E+03 -0.72342733748E+01  0.38038008792E+03  0.10100000352E+00 0.  1.
       -3    1    3    3    0  502  0.28320703513E+03 -0.25383152213E+03  0.25906696215E+03  0.46016558699E+03  0.10100000352E+00 0. -1.
</event>
<event>
 5   0  0.4663634E-02  0.7996037E+03  0.7818609E-02  0.9560591E-01
        2   -1    0    0  501    0  0.00000000000E+00  0.00000000000E+00  0.11725311279E+04  0.11725311279E+04  0.25500000920E-02 0. -1.
       -2   -1    0    0    0  501  0.00000000000E+00  0.00000000000E+00 -0.13632177565E+03  0.13632177567E+03  0.25500000920E-02 0.  1.
    10030    2    1    2    0    0  0.00000000000E+00  0.00000000000E+00  0.10362093522E+04  0.13088529035E+04  0.79960371528E+03 0.  0.
        5    1    3    3  502    0 -0.19129511868E+03  0.34822984583E+03  0.59060164864E+03  0.71182177919E+03  0.46999998093E+01 0.  1.
       -5    1    3    3    0  502  0.19129511868E+03 -0.34822984583E+03  0.44560770359E+03  0.59703112436E+03  0.46999998093E+01 0. -1.
</event>
<event>
 5   0  0.2606520E-02  0.7882806E+03  0.7818609E-02  0.9577137E-01
       -1   -1    0    0    0  501  0.00000000000E+00  0.00000000000E+00  0.35854809821E+03  0.35854809824E+03  0.50400001928E-02 0. -1.
        1   -1    0    0  501    0  0.00000000000E+00  0.00000000000E+00 -0.43326564687E+03  0.43326564690E+03  0.50400001928E-02 0.  1.
    10030    2    1    2    0    0  0.00000000000E+00  0.00000000000E+00 -0.74717548659E+02  0.79181374514E+03  0.78828059403E+03 0.  0.
        5    1    3    3  502    0 -0.12162711562E+03  0.31840724286E+03  0.16138697883E+03  0.37715272038E+03  0.46999998093E+01 0. -1.
       -5    1    3    3    0  502  0.12162711562E+03 -0.31840724286E+03 -0.23610452749E+03  0.41466102476E+03  0.46999998093E+01 0.  1.
</event>
<event>
 5   0  0.2759559E-02  0.7870935E+03  0.7818609E-02  0.9578889E-01
       -1   -1    0    0    0  501  0.00000000000E+00  0.00000000000E+00  0.57042771690E+03  0.57042771692E+03  0.50400001928E-02 0. -1.
        1   -1    0    0  501    0  0.00000000000E+00  0.00000000000E+00 -0.27151389884E+03  0.27151389888E+03  0.50400001928E-02 0.  1.
    10030    2    1    2    0    0  0.00000000000E+00  0.00000000000E+00  0.29891381806E+03  0.84194161580E+03  0.78709352290E+03 0.  0.
        3    1    3    3  502    0  0.21652030226E+03  0.16214790812E+03 -0.15630456724E+03  0.31241657021E+03  0.10100000352E+00 0.  1.
       -3    1    3    3    0  502 -0.21652030226E+03 -0.16214790812E+03  0.45521838530E+03  0.52952504560E+03  0.10100000352E+00 0. -1.
</event>
<event>
 5   0  0.4590462E-02  0.8081444E+03  0.7818609E-02  0.9548303E-01
       -2   -1    0    0    0  501  0.00000000000E+00  0.00000000000E+00  0.76101903304E+03  0.76101903304E+03  0.25500000920E-02 0. -1.
        2   -1    0    0  501    0  0.00000000000E+00  0.00000000000E+00 -0.21454700747E+03  0.21454700748E+03  0.25500000920E-02 0.  1.
    10030    2    1    2    0    0  0.00000000000E+00  0.00000000000E+00  0.54647202557E+03  0.97556604052E+03  0.80814443307E+03 0.  0.
        3    1    3    3  502    0 -0.38140949611E+03  0.11770502370E+03  0.34907335008E+03  0.53026398168E+03  0.10100000352E+00 0. -1.
       -3    1    3    3    0  502  0.38140949611E+03 -0.11770502370E+03  0.19739867549E+03  0.44530205885E+03  0.10100000352E+00 0.  1.
</event>
<event>
 5   0  0.2635243E-02  0.7889834E+03  0.7818609E-02  0.9576102E-01
        1   -1    0    0  501    0  0.00000000000E+00  0.00000000000E+00  0.13362589034E+04  0.13362589034E+04  0.50400001928E-02 0.  1.
       -1   -1    0    0    0  501  0.00000000000E+00  0.00000000000E+00 -0.11646222754E+03  0.11646222765E+03  0.50400001928E-02 0. -1.
    10030    2    1    2    0    0  0.00000000000E+00  0.00000000000E+00  0.12197966758E+04  0.14527211310E+04  0.78898336750E+03 0.  0.
        1    1    3    3  502    0  0.89489128042E+02  0.22176879566E+03  0.32218857782E+02  0.24130428423E+03  0.50400001928E-02 0. -1.
       -1    1    3    3    0  502 -0.89489128042E+02 -0.22176879566E+03  0.11875778180E+04  0.12114168468E+04  0.50400001928E-02 0.  1.
</event>
<event>
 5   0  0.2759559E-02  0.7443245E+03  0.7818609E-02  0.9644297E-01
        1   -1    0    0  501    0  0.00000000000E+00  0.00000000000E+00  0.14884745103E+04  0.14884745103E+04  0.50400001928E-02 0.  1.
       -1   -1    0    0    0  501  0.00000000000E+00  0.00000000000E+00 -0.93051459410E+02  0.93051459547E+02  0.50400001928E-02 0. -1.
    10030    2    1    2    0    0  0.00000000000E+00  0.00000000000E+00  0.13954230509E+04  0.15815259699E+04  0.74432446042E+03 0.  0.
        3    1    3    3  502    0 -0.12604757687E+03 -0.70997894017E+02  0.14262851066E+04  0.14336031208E+04  0.10100000352E+00 0.  1.
       -3    1    3    3    0  502  0.12604757687E+03  0.70997894017E+02 -0.30862055674E+02  0.14792284905E+03  0.10100000352E+00 0. -1.
</event>
<event>
 5   0  0.2769394E-02  0.8016509E+03  0.7818609E-02  0.9557631E-01
        1   -1    0    0  501    0  0.00000000000E+00  0.00000000000E+00  0.16528565682E+03  0.16528565689E+03  0.50400001928E-02 0. -1.
       -1   -1    0    0    0  501  0.00000000000E+00  0.00000000000E+00 -0.97202045713E+03  0.97202045715E+03  0.50400001928E-02 0.  1.
    10030    2    1    2    0    0  0.00000000000E+00  0.00000000000E+00 -0.80673480031E+03  0.11373061140E+04  0.80165089596E+03 0.  0.
        2    1    3    3  502    0 -0.13703028201E+03  0.17636352721E+01 -0.93775164749E+03  0.94771227752E+03  0.25500000920E-02 0.  1.
       -2    1    3    3    0  502  0.13703028201E+03 -0.17636352721E+01  0.13101684717E+03  0.18959383652E+03  0.25500000920E-02 0. -1.
</event>
<event>
 5   0  0.2606520E-02  0.8016522E+03  0.7818609E-02  0.9557629E-01
        1   -1    0    0  501    0  0.00000000000E+00  0.00000000000E+00  0.98083987800E+03  0.98083987801E+03  0.50400001928E-02 0.  1.
       -1   -1    0    0    0  501  0.00000000000E+00  0.00000000000E+00 -0.16380000873E+03  0.16380000881E+03  0.50400001928E-02 0. -1.
    10030    2    1    2    0    0  0.00000000000E+00  0.00000000000E+00  0.81703986926E+03  0.11446398868E+04  0.80165224538E+03 0.  0.
        5    1    3    3  502    0 -0.33329534719E+03  0.12433999214E+03  0.67216350340E+03  0.76050778260E+03  0.46999998093E+01 0.  1.
       -5    1    3    3    0  502  0.33329534719E+03 -0.12433999214E+03  0.14487636587E+03  0.38413210422E+03  0.46999998093E+01 0. -1.
</event>
<event>
 5   0  0.4700220E-02  0.4446767E+03  0.7818609E-02  0.1029321E+00
        2   -1    0    0  501    0  0.00000000000E+00  0.00000000000E+00  0.82134378544E+03  0.82134378544E+03  0.25500000920E-02 0. -1.
       -2   -1    0    0    0  501  0.00000000000E+00  0.00000000000E+00 -0.60187157044E+02  0.60187157098E+02  0.25500000920E-02 0.  1.
    10030    2    1    2    0    0  0.00000000000E+00  0.00000000000E+00  0.76115662839E+03  0.88153094254E+03  0.44467672495E+03 0.  0.
        4    1    3    3  502    0 -0.31465421530E+02 -0.37125626757E+02  0.81064835821E+03  0.81210883414E+03  0.12699999809E+01 0. -1.
       -4    1    3    3    0  502  0.31465421530E+02  0.37125626757E+02 -0.49491729820E+02  0.69422108400E+02  0.12699999809E+01 0.  1.
</event>
<event>
 5   0  0.4684283E-02  0.8168553E+03  0.7818609E-02  0.9535935E-01
       -2   -1    0    0    0  501  0.00000000000E+00  0.00000000000E+00  0.35294132556E+03  0.35294132557E+03  0.25500000920E-02 0.  1.
        2   -1    0    0  501    0  0.00000000000E+00  0.00000000000E+00 -0.47263700161E+03  0.47263700162E+03  0.25500000920E-02 0. -1.
    10030    2    1    2    0    0  0.00000000000E+00  0.00000000000E+00 -0.11969567605E+03  0.82557832719E+03  0.81685526225E+03 0.  0.
        1    1    3    3  502    0 -0.28124726631E+03  0.21748490135E+03 -0.26302551434E+03  0.44224668268E+03  0.50400001928E-02 0. -1.
       -1    1    3    3    0  502  0.28124726631E+03 -0.21748490135E+03  0.14332983828E+03  0.38333164452E+03  0.50400001928E-02 0.  1.
</event>
<event>
 5   0  0.2689372E-02  0.8355465E+03  0.7818609E-02  0.9509944E-01
       -1   -1    0    0    0  501  0.00000000000E+00  0.00000000000E+00  0.21809951327E+03  0.21809951333E+03  0.50400001928E-02 0.  1.
        1   -1    0    0  501    0  0.00000000000E+00  0.00000000000E+00 -0.80025162683E+03  0.80025162685E+03  0.50400001928E-02 0. -1.
    10030    2    1    2    0    0  0.00000000000E+00  0.00000000000E+00 -0.58215211356E+03  0.10183511402E+04  0.83554650462E+03 0.  0.
        4    1    3    3  502    0 -0.11659079528E+03 -0.79301262908E+02 -0.77037114195E+03  0.78317010482E+03  0.12699999809E+01 0. -1.
       -4    1    3    3    0  502  0.11659079528E+03  0.79301262908E+02  0.18821902839E+03  0.23518103535E+03  0.12699999809E+01 0.  1.
</event>
<event>
 5   0  0.4377843E-02  0.7953462E+03  0.7818609E-02  0.9566778E-01
        2   -1    0    0  501    0  0.00000000000E+00  0.00000000000E+00  0.39902251793E+03  0.39902251794E+03  0.25500000920E-02 0. -1.
       -2   -1    0    0    0  501  0.00000000000E+00  0.00000000000E+00 -0.39632824130E+03  0.39632824131E+03  0.25500000920E-02 0.  1.
    10030    2    1    2    0    0  0.00000000000E+00  0.00000000000E+00  0.26942766261E+01  0.79535075924E+03  0.79534619576E+03 0.  0.
        2    1    3    3  502    0  0.35471123797E+02 -0.31274395158E+03  0.24440596006E+03  0.39849874930E+03  0.25500000920E-02 0. -1.
       -2    1    3    3    0  502 -0.35471123797E+02  0.31274395158E+03 -0.24171168344E+03  0.39685200994E+03  0.25500000920E-02 0.  1.
</event>
<event>
 5   0  0.2606520E-02  0.7836160E+03  0.7818609E-02  0.9584040E-01
        1   -1    0    0  501    0  0.00000000000E+00  0.00000000000E+00  0.14366810205E+04  0.14366810206E+04  0.50400001928E-02 0. -1.
       -1   -1    0    0    0  501  0.00000000000E+00  0.00000000000E+00 -0.10685288709E+03  0.10685288721E+03  0.50400001928E-02 0.  1.
    10030    2    1    2    0    0  0.00000000000E+00  0.00000000000E+00  0.13298281335E+04  0.15435339078E+04  0.78361601559E+03 0.  0.
        5    1    3    3  502    0 -0.24023432174E+01 -0.38270187591E+03  0.49981911016E+03  0.62952976892E+03  0.46999998093E+01 0.  1.
       -5    1    3    3    0  502  0.24023432174E+01  0.38270187591E+03  0.83000902330E+03  0.91400413885E+03  0.46999998093E+01 0. -1.
</event>
<event>
 5   0  0.4377843E-02  0.8044814E+03  0.7818609E-02  0.9553553E-01
       -2   -1    0    0    0  501  0.00000000000E+00  0.00000000000E+00  0.14165012169E+03  0.14165012172E+03  0.25500000920E-02 0. -1.
        2   -1    0    0  501    0  0.00000000000E+00  0.00000000000E+00 -0.11422338342E+04  0.11422338342E+04  0.25500000920E-02 0.  1.
    10030    2    1    2    0    0  0.00000000000E+00  0.00000000000E+00 -0.10005837125E+04  0.12838839559E+04  0.80448135251E+03 0.  0.
        2    1    3    3  502    0 -0.65724030344E+02  0.30680142425E+03 -0.98606647403E+02  0.32889212974E+03  0.25500000920E-02 0. -1.
       -2    1    3    3    0  502  0.65724030344E+02 -0.30680142425E+03 -0.90197706511E+03  0.95499182619E+03  0.25500000920E-02 0.  1.
</event>
<event>
 5   0  0.2689372E-02  0.7600489E+03  0.7818609E-02  0.9619716E-01
        1   -1    0    0  501    0  0.00000000000E+00  0.00000000000E+00  0.33122514139E+03  0.33122514142E+03  0.50400001928E-02 0.  1.
       -1   -1    0    0    0  501  0.00000000000E+00  0.00000000000E+00 -0.43601333047E+03  0.43601333050E+03  0.50400001928E-02 0. -1.
    10030    2    1    2    0    0  0.00000000000E+00  0.00000000000E+00 -0.10478818908E+03  0.76723847192E+03  0.76004888542E+03 0.  0.
        4    1    3    3  502    0 -0.22717102106E+03  0.23569386503E+03 -0.24724510184E+03  0.41023167126E+03  0.12699999809E+01 0. -1.
       -4    1    3    3    0  502  0.22717102106E+03 -0.23569386503E+03  0.14245691275E+03  0.35700680066E+03  0.12699999809E+01 0.  1.
</event>
<event>
 5   0  0.2769394E-02  0.7620808E+03  0.7818609E-02  0.9616586E-01
       -1   -1    0    0    0  501  0.00000000000E+00  0.00000000000E+00  0.55172236428E+03  0.55172236430E+03  0.50400001928E-02 0.  1.
        1   -1    0    0  501    0  0.00000000000E+00  0.00000000000E+00 -0.26316096257E+03  0.26316096262E+03  0.50400001928E-02 0. -1.
    10030    2    1    2    0    0  0.00000000000E+00  0.00000000000E+00  0.28856140171E+03  0.81488332691E+03  0.76208080538E+03 0.  0.
        2    1    3    3  502    0 -0.14092040126E+03 -0.11046250817E+01 -0.23427118060E+03  0.27339123203E+03  0.25500000920E-02 0. -1.
       -2    1    3    3    0  502  0.14092040126E+03  0.11046250817E+01  0.52283258231E+03  0.54149209488E+03  0.25500000920E-02 0.  1.
</event>
<event>
 5   0  0.2769394E-02  0.7927329E+03  0.7818609E-02  0.9570596E-01
       -1   -1    0    0    0  501  0.00000000000E+00  0.00000000000E+00  0.18319378391E+03  0.18319378398E+03  0.50400001928E-02 0. -1.
        1   -1    0    0  501    0  0.00000000000E+00  0.00000000000E+00 -0.85759652502E+03  0.85759652503E+03  0.50400001928E-02 0.  1.
    10030    2    1    2    0    0  0.00000000000E+00  0.00000000000E+00 -0.67440274111E+03  0.10407903090E+04  0.79273287438E+03 0.  0.
        2    1    3    3  502    0 -0.32435210987E+03 -0.19709066815E+03 -0.48722634422E+03  0.61760710258E+03  0.25500000920E-02 0.  1.
       -2    1    3    3    0  502  0.32435210987E+03  0.19709066815E+03 -0.18717639689E+03  0.42318320643E+03  0.25500000920E-02 0. -1.
</event>
<event>
 5   0  0.4377843E-02  0.8423482E+03  0.7818609E-02  0.9500665E-01
        2   -1    0    0  501    0  0.00000000000E+00  0.00000000000E+00  0.97362908750E+03  0.97362908750E+03  0.25500000920E-02 0. -1.
       -2   -1    0    0    0  501  0.00000000000E+00  0.00000000000E+00 -0.18219221150E+03  0.18219221152E+03  0.25500000920E-02 0.  1.
    10030    2    1    2    0    0  0.00000000000E+00  0.00000000000E+00  0.79143687600E+03  0.11558212990E+04  0.84234823355E+03 0.  0.
        2    1    3    3  502    0  0.35869289089E+02 -0.57597190671E+02  0.96608003437E+03  0.96845995017E+03  0.25500000920E-02 0. -1.
       -2    1    3    3    0  502 -0.35869289089E+02  0.57597190671E+02 -0.17464315836E+03  0.18736134885E+03  0.25500000920E-02 0.  1.
</event>
<event>
 5   0  0.2606520E-02  0.8142165E+03  0.7818609E-02  0.9539664E-01
       -1   -1    0    0    0  501  0.00000000000E+00  0.00000000000E+00  0.10466680049E+03  0.10466680062E+03  0.50400001928E-02 0.  1.
        1   -1    0    0  501    0  0.00000000000E+00  0.00000000000E+00 -0.15834736083E+04  0.15834736083E+04  0.50400001928E-02 0. -1.
    10030    2    1    2    0    0  0.00000000000E+00  0.00000000000E+00 -0.14788068078E+04  0.16881404089E+04  0.81421647331E+03 0.  0.
        5    1    3    3  502    0  0.21498405481E+02 -0.72084175992E+02 -0.15688828566E+04  0.15706921461E+04  0.46999998093E+01 0. -1.
       -5    1    3    3    0  502 -0.21498405481E+02  0.72084175992E+02  0.90076048855E+02  0.11744826283E+03  0.46999998093E+01 0.  1.
</event>
<event>
 5   0  0.4663634E-02  0.7695244E+03  0.7818609E-02  0.9605208E-01
       -2   -1    0    0    0  501  0.00000000000E+00  0.00000000000E+00  0.11646823884E+03  0.11646823887E+03  0.25500000920E-02 0. -1.
        2   -1    0    0  501    0  0.00000000000E+00  0.00000000000E+00 -0.12710929301E+04  0.12710929301E+04  0.25500000920E-02 0.  1.
    10030    2    1    2    0    0  0.00000000000E+00  0.00000000000E+00 -0.11546246912E+04  0.13875611689E+04  0.76952441154E+03 0.  0.
        5    1    3    3  502    0  0.25691193349E+03  0.21254850624E+03 -0.92339924574E+03  0.98176823441E+03  0.46999998093E+01 0.  1.
       -5    1    3    3    0  502 -0.25691193349E+03 -0.21254850624E+03 -0.23122544549E+03  0.40579293453E+03  0.46999998093E+01 0. -1.
</event>
<event>
 5   0  0.4663634E-02  0.7873327E+03  0.7818609E-02  0.9578536E-01
       -2   -1    0    0    0  501  0.00000000000E+00  0.00000000000E+00  0.20611630899E+03  0.20611630901E+03  0.25500000920E-02 0. -1.
        2   -1    0    0  501    0  0.00000000000E+00  0.00000000000E+00 -0.75187254270E+03  0.75187254270E+03  0.25500000920E-02 0.  1.
    10030    2    1    2    0    0  0.00000000000E+00  0.00000000000E+00 -0.54575623370E+03  0.95798885171E+03  0.78733269548E+03 0.  0.
        5    1    3    3  502    0  0.14599423308E+03  0.97239894681E+02  0.15589749694E+03  0.23472544123E+03  0.46999998093E+01 0. -1.
       -5    1    3    3    0  502 -0.14599423308E+03 -0.97239894681E+02 -0.70165373065E+03  0.72326341048E+03  0.46999998093E+01 0.  1.
</event>
<event>
 5   0  0.4700220E-02  0.8253599E+03  0.7818609E-02  0.9524018E-01
       -2   -1    0    0    0  501  0.00000000000E+00  0.00000000000E+00  0.12783592340E+04  0.12783592340E+04  0.25500000920E-02 0.  1.
        2   -1    0    0  501    0  0.00000000000E+00  0.00000000000E+00 -0.13322136060E+03  0.13322136062E+03  0.25500000920E-02 0. -1.
    10030    2    1    2    0    0  0.00000000000E+00  0.00000000000E+00  0.11451378734E+04  0.14115805946E+04  0.82535993725E+03 0.  0.
        4    1    3    3  502    0  0.23242144242E+03  0.33251183644E+03  0.70190914518E+03  0.81071691067E+03  0.12699999809E+01 0.  1.
       -4    1    3    3    0  502 -0.23242144242E+03 -0.33251183644E+03  0.44322872825E+03  0.60086368397E+03  0.12699999809E+01 0. -1.
</event>
<event>
 5   0  0.2689372E-02  0.7291776E+03  0.7818609E-02  0.9668596E-01
        1   -1    0    0  501    0  0.00000000000E+00  0.00000000000E+00  0.10109790241E+04  0.10109790241E+04  0.50400001928E-02 0. -1.
       -1   -1    0    0    0  501  0.00000000000E+00  0.00000000000E+00 -0.13148143833E+03  0.13148143843E+03  0.50400001928E-02 0.  1.
    10030    2    1    2    0    0  0.00000000000E+00  0.00000000000E+00  0.87949758578E+03  0.11424604626E+04  0.72917755389E+03 0.  0.
        4    1    3    3  502    0  0.35234116267E+03  0.22286587666E+02  0.58233757892E+03  0.68099901294E+03  0.12699999809E+01 0. -1.
       -4    1    3    3    0  502 -0.35234116267E+03 -0.22286587666E+02  0.29716000686E+03  0.46146144961E+03  0.12699999809E+01 0.  1.
</event>
<event>
 5   0  0.2769394E-02  0.8078168E+03  0.7818609E-02  0.9548771E-01
       -1   -1    0    0    0  501  0.00000000000E+00  0.00000000000E+00  0.50009081151E+03  0.50009081154E+03  0.50400001928E-02 0. -1.
        1   -1    0    0  501    0  0.00000000000E+00  0.00000000000E+00 -0.32622472630E+03  0.32622472634E+03  0.50400001928E-02 0.  1.
    10030    2    1    2    0    0  0.00000000000E+00  0.00000000000E+00  0.17386608521E+03  0.82631553788E+03  0.80781678155E+03 0.  0.
        2    1    3    3  502    0  0.27261521428E+03 -0.56248423063E+02  0.38631089590E+03  0.47615023727E+03  0.25500000920E-02 0. -1.
       -2    1    3    3    0  502 -0.27261521428E+03  0.56248423063E+02 -0.21244481069E+03  0.35016530061E+03  0.25500000920E-02 0.  1.
</event>
<event>
 5   0  0.1786500E-02  0.7945780E+03  0.7818609E-02  0.9567899E-01
       -3   -1    0    0    0  501  0.00000000000E+00  0.00000000000E+00  0.11649683721E+04  0.11649683765E+04  0.10100000352E+00 0.  1.
        3   -1    0    0  501    0  0.00000000000E+00  0.00000000000E+00 -0.13548737911E+03  0.13548741676E+03  0.10100000352E+00 0. -1.
    10030    2    1    2    0    0  0.00000000000E+00  0.00000000000E+00  0.10294809930E+04  0.13004557932E+04  0.79457797304E+03 0.  0.
        3    1    3    3  502    0  0.14807397936E+03  0.15027838336E+03  0.10657126669E+04  0.10863944930E+04  0.10100000352E+00 0.  1.
       -3    1    3    3    0  502 -0.14807397936E+03 -0.15027838336E+03 -0.36231673890E+02  0.21406130024E+03  0.10100000352E+00 0. -1.
</event>
<event>
 5   0  0.4377843E-02  0.7871531E+03  0.7818609E-02  0.9578801E-01
        2   -1    0    0  501    0  0.00000000000E+00  0.00000000000E+00  0.42832176853E+03  0.42832176854E+03  0.25500000920E-02 0. -1.
       -2   -1    0    0    0  501  0.00000000000E+00  0.00000000000E+00 -0.36164986664E+03  0.36164986665E+03  0.25500000920E-02 0.  1.
    10030    2    1    2    0    0  0.00000000000E+00  0.00000000000E+00  0.66671901891E+02  0.78997163519E+03  0.78715312482E+03 0.  0.
        2    1    3    3  502    0  0.15168482949E+03  0.32940062684E+03  0.18681965755E+03  0.40793951134E+03  0.25500000920E-02 0. -1.
       -2    1    3    3    0  502 -0.15168482949E+03 -0.32940062684E+03 -0.12014775566E+03  0.38203212385E+03  0.25500000920E-02 0.  1.
</event>
<event>
 5   0  0.2769394E-02  0.8134337E+03  0.7818609E-02  0.9540773E-01
       -1   -1    0    0    0  501  0.00000000000E+00  0.00000000000E+00  0.37783015170E+03  0.37783015173E+03  0.50400001928E-02 0. -1.
        1   -1    0    0  501    0  0.00000000000E+00  0.00000000000E+00 -0.43781200853E+03  0.43781200856E+03  0.50400001928E-02 0.  1.
    10030    2    1    2    0    0  0.00000000000E+00  0.00000000000E+00 -0.59981856831E+02  0.81564216029E+03  0.81343365464E+03 0.  0.
        2    1    3    3  502    0  0.37333864182E+03 -0.15218211241E+03 -0.83778350309E+02  0.41177657631E+03  0.25500000920E-02 0.  1.
       -2    1    3    3    0  502 -0.37333864182E+03  0.15218211241E+03  0.23796493478E+02  0.40386558398E+03  0.25500000920E-02 0. -1.
</event>
<event>
 5   0  0.4590462E-02  0.7666183E+03  0.7818609E-02  0.9609634E-01
        2   -1    0    0  501    0  0.00000000000E+00  0.00000000000E+00  0.22451366807E+04  0.22451366807E+04  0.25500000920E-02 0.  1.
       -2   -1    0    0    0  501  0.00000000000E+00  0.00000000000E+00 -0.65441861441E+02  0.65441861490E+02  0.25500000920E-02 0. -1.
    10030    2    1    2    0    0  0.00000000000E+00  0.00000000000E+00  0.21796948193E+04  0.23105785422E+04  0.76661834999E+03 0.  0.
        3    1    3    3  502    0 -0.70653937969E+02  0.37499763130E+03  0.98072976134E+03  0.10523526393E+04  0.10100000352E+00 0. -1.
       -3    1    3    3    0  502  0.70653937969E+02 -0.37499763130E+03  0.11989650579E+04  0.12582259029E+04  0.10100000352E+00 0.  1.
</event>
<event>
 5   0  0.4663634E-02  0.7884168E+03  0.7818609E-02  0.9576936E-01
        2   -1    0    0  501    0  0.00000000000E+00  0.00000000000E+00  0.14596747054E+04  0.14596747054E+04  0.25500000920E-02 0. -1.
       -2   -1    0    0    0  501  0.00000000000E+00  0.00000000000E+00 -0.10646226885E+03  0.10646226888E+03  0.25500000920E-02 0.  1.
    10030    2    1    2    0    0  0.00000000000E+00  0.00000000000E+00  0.13532124366E+04  0.15661369743E+04  0.78841684647E+03 0.  0.
        5    1    3    3  502    0  0.11572932426E+03  0.29816894410E+00 -0.71898967200E+02  0.13632650836E+03  0.46999998093E+01 0.  1.
       -5    1    3    3    0  502 -0.11572932426E+03 -0.29816894410E+00  0.14251114038E+04  0.14298104659E+04  0.46999998093E+01 0. -1.
</event>
<event>
 5   0  0.2606520E-02  0.7412381E+03  0.7818609E-02  0.9649198E-01
       -1   -1    0    0    0  501  0.00000000000E+00  0.00000000000E+00  0.86810227275E+02  0.86810227422E+02  0.50400001928E-02 0. -1.
        1   -1    0    0  501    0  0.00000000000E+00  0.00000000000E+00 -0.15822844615E+04  0.15822844616E+04  0.50400001928E-02 0.  1.
    10030    2    1    2    0    0  0.00000000000E+00  0.00000000000E+00 -0.14954742343E+04  0.16690946890E+04  0.74123808280E+03 0.  0.
        5    1    3    3  502    0 -0.46203896848E+02  0.23425644817E+03 -0.13859270816E+04  0.14063523204E+04  0.46999998093E+01 0.  1.
       -5    1    3    3    0  502  0.46203896848E+02 -0.23425644817E+03 -0.10954715269E+03  0.26274236859E+03  0.46999998093E+01 0. -1.
</event>
<event>
 5   0  0.2759559E-02  0.7781877E+03  0.7818609E-02  0.9592137E-01
        1   -1    0    0  501    0  0.00000000000E+00  0.00000000000E+00  0.23795251106E+03  0.23795251112E+03  0.50400001928E-02 0.  1.
       -1   -1    0    0    0  501  0.00000000000E+00  0.00000000000E+00 -0.63623629591E+03  0.63623629593E+03  0.50400001928E-02 0. -1.
    10030    2    1    2    0    0  0.00000000000E+00  0.00000000000E+00 -0.39828378485E+03  0.87418880705E+03  0.77818770043E+03 0.  0.
        3    1    3    3  502    0 -0.19106340084E+03  0.59016032273E+01 -0.57985152899E+03  0.61054717912E+03  0.10100000352E+00 0. -1.
       -3    1    3    3    0  502  0.19106340084E+03 -0.59016032273E+01  0.18156774414E+03  0.26364162793E+03  0.10100000352E+00 0.  1.
</event>
<event>
 5   0  0.4590462E-02  0.7980099E+03  0.7818609E-02  0.9562902E-01
        2   -1    0    0  501    0  0.00000000000E+00  0.00000000000E+00  0.13957010826E+04  0.13957010826E+04  0.25500000920E-02 0.  1.
       -2   -1    0    0    0  501  0.00000000000E+00  0.00000000000E+00 -0.11406807506E+03  0.11406807509E+03  0.25500000920E-02 0. -1.
    10030    2    1    2    0    0  0.00000000000E+00  0.00000000000E+00  0.12816330075E+04  0.15097691576E+04  0.79800986428E+03 0.  0.
        3    1    3    3  502    0  0.29501269636E+03 -0.18646429719E+03  0.27491987009E+03  0.44427735742E+03  0.10100000352E+00 0. -1.
       -3    1    3    3    0  502 -0.29501269636E+03  0.18646429719E+03  0.10067131374E+04  0.10654918002E+04  0.10100000352E+00 0.  1.
</event>
<event>
 5   0  0.4684283E-02  0.8040826E+03  0.7818609E-02  0.9554126E-01
       -2   -1    0    0    0  501  0.00000000000E+00  0.00000000000E+00  0.84992202238E+02  0.84992202277E+02  0.25500000920E-02 0.  1.
        2   -1    0    0  501    0  0.00000000000E+00  0.00000000000E+00 -0.19017886283E+04  0.19017886283E+04  0.25500000920E-02 0. -1.
    10030    2    1    2    0    0  0.00000000000E+00  0.00000000000E+00 -0.18167964260E+04  0.19867808306E+04  0.80408259215E+03 0.  0.
        1    1    3    3  502    0  0.26783952515E+03  0.19765648048E+02 -0.16476314223E+04  0.16693765291E+04  0.50400001928E-02 0. -1.
       -1    1    3    3    0  502 -0.26783952515E+03 -0.19765648048E+02 -0.16916500372E+03  0.31740430146E+03  0.50400001928E-02 0.  1.
</event>
<event>
 5   0  0.4684283E-02  0.7925826E+03  0.7818609E-02  0.9570816E-01
        2   -1    0    0  501    0  0.00000000000E+00  0.00000000000E+00  0.72590718569E+03  0.72590718570E+03  0.25500000920E-02 0.  1.
       -2   -1    0    0    0  501  0.00000000000E+00  0.00000000000E+00 -0.21634554852E+03  0.21634554853E+03  0.25500000920E-02 0. -1.
    10030    2    1    2    0    0  0.00000000000E+00  0.00000000000E+00  0.50956163718E+03  0.94225273423E+03  0.79258258440E+03 0.  0.
        1    1    3    3  502    0 -0.95520633700E+02  0.14749726919E+03  0.67705646131E+03  0.69948916197E+03  0.50400001928E-02 0.  1.
       -1    1    3    3    0  502  0.95520633700E+02 -0.14749726919E+03 -0.16749482414E+03  0.24276357226E+03  0.50400001928E-02 0. -1.
</event>
<event>
 5   0  0.4377843E-02  0.7341779E+03  0.7818609E-02  0.9660505E-01
       -2   -1    0    0    0  501  0.00000000000E+00  0.00000000000E+00  0.16038519811E+03  0.16038519813E+03  0.25500000920E-02 0.  1.
        2   -1    0    0  501    0  0.00000000000E+00  0.00000000000E+00 -0.84019169348E+03  0.84019169348E+03  0.25500000920E-02 0. -1.
    10030    2    1    2    0    0  0.00000000000E+00  0.00000000000E+00 -0.67980649537E+03  0.10005768916E+04  0.73417793816E+03 0.  0.
        2    1    3    3  502    0 -0.21782092426E+03 -0.30606602603E+02  0.60626337715E+02  0.22816281905E+03  0.25500000920E-02 0. -1.
       -2    1    3    3    0  502  0.21782092426E+03  0.30606602603E+02 -0.74043283309E+03  0.77241407256E+03  0.25500000920E-02 0.  1.
</event>
<event>
 5   0  0.2635243E-02  0.7947155E+03  0.7818609E-02  0.9567698E-01
       -1   -1    0    0    0  501  0.00000000000E+00  0.00000000000E+00  0.49361190470E+03  0.49361190473E+03  0.50400001928E-02 0. -1.
        1   -1    0    0  501    0  0.00000000000E+00  0.00000000000E+00 -0.31987315004E+03  0.31987315008E+03  0.50400001928E-02 0.  1.
    10030    2    1    2    0    0  0.00000000000E+00  0.00000000000E+00  0.17373875466E+03  0.81348505480E+03  0.79471553371E+03 0.  0.
        1    1    3    3  502    0 -0.15817875708E+03 -0.36150705587E+03  0.39017848681E+02  0.39652271458E+03  0.50400001928E-02 0. -1.
       -1    1    3    3    0  502  0.15817875708E+03  0.36150705587E+03  0.13472090598E+03  0.41696234023E+03  0.50400001928E-02 0.  1.
</event>
<event>
 5   0  0.4684283E-02  0.8119559E+03  0.7818609E-02  0.9542871E-01
        2   -1    0    0  501    0  0.00000000000E+00  0.00000000000E+00  0.13296227751E+04  0.13296227751E+04  0.25500000920E-02 0. -1.
       -2   -1    0    0    0  501  0.00000000000E+00  0.00000000000E+00 -0.12395854495E+03  0.12395854497E+03  0.25500000920E-02 0.  1.
    10030    2    1    2    0    0  0.00000000000E+00  0.00000000000E+00  0.12056642302E+04  0.14535813201E+04  0.81195592135E+03 0.  0.
        1    1    3    3  502    0  0.22754187460E+03 -0.96552653920E+02  0.11793847213E+04  0.12050087305E+04  0.50400001928E-02 0. -1.
       -1    1    3    3    0  502 -0.22754187460E+03  0.96552653920E+02  0.26279508824E+02  0.24857258957E+03  0.50400001928E-02 0.  1.
</event>
<event>
 5   0  0.4700220E-02  0.8032674E+03  0.7818609E-02  0.9555300E-01
        2   -1    0    0  501    0  0.00000000000E+00  0.00000000000E+00  0.88657285660E+03  0.88657285660E+03  0.25500000920E-02 0. -1.
       -2   -1    0    0    0  501  0.00000000000E+00  0.00000000000E+00 -0.18194740365E+03  0.18194740367E+03  0.25500000920E-02 0.  1.
    10030    2    1    2    0    0  0.00000000000E+00  0.00000000000E+00  0.70462545294E+03  0.10685202603E+04  0.80326740110E+03 0.  0.
        4    1    3    3  502    0  0.19366850209E+03  0.33436117748E+03  0.20657570531E+03  0.43815524719E+03  0.12699999809E+01 0.  1.
       -4    1    3    3    0  502 -0.19366850209E+03 -0.33436117748E+03  0.49804974763E+03  0.63036501309E+03  0.12699999809E+01 0. -1.
</event>
<event>
 5   0  0.4590462E-02  0.8023384E+03  0.7818609E-02  0.9556638E-01
        2   -1    0    0  501    0  0.00000000000E+00  0.00000000000E+00  0.53444238230E+03  0.53444238231E+03  0.25500000920E-02 0. -1.
       -2   -1    0    0    0  501  0.00000000000E+00  0.00000000000E+00 -0.30113020080E+03  0.30113020081E+03  0.25500000920E-02 0.  1.
    10030    2    1    2    0    0  0.00000000000E+00  0.00000000000E+00  0.23331218150E+03  0.83557258312E+03  0.80233843708E+03 0.  0.
        3    1    3    3  502    0 -0.23633182085E+03  0.62228860973E+02  0.44797152383E+03  0.51029761615E+03  0.10100000352E+00 0. -1.
       -3    1    3    3    0  502  0.23633182085E+03 -0.62228860973E+02 -0.21465934233E+03  0.32527496697E+03  0.10100000352E+00 0.  1.
</event>
<event>
 5   0  0.2759559E-02  0.7956437E+03  0.7818609E-02  0.9566344E-01
       -1   -1    0    0    0  501  0.00000000000E+00  0.00000000000E+00  0.95261929977E+02  0.95261930111E+02  0.50400001928E-02 0. -1.
        1   -1    0    0  501    0  0.00000000000E+00  0.00000000000E+00 -0.16613377136E+04  0.16613377136E+04  0.50400001928E-02 0.  1.
    10030    2    1    2    0    0  0.00000000000E+00  0.00000000000E+00 -0.15660757836E+04  0.17565996437E+04  0.79564373198E+03 0.  0.
        3    1    3    3  502    0 -0.15638323245E+03 -0.17385573827E+03 -0.72489677678E+02  0.24481890591E+03  0.10100000352E+00 0. -1.
       -3    1    3    3    0  502  0.15638323245E+03  0.17385573827E+03 -0.14935861059E+04  0.15117807378E+04  0.10100000352E+00 0.  1.
</event>
<event>
 5   0  0.1786500E-02  0.8115592E+03  0.7818609E-02  0.9543435E-01
        4   -1    0    0  501    0  0.00000000000E+00  0.00000000000E+00  0.18942689662E+03  0.18943115389E+03  0.12699999809E+01 0. -1.
       -4   -1    0    0    0  501  0.00000000000E+00  0.00000000000E+00 -0.86922357750E+03  0.86922450528E+03  0.12699999809E+01 0.  1.
    10030    2    1    2    0    0  0.00000000000E+00  0.00000000000E+00 -0.67979668087E+03  0.10586556592E+04  0.81155916442E+03 0.  0.
        5    1    3    3  502    0  0.23884689616E+03 -0.29909349287E+03 -0.51554346474E+03  0.64211518539E+03  0.46999998093E+01 0.  1.
       -5    1    3    3    0  502 -0.23884689616E+03  0.29909349287E+03 -0.16425321614E+03  0.41654047377E+03  0.46999998093E+01 0. -1.
</event>
<event>
 5   0  0.4684283E-02  0.6261755E+03  0.7818609E-02  0.9852541E-01
       -2   -1    0    0    0  501  0.00000000000E+00  0.00000000000E+00  0.24423341262E+03  0.24423341264E+03  0.25500000920E-02 0.  1.
        2   -1    0    0  501    0  0.00000000000E+00  0.00000000000E+00 -0.40135355592E+03  0.40135355593E+03  0.25500000920E-02 0. -1.
    10030    2    1    2    0    0  0.00000000000E+00  0.00000000000E+00 -0.15712014330E+03  0.64558696857E+03  0.62617553015E+03 0.  0.
        1    1    3    3  502    0  0.14192474436E+03  0.23640276207E+03  0.74344734488E+02  0.28558017884E+03  0.50400001928E-02 0. -1.
       -1    1    3    3    0  502 -0.14192474436E+03 -0.23640276207E+03 -0.23146487779E+03  0.36000678973E+03  0.50400001928E-02 0.  1.
</event>
<event>
 5   0  0.4700220E-02  0.7680992E+03  0.7818609E-02  0.9607376E-01
       -2   -1    0    0    0  501  0.00000000000E+00  0.00000000000E+00  0.12274735104E+04  0.12274735104E+04  0.25500000920E-02 0. -1.
        2   -1    0    0  501    0  0.00000000000E+00  0.00000000000E+00 -0.12016071128E+03  0.12016071131E+03  0.25500000920E-02 0.  1.
    10030    2    1    2    0    0  0.00000000000E+00  0.00000000000E+00  0.11073127991E+04  0.13476342217E+04  0.76809918659E+03 0.  0.
        4    1    3    3  502    0 -0.14790958979E+02  0.29393619483E+03  0.98654384521E+03  0.10295084412E+04  0.12699999809E+01 0. -1.
       -4    1    3    3    0  502  0.14790958979E+02 -0.29393619483E+03  0.12076895394E+03  0.31812578053E+03  0.12699999809E+01 0.  1.
</event>
<event>
 5   0  0.4590462E-02  0.8529500E+03  0.7818609E-02  0.9486386E-01
       -2   -1    0    0    0  501  0.00000000000E+00  0.00000000000E+00  0.87718132995E+03  0.87718132995E+03  0.25500000920E-02 0.  1.
        2   -1    0    0  501    0  0.00000000000E+00  0.00000000000E+00 -0.20734698975E+03  0.20734698977E+03  0.25500000920E-02 0. -1.
    10030    2    1    2    0    0  0.00000000000E+00  0.00000000000E+00  0.66983434020E+03  0.10845283197E+04  0.85294995923E+03 0.  0.
        3    1    3    3  502    0  0.30535954910E+03 -0.13336370426E+03  0.67336287489E+03  0.75129747991E+03  0.10100000352E+00 0. -1.
       -3    1    3    3    0  502 -0.30535954910E+03  0.13336370426E+03 -0.35285346927E+01  0.33323083980E+03  0.10100000352E+00 0.  1.
</event>
<event>
 5   0  0.2635243E-02  0.7866238E+03  0.7818609E-02  0.9579583E-01
       -1   -1    0    0    0  501  0.00000000000E+00  0.00000000000E+00  0.33465592113E+03  0.33465592117E+03  0.50400001928E-02 0. -1.
        1   -1    0    0  501    0  0.00000000000E+00  0.00000000000E+00 -0.46224861368E+03  0.46224861371E+03  0.50400001928E-02 0.  1.
    10030    2    1    2    0    0  0.00000000000E+00  0.00000000000E+00 -0.12759269255E+03  0.79690453488E+03  0.78662376173E+03 0.  0.
        1    1    3    3  502    0  0.66334500675E+02  0.28771022569E+02  0.32786501648E+03  0.33574321553E+03  0.50400001928E-02 0. -1.
       -1    1    3    3    0  502 -0.66334500675E+02 -0.28771022569E+02 -0.45545770903E+03  0.46116131935E+03  0.50400001928E-02 0.  1.
</event>
<event>
 5   0  0.4377843E-02  0.8804990E+03  0.7818609E-02  0.9450292E-01
        2   -1    0    0  501    0  0.00000000000E+00  0.00000000000E+00  0.37113850146E+03  0.37113850147E+03  0.25500000920E-02 0. -1.
       -2   -1    0    0    0  501  0.00000000000E+00  0.00000000000E+00 -0.52222990187E+03  0.52222990188E+03  0.25500000920E-02 0.  1.
    10030    2    1    2    0    0  0.00000000000E+00  0.00000000000E+00 -0.15109140041E+03  0.89336840335E+03  0.88049900217E+03 0.  0.
        2    1    3    3  502    0 -0.20849153263E+03  0.18250165395E+03 -0.42266310588E+03  0.50539061521E+03  0.25500000920E-02 0. -1.
       -2    1    3    3    0  502  0.20849153263E+03 -0.18250165395E+03  0.27157170547E+03  0.38797778814E+03  0.25500000920E-02 0.  1.
</event>
<event>
 5   0  0.2635243E-02  0.6824606E+03  0.7818609E-02  0.9747706E-01
       -1   -1    0    0    0  501  0.00000000000E+00  0.00000000000E+00  0.20179827206E+04  0.20179827206E+04  0.50400001928E-02 0.  1.
        1   -1    0    0  501    0  0.00000000000E+00  0.00000000000E+00 -0.57700250741E+02  0.57700250961E+02  0.50400001928E-02 0. -1.
    10030    2    1    2    0    0  0.00000000000E+00  0.00000000000E+00  0.19602824698E+04  0.20756829715E+04  0.68246057528E+03 0.  0.
        1    1    3    3  502    0  0.68493281089E+02 -0.16314949428E+02  0.19956486696E+04  0.19968903625E+04  0.50400001928E-02 0.  1.
       -1    1    3    3    0  502 -0.68493281089E+02  0.16314949428E+02 -0.35366199800E+02  0.78792609062E+02  0.50400001928E-02 0. -1.
</event>
<event>
 5   0  0.2769394E-02  0.7231974E+03  0.7818609E-02  0.9678364E-01
        1   -1    0    0  501    0  0.00000000000E+00  0.00000000000E+00  0.10126994702E+04  0.10126994703E+04  0.50400001928E-02 0.  1.
       -1   -1    0    0    0  501  0.00000000000E+00  0.00000000000E+00 -0.12911395876E+03  0.12911395886E+03  0.50400001928E-02 0. -1.
    10030    2    1    2    0    0  0.00000000000E+00  0.00000000000E+00  0.88358551149E+03  0.11418134291E+04  0.72319744939E+03 0.  0.
        2    1    3    3  502    0  0.44952326230E+02  0.12573896800E+02  0.10079228330E+04  0.10090030980E+04  0.25500000920E-02 0.  1.
       -2    1    3    3    0  502 -0.44952326230E+02 -0.12573896800E+02 -0.12433732152E+03  0.13281033109E+03  0.25500000920E-02 0. -1.
</event>
<event>
 5   0  0.4663634E-02  0.8199889E+03  0.7818609E-02  0.9531526E-01
        2   -1    0    0  501    0  0.00000000000E+00  0.00000000000E+00  0.99945849621E+03  0.99945849622E+03  0.25500000920E-02 0.  1.
       -2   -1    0    0    0  501  0.00000000000E+00  0.00000000000E+00 -0.16818653132E+03  0.16818653133E+03  0.25500000920E-02 0. -1.
    10030    2    1    2    0    0  0.00000000000E+00  0.00000000000E+00  0.83127196490E+03  0.11676450276E+04  0.81998892111E+03 0.  0.
        5    1    3    3  502    0 -0.15210445507E+03 -0.30023586451E+03  0.82303689806E+02  0.34651598368E+03  0.46999998093E+01 0. -1.
       -5    1    3    3    0  502  0.15210445507E+03  0.30023586451E+03  0.74896827509E+03  0.82112904387E+03  0.46999998093E+01 0.  1.
</event>
<event>
 5   0  0.2635243E-02  0.8014689E+03  0.7818609E-02  0.9557893E-01
       -1   -1    0    0    0  501  0.00000000000E+00  0.00000000000E+00  0.87159838368E+03  0.87159838370E+03  0.50400001928E-02 0.  1.
        1   -1    0    0  501    0  0.00000000000E+00  0.00000000000E+00 -0.18424552948E+03  0.18424552955E+03  0.50400001928E-02 0. -1.
    10030    2    1    2    0    0  0.00000000000E+00  0.00000000000E+00  0.68735285420E+03  0.10558439132E+04  0.80146891578E+03 0.  0.
        1    1    3    3  502    0  0.26126372850E+03  0.20623840508E+03  0.63764865167E+03  0.71929744791E+03  0.50400001928E-02 0.  1.
       -1    1    3    3    0  502 -0.26126372850E+03 -0.20623840508E+03  0.49704202529E+02  0.33654646534E+03  0.50400001928E-02 0. -1.
</event>
<event>
 5   0  0.4700220E-02  0.7963618E+03  0.7818609E-02  0.9565298E-01
       -2   -1    0    0    0  501  0.00000000000E+00  0.00000000000E+00  0.76469151908E+03  0.76469151908E+03  0.25500000920E-02 0.  1.
        2   -1    0    0  501    0  0.00000000000E+00  0.00000000000E+00 -0.20733594347E+03  0.20733594349E+03  0.25500000920E-02 0. -1.
    10030    2    1    2    0    0  0.00000000000E+00  0.00000000000E+00  0.55735557560E+03  0.97202746257E+03  0.79636182124E+03 0.  0.
        4    1    3    3  502    0 -0.21570141484E+02  0.33513406955E+03  0.53979833597E+03  0.63573891810E+03  0.12699999809E+01 0.  1.
       -4    1    3    3    0  502  0.21570141484E+02 -0.33513406955E+03  0.17557239635E+02  0.33628854446E+03  0.12699999809E+01 0. -1.
</event>
<event>
 5   0  0.2606520E-02  0.7950423E+03  0.7818609E-02  0.9567221E-01
        1   -1    0    0  501    0  0.00000000000E+00  0.00000000000E+00  0.18062635553E+04  0.18062635554E+04  0.50400001928E-02 0. -1.
       -1   -1    0    0    0  501  0.00000000000E+00  0.00000000000E+00 -0.87486159826E+02  0.87486159971E+02  0.50400001928E-02 0.  1.
    10030    2    1    2    0    0  0.00000000000E+00  0.00000000000E+00  0.17187773955E+04  0.18937497153E+04  0.79504229380E+03 0.  0.
        5    1    3    3  502    0 -0.95987175376E+02 -0.13855643666E+03  0.17168555420E+04  0.17251163631E+04  0.46999998093E+01 0. -1.
       -5    1    3    3    0  502  0.95987175376E+02  0.13855643666E+03  0.19218535126E+01  0.16863335226E+03  0.46999998093E+01 0.  1.
</event>
<event>
 5   0  0.4590462E-02  0.8138842E+03  0.7818609E-02  0.9540135E-01
       -2   -1    0    0    0  501  0.00000000000E+00  0.00000000000E+00  0.14021456581E+03  0.14021456583E+03  0.25500000920E-02 0. -1.
        2   -1    0    0  501    0  0.00000000000E+00  0.00000000000E+00 -0.11810605094E+04  0.11810605094E+04  0.25500000920E-02 0.  1.
    10030    2    1    2    0    0  0.00000000000E+00  0.00000000000E+00 -0.10408459436E+04  0.13212750752E+04  0.81388423388E+03 0.  0.
        3    1    3    3  502    0 -0.28962986791E+03 -0.20225658328E+03 -0.19247349969E+03  0.40229248582E+03  0.10100000352E+00 0. -1.
       -3    1    3    3    0  502  0.28962986791E+03  0.20225658328E+03 -0.84837244391E+03  0.91898258942E+03  0.10100000352E+00 0.  1.
</event>
<event>
 5   0  0.4663634E-02  0.7881303E+03  0.7818609E-02  0.9577359E-01
        2   -1    0    0  501    0  0.00000000000E+00  0.00000000000E+00  0.68615750667E+03  0.68615750667E+03  0.25500000920E-02 0. -1.
       -2   -1    0    0    0  501  0.00000000000E+00  0.00000000000E+00 -0.22631440342E+03  0.22631440343E+03  0.25500000920E-02 0.  1.
    10030    2    1    2    0    0  0.00000000000E+00  0.00000000000E+00  0.45984310325E+03  0.91247191011E+03  0.78813026026E+03 0.  0.
        5    1    3    3  502    0 -0.38521914755E+03 -0.81884990300E+02  0.21499157440E+03  0.44871194584E+03  0.46999998093E+01 0. -1.
       -5    1    3    3    0  502  0.38521914755E+03  0.81884990300E+02  0.24485152885E+03  0.46375996427E+03  0.46999998093E+01 0.  1.
</event>
<event>
 5   0  0.2759559E-02  0.7873455E+03  0.7818609E-02  0.9578517E-01
       -1   -1    0    0    0  501  0.00000000000E+00  0.00000000000E+00  0.18521403715E+03  0.18521403722E+03  0.50400001928E-02 0. -1.
        1   -1    0    0  501    0  0.00000000000E+00  0.00000000000E+00 -0.83675217597E+03  0.83675217599E+03  0.50400001928E-02 0.  1.
    10030    2    1    2    0    0  0.00000000000E+00  0.00000000000E+00 -0.65153813882E+03  0.10219662132E+04  0.78734553698E+03 0.  0.
        3    1    3    3  502    0 -0.39277791757E+03 -0.11650976085E+02 -0.29483439182E+03  0.49126119995E+03  0.10100000352E+00 0. -1.
       -3    1    3    3    0  502  0.39277791757E+03  0.11650976085E+02 -0.35670374701E+03  0.53070501326E+03  0.10100000352E+00 0.  1.
</event>
<event>
 5   0  0.4377843E-02  0.7729869E+03  0.7818609E-02  0.9599962E-01
        2   -1    0    0  501    0  0.00000000000E+00  0.00000000000E+00  0.33742202744E+03  0.33742202745E+03  0.25500000920E-02 0.  1.
       -2   -1    0    0    0  501  0.00000000000E+00  0.00000000000E+00 -0.44270136576E+03  0.44270136576E+03  0.25500000920E-02 0. -1.
    10030    2    1    2    0    0  0.00000000000E+00  0.00000000000E+00 -0.10527933832E+03  0.78012339321E+03  0.77298691423E+03 0.  0.
        2    1    3    3  502    0 -0.20960673551E+03 -0.16903214554E+03  0.22717505738E+03  0.35230009438E+03  0.25500000920E-02 0.  1.
       -2    1    3    3    0  502  0.20960673551E+03  0.16903214554E+03 -0.33245439570E+03  0.42782329883E+03  0.25500000920E-02 0. -1.
</event>
<event>
 5   0  0.4700220E-02  0.8353136E+03  0.7818609E-02  0.9510263E-01
       -2   -1    0    0    0  501  0.00000000000E+00  0.00000000000E+00  0.11717453451E+03  0.11717453454E+03  0.25500000920E-02 0. -1.
        2   -1    0    0  501    0  0.00000000000E+00  0.00000000000E+00 -0.14886954452E+04  0.14886954452E+04  0.25500000920E-02 0.  1.
    10030    2    1    2    0    0  0.00000000000E+00  0.00000000000E+00 -0.13715209107E+04  0.16058699798E+04  0.83531358387E+03 0.  0.
        4    1    3    3  502    0  0.33369275106E+03 -0.22166059481E+03 -0.45868596190E+03  0.60899810832E+03  0.12699999809E+01 0. -1.
       -4    1    3    3    0  502 -0.33369275106E+03  0.22166059481E+03 -0.91283494881E+03  0.99687187144E+03  0.12699999809E+01 0.  1.
</event>
<event>
 5   0  0.4700220E-02  0.8033126E+03  0.7818609E-02  0.9555235E-01
        2   -1    0    0  501    0  0.00000000000E+00  0.00000000000E+00  0.11852243598E+04  0.11852243598E+04  0.25500000920E-02 0.  1.
       -2   -1    0    0    0  501  0.00000000000E+00  0.00000000000E+00 -0.13611582534E+03  0.13611582536E+03  0.25500000920E-02 0. -1.
    10030    2    1    2    0    0  0.00000000000E+00  0.00000000000E+00  0.10491085345E+04  0.13213401852E+04  0.80331262150E+03 0.  0.
        4    1    3    3  502    0 -0.83937636860E+02  0.39098028627E+03  0.58642976371E+03  0.70979757100E+03  0.12699999809E+01 0. -1.
       -4    1    3    3    0  502  0.83937636860E+02 -0.39098028627E+03  0.46267877075E+03  0.61154261416E+03  0.12699999809E+01 0.  1.
</event>
<event>
 5   0  0.2689372E-02  0.8165143E+03  0.7818609E-02  0.9536416E-01
       -1   -1    0    0    0  501  0.00000000000E+00  0.00000000000E+00  0.10343378819E+03  0.10343378832E+03  0.50400001928E-02 0.  1.
        1   -1    0    0  501    0  0.00000000000E+00  0.00000000000E+00 -0.16114067908E+04  0.16114067908E+04  0.50400001928E-02 0. -1.
    10030    2    1    2    0    0  0.00000000000E+00  0.00000000000E+00 -0.15079730026E+04  0.17148405791E+04  0.81651432028E+03 0.  0.
        4    1    3    3  502    0 -0.15891143610E+03  0.35336459714E+03 -0.48377914991E+03  0.61980905271E+03  0.12699999809E+01 0.  1.
       -4    1    3    3    0  502  0.15891143610E+03 -0.35336459714E+03 -0.10241938527E+04  0.10950315264E+04  0.12699999809E+01 0. -1.
</event>
<event>
 5   0  0.2759559E-02  0.7389986E+03  0.7818609E-02  0.9652770E-01
       -1   -1    0    0    0  501  0.00000000000E+00  0.00000000000E+00  0.66243455029E+03  0.66243455031E+03  0.50400001928E-02 0.  1.
        1   -1    0    0  501    0  0.00000000000E+00  0.00000000000E+00 -0.20610297964E+03  0.20610297970E+03  0.50400001928E-02 0. -1.
    10030    2    1    2    0    0  0.00000000000E+00  0.00000000000E+00  0.45633157065E+03  0.86853753001E+03  0.73899860532E+03 0.  0.
        3    1    3    3  502    0 -0.19010142442E+03  0.21201431793E+03  0.50489875091E+03  0.57966488719E+03  0.10100000352E+00 0.  1.
       -3    1    3    3    0  502  0.19010142442E+03 -0.21201431793E+03 -0.48567180258E+02  0.28887264282E+03  0.10100000352E+00 0. -1.
</event>
<event>
 5   0  0.2635243E-02  0.8027015E+03  0.7818609E-02  0.9556115E-01
        1   -1    0    0  501    0  0.00000000000E+00  0.00000000000E+00  0.50581449537E+03  0.50581449539E+03  0.50400001928E-02 0.  1.
       -1   -1    0    0    0  501  0.00000000000E+00  0.00000000000E+00 -0.31846149736E+03  0.31846149740E+03  0.50400001928E-02 0. -1.
    10030    2    1    2    0    0  0.00000000000E+00  0.00000000000E+00  0.18735299800E+03  0.82427599279E+03  0.80270154257E+03 0.  0.
        1    1    3    3  502    0  0.47727021868E+02 -0.69427079428E+02  0.49663190976E+03  0.50372734866E+03  0.50400001928E-02 0.  1.
       -1    1    3    3    0  502 -0.47727021868E+02  0.69427079428E+02 -0.30927891175E+03  0.32054864413E+03  0.50400001928E-02 0. -1.
</event>
<event>
 5   0  0.2689372E-02  0.7582674E+03  0.7818609E-02  0.9622469E-01
        1   -1    0    0  501    0  0.00000000000E+00  0.00000000000E+00  0.49793990094E+03  0.49793990097E+03  0.50400001928E-02 0. -1.
       -1   -1    0    0    0  501  0.00000000000E+00  0.00000000000E+00 -0.28867409959E+03  0.28867409963E+03  0.50400001928E-02 0.  1.
    10030    2    1    2    0    0  0.00000000000E+00  0.00000000000E+00  0.20926580135E+03  0.78661400060E+03  0.75826737390E+03 0.  0.
        4    1    3    3  502    0  0.33454221642E+02 -0.27920803039E+03 -0.15916542246E+03  0.32312776697E+03  0.12699999809E+01 0.  1.
       -4    1    3    3    0  502 -0.33454221642E+02  0.27920803039E+03  0.36843122381E+03  0.46348623363E+03  0.12699999809E+01 0. -1.
</event>
<event>
 5   0  0.2635243E-02  0.6753750E+03  0.7818609E-02  0.9760296E-01
        1   -1    0    0  501    0  0.00000000000E+00  0.00000000000E+00  0.26712613036E+03  0.26712613041E+03  0.50400001928E-02 0.  1.
       -1   -1    0    0    0  501  0.00000000000E+00  0.00000000000E+00 -0.42688766943E+03  0.42688766946E+03  0.50400001928E-02 0. -1.
    10030    2    1    2    0    0  0.00000000000E+00  0.00000000000E+00 -0.15976153907E+03  0.69401379986E+03  0.67537501067E+03 0.  0.
        1    1    3    3  502    0 -0.34849684213E+02 -0.33578306678E+03 -0.71401824177E+02  0.34505505206E+03  0.50400001928E-02 0.  1.
       -1    1    3    3    0  502  0.34849684213E+02  0.33578306678E+03 -0.88359714888E+02  0.34895874781E+03  0.50400001928E-02 0. -1.
</event>
<event>
 5   0  0.4377843E-02  0.7000280E+03  0.7818609E-02  0.9717184E-01
       -2   -1    0    0    0  501  0.00000000000E+00  0.00000000000E+00  0.96322686976E+02  0.96322687010E+02  0.25500000920E-02 0.  1.
        2   -1    0    0  501    0  0.00000000000E+00  0.00000000000E+00 -0.12718687037E+04  0.12718687037E+04  0.25500000920E-02 0. -1.
    10030    2    1    2    0    0  0.00000000000E+00  0.00000000000E+00 -0.11755460167E+04  0.13681913907E+04  0.70002803099E+03 0.  0.
        2    1    3    3  502    0  0.50495573791E+02  0.47766407047E+02 -0.12582436414E+04  0.12601620903E+04  0.25500000920E-02 0. -1.
       -2    1    3    3    0  502 -0.50495573791E+02 -0.47766407047E+02  0.82697624694E+02  0.10802930043E+03  0.25500000920E-02 0.  1.
</event>
<event>
 5   0  0.2689372E-02  0.8124605E+03  0.7818609E-02  0.9542154E-01
        1   -1    0    0  501    0  0.00000000000E+00  0.00000000000E+00  0.38314411404E+03  0.38314411408E+03  0.50400001928E-02 0.  1.
       -1   -1    0    0    0  501  0.00000000000E+00  0.00000000000E+00 -0.43070739802E+03  0.43070739805E+03  0.50400001928E-02 0. -1.
    10030    2    1    2    0    0  0.00000000000E+00  0.00000000000E+00 -0.47563283974E+02  0.81385151212E+03  0.81246047153E+03 0.  0.
        4    1    3    3  502    0 -0.21571752127E+03 -0.10006214998E+03  0.30613755068E+03  0.38764454811E+03  0.12699999809E+01 0.  1.
       -4    1    3    3    0  502  0.21571752127E+03  0.10006214998E+03 -0.35370083465E+03  0.42620696402E+03  0.12699999809E+01 0. -1.
</event>
<event>
 5   0  0.4377843E-02  0.7713015E+03  0.7818609E-02  0.9602512E-01
        2   -1    0    0  501    0  0.00000000000E+00  0.00000000000E+00  0.79636728173E+03  0.79636728173E+03  0.25500000920E-02 0. -1.
       -2   -1    0    0    0  501  0.00000000000E+00  0.00000000000E+00 -0.18675615096E+03  0.18675615098E+03  0.25500000920E-02 0.  1.
    10030    2    1    2    0    0  0.00000000000E+00  0.00000000000E+00  0.60961113077E+03  0.98312343271E+03  0.77130146712E+03 0.  0.
        2    1    3    3  502    0  0.27455850687E+02  0.26237246035E+03  0.66336708846E+03  0.71389706944E+03  0.25500000920E-02 0. -1.
       -2    1    3    3    0  502 -0.27455850687E+02 -0.26237246035E+03 -0.53755957694E+02  0.26922636327E+03  0.25500000920E-02 0.  1.
</event>
<event>
 5   0  0.2635243E-02  0.8018309E+03  0.7818609E-02  0.9557371E-01
        1   -1    0    0  501    0  0.00000000000E+00  0.00000000000E+00  0.71462104526E+03  0.71462104528E+03  0.50400001928E-02 0. -1.
       -1   -1    0    0    0  501  0.00000000000E+00  0.00000000000E+00 -0.22492086903E+03  0.22492086909E+03  0.50400001928E-02 0.  1.
    10030    2    1    2    0    0  0.00000000000E+00  0.00000000000E+00  0.48970017623E+03  0.93954191437E+03  0.80183087135E+03 0.  0.
        1    1    3    3  502    0  0.15082299050E+02  0.21643651214E+03 -0.15018804615E+03  0.26387248580E+03  0.50400001928E-02 0.  1.
       -1    1    3    3    0  502 -0.15082299050E+02 -0.21643651214E+03  0.63988822238E+03  0.67566942856E+03  0.50400001928E-02 0. -1.
</event>
<event>
 5   0  0.2759559E-02  0.8025408E+03  0.7818609E-02  0.9556347E-01
       -1   -1    0    0    0  501  0.00000000000E+00  0.00000000000E+00  0.63935179903E+03  0.63935179905E+03  0.50400001928E-02 0.  1.
        1   -1    0    0  501    0  0.00000000000E+00  0.00000000000E+00 -0.25184560152E+03  0.25184560157E+03  0.50400001928E-02 0. -1.
    10030    2    1    2    0    0  0.00000000000E+00  0.00000000000E+00  0.38750619751E+03  0.89119740062E+03  0.80254081128E+03 0.  0.
        3    1    3    3  502    0  0.34831637179E+03 -0.19660088907E+03  0.15791185457E+03  0.43001438169E+03  0.10100000352E+00 0.  1.
       -3    1    3    3    0  502 -0.34831637179E+03  0.19660088907E+03  0.22959434294E+03  0.46118301894E+03  0.10100000352E+00 0. -1.
</event>
<event>
 5   0  0.4377843E-02  0.7861478E+03  0.7818609E-02  0.9580287E-01
       -2   -1    0    0    0  501  0.00000000000E+00  0.00000000000E+00  0.72754136052E+03  0.72754136052E+03  0.25500000920E-02 0. -1.
        2   -1    0    0  501    0  0.00000000000E+00  0.00000000000E+00 -0.21236880154E+03  0.21236880155E+03  0.25500000920E-02 0.  1.
    10030    2    1    2    0    0  0.00000000000E+00  0.00000000000E+00  0.51517255898E+03  0.93991016208E+03  0.78614778970E+03 0.  0.
        2    1    3    3  502    0  0.25709484374E+02 -0.16459097281E+03 -0.16807708634E+03  0.23664545818E+03  0.25500000920E-02 0.  1.
       -2    1    3    3    0  502 -0.25709484374E+02  0.16459097281E+03  0.68324964532E+03  0.70326470390E+03  0.25500000920E-02 0. -1.
</event>
<event>
 5   0  0.4590462E-02  0.7261138E+03  0.7818609E-02  0.9673588E-01
       -2   -1    0    0    0  501  0.00000000000E+00  0.00000000000E+00  0.30928839851E+03  0.30928839852E+03  0.25500000920E-02 0.  1.
        2   -1    0    0  501    0  0.00000000000E+00  0.00000000000E+00 -0.42617288193E+03  0.42617288193E+03  0.25500000920E-02 0. -1.
    10030    2    1    2    0    0  0.00000000000E+00  0.00000000000E+00 -0.11688448341E+03  0.73546128046E+03  0.72611384272E+03 0.  0.
        3    1    3    3  502    0 -0.27351441718E+03 -0.19869195648E+03 -0.19251577922E+03  0.38903851406E+03  0.10100000352E+00 0. -1.
       -3    1    3    3    0  502  0.27351441718E+03  0.19869195648E+03  0.75631295804E+02  0.34642276640E+03  0.10100000352E+00 0.  1.
</event>
<event>
 5   0  0.4663634E-02  0.7885675E+03  0.7818609E-02  0.9576714E-01
        2   -1    0    0  501    0  0.00000000000E+00  0.00000000000E+00  0.43810872158E+03  0.43810872159E+03  0.25500000920E-02 0. -1.
       -2   -1    0    0    0  501  0.00000000000E+00  0.00000000000E+00 -0.35484272864E+03  0.35484272865E+03  0.25500000920E-02 0.  1.
    10030    2    1    2    0    0  0.00000000000E+00  0.00000000000E+00  0.83265992944E+02  0.79295145023E+03  0.78856754742E+03 0.  0.
        5    1    3    3  502    0 -0.30068100014E+03 -0.77015226151E+02  0.28608361057E+03  0.42214491722E+03  0.46999998093E+01 0. -1.
       -5    1    3    3    0  502  0.30068100014E+03  0.77015226151E+02 -0.20281761763E+03  0.37080653301E+03  0.46999998093E+01 0.  1.
</event>
<event>
 5   0  0.2689372E-02  0.7910438E+03  0.7818609E-02  0.9573072E-01
       -1   -1    0    0    0  501  0.00000000000E+00  0.00000000000E+00  0.21902919591E+03  0.21902919597E+03  0.50400001928E-02 0.  1.
        1   -1    0    0  501    0  0.00000000000E+00  0.00000000000E+00 -0.71423156378E+03  0.71423156379E+03  0.50400001928E-02 0. -1.
    10030    2    1    2    0    0  0.00000000000E+00  0.00000000000E+00 -0.49520236787E+03  0.93326075976E+03  0.79104377917E+03 0.  0.
        4    1    3    3  502    0 -0.13426531819E+02  0.29173074622E+03  0.67091346990E+02  0.29964973183E+03  0.12699999809E+01 0.  1.
       -4    1    3    3    0  502  0.13426531819E+02 -0.29173074622E+03 -0.56229371486E+03  0.63361102793E+03  0.12699999809E+01 0. -1.
</event>
<event>
 5   0  0.2635243E-02  0.7856993E+03  0.7818609E-02  0.9580951E-01
       -1   -1    0    0    0  501  0.00000000000E+00  0.00000000000E+00  0.26614050733E+03  0.26614050738E+03  0.50400001928E-02 0. -1.
        1   -1    0    0  501    0  0.00000000000E+00  0.00000000000E+00 -0.57988491530E+03  0.57988491532E+03  0.50400001928E-02 0.  1.
    10030    2    1    2    0    0  0.00000000000E+00  0.00000000000E+00 -0.31374440797E+03  0.84602542270E+03  0.78569934601E+03 0.  0.
        1    1    3    3  502    0 -0.30940988989E+03  0.22245593522E+03 -0.54098958328E+02  0.38489975369E+03  0.50400001928E-02 0. -1.
       -1    1    3    3    0  502  0.30940988989E+03 -0.22245593522E+03 -0.25964544964E+03  0.46112566901E+03  0.50400001928E-02 0.  1.
</event>
<event>
 5   0  0.2759559E-02  0.7797624E+03  0.7818609E-02  0.9589781E-01
       -1   -1    0    0    0  501  0.00000000000E+00  0.00000000000E+00  0.31252090232E+03  0.31252090236E+03  0.50400001928E-02 0.  1.
        1   -1    0    0  501    0  0.00000000000E+00  0.00000000000E+00 -0.48639095041E+03  0.48639095044E+03  0.50400001928E-02 0. -1.
    10030    2    1    2    0    0  0.00000000000E+00  0.00000000000E+00 -0.17387004809E+03  0.79891185280E+03  0.77976237080E+03 0.  0.
        3    1    3    3  502    0  0.36787787755E+03  0.88567768053E+02 -0.18320503611E+03  0.42040751395E+03  0.10100000352E+00 0. -1.
       -3    1    3    3    0  502 -0.36787787755E+03 -0.88567768053E+02  0.93349880161E+01  0.37850433885E+03  0.10100000352E+00 0.  1.
</event>
<event>
 5   0  0.4590462E-02  0.8020164E+03  0.7818609E-02  0.9557103E-01
       -2   -1    0    0    0  501  0.00000000000E+00  0.00000000000E+00  0.39090506896E+03  0.39090506897E+03  0.25500000920E-02 0.  1.
        2   -1    0    0  501    0  0.00000000000E+00  0.00000000000E+00 -0.41137244868E+03  0.41137244869E+03  0.25500000920E-02 0. -1.
    10030    2    1    2    0    0  0.00000000000E+00  0.00000000000E+00 -0.20467379719E+02  0.80227751766E+03  0.80201639740E+03 0.  0.
        3    1    3    3  502    0  0.21624902333E+03 -0.12626643412E+02 -0.34781132840E+03  0.40975090308E+03  0.10100000352E+00 0. -1.
       -3    1    3    3    0  502 -0.21624902333E+03  0.12626643412E+02  0.32734394868E+03  0.39252661458E+03  0.10100000352E+00 0.  1.
</event>
<event>
 5   0  0.4377843E-02  0.8031844E+03  0.7818609E-02  0.9555419E-01
       -2   -1    0    0    0  501  0.00000000000E+00  0.00000000000E+00  0.22185977729E+03  0.22185977731E+03  0.25500000920E-02 0.  1.
        2   -1    0    0  501    0  0.00000000000E+00  0.00000000000E+00 -0.72692898339E+03  0.72692898339E+03  0.25500000920E-02 0. -1.
    10030    2    1    2    0    0  0.00000000000E+00  0.00000000000E+00 -0.50506920609E+03  0.94878876070E+03  0.80318441810E+03 0.  0.
        2    1    3    3  502    0 -0.18297615975E+03 -0.35741653071E+03 -0.24422765759E+03  0.46997233983E+03  0.25500000920E-02 0.  1.
       -2    1    3    3    0  502  0.18297615975E+03  0.35741653071E+03 -0.26084154850E+03  0.47881642087E+03  0.25500000920E-02 0. -1.
</event>
<event>
 5   0  0.1786500E-02  0.8181614E+03  0.7818609E-02  0.9534095E-01
       -4   -1    0    0    0  501  0.00000000000E+00  0.00000000000E+00  0.74344034028E+03  0.74344142504E+03  0.12699999809E+01 0. -1.
        4   -1    0    0  501    0  0.00000000000E+00  0.00000000000E+00 -0.22509508866E+03  0.22509867134E+03  0.12699999809E+01 0.  1.
    10030    2    1    2    0    0  0.00000000000E+00  0.00000000000E+00  0.51834525162E+03  0.96854009638E+03  0.81816142564E+03 0.  0.
        5    1    3    3  502    0  0.90442848613E+02  0.50184735628E+02 -0.20932916853E+03  0.23353630842E+03  0.46999998093E+01 0.  1.
       -5    1    3    3    0  502 -0.90442848613E+02 -0.50184735628E+02  0.72767442016E+03  0.73500378795E+03  0.46999998093E+01 0. -1.
</event>
<event>
 5   0  0.2769394E-02  0.8036633E+03  0.7818609E-02  0.9554730E-01
       -1   -1    0    0    0  501  0.00000000000E+00  0.00000000000E+00  0.11751263861E+03  0.11751263872E+03  0.50400001928E-02 0.  1.
        1   -1    0    0  501    0  0.00000000000E+00  0.00000000000E+00 -0.13740535951E+04  0.13740535951E+04  0.50400001928E-02 0. -1.
    10030    2    1    2    0    0  0.00000000000E+00  0.00000000000E+00 -0.12565409565E+04  0.14915662338E+04  0.80366327188E+03 0.  0.
        2    1    3    3  502    0 -0.26292970736E+03 -0.22418716481E+03 -0.24756466858E+03  0.42506491388E+03  0.25500000920E-02 0.  1.
       -2    1    3    3    0  502  0.26292970736E+03  0.22418716481E+03 -0.10089762879E+04  0.10665013199E+04  0.25500000920E-02 0. -1.
</event>
<event>
 5   0  0.4684283E-02  0.8212528E+03  0.7818609E-02  0.9529754E-01
        2   -1    0    0  501    0  0.00000000000E+00  0.00000000000E+00  0.61074419704E+03  0.61074419705E+03  0.25500000920E-02 0. -1.
       -2   -1    0    0    0  501  0.00000000000E+00  0.00000000000E+00 -0.27607965484E+03  0.27607965485E+03  0.25500000920E-02 0.  1.
    10030    2    1    2    0    0  0.00000000000E+00  0.00000000000E+00  0.33466454221E+03  0.88682385190E+03  0.82125281642E+03 0.  0.
        1    1    3    3  502    0 -0.28402432871E+03 -0.46823939586E+02 -0.14888237433E+03  0.32408064125E+03  0.50400001928E-02 0.  1.
       -1    1    3    3    0  502  0.28402432871E+03  0.46823939586E+02  0.48354691654E+03  0.56274321065E+03  0.50400001928E-02 0. -1.
</event>
<event>
 5   0  0.2759559E-02  0.8166352E+03  0.7818609E-02  0.9536246E-01
        1   -1    0    0  501    0  0.00000000000E+00  0.00000000000E+00  0.57353687771E+03  0.57353687774E+03  0.50400001928E-02 0.  1.
       -1   -1    0    0    0  501  0.00000000000E+00  0.00000000000E+00 -0.29069319719E+03  0.29069319723E+03  0.50400001928E-02 0. -1.
    10030    2    1    2    0    0  0.00000000000E+00  0.00000000000E+00  0.28284368053E+03  0.86423007497E+03  0.81663521530E+03 0.  0.
        3    1    3    3  502    0 -0.17187960086E+03  0.25686274112E+03 -0.14096727866E+03  0.33969522932E+03  0.10100000352E+00 0. -1.
       -3    1    3    3    0  502  0.17187960086E+03 -0.25686274112E+03  0.42381095919E+03  0.52453484565E+03  0.10100000352E+00 0.  1.
</event>
<event>
 5   0  0.4684283E-02  0.8071624E+03  0.7818609E-02  0.9549707E-01
        2   -1    0    0  501    0  0.00000000000E+00  0.00000000000E+00  0.55785413402E+03  0.55785413402E+03  0.25500000920E-02 0. -1.
       -2   -1    0    0    0  501  0.00000000000E+00  0.00000000000E+00 -0.29197199199E+03  0.29197199200E+03  0.25500000920E-02 0.  1.
    10030    2    1    2    0    0  0.00000000000E+00  0.00000000000E+00  0.26588214202E+03  0.84982612603E+03  0.80716239446E+03 0.  0.
        1    1    3    3  502    0  0.42433806759E+02 -0.23413482279E+03  0.47614326684E+03  0.53228953942E+03  0.50400001928E-02 0. -1.
       -1    1    3    3    0  502 -0.42433806759E+02  0.23413482279E+03 -0.21026112482E+03  0.31753658660E+03  0.50400001928E-02 0.  1.
</event>
<event>
 5   0  0.1786500E-02  0.7987842E+03  0.7818609E-02  0.9561779E-01
       -4   -1    0    0    0  501  0.00000000000E+00  0.00000000000E+00  0.30603270767E+03  0.30603534284E+03  0.12699999809E+01 0. -1.
        4   -1    0    0  501    0  0.00000000000E+00  0.00000000000E+00 -0.52122642416E+03  0.52122797137E+03  0.12699999809E+01 0.  1.
    10030    2    1    2    0    0  0.00000000000E+00  0.00000000000E+00 -0.21519371648E+03  0.82726331421E+03  0.79878423584E+03 0.  0.
        5    1    3    3  502    0 -0.94444356636E+02 -0.87561140177E+02 -0.49910285984E+03  0.51547302981E+03  0.46999998093E+01 0.  1.
       -5    1    3    3    0  502  0.94444356636E+02  0.87561140177E+02  0.28390914335E+03  0.31179028440E+03  0.46999998093E+01 0. -1.
</event>
<event>
 5   0  0.2689372E-02  0.8004481E+03  0.7818609E-02  0.9559369E-01
        1   -1    0    0  501    0  0.00000000000E+00  0.00000000000E+00  0.14296687159E+04  0.14296687159E+04  0.50400001928E-02 0. -1.
       -1   -1    0    0    0  501  0.00000000000E+00  0.00000000000E+00 -0.11203945100E+03  0.11203945112E+03  0.50400001928E-02 0.  1.
    10030    2    1    2    0    0  0.00000000000E+00  0.00000000000E+00  0.13176292649E+04  0.15417081671E+04  0.80044811985E+03 0.  0.
        4    1    3    3  502    0  0.80139623321E+02 -0.35251448167E+03  0.32806602690E+03  0.48817799000E+03  0.12699999809E+01 0.  1.
       -4    1    3    3    0  502 -0.80139623321E+02  0.35251448167E+03  0.98956323803E+03  0.10535301771E+04  0.12699999809E+01 0. -1.
</event>
<event>
 5   0  0.4700220E-02  0.7953549E+03  0.7818609E-02  0.9566765E-01
       -2   -1    0    0    0  501  0.00000000000E+00  0.00000000000E+00  0.26612103586E+03  0.26612103587E+03  0.25500000920E-02 0.  1.
        2   -1    0    0  501    0  0.00000000000E+00  0.00000000000E+00 -0.59426854181E+03  0.59426854182E+03  0.25500000920E-02 0. -1.
    10030    2    1    2    0    0  0.00000000000E+00  0.00000000000E+00 -0.32814750595E+03  0.86038957769E+03  0.79535491432E+03 0.  0.
        4    1    3    3  502    0 -0.36372321879E+03  0.13049069612E+03 -0.62460393093E+02  0.39144005322E+03  0.12699999809E+01 0.  1.
       -4    1    3    3    0  502  0.36372321879E+03 -0.13049069612E+03 -0.26568711286E+03  0.46894952447E+03  0.12699999809E+01 0. -1.
</event>
<event>
 5   0  0.4377843E-02  0.8012760E+03  0.7818609E-02  0.9558172E-01
       -2   -1    0    0    0  501  0.00000000000E+00  0.00000000000E+00  0.32877718902E+03  0.32877718903E+03  0.25500000920E-02 0.  1.
        2   -1    0    0  501    0  0.00000000000E+00  0.00000000000E+00 -0.48820544528E+03  0.48820544529E+03  0.25500000920E-02 0. -1.
    10030    2    1    2    0    0  0.00000000000E+00  0.00000000000E+00 -0.15942825627E+03  0.81698263432E+03  0.80127601729E+03 0.  0.
        2    1    3    3  502    0 -0.21028863656E+03 -0.11804294581E+03 -0.40591565490E+03  0.47214718745E+03  0.25500000920E-02 0. -1.
       -2    1    3    3    0  502  0.21028863656E+03  0.11804294581E+03  0.24648739863E+03  0.34483544686E+03  0.25500000920E-02 0.  1.
</event>
<event>
 5   0  0.2606520E-02  0.8007417E+03  0.7818609E-02  0.9558944E-01
       -1   -1    0    0    0  501  0.00000000000E+00  0.00000000000E+00  0.38013166561E+03  0.38013166565E+03  0.50400001928E-02 0.  1.
        1   -1    0    0  501    0  0.00000000000E+00  0.00000000000E+00 -0.42168762571E+03  0.42168762574E+03  0.50400001928E-02 0. -1.
    10030    2    1    2    0    0  0.00000000000E+00  0.00000000000E+00 -0.41555960100E+02  0.80181929139E+03  0.80074170506E+03 0.  0.
        5    1    3    3  502    0 -0.34300398445E+02  0.22094279919E+03  0.31175700082E+03  0.38367532551E+03  0.46999998093E+01 0.  1.
       -5    1    3    3    0  502  0.34300398445E+02 -0.22094279919E+03 -0.35331296092E+03  0.41814396588E+03  0.46999998093E+01 0. -1.
</event>
<event>
 5   0  0.4663634E-02  0.7961501E+03  0.7818609E-02  0.9565606E-01
       -2   -1    0    0    0  501  0.00000000000E+00  0.00000000000E+00  0.11174916202E+03  0.11174916205E+03  0.25500000920E-02 0. -1.
        2   -1    0    0  501    0  0.00000000000E+00  0.00000000000E+00 -0.14180306601E+04  0.14180306601E+04  0.25500000920E-02 0.  1.
    10030    2    1    2    0    0  0.00000000000E+00  0.00000000000E+00 -0.13062814981E+04  0.15297798222E+04  0.79615008137E+03 0.  0.
        5    1    3    3  502    0 -0.27659047459E+03 -0.10524978780E+03 -0.14164715898E+03  0.32812469598E+03  0.46999998093E+01 0. -1.
       -5    1    3    3    0  502  0.27659047459E+03  0.10524978780E+03 -0.11646343391E+04  0.12016551262E+04  0.46999998093E+01 0.  1.
</event>
<event>
 5   0  0.4377843E-02  0.8002567E+03  0.7818609E-02  0.9559646E-01
        2   -1    0    0  501    0  0.00000000000E+00  0.00000000000E+00  0.12345260705E+04  0.12345260705E+04  0.25500000920E-02 0.  1.
       -2   -1    0    0    0  501  0.00000000000E+00  0.00000000000E+00 -0.12968758382E+03  0.12968758385E+03  0.25500000920E-02 0. -1.
    10030    2    1    2    0    0  0.00000000000E+00  0.00000000000E+00  0.11048384867E+04  0.13642136543E+04  0.80025671698E+03 0.  0.
        2    1    3    3  502    0  0.36913142259E+03  0.43902527311E+02  0.30004429939E+03  0.47771541806E+03  0.25500000920E-02 0. -1.
       -2    1    3    3    0  502 -0.36913142259E+03 -0.43902527311E+02  0.80479418726E+03  0.88649823626E+03  0.25500000920E-02 0.  1.
</event>
<event>
 5   0  0.1786500E-02  0.7823089E+03  0.7818609E-02  0.9585983E-01
       -4   -1    0    0    0  501  0.00000000000E+00  0.00000000000E+00  0.28711968561E+03  0.28712249436E+03  0.12699999809E+01 0. -1.
        4   -1    0    0  501    0  0.00000000000E+00  0.00000000000E+00 -0.53287892993E+03  0.53288044331E+03  0.12699999809E+01 0.  1.
    10030    2    1    2    0    0  0.00000000000E+00  0.00000000000E+00 -0.24575924431E+03  0.82000293767E+03  0.78230889783E+03 0.  0.
        4    1    3    3  502    0 -0.64414742399E+02 -0.14343846011E+03 -0.49829358118E+03  0.52251503023E+03  0.12699999809E+01 0.  1.
       -4    1    3    3    0  502  0.64414742399E+02  0.14343846011E+03  0.25253433686E+03  0.29748790744E+03  0.12699999809E+01 0. -1.
</event>
<event>
 5   0  0.2759559E-02  0.8348581E+03  0.7818609E-02  0.9510888E-01
        1   -1    0    0  501    0  0.00000000000E+00  0.00000000000E+00  0.91874865173E+03  0.91874865174E+03  0.50400001928E-02 0.  1.
       -1   -1    0    0    0  501  0.00000000000E+00  0.00000000000E+00 -0.18965689633E+03  0.18965689640E+03  0.50400001928E-02 0. -1.
    10030    2    1    2    0    0  0.00000000000E+00  0.00000000000E+00  0.72909175540E+03  0.11084055481E+04  0.83485811450E+03 0.  0.
        3    1    3    3  502    0  0.21311304934E+03 -0.20300231373E+03 -0.28449449097E+02  0.29569662245E+03  0.10100000352E+00 0.  1.
       -3    1    3    3    0  502 -0.21311304934E+03  0.20300231373E+03  0.75754120450E+03  0.81270892568E+03  0.10100000352E+00 0. -1.
</event>
<event>
 5   0  0.4684283E-02  0.8039362E+03  0.7818609E-02  0.9554337E-01
        2   -1    0    0  501    0  0.00000000000E+00  0.00000000000E+00  0.54674596028E+03  0.54674596028E+03  0.25500000920E-02 0. -1.
       -2   -1    0    0    0  501  0.00000000000E+00  0.00000000000E+00 -0.29552730229E+03  0.29552730230E+03  0.25500000920E-02 0.  1.
    10030    2    1    2    0    0  0.00000000000E+00  0.00000000000E+00  0.25121865799E+03  0.84227326259E+03  0.80393621311E+03 0.  0.
        1    1    3    3  502    0 -0.97260806749E+02 -0.95133197350E+02  0.52189031567E+03  0.53933244978E+03  0.50400001928E-02 0. -1.
       -1    1    3    3    0  502  0.97260806749E+02  0.95133197350E+02 -0.27067165768E+03  0.30294081281E+03  0.50400001928E-02 0.  1.
</event>
<event>
 5   0  0.2759559E-02  0.8011558E+03  0.7818609E-02  0.9558346E-01
       -1   -1    0    0    0  501  0.00000000000E+00  0.00000000000E+00  0.76721854986E+03  0.76721854987E+03  0.50400001928E-02 0.  1.
        1   -1    0    0  501    0  0.00000000000E+00  0.00000000000E+00 -0.20914854753E+03  0.20914854759E+03  0.50400001928E-02 0. -1.
    10030    2    1    2    0    0  0.00000000000E+00  0.00000000000E+00  0.55807000233E+03  0.97636709746E+03  0.80115577855E+03 0.  0.
        3    1    3    3  502    0 -0.23209690391E+03 -0.30319307984E+03  0.42663147161E+03  0.57254645160E+03  0.10100000352E+00 0.  1.
       -3    1    3    3    0  502  0.23209690391E+03  0.30319307984E+03  0.13143853072E+03  0.40382064586E+03  0.10100000352E+00 0. -1.
</event>
<event>
 5   0  0.4377843E-02  0.8684075E+03  0.7818609E-02  0.9465959E-01
        2   -1    0    0  501    0  0.00000000000E+00  0.00000000000E+00  0.38013709483E+03  0.38013709484E+03  0.25500000920E-02 0.  1.
       -2   -1    0    0    0  501  0.00000000000E+00  0.00000000000E+00 -0.49596024590E+03  0.49596024591E+03  0.25500000920E-02 0. -1.
    10030    2    1    2    0    0  0.00000000000E+00  0.00000000000E+00 -0.11582315107E+03  0.87609734075E+03  0.86840747817E+03 0.  0.
        2    1    3    3  502    0  0.27581180519E+03 -0.24627395434E+03 -0.28754498702E+03  0.46840701536E+03  0.25500000920E-02 0. -1.
       -2    1    3    3    0  502 -0.27581180519E+03  0.24627395434E+03  0.17172183595E+03  0.40769032539E+03  0.25500000920E-02 0.  1.
</event>
<event>
 5   0  0.4590462E-02  0.8006959E+03  0.7818609E-02  0.9559010E-01
       -2   -1    0    0    0  501  0.00000000000E+00  0.00000000000E+00  0.65455006414E+02  0.65455006463E+02  0.25500000920E-02 0.  1.
        2   -1    0    0  501    0  0.00000000000E+00  0.00000000000E+00 -0.24486817820E+04  0.24486817820E+04  0.25500000920E-02 0. -1.
    10030    2    1    2    0    0  0.00000000000E+00  0.00000000000E+00 -0.23832267756E+04  0.25141367885E+04  0.80069590185E+03 0.  0.
        3    1    3    3  502    0  0.71239211729E+02 -0.28847071154E+03 -0.34914883340E+03  0.45847060404E+03  0.10100000352E+00 0.  1.
       -3    1    3    3    0  502 -0.71239211729E+02  0.28847071154E+03 -0.20340779422E+04  0.20556661844E+04  0.10100000352E+00 0. -1.
</event>
<event>
 5   0  0.4684283E-02  0.8051520E+03  0.7818609E-02  0.9552590E-01
        2   -1    0    0  501    0  0.00000000000E+00  0.00000000000E+00  0.12515041154E+04  0.12515041154E+04  0.25500000920E-02 0.  1.
       -2   -1    0    0    0  501  0.00000000000E+00  0.00000000000E+00 -0.12949813462E+03  0.12949813464E+03  0.25500000920E-02 0. -1.
    10030    2    1    2    0    0  0.00000000000E+00  0.00000000000E+00  0.11220059808E+04  0.13810022500E+04  0.80515203143E+03 0.  0.
        1    1    3    3  502    0 -0.25668515841E+03  0.23528321483E+03  0.90755112180E+03  0.97205684013E+03  0.50400001928E-02 0.  1.
       -1    1    3    3    0  502  0.25668515841E+03 -0.23528321483E+03  0.21445485898E+03  0.40894540991E+03  0.50400001928E-02 0. -1.
</event>
<event>
 5   0  0.4663634E-02  0.8064315E+03  0.7818609E-02  0.9550754E-01
        2   -1    0    0  501    0  0.00000000000E+00  0.00000000000E+00  0.92232223199E+03  0.92232223199E+03  0.25500000920E-02 0. -1.
       -2   -1    0    0    0  501  0.00000000000E+00  0.00000000000E+00 -0.17627562232E+03  0.17627562234E+03  0.25500000920E-02 0.  1.
    10030    2    1    2    0    0  0.00000000000E+00  0.00000000000E+00  0.74604660967E+03  0.10985978543E+04  0.80643146127E+03 0.  0.
        5    1    3    3  502    0  0.95980073295E+02 -0.21462521339E+03  0.81923416526E+03  0.85231617620E+03  0.46999998093E+01 0. -1.
       -5    1    3    3    0  502 -0.95980073295E+02  0.21462521339E+03 -0.73187555584E+02  0.24628167813E+03  0.46999998093E+01 0.  1.
</event>
<event>
 5   0  0.2689372E-02  0.7969921E+03  0.7818609E-02  0.9564381E-01
       -1   -1    0    0    0  501  0.00000000000E+00  0.00000000000E+00  0.95173378512E+02  0.95173378645E+02  0.50400001928E-02 0.  1.
        1   -1    0    0  501    0  0.00000000000E+00  0.00000000000E+00 -0.16685242965E+04  0.16685242965E+04  0.50400001928E-02 0. -1.
    10030    2    1    2    0    0  0.00000000000E+00  0.00000000000E+00 -0.15733509180E+04  0.17636976752E+04  0.79699208165E+03 0.  0.
        4    1    3    3  502    0  0.18687542076E+03 -0.35014635508E+03 -0.70773235780E+03  0.81142565650E+03  0.12699999809E+01 0. -1.
       -4    1    3    3    0  502 -0.18687542076E+03  0.35014635508E+03 -0.86561856019E+03  0.95227201865E+03  0.12699999809E+01 0.  1.
</event>
<event>
 5   0  0.2606520E-02  0.8068217E+03  0.7818609E-02  0.9550195E-01
        1   -1    0    0  501    0  0.00000000000E+00  0.00000000000E+00  0.13666746582E+03  0.13666746591E+03  0.50400001928E-02 0.  1.
       -1   -1    0    0    0  501  0.00000000000E+00  0.00000000000E+00 -0.11907758873E+04  0.11907758873E+04  0.50400001928E-02 0. -1.
    10030    2    1    2    0    0  0.00000000000E+00  0.00000000000E+00 -0.10541084215E+04  0.13274433532E+04  0.80682172242E+03 0.  0.
        5    1    3    3  502    0  0.20273064518E+03  0.34788939523E+03 -0.56706812772E+03  0.69549629566E+03  0.46999998093E+01 0. -1.
       -5    1    3    3    0  502 -0.20273064518E+03 -0.34788939523E+03 -0.48704029378E+03  0.63194705757E+03  0.46999998093E+01 0.  1.
</event>
<event>
 5   0  0.1786500E-02  0.7781260E+03  0.7818609E-02  0.9592230E-01
        3   -1    0    0  501    0  0.00000000000E+00  0.00000000000E+00  0.22572740150E+03  0.22572742409E+03  0.10100000352E+00 0. -1.
       -3   -1    0    0    0  501  0.00000000000E+00  0.00000000000E+00 -0.67058769432E+03  0.67058770192E+03  0.10100000352E+00 0.  1.
    10030    2    1    2    0    0  0.00000000000E+00  0.00000000000E+00 -0.44486029282E+03  0.89631512601E+03  0.77812603413E+03 0.  0.
        1    1    3    3  502    0 -0.20331999494E+03  0.26016289363E+03 -0.45946838444E+03  0.56580469058E+03  0.50400001928E-02 0.  1.
       -1    1    3    3    0  502  0.20331999494E+03 -0.26016289363E+03  0.14608091618E+02  0.33051043543E+03  0.50400001928E-02 0. -1.
</event>
<event>
 5   0  0.4700220E-02  0.7914188E+03  0.7818609E-02  0.9572522E-01
        2   -1    0    0  501    0  0.00000000000E+00  0.00000000000E+00  0.44257289027E+03  0.44257289028E+03  0.25500000920E-02 0.  1.
       -2   -1    0    0    0  501  0.00000000000E+00  0.00000000000E+00 -0.35380822097E+03  0.35380822098E+03  0.25500000920E-02 0. -1.
    10030    2    1    2    0    0  0.00000000000E+00  0.00000000000E+00  0.88764669299E+02  0.79638111126E+03  0.79141879422E+03 0.  0.
        4    1    3    3  502    0 -0.22833034518E+03 -0.81651751251E+02 -0.27028038414E+03  0.36311823689E+03  0.12699999809E+01 0. -1.
       -4    1    3    3    0  502  0.22833034518E+03  0.81651751251E+02  0.35904505343E+03  0.43326287437E+03  0.12699999809E+01 0.  1.
</event>
<event>
 5   0  0.2689372E-02  0.7762581E+03  0.7818609E-02  0.9595033E-01
        1   -1    0    0  501    0  0.00000000000E+00  0.00000000000E+00  0.21456506777E+03  0.21456506783E+03  0.50400001928E-02 0. -1.
       -1   -1    0    0    0  501  0.00000000000E+00  0.00000000000E+00 -0.70209083643E+03  0.70209083645E+03  0.50400001928E-02 0.  1.
    10030    2    1    2    0    0  0.00000000000E+00  0.00000000000E+00 -0.48752576867E+03  0.91665590428E+03  0.77625812185E+03 0.  0.
        4    1    3    3  502    0 -0.32763258579E+03 -0.19919678295E+03 -0.17271361888E+03  0.42054022002E+03  0.12699999809E+01 0. -1.
       -4    1    3    3    0  502  0.32763258579E+03  0.19919678295E+03 -0.31481214979E+03  0.49611568426E+03  0.12699999809E+01 0.  1.
</event>
<event>
 5   0  0.1786500E-02  0.5508925E+03  0.7818609E-02  0.1001288E+00
       -3   -1    0    0    0  501  0.00000000000E+00  0.00000000000E+00  0.28758497185E+03  0.28758498959E+03  0.10100000352E+00 0.  1.
        3   -1    0    0  501    0  0.00000000000E+00  0.00000000000E+00 -0.26381990396E+03  0.26381992330E+03  0.10100000352E+00 0. -1.
    10030    2    1    2    0    0  0.00000000000E+00  0.00000000000E+00  0.23765067888E+02  0.55140491288E+03  0.55089254805E+03 0.  0.
        3    1    3    3  502    0 -0.23759596550E+03  0.13089932486E+03 -0.35954840669E+02  0.27364070757E+03  0.10100000352E+00 0.  1.
       -3    1    3    3    0  502  0.23759596550E+03 -0.13089932486E+03  0.59719908557E+02  0.27776420531E+03  0.10100000352E+00 0. -1.
</event>
<event>
 5   0  0.2635243E-02  0.5009579E+03  0.7818609E-02  0.1013529E+00
        1   -1    0    0  501    0  0.00000000000E+00  0.00000000000E+00  0.35062907713E+03  0.35062907717E+03  0.50400001928E-02 0.  1.
       -1   -1    0    0    0  501  0.00000000000E+00  0.00000000000E+00 -0.17893466430E+03  0.17893466437E+03  0.50400001928E-02 0. -1.
    10030    2    1    2    0    0  0.00000000000E+00  0.00000000000E+00  0.17169441284E+03  0.52956374154E+03  0.50095786744E+03 0.  0.
        1    1    3    3  502    0  0.99046163869E+02 -0.15774368447E+03  0.26288103022E+03  0.32217952859E+03  0.50400001928E-02 0.  1.
       -1    1    3    3    0  502 -0.99046163869E+02  0.15774368447E+03 -0.91186617380E+02  0.20738421295E+03  0.50400001928E-02 0. -1.
</event>
<event>
 5   0  0.4684283E-02  0.8138848E+03  0.7818609E-02  0.9540134E-01
       -2   -1    0    0    0  501  0.00000000000E+00  0.00000000000E+00  0.83699620710E+02  0.83699620749E+02  0.25500000920E-02 0.  1.
        2   -1    0    0  501    0  0.00000000000E+00  0.00000000000E+00 -0.19785290583E+04  0.19785290583E+04  0.25500000920E-02 0. -1.
    10030    2    1    2    0    0  0.00000000000E+00  0.00000000000E+00 -0.18948294376E+04  0.20622286791E+04  0.81388483654E+03 0.  0.
        1    1    3    3  502    0 -0.19003502561E+03  0.21675964224E+02 -0.37290532234E+02  0.19486852543E+03  0.50400001928E-02 0.  1.
       -1    1    3    3    0  502  0.19003502561E+03 -0.21675964224E+02 -0.18575389054E+04  0.18673601536E+04  0.50400001928E-02 0. -1.
</event>
<event>
 5   0  0.2606520E-02  0.7687828E+03  0.7818609E-02  0.9606335E-01
        1   -1    0    0  501    0  0.00000000000E+00  0.00000000000E+00  0.13547544169E+04  0.13547544169E+04  0.50400001928E-02 0.  1.
       -1   -1    0    0    0  501  0.00000000000E+00  0.00000000000E+00 -0.10906532503E+03  0.10906532514E+03  0.50400001928E-02 0. -1.
    10030    2    1    2    0    0  0.00000000000E+00  0.00000000000E+00  0.12456890919E+04  0.14638197421E+04  0.76878275449E+03 0.  0.
        5    1    3    3  502    0  0.14609482312E+03  0.20294610336E+03  0.11786381023E+04  0.12048820209E+04  0.46999998093E+01 0.  1.
       -5    1    3    3    0  502 -0.14609482312E+03 -0.20294610336E+03  0.67050989581E+02  0.25893772111E+03  0.46999998093E+01 0. -1.
</event>
<event>
 5   0  0.4700220E-02  0.8167718E+03  0.7818609E-02  0.9536053E-01
        2   -1    0    0  501    0  0.00000000000E+00  0.00000000000E+00  0.61644590526E+03  0.61644590527E+03  0.25500000920E-02 0. -1.
       -2   -1    0    0    0  501  0.00000000000E+00  0.00000000000E+00 -0.27054933162E+03  0.27054933163E+03  0.25500000920E-02 0.  1.
    10030    2    1    2    0    0  0.00000000000E+00  0.00000000000E+00  0.34589657364E+03  0.88699523690E+03  0.81677176165E+03 0.  0.
        4    1    3    3  502    0  0.25870040606E+03 -0.10493792509E+02 -0.17002341804E+03  0.30975086015E+03  0.12699999809E+01 0.  1.
       -4    1    3    3    0  502 -0.25870040606E+03  0.10493792509E+02  0.51591999168E+03  0.57724437675E+03  0.12699999809E+01 0. -1.
</event>
<event>
 5   0  0.4684283E-02  0.8068670E+03  0.7818609E-02  0.9550130E-01
        2   -1    0    0  501    0  0.00000000000E+00  0.00000000000E+00  0.23300643349E+03  0.23300643351E+03  0.25500000920E-02 0. -1.
       -2   -1    0    0    0  501  0.00000000000E+00  0.00000000000E+00 -0.69851539011E+03  0.69851539012E+03  0.25500000920E-02 0.  1.
    10030    2    1    2    0    0  0.00000000000E+00  0.00000000000E+00 -0.46550895662E+03  0.93152182362E+03  0.80686697738E+03 0.  0.
        1    1    3    3  502    0 -0.19150757779E+03 -0.27302246482E+03  0.29348770803E+02  0.33478018015E+03  0.50400001928E-02 0. -1.
       -1    1    3    3    0  502  0.19150757779E+03  0.27302246482E+03 -0.49485772742E+03  0.59674164348E+03  0.50400001928E-02 0.  1.
</event>
<event>
 5   0  0.4590462E-02  0.7804293E+03  0.7818609E-02  0.9588785E-01
        2   -1    0    0  501    0  0.00000000000E+00  0.00000000000E+00  0.10512681210E+04  0.10512681210E+04  0.25500000920E-02 0. -1.
       -2   -1    0    0    0  501  0.00000000000E+00  0.00000000000E+00 -0.14484171843E+03  0.14484171845E+03  0.25500000920E-02 0.  1.
    10030    2    1    2    0    0  0.00000000000E+00  0.00000000000E+00  0.90642640255E+03  0.11961098394E+04  0.78042932079E+03 0.  0.
        3    1    3    3  502    0 -0.11092161151E+03 -0.27372766160E+03  0.84407016163E+03  0.89425101877E+03  0.10100000352E+00 0. -1.
       -3    1    3    3    0  502  0.11092161151E+03  0.27372766160E+03  0.62356240924E+02  0.30185882066E+03  0.10100000352E+00 0.  1.
</event>
<event>
 5   0  0.4377843E-02  0.7857202E+03  0.7818609E-02  0.9580920E-01
       -2   -1    0    0    0  501  0.00000000000E+00  0.00000000000E+00  0.12781329779E+03  0.12781329781E+03  0.25500000920E-02 0. -1.
        2   -1    0    0  501    0  0.00000000000E+00  0.00000000000E+00 -0.12075352218E+04  0.12075352218E+04  0.25500000920E-02 0.  1.
    10030    2    1    2    0    0  0.00000000000E+00  0.00000000000E+00 -0.10797219241E+04  0.13353485197E+04  0.78572020189E+03 0.  0.
        2    1    3    3  502    0  0.21902881765E+03 -0.17229242747E+03 -0.10104804435E+04  0.10482027620E+04  0.25500000920E-02 0.  1.
       -2    1    3    3    0  502 -0.21902881765E+03  0.17229242747E+03 -0.69241480571E+02  0.28714575769E+03  0.25500000920E-02 0. -1.
</event>
<event>
 5   0  0.4684283E-02  0.8061031E+03  0.7818609E-02  0.9551225E-01
       -2   -1    0    0    0  501  0.00000000000E+00  0.00000000000E+00  0.52441453931E+03  0.52441453932E+03  0.25500000920E-02 0. -1.
        2   -1    0    0  501    0  0.00000000000E+00  0.00000000000E+00 -0.30977508606E+03  0.30977508607E+03  0.25500000920E-02 0.  1.
    10030    2    1    2    0    0  0.00000000000E+00  0.00000000000E+00  0.21463945325E+03  0.83418962539E+03  0.80610311761E+03 0.  0.
        1    1    3    3  502    0  0.12266600137E+03 -0.36300276042E+03 -0.22067048759E+02  0.38380321342E+03  0.50400001928E-02 0.  1.
       -1    1    3    3    0  502 -0.12266600137E+03  0.36300276042E+03  0.23670650201E+03  0.45038641197E+03  0.50400001928E-02 0. -1.
</event>
<event>
 5   0  0.4663634E-02  0.8058986E+03  0.7818609E-02  0.9551518E-01
       -2   -1    0    0    0  501  0.00000000000E+00  0.00000000000E+00  0.62173448969E+03  0.62173448969E+03  0.25500000920E-02 0.  1.
        2   -1    0    0  501    0  0.00000000000E+00  0.00000000000E+00 -0.26115351065E+03  0.26115351066E+03  0.25500000920E-02 0. -1.
    10030    2    1    2    0    0  0.00000000000E+00  0.00000000000E+00  0.36058097904E+03  0.88288800035E+03  0.80589861566E+03 0.  0.
        5    1    3    3  502    0  0.30158098087E+03 -0.19395567057E+03 -0.21049652262E+02  0.35921451533E+03  0.46999998093E+01 0. -1.
       -5    1    3    3    0  502 -0.30158098087E+03  0.19395567057E+03  0.38163063130E+03  0.52367348502E+03  0.46999998093E+01 0.  1.
</event>
<event>
 5   0  0.4377843E-02  0.7906435E+03  0.7818609E-02  0.9573660E-01
       -2   -1    0    0    0  501  0.00000000000E+00  0.00000000000E+00  0.22380218865E+03  0.22380218866E+03  0.25500000920E-02 0. -1.
        2   -1    0    0  501    0  0.00000000000E+00  0.00000000000E+00 -0.69829198169E+03  0.69829198169E+03  0.25500000920E-02 0.  1.
    10030    2    1    2    0    0  0.00000000000E+00  0.00000000000E+00 -0.47448979304E+03  0.92209417035E+03  0.79064346915E+03 0.  0.
        2    1    3    3  502    0 -0.23047265130E+03  0.35503179545E+02  0.13504747882E+03  0.26947345007E+03  0.25500000920E-02 0. -1.
       -2    1    3    3    0  502  0.23047265130E+03 -0.35503179545E+02 -0.60953727185E+03  0.65262072028E+03  0.25500000920E-02 0.  1.
</event>
<event>
 5   0  0.2759559E-02  0.8087911E+03  0.7818609E-02  0.9547379E-01
       -1   -1    0    0    0  501  0.00000000000E+00  0.00000000000E+00  0.24249190312E+03  0.24249190317E+03  0.50400001928E-02 0. -1.
        1   -1    0    0  501    0  0.00000000000E+00  0.00000000000E+00 -0.67439686530E+03  0.67439686532E+03  0.50400001928E-02 0.  1.
    10030    2    1    2    0    0  0.00000000000E+00  0.00000000000E+00 -0.43190496218E+03  0.91688876850E+03  0.80879114575E+03 0.  0.
        3    1    3    3  502    0 -0.13037439543E+03  0.79997045372E+02 -0.64033686832E+03  0.65835273629E+03  0.10100000352E+00 0.  1.
       -3    1    3    3    0  502  0.13037439543E+03 -0.79997045372E+02  0.20843190614E+03  0.25853603221E+03  0.10100000352E+00 0. -1.
</event>
<event>
 5   0  0.2635243E-02  0.7950504E+03  0.7818609E-02  0.9567209E-01
       -1   -1    0    0    0  501  0.00000000000E+00  0.00000000000E+00  0.10005382517E+03  0.10005382529E+03  0.50400001928E-02 0.  1.
        1   -1    0    0  501    0  0.00000000000E+00  0.00000000000E+00 -0.15794125300E+04  0.15794125300E+04  0.50400001928E-02 0. -1.
    10030    2    1    2    0    0  0.00000000000E+00  0.00000000000E+00 -0.14793587048E+04  0.16794663553E+04  0.79505035125E+03 0.  0.
        1    1    3    3  502    0  0.16425169568E+03  0.13029340935E+03 -0.26227255580E+02  0.21128857285E+03  0.50400001928E-02 0.  1.
       -1    1    3    3    0  502 -0.16425169568E+03 -0.13029340935E+03 -0.14531314493E+04  0.14681777825E+04  0.50400001928E-02 0. -1.
</event>
<event>
 5   0  0.4377843E-02  0.8008217E+03  0.7818609E-02  0.9558828E-01
       -2   -1    0    0    0  501  0.00000000000E+00  0.00000000000E+00  0.21369050552E+03  0.21369050554E+03  0.25500000920E-02 0.  1.
        2   -1    0    0  501    0  0.00000000000E+00  0.00000000000E+00 -0.75028534377E+03  0.75028534378E+03  0.25500000920E-02 0. -1.
    10030    2    1    2    0    0  0.00000000000E+00  0.00000000000E+00 -0.53659483825E+03  0.96397584932E+03  0.80082171401E+03 0.  0.
        2    1    3    3  502    0 -0.19810882462E+03 -0.34757053234E+03 -0.24828236713E+03  0.47084659410E+03  0.25500000920E-02 0. -1.
       -2    1    3    3    0  502  0.19810882462E+03  0.34757053234E+03 -0.28831247112E+03  0.49312925522E+03  0.25500000920E-02 0.  1.
</event>
<event>
 5   0  0.4663634E-02  0.8263587E+03  0.7818609E-02  0.9522629E-01
        2   -1    0    0  501    0  0.00000000000E+00  0.00000000000E+00  0.11355672570E+04  0.11355672570E+04  0.25500000920E-02 0.  1.
       -2   -1    0    0    0  501  0.00000000000E+00  0.00000000000E+00 -0.15033646141E+03  0.15033646144E+03  0.25500000920E-02 0. -1.
    10030    2    1    2    0    0  0.00000000000E+00  0.00000000000E+00  0.98523079554E+03  0.12859037184E+04  0.82635867062E+03 0.  0.
        5    1    3    3  502    0 -0.13975490081E+03 -0.24576598480E+03  0.23808904020E+02  0.28376276270E+03  0.46999998093E+01 0. -1.
       -5    1    3    3    0  502  0.13975490081E+03  0.24576598480E+03  0.96142189152E+03  0.10021409557E+04  0.46999998093E+01 0.  1.
</event>
<event>
 5   0  0.4663634E-02  0.8208349E+03  0.7818609E-02  0.9530340E-01
       -2   -1    0    0    0  501  0.00000000000E+00  0.00000000000E+00  0.15345544683E+03  0.15345544685E+03  0.25500000920E-02 0.  1.
        2   -1    0    0  501    0  0.00000000000E+00  0.00000000000E+00 -0.10976638931E+04  0.10976638931E+04  0.25500000920E-02 0. -1.
    10030    2    1    2    0    0  0.00000000000E+00  0.00000000000E+00 -0.94420844629E+03  0.12511193400E+04  0.82083494857E+03 0.  0.
        5    1    3    3  502    0 -0.27784145782E+03  0.63399793181E+00 -0.11744015982E+02  0.27812998678E+03  0.46999998093E+01 0.  1.
       -5    1    3    3    0  502  0.27784145782E+03 -0.63399793181E+00 -0.93246443030E+03  0.97298935319E+03  0.46999998093E+01 0. -1.
</event>
<event>
 5   0  0.2689372E-02  0.7889682E+03  0.7818609E-02  0.9576124E-01
       -1   -1    0    0    0  501  0.00000000000E+00  0.00000000000E+00  0.92437840716E+02  0.92437840853E+02  0.50400001928E-02 0. -1.
        1   -1    0    0  501    0  0.00000000000E+00  0.00000000000E+00 -0.16834850007E+04  0.16834850007E+04  0.50400001928E-02 0.  1.
    10030    2    1    2    0    0  0.00000000000E+00  0.00000000000E+00 -0.15910471600E+04  0.17759228415E+04  0.78896823375E+03 0.  0.
        4    1    3    3  502    0  0.18494865438E+03  0.34843016525E+03 -0.80127153561E+03  0.89311100737E+03  0.12699999809E+01 0.  1.
       -4    1    3    3    0  502 -0.18494865438E+03 -0.34843016525E+03 -0.78977562435E+03  0.88281183416E+03  0.12699999809E+01 0. -1.
</event>
<event>
 5   0  0.2606520E-02  0.8077399E+03  0.7818609E-02  0.9548881E-01
       -1   -1    0    0    0  501  0.00000000000E+00  0.00000000000E+00  0.10000217144E+03  0.10000217157E+03  0.50400001928E-02 0. -1.
        1   -1    0    0  501    0  0.00000000000E+00  0.00000000000E+00 -0.16310740643E+04  0.16310740643E+04  0.50400001928E-02 0.  1.
    10030    2    1    2    0    0  0.00000000000E+00  0.00000000000E+00 -0.15310718928E+04  0.17310762359E+04  0.80773992926E+03 0.  0.
        5    1    3    3  502    0 -0.20183228575E+03  0.11714140043E+03 -0.14718868252E+04  0.14902789321E+04  0.46999998093E+01 0.  1.
       -5    1    3    3    0  502  0.20183228575E+03 -0.11714140043E+03 -0.59185067636E+02  0.24079730376E+03  0.46999998093E+01 0. -1.
</event>
<event>
 5   0  0.4684283E-02  0.8785730E+03  0.7818609E-02  0.9452770E-01
        2   -1    0    0  501    0  0.00000000000E+00  0.00000000000E+00  0.14808380598E+04  0.14808380598E+04  0.25500000920E-02 0. -1.
       -2   -1    0    0    0  501  0.00000000000E+00  0.00000000000E+00 -0.13031310747E+03  0.13031310750E+03  0.25500000920E-02 0.  1.
    10030    2    1    2    0    0  0.00000000000E+00  0.00000000000E+00  0.13505249524E+04  0.16111511673E+04  0.87857295489E+03 0.  0.
        1    1    3    3  502    0 -0.41603413425E+02 -0.89230181866E+02 -0.10982073460E+03  0.14749055271E+03  0.50400001928E-02 0.  1.
       -1    1    3    3    0  502  0.41603413425E+02  0.89230181866E+02  0.14603456870E+04  0.14636606146E+04  0.50400001928E-02 0. -1.
</event>
<event>
 5   0  0.4700220E-02  0.8162594E+03  0.7818609E-02  0.9536776E-01
        2   -1    0    0  501    0  0.00000000000E+00  0.00000000000E+00  0.73182528692E+03  0.73182528692E+03  0.25500000920E-02 0. -1.
       -2   -1    0    0    0  501  0.00000000000E+00  0.00000000000E+00 -0.22760876013E+03  0.22760876015E+03  0.25500000920E-02 0.  1.
    10030    2    1    2    0    0  0.00000000000E+00  0.00000000000E+00  0.50421652679E+03  0.95943404707E+03  0.81625938573E+03 0.  0.
        4    1    3    3  502    0 -0.31989682707E+03 -0.25270518039E+03  0.27484996905E+03  0.49166859423E+03  0.12699999809E+01 0. -1.
       -4    1    3    3    0  502  0.31989682707E+03  0.25270518039E+03  0.22936655773E+03  0.46776545284E+03  0.12699999809E+01 0.  1.
</event>
<event>
 5   0  0.4377843E-02  0.8002804E+03  0.7818609E-02  0.9559611E-01
        2   -1    0    0  501    0  0.00000000000E+00  0.00000000000E+00  0.33097885548E+03  0.33097885549E+03  0.25500000920E-02 0. -1.
       -2   -1    0    0    0  501  0.00000000000E+00  0.00000000000E+00 -0.48375354819E+03  0.48375354820E+03  0.25500000920E-02 0.  1.
    10030    2    1    2    0    0  0.00000000000E+00  0.00000000000E+00 -0.15277469271E+03  0.81473240369E+03  0.80028044015E+03 0.  0.
        2    1    3    3  502    0 -0.16352298772E+03 -0.18576916116E+03 -0.39648907956E+03  0.46739013572E+03  0.25500000920E-02 0.  1.
       -2    1    3    3    0  502  0.16352298772E+03  0.18576916116E+03  0.24371438685E+03  0.34734226797E+03  0.25500000920E-02 0. -1.
</event>
<event>
 5   0  0.4377843E-02  0.8044512E+03  0.7818609E-02  0.9553596E-01
       -2   -1    0    0    0  501  0.00000000000E+00  0.00000000000E+00  0.59724878837E+03  0.59724878838E+03  0.25500000920E-02 0. -1.
        2   -1    0    0  501    0  0.00000000000E+00  0.00000000000E+00 -0.27088451773E+03  0.27088451774E+03  0.25500000920E-02 0.  1.
    10030    2    1    2    0    0  0.00000000000E+00  0.00000000000E+00  0.32636427064E+03  0.86813330612E+03  0.80445124155E+03 0.  0.
        2    1    3    3  502    0  0.30165391506E+03 -0.17540858404E+03  0.37907442852E+03  0.51522876297E+03  0.25500000920E-02 0. -1.
       -2    1    3    3    0  502 -0.30165391506E+03  0.17540858404E+03 -0.52710157873E+02  0.35290454315E+03  0.25500000920E-02 0.  1.
</event>
<event>
 5   0  0.1786500E-02  0.7600150E+03  0.7818609E-02  0.9619768E-01
        4   -1    0    0  501    0  0.00000000000E+00  0.00000000000E+00  0.75634351556E+02  0.75645013288E+02  0.12699999809E+01 0. -1.
       -4   -1    0    0    0  501  0.00000000000E+00  0.00000000000E+00 -0.19091154975E+04  0.19091159199E+04  0.12699999809E+01 0.  1.
    10030    2    1    2    0    0  0.00000000000E+00  0.00000000000E+00 -0.18334811459E+04  0.19847609332E+04  0.76001503238E+03 0.  0.
        3    1    3    3  502    0  0.10489285101E+03  0.35963983286E+03 -0.75029339680E+03  0.83862000397E+03  0.10100000352E+00 0. -1.
       -3    1    3    3    0  502 -0.10489285101E+03 -0.35963983286E+03 -0.10831877491E+04  0.11461409292E+04  0.10100000352E+00 0.  1.
</event>
<event>
 5   0  0.2759559E-02  0.7986453E+03  0.7818609E-02  0.9561980E-01
        1   -1    0    0  501    0  0.00000000000E+00  0.00000000000E+00  0.17544326069E+03  0.17544326077E+03  0.50400001928E-02 0.  1.
       -1   -1    0    0    0  501  0.00000000000E+00  0.00000000000E+00 -0.90888970175E+03  0.90888970177E+03  0.50400001928E-02 0. -1.
    10030    2    1    2    0    0  0.00000000000E+00  0.00000000000E+00 -0.73344644106E+03  0.10843329625E+04  0.79864528530E+03 0.  0.
        3    1    3    3  502    0  0.12621480212E+03 -0.16154307295E+03  0.98543904545E+02  0.22745824236E+03  0.10100000352E+00 0.  1.
       -3    1    3    3    0  502 -0.12621480212E+03  0.16154307295E+03 -0.83199034560E+03  0.85687472017E+03  0.10100000352E+00 0. -1.
</event>
<event>
 5   0  0.4663634E-02  0.6740735E+03  0.7818609E-02  0.9762627E-01
        2   -1    0    0  501    0  0.00000000000E+00  0.00000000000E+00  0.33573673363E+03  0.33573673364E+03  0.25500000920E-02 0.  1.
       -2   -1    0    0    0  501  0.00000000000E+00  0.00000000000E+00 -0.33834178602E+03  0.33834178603E+03  0.25500000920E-02 0. -1.
    10030    2    1    2    0    0  0.00000000000E+00  0.00000000000E+00 -0.26050523883E+01  0.67407851967E+03  0.67407348590E+03 0.  0.
        5    1    3    3  502    0 -0.11884853710E+03 -0.16638390722E+03 -0.26919087712E+03  0.33807454455E+03  0.46999998093E+01 0. -1.
       -5    1    3    3    0  502  0.11884853710E+03  0.16638390722E+03  0.26658582473E+03  0.33600397512E+03  0.46999998093E+01 0.  1.
</event>
<event>
 5   0  0.4684283E-02  0.8210713E+03  0.7818609E-02  0.9530008E-01
       -2   -1    0    0    0  501  0.00000000000E+00  0.00000000000E+00  0.46725296405E+03  0.46725296406E+03  0.25500000920E-02 0. -1.
        2   -1    0    0  501    0  0.00000000000E+00  0.00000000000E+00 -0.36070293020E+03  0.36070293021E+03  0.25500000920E-02 0.  1.
    10030    2    1    2    0    0  0.00000000000E+00  0.00000000000E+00  0.10655003385E+03  0.82795589427E+03  0.82107128383E+03 0.  0.
        1    1    3    3  502    0 -0.12592079653E+03 -0.61035287501E+02 -0.33591212934E+03  0.36389327004E+03  0.50400001928E-02 0.  1.
       -1    1    3    3    0  502  0.12592079653E+03  0.61035287501E+02  0.44246216319E+03  0.46406262422E+03  0.50400001928E-02 0. -1.
</event>
<event>
 5   0  0.2689372E-02  0.8034521E+03  0.7818609E-02  0.9555034E-01
        1   -1    0    0  501    0  0.00000000000E+00  0.00000000000E+00  0.88906762298E+03  0.88906762299E+03  0.50400001928E-02 0. -1.
       -1   -1    0    0    0  501  0.00000000000E+00  0.00000000000E+00 -0.18152028467E+03  0.18152028474E+03  0.50400001928E-02 0.  1.
    10030    2    1    2    0    0  0.00000000000E+00  0.00000000000E+00  0.70754733831E+03  0.10705879077E+04  0.80345207215E+03 0.  0.
        4    1    3    3  502    0  0.12480554873E+03 -0.18786654861E+03 -0.89188809344E+02  0.24254179370E+03  0.12699999809E+01 0.  1.
       -4    1    3    3    0  502 -0.12480554873E+03  0.18786654861E+03  0.79673614765E+03  0.82804611403E+03  0.12699999809E+01 0. -1.
</event>
<event>
 5   0  0.2759559E-02  0.7791230E+03  0.7818609E-02  0.9590737E-01
        1   -1    0    0  501    0  0.00000000000E+00  0.00000000000E+00  0.79676366063E+03  0.79676366064E+03  0.50400001928E-02 0.  1.
       -1   -1    0    0    0  501  0.00000000000E+00  0.00000000000E+00 -0.19046823885E+03  0.19046823892E+03  0.50400001928E-02 0. -1.
    10030    2    1    2    0    0  0.00000000000E+00  0.00000000000E+00  0.60629542178E+03  0.98723189956E+03  0.77912302305E+03 0.  0.
        3    1    3    3  502    0  0.36253841738E+03  0.99643089792E+02  0.43233860344E+03  0.57295682878E+03  0.10100000352E+00 0.  1.
       -3    1    3    3    0  502 -0.36253841738E+03 -0.99643089792E+02  0.17395681834E+03  0.41427507078E+03  0.10100000352E+00 0. -1.
</event>
<event>
 5   0  0.4663634E-02  0.7951286E+03  0.7818609E-02  0.9567095E-01
        2   -1    0    0  501    0  0.00000000000E+00  0.00000000000E+00  0.12270571222E+04  0.12270571222E+04  0.25500000920E-02 0.  1.
       -2   -1    0    0    0  501  0.00000000000E+00  0.00000000000E+00 -0.12881011202E+03  0.12881011205E+03  0.25500000920E-02 0. -1.
    10030    2    1    2    0    0  0.00000000000E+00  0.00000000000E+00  0.10982470102E+04  0.13558672343E+04  0.79512858179E+03 0.  0.
        5    1    3    3  502    0 -0.98311326623E+02  0.28348263125E+03  0.99381520560E+03  0.10381321072E+04  0.46999998093E+01 0.  1.
       -5    1    3    3    0  502  0.98311326623E+02 -0.28348263125E+03  0.10443180461E+03  0.31773512707E+03  0.46999998093E+01 0. -1.
</event>
<event>
 5   0  0.1786500E-02  0.7481411E+03  0.7818609E-02  0.9638271E-01
       -4   -1    0    0    0  501  0.00000000000E+00  0.00000000000E+00  0.27785750494E+03  0.27786040731E+03  0.12699999809E+01 0. -1.
        4   -1    0    0  501    0  0.00000000000E+00  0.00000000000E+00 -0.50359274258E+03  0.50359434397E+03  0.12699999809E+01 0.  1.
    10030    2    1    2    0    0  0.00000000000E+00  0.00000000000E+00 -0.22573523764E+03  0.78145475129E+03  0.74814111690E+03 0.  0.
        4    1    3    3  502    0 -0.91883182302E+02 -0.24822145569E+03 -0.38896866011E+03  0.47048341279E+03  0.12699999809E+01 0.  1.
       -4    1    3    3    0  502  0.91883182302E+02  0.24822145569E+03  0.16323342247E+03  0.31097133850E+03  0.12699999809E+01 0. -1.
</event>
<event>
 5   0  0.4377843E-02  0.7764282E+03  0.7818609E-02  0.9594777E-01
        2   -1    0    0  501    0  0.00000000000E+00  0.00000000000E+00  0.58320701477E+03  0.58320701477E+03  0.25500000920E-02 0.  1.
       -2   -1    0    0    0  501  0.00000000000E+00  0.00000000000E+00 -0.25841629893E+03  0.25841629894E+03  0.25500000920E-02 0. -1.
    10030    2    1    2    0    0  0.00000000000E+00  0.00000000000E+00  0.32479071584E+03  0.84162331371E+03  0.77642822790E+03 0.  0.
        2    1    3    3  502    0 -0.29474540122E+03  0.89308676757E+02  0.41858656074E+03  0.51967836219E+03  0.25500000920E-02 0.  1.
       -2    1    3    3    0  502  0.29474540122E+03 -0.89308676757E+02 -0.93795844904E+02  0.32194495152E+03  0.25500000920E-02 0. -1.
</event>
<event>
 5   0  0.4700220E-02  0.7755296E+03  0.7818609E-02  0.9596128E-01
        2   -1    0    0  501    0  0.00000000000E+00  0.00000000000E+00  0.73095689037E+03  0.73095689037E+03  0.25500000920E-02 0.  1.
       -2   -1    0    0    0  501  0.00000000000E+00  0.00000000000E+00 -0.20570507335E+03  0.20570507337E+03  0.25500000920E-02 0. -1.
    10030    2    1    2    0    0  0.00000000000E+00  0.00000000000E+00  0.52525181701E+03  0.93666196374E+03  0.77552960165E+03 0.  0.
        4    1    3    3  502    0 -0.12585391684E+03  0.29761402363E+03  0.52151351110E+03  0.61350735171E+03  0.12699999809E+01 0.  1.
       -4    1    3    3    0  502  0.12585391684E+03 -0.29761402363E+03  0.37383059161E+01  0.32315461203E+03  0.12699999809E+01 0. -1.
</event>
<event>
 5   0  0.2635243E-02  0.6812602E+03  0.7818609E-02  0.9749827E-01
        1   -1    0    0  501    0  0.00000000000E+00  0.00000000000E+00  0.72905754595E+03  0.72905754597E+03  0.50400001928E-02 0.  1.
       -1   -1    0    0    0  501  0.00000000000E+00  0.00000000000E+00 -0.15914912996E+03  0.15914913004E+03  0.50400001928E-02 0. -1.
    10030    2    1    2    0    0  0.00000000000E+00  0.00000000000E+00  0.56990841600E+03  0.88820667600E+03  0.68126022684E+03 0.  0.
        1    1    3    3  502    0 -0.21378672570E+03 -0.22711151973E+03  0.10645448197E+03  0.32957087741E+03  0.50400001928E-02 0. -1.
       -1    1    3    3    0  502  0.21378672570E+03  0.22711151973E+03  0.46345393403E+03  0.55863579859E+03  0.50400001928E-02 0.  1.
</event>
<event>
 5   0  0.2635243E-02  0.7932704E+03  0.7818609E-02  0.9569809E-01
       -1   -1    0    0    0  501  0.00000000000E+00  0.00000000000E+00  0.49150608336E+03  0.49150608339E+03  0.50400001928E-02 0.  1.
        1   -1    0    0  501    0  0.00000000000E+00  0.00000000000E+00 -0.32007640005E+03  0.32007640009E+03  0.50400001928E-02 0. -1.
    10030    2    1    2    0    0  0.00000000000E+00  0.00000000000E+00  0.17142968332E+03  0.81158248348E+03  0.79327044012E+03 0.  0.
        1    1    3    3  502    0  0.19737313177E+03 -0.20918485756E+03 -0.19372960115E+03  0.34676449669E+03  0.50400001928E-02 0. -1.
       -1    1    3    3    0  502 -0.19737313177E+03  0.20918485756E+03  0.36515928447E+03  0.46481798678E+03  0.50400001928E-02 0.  1.
</event>
<event>
 5   0  0.2759559E-02  0.7985896E+03  0.7818609E-02  0.9562061E-01
       -1   -1    0    0    0  501  0.00000000000E+00  0.00000000000E+00  0.27728783027E+03  0.27728783032E+03  0.50400001928E-02 0. -1.
        1   -1    0    0  501    0  0.00000000000E+00  0.00000000000E+00 -0.57498497923E+03  0.57498497925E+03  0.50400001928E-02 0.  1.
    10030    2    1    2    0    0  0.00000000000E+00  0.00000000000E+00 -0.29769714896E+03  0.85227280957E+03  0.79858960013E+03 0.  0.
        3    1    3    3  502    0 -0.25496380929E+03 -0.19004158633E+03 -0.40656453735E+03  0.51615606343E+03  0.10100000352E+00 0.  1.
       -3    1    3    3    0  502  0.25496380929E+03  0.19004158633E+03  0.10886738839E+03  0.33611674614E+03  0.10100000352E+00 0. -1.
</event>
<event>
 5   0  0.4684283E-02  0.8073499E+03  0.7818609E-02  0.9549439E-01
       -2   -1    0    0    0  501  0.00000000000E+00  0.00000000000E+00  0.63518334929E+03  0.63518334929E+03  0.25500000920E-02 0.  1.
        2   -1    0    0  501    0  0.00000000000E+00  0.00000000000E+00 -0.25654557248E+03  0.25654557249E+03  0.25500000920E-02 0. -1.
    10030    2    1    2    0    0  0.00000000000E+00  0.00000000000E+00  0.37863777681E+03  0.89172892178E+03  0.80734992656E+03 0.  0.
        1    1    3    3  502    0  0.35417897483E+03  0.28685899471E+01  0.40321414699E+03  0.53668670877E+03  0.50400001928E-02 0.  1.
       -1    1    3    3    0  502 -0.35417897483E+03 -0.28685899471E+01 -0.24576370175E+02  0.35504221301E+03  0.50400001928E-02 0. -1.
</event>
<event>
 5   0  0.1786500E-02  0.7982199E+03  0.7818609E-02  0.9562597E-01
        3   -1    0    0  501    0  0.00000000000E+00  0.00000000000E+00  0.28956330068E+03  0.28956331830E+03  0.10100000352E+00 0. -1.
       -3   -1    0    0    0  501  0.00000000000E+00  0.00000000000E+00 -0.55009985352E+03  0.55009986279E+03  0.10100000352E+00 0.  1.
    10030    2    1    2    0    0  0.00000000000E+00  0.00000000000E+00 -0.26053655283E+03  0.83966318109E+03  0.79821987091E+03 0.  0.
        4    1    3    3  502    0 -0.34097140945E+03  0.68342218485E+02 -0.33628068542E+03  0.48375455881E+03  0.12699999809E+01 0.  1.
       -4    1    3    3    0  502  0.34097140945E+03 -0.68342218485E+02  0.75744132589E+02  0.35590862227E+03  0.12699999809E+01 0. -1.
</event>
<event>
 5   0  0.4700220E-02  0.7893989E+03  0.7818609E-02  0.9575490E-01
        2   -1    0    0  501    0  0.00000000000E+00  0.00000000000E+00  0.27309660779E+03  0.27309660780E+03  0.25500000920E-02 0. -1.
       -2   -1    0    0    0  501  0.00000000000E+00  0.00000000000E+00 -0.57044887034E+03  0.57044887035E+03  0.25500000920E-02 0.  1.
    10030    2    1    2    0    0  0.00000000000E+00  0.00000000000E+00 -0.29735226255E+03  0.84354547815E+03  0.78939888882E+03 0.  0.
        4    1    3    3  502    0  0.13781193485E+03  0.15898198483E+03 -0.50552614565E+03  0.54756341891E+03  0.12699999809E+01 0.  1.
       -4    1    3    3    0  502 -0.13781193485E+03 -0.15898198483E+03  0.20817388310E+03  0.29598205924E+03  0.12699999809E+01 0. -1.
</event>
<event>
 5   0  0.2689372E-02  0.8014380E+03  0.7818609E-02  0.9557938E-01
       -1   -1    0    0    0  501  0.00000000000E+00  0.00000000000E+00  0.69926498273E+03  0.69926498274E+03  0.50400001928E-02 0. -1.
        1   -1    0    0  501    0  0.00000000000E+00  0.00000000000E+00 -0.22963501583E+03  0.22963501588E+03  0.50400001928E-02 0.  1.
    10030    2    1    2    0    0  0.00000000000E+00  0.00000000000E+00  0.46962996690E+03  0.92889999863E+03  0.80143802109E+03 0.  0.
        4    1    3    3  502    0 -0.52165110552E+02  0.39717441775E+03  0.24671398006E+03  0.47046585182E+03  0.12699999809E+01 0. -1.
       -4    1    3    3    0  502  0.52165110552E+02 -0.39717441775E+03  0.22291598683E+03  0.45843414681E+03  0.12699999809E+01 0.  1.
</event>
<event>
 5   0  0.2606520E-02  0.5444460E+03  0.7818609E-02  0.1002788E+00
       -1   -1    0    0    0  501  0.00000000000E+00  0.00000000000E+00  0.16796604490E+03  0.16796604498E+03  0.50400001928E-02 0.  1.
        1   -1    0    0  501    0  0.00000000000E+00  0.00000000000E+00 -0.44119249598E+03  0.44119249601E+03  0.50400001928E-02 0. -1.
    10030    2    1    2    0    0  0.00000000000E+00  0.00000000000E+00 -0.27322645107E+03  0.60915854099E+03  0.54444598859E+03 0.  0.
        5    1    3    3  502    0  0.18733438186E+03 -0.69153821485E+01  0.84177395803E+02  0.20554784626E+03  0.46999998093E+01 0.  1.
       -5    1    3    3    0  502 -0.18733438186E+03  0.69153821485E+01 -0.35740384688E+03  0.40361069473E+03  0.46999998093E+01 0. -1.
</event>
<event>
 5   0  0.4684283E-02  0.7997424E+03  0.7818609E-02  0.9560390E-01
        2   -1    0    0  501    0  0.00000000000E+00  0.00000000000E+00  0.93996755179E+03  0.93996755179E+03  0.25500000920E-02 0. -1.
       -2   -1    0    0    0  501  0.00000000000E+00  0.00000000000E+00 -0.17010904348E+03  0.17010904350E+03  0.25500000920E-02 0.  1.
    10030    2    1    2    0    0  0.00000000000E+00  0.00000000000E+00  0.76985850831E+03  0.11100765953E+04  0.79974241139E+03 0.  0.
        1    1    3    3  502    0 -0.37058533589E+03  0.46383545463E+02  0.18661852981E+03  0.41750616781E+03  0.50400001928E-02 0.  1.
       -1    1    3    3    0  502  0.37058533589E+03 -0.46383545463E+02  0.58323997850E+03  0.69257042747E+03  0.50400001928E-02 0. -1.
</event>
<event>
 5   0  0.2759559E-02  0.7881772E+03  0.7818609E-02  0.9577290E-01
       -1   -1    0    0    0  501  0.00000000000E+00  0.00000000000E+00  0.96357861224E+03  0.96357861226E+03  0.50400001928E-02 0.  1.
        1   -1    0    0  501    0  0.00000000000E+00  0.00000000000E+00 -0.16117608908E+03  0.16117608916E+03  0.50400001928E-02 0. -1.
    10030    2    1    2    0    0  0.00000000000E+00  0.00000000000E+00  0.80240252316E+03  0.11247547014E+04  0.78817721940E+03 0.  0.
        3    1    3    3  502    0  0.38843641184E+03 -0.14090454752E+02  0.49395218923E+03  0.62854607023E+03  0.10100000352E+00 0.  1.
       -3    1    3    3    0  502 -0.38843641184E+03  0.14090454752E+02  0.30845033393E+03  0.49620863118E+03  0.10100000352E+00 0. -1.
</event>
<event>
 5   0  0.4377843E-02  0.7988461E+03  0.7818609E-02  0.9561689E-01
        2   -1    0    0  501    0  0.00000000000E+00  0.00000000000E+00  0.78159103714E+03  0.78159103714E+03  0.25500000920E-02 0. -1.
       -2   -1    0    0    0  501  0.00000000000E+00  0.00000000000E+00 -0.20412051433E+03  0.20412051434E+03  0.25500000920E-02 0.  1.
    10030    2    1    2    0    0  0.00000000000E+00  0.00000000000E+00  0.57747052281E+03  0.98571155148E+03  0.79884607905E+03 0.  0.
        2    1    3    3  502    0 -0.33174370941E+03 -0.21813547503E+03  0.34254588829E+03  0.52438026259E+03  0.25500000920E-02 0.  1.
       -2    1    3    3    0  502  0.33174370941E+03  0.21813547503E+03  0.23492463452E+03  0.46133128889E+03  0.25500000920E-02 0. -1.
</event>
<event>
 5   0  0.4377843E-02  0.8033599E+03  0.7818609E-02  0.9555166E-01
       -2   -1    0    0    0  501  0.00000000000E+00  0.00000000000E+00  0.81454142974E+03  0.81454142974E+03  0.25500000920E-02 0.  1.
        2   -1    0    0  501    0  0.00000000000E+00  0.00000000000E+00 -0.19808296859E+03  0.19808296861E+03  0.25500000920E-02 0. -1.
    10030    2    1    2    0    0  0.00000000000E+00  0.00000000000E+00  0.61645846114E+03  0.10126243984E+04  0.80335990554E+03 0.  0.
        2    1    3    3  502    0 -0.23329094265E+03  0.28910587000E+03  0.50079889907E+03  0.62354342696E+03  0.25500000920E-02 0.  1.
       -2    1    3    3    0  502  0.23329094265E+03 -0.28910587000E+03  0.11565956207E+03  0.38908097139E+03  0.25500000920E-02 0. -1.
</event>
<event>
 5   0  0.4700220E-02  0.8038367E+03  0.7818609E-02  0.9554480E-01
        2   -1    0    0  501    0  0.00000000000E+00  0.00000000000E+00  0.96616178917E+03  0.96616178918E+03  0.25500000920E-02 0. -1.
       -2   -1    0    0    0  501  0.00000000000E+00  0.00000000000E+00 -0.16719595581E+03  0.16719595583E+03  0.25500000920E-02 0.  1.
    10030    2    1    2    0    0  0.00000000000E+00  0.00000000000E+00  0.79896583336E+03  0.11333577450E+04  0.80383665958E+03 0.  0.
        4    1    3    3  502    0  0.16936588103E+03  0.34583233965E+03  0.56179043805E+03  0.68109831742E+03  0.12699999809E+01 0. -1.
       -4    1    3    3    0  502 -0.16936588103E+03 -0.34583233965E+03  0.23717539531E+03  0.45225942759E+03  0.12699999809E+01 0.  1.
</event>
<event>
 5   0  0.4663634E-02  0.7928713E+03  0.7818609E-02  0.9570393E-01
        2   -1    0    0  501    0  0.00000000000E+00  0.00000000000E+00  0.42275343561E+03  0.42275343562E+03  0.25500000920E-02 0.  1.
       -2   -1    0    0    0  501  0.00000000000E+00  0.00000000000E+00 -0.37175620299E+03  0.37175620300E+03  0.25500000920E-02 0. -1.
    10030    2    1    2    0    0  0.00000000000E+00  0.00000000000E+00  0.50997232627E+02  0.79450963862E+03  0.79287126832E+03 0.  0.
        5    1    3    3  502    0 -0.13431763778E+03 -0.23262019393E+03 -0.26662691747E+03  0.37850414206E+03  0.46999998093E+01 0. -1.
       -5    1    3    3    0  502  0.13431763778E+03  0.23262019393E+03  0.31762415009E+03  0.41600549655E+03  0.46999998093E+01 0.  1.
</event>
<event>
 5   0  0.4684283E-02  0.6120643E+03  0.7818609E-02  0.9880688E-01
        2   -1    0    0  501    0  0.00000000000E+00  0.00000000000E+00  0.11841151394E+04  0.11841151394E+04  0.25500000920E-02 0. -1.
       -2   -1    0    0    0  501  0.00000000000E+00  0.00000000000E+00 -0.79093380380E+02  0.79093380421E+02  0.25500000920E-02 0.  1.
    10030    2    1    2    0    0  0.00000000000E+00  0.00000000000E+00  0.11050217590E+04  0.12632085198E+04  0.61206427493E+03 0.  0.
        1    1    3    3  502    0 -0.10801123554E+03 -0.11058532170E+03  0.74040143501E+01  0.15475903797E+03  0.50400001928E-02 0.  1.
       -1    1    3    3    0  502  0.10801123554E+03  0.11058532170E+03  0.10976177447E+04  0.11084494819E+04  0.50400001928E-02 0. -1.
</event>
<event>
 5   0  0.4663634E-02  0.8007877E+03  0.7818609E-02  0.9558878E-01
       -2   -1    0    0    0  501  0.00000000000E+00  0.00000000000E+00  0.40893201410E+03  0.40893201411E+03  0.25500000920E-02 0.  1.
        2   -1    0    0  501    0  0.00000000000E+00  0.00000000000E+00 -0.39203394946E+03  0.39203394947E+03  0.25500000920E-02 0. -1.
    10030    2    1    2    0    0  0.00000000000E+00  0.00000000000E+00  0.16898064638E+02  0.80096596358E+03  0.80078769360E+03 0.  0.
        5    1    3    3  502    0  0.18424414293E+03  0.30252233911E+03  0.19511177869E+03  0.40442102572E+03  0.46999998093E+01 0.  1.
       -5    1    3    3    0  502 -0.18424414293E+03 -0.30252233911E+03 -0.17821371406E+03  0.39654493786E+03  0.46999998093E+01 0. -1.
</event>
<event>
 5   0  0.2689372E-02  0.7941007E+03  0.7818609E-02  0.9568596E-01
       -1   -1    0    0    0  501  0.00000000000E+00  0.00000000000E+00  0.47869230347E+03  0.47869230350E+03  0.50400001928E-02 0.  1.
        1   -1    0    0  501    0  0.00000000000E+00  0.00000000000E+00 -0.32933255775E+03  0.32933255779E+03  0.50400001928E-02 0. -1.
    10030    2    1    2    0    0  0.00000000000E+00  0.00000000000E+00  0.14935974572E+03  0.80802486129E+03  0.79410065031E+03 0.  0.
        4    1    3    3  502    0 -0.17602737741E+03 -0.75398965943E+02 -0.27923600706E+03  0.33859267890E+03  0.12699999809E+01 0. -1.
       -4    1    3    3    0  502  0.17602737741E+03  0.75398965943E+02  0.42859575278E+03  0.46943218239E+03  0.12699999809E+01 0.  1.
</event>
<event>
 5   0  0.2606520E-02  0.7862577E+03  0.7818609E-02  0.9580124E-01
       -1   -1    0    0    0  501  0.00000000000E+00  0.00000000000E+00  0.99978034355E+02  0.99978034482E+02  0.50400001928E-02 0. -1.
        1   -1    0    0  501    0  0.00000000000E+00  0.00000000000E+00 -0.15458425405E+04  0.15458425405E+04  0.50400001928E-02 0.  1.
    10030    2    1    2    0    0  0.00000000000E+00  0.00000000000E+00 -0.14458645061E+04  0.16458205750E+04  0.78625771533E+03 0.  0.
        5    1    3    3  502    0  0.21765784370E+03  0.12502323375E+03 -0.13561913195E+04  0.13792326602E+04  0.46999998093E+01 0.  1.
       -5    1    3    3    0  502 -0.21765784370E+03 -0.12502323375E+03 -0.89673186638E+02  0.26658791477E+03  0.46999998093E+01 0. -1.
</event>
<event>
 5   0  0.4700220E-02  0.7955376E+03  0.7818609E-02  0.9566499E-01
        2   -1    0    0  501    0  0.00000000000E+00  0.00000000000E+00  0.10255718271E+04  0.10255718271E+04  0.25500000920E-02 0.  1.
       -2   -1    0    0    0  501  0.00000000000E+00  0.00000000000E+00 -0.15427493634E+03  0.15427493636E+03  0.25500000920E-02 0. -1.
    10030    2    1    2    0    0  0.00000000000E+00  0.00000000000E+00  0.87129689078E+03  0.11798467635E+04  0.79553762539E+03 0.  0.
        4    1    3    3  502    0 -0.24737204600E+03  0.16870855920E+03  0.82398609403E+03  0.87670417083E+03  0.12699999809E+01 0.  1.
       -4    1    3    3    0  502  0.24737204600E+03 -0.16870855920E+03  0.47310796751E+02  0.30314259265E+03  0.12699999809E+01 0. -1.
</event>
<event>
 5   0  0.4377843E-02  0.1198722E+04  0.7818609E-02  0.9113976E-01
       -2   -1    0    0    0  501  0.00000000000E+00  0.00000000000E+00  0.20088812650E+03  0.20088812652E+03  0.25500000920E-02 0. -1.
        2   -1    0    0  501    0  0.00000000000E+00  0.00000000000E+00 -0.17882267220E+04  0.17882267220E+04  0.25500000920E-02 0.  1.
    10030    2    1    2    0    0  0.00000000000E+00  0.00000000000E+00 -0.15873385955E+04  0.19891148485E+04  0.11987218459E+04 0.  0.
        2    1    3    3  502    0  0.35430744175E+03 -0.10976555796E+03 -0.12443536123E+02  0.37112946878E+03  0.25500000920E-02 0. -1.
       -2    1    3    3    0  502 -0.35430744175E+03  0.10976555796E+03 -0.15748950594E+04  0.16179853797E+04  0.25500000920E-02 0.  1.
</event>
<event>
 5   0  0.2606520E-02  0.8028200E+03  0.7818609E-02  0.9555944E-01
       -1   -1    0    0    0  501  0.00000000000E+00  0.00000000000E+00  0.16053052079E+03  0.16053052087E+03  0.50400001928E-02 0. -1.
        1   -1    0    0  501    0  0.00000000000E+00  0.00000000000E+00 -0.10037341714E+04  0.10037341714E+04  0.50400001928E-02 0.  1.
    10030    2    1    2    0    0  0.00000000000E+00  0.00000000000E+00 -0.84320365057E+03  0.11642646922E+04  0.80281995321E+03 0.  0.
        5    1    3    3  502    0  0.25685333067E+03 -0.10193950159E+03 -0.84376895930E+03  0.88788143473E+03  0.46999998093E+01 0.  1.
       -5    1    3    3    0  502 -0.25685333067E+03  0.10193950159E+03  0.56530873457E+00  0.27638325751E+03  0.46999998093E+01 0. -1.
</event>
<event>
 5   0  0.2769394E-02  0.7917378E+03  0.7818609E-02  0.9572054E-01
        1   -1    0    0  501    0  0.00000000000E+00  0.00000000000E+00  0.68364860521E+03  0.68364860523E+03  0.50400001928E-02 0. -1.
       -1   -1    0    0    0  501  0.00000000000E+00  0.00000000000E+00 -0.22922912569E+03  0.22922912574E+03  0.50400001928E-02 0.  1.
    10030    2    1    2    0    0  0.00000000000E+00  0.00000000000E+00  0.45441947952E+03  0.91287773097E+03  0.79173776488E+03 0.  0.
        2    1    3    3  502    0 -0.45398814902E+02  0.99309540951E+02  0.66594105966E+03  0.67483400349E+03  0.25500000920E-02 0. -1.
       -2    1    3    3    0  502  0.45398814902E+02 -0.99309540951E+02 -0.21152158014E+03  0.23804372748E+03  0.25500000920E-02 0.  1.
</event>
<event>
 5   0  0.4663634E-02  0.8373432E+03  0.7818609E-02  0.9507484E-01
        2   -1    0    0  501    0  0.00000000000E+00  0.00000000000E+00  0.77967415963E+03  0.77967415964E+03  0.25500000920E-02 0. -1.
       -2   -1    0    0    0  501  0.00000000000E+00  0.00000000000E+00 -0.22481942157E+03  0.22481942158E+03  0.25500000920E-02 0.  1.
    10030    2    1    2    0    0  0.00000000000E+00  0.00000000000E+00  0.55485473807E+03  0.10044935812E+04  0.83734316403E+03 0.  0.
        5    1    3    3  502    0  0.12547647006E+03  0.39671824416E+02  0.75418478825E+03  0.76559452912E+03  0.46999998093E+01 0. -1.
       -5    1    3    3    0  502 -0.12547647006E+03 -0.39671824416E+02 -0.19933005018E+03  0.23889905210E+03  0.46999998093E+01 0.  1.
</event>
<event>
 5   0  0.2769394E-02  0.8134828E+03  0.7818609E-02  0.9540704E-01
        1   -1    0    0  501    0  0.00000000000E+00  0.00000000000E+00  0.79059692199E+03  0.79059692201E+03  0.50400001928E-02 0. -1.
       -1   -1    0    0    0  501  0.00000000000E+00  0.00000000000E+00 -0.20925778965E+03  0.20925778971E+03  0.50400001928E-02 0.  1.
    10030    2    1    2    0    0  0.00000000000E+00  0.00000000000E+00  0.58133913234E+03  0.99985471172E+03  0.81348279500E+03 0.  0.
        2    1    3    3  502    0  0.15932337593E+03  0.73042150718E+02  0.74180164428E+03  0.76222619566E+03  0.25500000920E-02 0. -1.
       -2    1    3    3    0  502 -0.15932337593E+03 -0.73042150718E+02 -0.16046251194E+03  0.23762851605E+03  0.25500000920E-02 0.  1.
</event>
<event>
 5   0  0.2759559E-02  0.7620212E+03  0.7818609E-02  0.9616677E-01
        1   -1    0    0  501    0  0.00000000000E+00  0.00000000000E+00  0.17130985533E+04  0.17130985533E+04  0.50400001928E-02 0.  1.
       -1   -1    0    0    0  501  0.00000000000E+00  0.00000000000E+00 -0.84740646065E+02  0.84740646215E+02  0.50400001928E-02 0. -1.
    10030    2    1    2    0    0  0.00000000000E+00  0.00000000000E+00  0.16283579072E+04  0.17978391995E+04  0.76202120264E+03 0.  0.
        3    1    3    3  502    0  0.20330362975E+03 -0.31828902994E+03  0.93282155474E+03  0.10063778295E+04  0.10100000352E+00 0. -1.
       -3    1    3    3    0  502 -0.20330362975E+03  0.31828902994E+03  0.69553635248E+03  0.79146137004E+03  0.10100000352E+00 0.  1.
</event>
<event>
 5   0  0.2635243E-02  0.7923671E+03  0.7818609E-02  0.9571132E-01
        1   -1    0    0  501    0  0.00000000000E+00  0.00000000000E+00  0.19450865817E+03  0.19450865824E+03  0.50400001928E-02 0.  1.
       -1   -1    0    0    0  501  0.00000000000E+00  0.00000000000E+00 -0.80696358046E+03  0.80696358048E+03  0.50400001928E-02 0. -1.
    10030    2    1    2    0    0  0.00000000000E+00  0.00000000000E+00 -0.61245492229E+03  0.10014722387E+04  0.79236709490E+03 0.  0.
        1    1    3    3  502    0  0.22341742031E+03  0.18562307650E+03  0.34299324553E+02  0.29248540805E+03  0.50400001928E-02 0.  1.
       -1    1    3    3    0  502 -0.22341742031E+03 -0.18562307650E+03 -0.64675424684E+03  0.70898683067E+03  0.50400001928E-02 0. -1.
</event>
<event>
 5   0  0.4684283E-02  0.7908219E+03  0.7818609E-02  0.9573398E-01
       -2   -1    0    0    0  501  0.00000000000E+00  0.00000000000E+00  0.70586227869E+03  0.70586227869E+03  0.25500000920E-02 0.  1.
        2   -1    0    0  501    0  0.00000000000E+00  0.00000000000E+00 -0.22150189048E+03  0.22150189049E+03  0.25500000920E-02 0. -1.
    10030    2    1    2    0    0  0.00000000000E+00  0.00000000000E+00  0.48436038821E+03  0.92736416918E+03  0.79082192472E+03 0.  0.
        1    1    3    3  502    0  0.15840230571E+03 -0.20598787812E+03  0.59167876999E+03  0.64622446818E+03  0.50400001928E-02 0.  1.
       -1    1    3    3    0  502 -0.15840230571E+03  0.20598787812E+03 -0.10731838178E+03  0.28113970100E+03  0.50400001928E-02 0. -1.
</event>
<event>
 5   0  0.1786500E-02  0.8069519E+03  0.7818609E-02  0.9550009E-01
       -3   -1    0    0    0  501  0.00000000000E+00  0.00000000000E+00  0.82703205219E+03  0.82703205836E+03  0.10100000352E+00 0. -1.
        3   -1    0    0  501    0  0.00000000000E+00  0.00000000000E+00 -0.19683978380E+03  0.19683980971E+03  0.10100000352E+00 0.  1.
    10030    2    1    2    0    0  0.00000000000E+00  0.00000000000E+00  0.63019226839E+03  0.10238718681E+04  0.80695186169E+03 0.  0.
        4    1    3    3  502    0 -0.40390842663E+02  0.10950377450E+02  0.82426835982E+03  0.82533100804E+03  0.12699999809E+01 0. -1.
       -4    1    3    3    0  502  0.40390842663E+02 -0.10950377450E+02 -0.19407609143E+03  0.19854086003E+03  0.12699999809E+01 0.  1.
</event>
<event>
 5   0  0.4590462E-02  0.7957797E+03  0.7818609E-02  0.9566146E-01
        2   -1    0    0  501    0  0.00000000000E+00  0.00000000000E+00  0.42880600007E+03  0.42880600008E+03  0.25500000920E-02 0.  1.
       -2   -1    0    0    0  501  0.00000000000E+00  0.00000000000E+00 -0.36920269672E+03  0.36920269673E+03  0.25500000920E-02 0. -1.
    10030    2    1    2    0    0  0.00000000000E+00  0.00000000000E+00  0.59603303351E+02  0.79800869682E+03  0.79577969717E+03 0.  0.
        3    1    3    3  502    0 -0.21087307460E+01  0.86462221324E+02 -0.35966251148E+03  0.36991525357E+03  0.10100000352E+00 0. -1.
       -3    1    3    3    0  502  0.21087307460E+01 -0.86462221324E+02  0.41926581483E+03  0.42809344324E+03  0.10100000352E+00 0.  1.
</event>
<event>
 5   0  0.4663634E-02  0.7375196E+03  0.7818609E-02  0.9655136E-01
        2   -1    0    0  501    0  0.00000000000E+00  0.00000000000E+00  0.13792245470E+04  0.13792245470E+04  0.25500000920E-02 0.  1.
       -2   -1    0    0    0  501  0.00000000000E+00  0.00000000000E+00 -0.98594381342E+02  0.98594381375E+02  0.25500000920E-02 0. -1.
    10030    2    1    2    0    0  0.00000000000E+00  0.00000000000E+00  0.12806301656E+04  0.14778189284E+04  0.73751960236E+03 0.  0.
        5    1    3    3  502    0  0.41244292339E+02  0.36496132360E+03  0.57495898101E+03  0.68227397665E+03  0.46999998093E+01 0. -1.
       -5    1    3    3    0  502 -0.41244292339E+02 -0.36496132360E+03  0.70567118463E+03  0.79554495171E+03  0.46999998093E+01 0.  1.
</event>
<event>
 5   0  0.4700220E-02  0.8064104E+03  0.7818609E-02  0.9550784E-01
        2   -1    0    0  501    0  0.00000000000E+00  0.00000000000E+00  0.16059831297E+03  0.16059831299E+03  0.25500000920E-02 0.  1.
       -2   -1    0    0    0  501  0.00000000000E+00  0.00000000000E+00 -0.10123046861E+04  0.10123046861E+04  0.25500000920E-02 0. -1.
    10030    2    1    2    0    0  0.00000000000E+00  0.00000000000E+00 -0.85170637315E+03  0.11729029991E+04  0.80641037893E+03 0.  0.
        4    1    3    3  502    0  0.15209546957E+01  0.38260813012E+03 -0.24083449301E+03  0.45209972402E+03  0.12699999809E+01 0.  1.
       -4    1    3    3    0  502 -0.15209546957E+01 -0.38260813012E+03 -0.61087188014E+03  0.72080327509E+03  0.12699999809E+01 0. -1.
</event>
<event>
 5   0  0.4684283E-02  0.8138421E+03  0.7818609E-02  0.9540195E-01
       -2   -1    0    0    0  501  0.00000000000E+00  0.00000000000E+00  0.28688860782E+03  0.28688860783E+03  0.25500000920E-02 0.  1.
        2   -1    0    0  501    0  0.00000000000E+00  0.00000000000E+00 -0.57717434169E+03  0.57717434169E+03  0.25500000920E-02 0. -1.
    10030    2    1    2    0    0  0.00000000000E+00  0.00000000000E+00 -0.29028573387E+03  0.86406294952E+03  0.81384210597E+03 0.  0.
        1    1    3    3  502    0 -0.18326536176E+03 -0.17243547194E+03  0.19437904035E+03  0.31796760236E+03  0.50400001928E-02 0.  1.
       -1    1    3    3    0  502  0.18326536176E+03  0.17243547194E+03 -0.48466477421E+03  0.54609534716E+03  0.50400001928E-02 0. -1.
</event>
<event>
 5   0  0.2769394E-02  0.8098304E+03  0.7818609E-02  0.9545896E-01
       -1   -1    0    0    0  501  0.00000000000E+00  0.00000000000E+00  0.67421780155E+03  0.67421780157E+03  0.50400001928E-02 0. -1.
        1   -1    0    0  501    0  0.00000000000E+00  0.00000000000E+00 -0.24318004540E+03  0.24318004545E+03  0.50400001928E-02 0.  1.
    10030    2    1    2    0    0  0.00000000000E+00  0.00000000000E+00  0.43103775615E+03  0.91739784702E+03  0.80983039119E+03 0.  0.
        2    1    3    3  502    0  0.20373766725E+02 -0.40378395173E+03  0.19019453885E+03  0.44680032751E+03  0.25500000920E-02 0.  1.
       -2    1    3    3    0  502 -0.20373766725E+02  0.40378395173E+03  0.24084321730E+03  0.47059751951E+03  0.25500000920E-02 0. -1.
</event>
<event>
 5   0  0.2759559E-02  0.8101778E+03  0.7818609E-02  0.9545401E-01
        1   -1    0    0  501    0  0.00000000000E+00  0.00000000000E+00  0.26911399567E+03  0.26911399572E+03  0.50400001928E-02 0.  1.
       -1   -1    0    0    0  501  0.00000000000E+00  0.00000000000E+00 -0.60976761530E+03  0.60976761532E+03  0.50400001928E-02 0. -1.
    10030    2    1    2    0    0  0.00000000000E+00  0.00000000000E+00 -0.34065361964E+03  0.87888161104E+03  0.81017775682E+03 0.  0.
        3    1    3    3  502    0  0.97301768225E+02  0.36986026995E+03 -0.31519033529E+03  0.49558976083E+03  0.10100000352E+00 0. -1.
       -3    1    3    3    0  502 -0.97301768225E+02 -0.36986026995E+03 -0.25463284350E+02  0.38329185021E+03  0.10100000352E+00 0.  1.
</event>
<event>
 5   0  0.1786500E-02  0.1004487E+04  0.7818609E-02  0.9303638E-01
        3   -1    0    0  501    0  0.00000000000E+00  0.00000000000E+00  0.16461820821E+04  0.16461820852E+04  0.10100000352E+00 0.  1.
       -3   -1    0    0    0  501  0.00000000000E+00  0.00000000000E+00 -0.15323235452E+03  0.15323238780E+03  0.10100000352E+00 0. -1.
    10030    2    1    2    0    0  0.00000000000E+00  0.00000000000E+00  0.14929497276E+04  0.17994144730E+04  0.10044867130E+04 0.  0.
        3    1    3    3  502    0  0.72918691595E+02  0.72978137029E+02 -0.13404744276E+03  0.16914984830E+03  0.10100000352E+00 0. -1.
       -3    1    3    3    0  502 -0.72918691595E+02 -0.72978137029E+02  0.16269971703E+04  0.16302646247E+04  0.10100000352E+00 0.  1.
</event>
<event>
 5   0  0.4590462E-02  0.8509643E+03  0.7818609E-02  0.9489044E-01
       -2   -1    0    0    0  501  0.00000000000E+00  0.00000000000E+00  0.34542120817E+03  0.34542120818E+03  0.25500000920E-02 0. -1.
        2   -1    0    0  501    0  0.00000000000E+00  0.00000000000E+00 -0.52409940770E+03  0.52409940771E+03  0.25500000920E-02 0.  1.
    10030    2    1    2    0    0  0.00000000000E+00  0.00000000000E+00 -0.17867819953E+03  0.86952061589E+03  0.85096427802E+03 0.  0.
        3    1    3    3  502    0 -0.40446972656E+03 -0.68621271733E+02 -0.20462856082E+03  0.45845119341E+03  0.10100000352E+00 0.  1.
       -3    1    3    3    0  502  0.40446972656E+03  0.68621271733E+02  0.25950361281E+02  0.41106942247E+03  0.10100000352E+00 0. -1.
</event>
<event>
 5   0  0.4590462E-02  0.7992765E+03  0.7818609E-02  0.9561065E-01
       -2   -1    0    0    0  501  0.00000000000E+00  0.00000000000E+00  0.36693910807E+03  0.36693910808E+03  0.25500000920E-02 0. -1.
        2   -1    0    0  501    0  0.00000000000E+00  0.00000000000E+00 -0.43525132153E+03  0.43525132154E+03  0.25500000920E-02 0.  1.
    10030    2    1    2    0    0  0.00000000000E+00  0.00000000000E+00 -0.68312213459E+02  0.80219042962E+03  0.79927650214E+03 0.  0.
        3    1    3    3  502    0  0.78063714731E+02  0.38098386849E+03 -0.12651370874E+03  0.40896012069E+03  0.10100000352E+00 0.  1.
       -3    1    3    3    0  502 -0.78063714731E+02 -0.38098386849E+03  0.58201495285E+02  0.39323030893E+03  0.10100000352E+00 0. -1.
</event>
<event>
 5   0  0.2769394E-02  0.8096401E+03  0.7818609E-02  0.9546167E-01
        1   -1    0    0  501    0  0.00000000000E+00  0.00000000000E+00  0.10110218914E+04  0.10110218914E+04  0.50400001928E-02 0.  1.
       -1   -1    0    0    0  501  0.00000000000E+00  0.00000000000E+00 -0.16209269341E+03  0.16209269349E+03  0.50400001928E-02 0. -1.
    10030    2    1    2    0    0  0.00000000000E+00  0.00000000000E+00  0.84892919796E+03  0.11731145849E+04  0.80964007194E+03 0.  0.
        2    1    3    3  502    0  0.34770609093E+03  0.11582397405E+03  0.17533001228E+03  0.40627002332E+03  0.25500000920E-02 0. -1.
       -2    1    3    3    0  502 -0.34770609093E+03 -0.11582397405E+03  0.67359918568E+03  0.76684456155E+03  0.25500000920E-02 0.  1.
</event>
<event>
 5   0  0.2635243E-02  0.7993589E+03  0.7818609E-02  0.9560946E-01
       -1   -1    0    0    0  501  0.00000000000E+00  0.00000000000E+00  0.22561303448E+03  0.22561303454E+03  0.50400001928E-02 0.  1.
        1   -1    0    0  501    0  0.00000000000E+00  0.00000000000E+00 -0.70804262406E+03  0.70804262408E+03  0.50400001928E-02 0. -1.
    10030    2    1    2    0    0  0.00000000000E+00  0.00000000000E+00 -0.48242958958E+03  0.93365565862E+03  0.79935885556E+03 0.  0.
        1    1    3    3  502    0 -0.16617478395E+03  0.17164841809E+03  0.13303289157E+03  0.27345015729E+03  0.50400001928E-02 0.  1.
       -1    1    3    3    0  502  0.16617478395E+03 -0.17164841809E+03 -0.61546248115E+03  0.66020550133E+03  0.50400001928E-02 0. -1.
</event>
<event>
 5   0  0.4663634E-02  0.8654695E+03  0.7818609E-02  0.9469806E-01
        2   -1    0    0  501    0  0.00000000000E+00  0.00000000000E+00  0.16123241938E+04  0.16123241938E+04  0.25500000920E-02 0. -1.
       -2   -1    0    0    0  501  0.00000000000E+00  0.00000000000E+00 -0.11614249270E+03  0.11614249273E+03  0.25500000920E-02 0.  1.
    10030    2    1    2    0    0  0.00000000000E+00  0.00000000000E+00  0.14961817011E+04  0.17284666865E+04  0.86546947014E+03 0.  0.
        5    1    3    3  502    0  0.24310744191E+03 -0.21530871920E+03  0.13192116843E+04  0.13586024551E+04  0.46999998093E+01 0. -1.
       -5    1    3    3    0  502 -0.24310744191E+03  0.21530871920E+03  0.17697001676E+03  0.36986423145E+03  0.46999998093E+01 0.  1.
</event>
<event>
 5   0  0.2689372E-02  0.8078281E+03  0.7818609E-02  0.9548755E-01
       -1   -1    0    0    0  501  0.00000000000E+00  0.00000000000E+00  0.92484473330E+02  0.92484473468E+02  0.50400001928E-02 0. -1.
        1   -1    0    0  501    0  0.00000000000E+00  0.00000000000E+00 -0.17640428764E+04  0.17640428764E+04  0.50400001928E-02 0.  1.
    10030    2    1    2    0    0  0.00000000000E+00  0.00000000000E+00 -0.16715584031E+04  0.18565273499E+04  0.80782814135E+03 0.  0.
        4    1    3    3  502    0 -0.29808252916E+03 -0.20931235434E+03 -0.12370066372E+04  0.12895161454E+04  0.12699999809E+01 0.  1.
       -4    1    3    3    0  502  0.29808252916E+03  0.20931235434E+03 -0.43455176582E+03  0.56701120442E+03  0.12699999809E+01 0. -1.
</event>
<event>
 5   0  0.2635243E-02  0.8757861E+03  0.7818609E-02  0.9456367E-01
       -1   -1    0    0    0  501  0.00000000000E+00  0.00000000000E+00  0.38817953228E+03  0.38817953231E+03  0.50400001928E-02 0. -1.
        1   -1    0    0  501    0  0.00000000000E+00  0.00000000000E+00 -0.49397330012E+03  0.49397330014E+03  0.50400001928E-02 0.  1.
    10030    2    1    2    0    0  0.00000000000E+00  0.00000000000E+00 -0.10579376783E+03  0.88215283245E+03  0.87578610316E+03 0.  0.
        1    1    3    3  502    0 -0.12391118498E+03 -0.41326792113E+03 -0.12831420439E+03  0.45012097427E+03  0.50400001928E-02 0. -1.
       -1    1    3    3    0  502  0.12391118498E+03  0.41326792113E+03  0.22520436558E+02  0.43203185819E+03  0.50400001928E-02 0.  1.
</event>
<event>
 5   0  0.4700220E-02  0.8091234E+03  0.7818609E-02  0.9546904E-01
       -2   -1    0    0    0  501  0.00000000000E+00  0.00000000000E+00  0.13971118183E+03  0.13971118185E+03  0.25500000920E-02 0.  1.
        2   -1    0    0  501    0  0.00000000000E+00  0.00000000000E+00 -0.11714894651E+04  0.11714894651E+04  0.25500000920E-02 0. -1.
    10030    2    1    2    0    0  0.00000000000E+00  0.00000000000E+00 -0.10317782832E+04  0.13112006469E+04  0.80912342119E+03 0.  0.
        4    1    3    3  502    0  0.25481699916E+03 -0.25209794558E+03 -0.21192396958E+03  0.41641140596E+03  0.12699999809E+01 0.  1.
       -4    1    3    3    0  502 -0.25481699916E+03  0.25209794558E+03 -0.81985431365E+03  0.89478924096E+03  0.12699999809E+01 0. -1.
</event>
<event>
 5   0  0.2635243E-02  0.8021107E+03  0.7818609E-02  0.9556967E-01
       -1   -1    0    0    0  501  0.00000000000E+00  0.00000000000E+00  0.92985795946E+03  0.92985795948E+03  0.50400001928E-02 0. -1.
        1   -1    0    0  501    0  0.00000000000E+00  0.00000000000E+00 -0.17297844530E+03  0.17297844538E+03  0.50400001928E-02 0.  1.
    10030    2    1    2    0    0  0.00000000000E+00  0.00000000000E+00  0.75687951416E+03  0.11028364049E+04  0.80211067623E+03 0.  0.
        1    1    3    3  502    0  0.17727646274E+03 -0.16854827403E+03  0.81541698867E+03  0.85131682138E+03  0.50400001928E-02 0. -1.
       -1    1    3    3    0  502 -0.17727646274E+03  0.16854827403E+03 -0.58537474513E+02  0.25151958347E+03  0.50400001928E-02 0.  1.
</event>
<event>
 5   0  0.2635243E-02  0.8122355E+03  0.7818609E-02  0.9542474E-01
       -1   -1    0    0    0  501  0.00000000000E+00  0.00000000000E+00  0.34667238436E+03  0.34667238440E+03  0.50400001928E-02 0. -1.
        1   -1    0    0  501    0  0.00000000000E+00  0.00000000000E+00 -0.47575647029E+03  0.47575647032E+03  0.50400001928E-02 0.  1.
    10030    2    1    2    0    0  0.00000000000E+00  0.00000000000E+00 -0.12908408593E+03  0.82242885472E+03  0.81223550762E+03 0.  0.
        1    1    3    3  502    0  0.15505991023E+03  0.69006372320E+01 -0.44453893743E+03  0.47085673137E+03  0.50400001928E-02 0.  1.
       -1    1    3    3    0  502 -0.15505991023E+03 -0.69006372320E+01  0.31545485150E+03  0.35157212335E+03  0.50400001928E-02 0. -1.
</event>
<event>
 5   0  0.2635243E-02  0.8296371E+03  0.7818609E-02  0.9518082E-01
       -1   -1    0    0    0  501  0.00000000000E+00  0.00000000000E+00  0.51623546861E+03  0.51623546863E+03  0.50400001928E-02 0. -1.
        1   -1    0    0  501    0  0.00000000000E+00  0.00000000000E+00 -0.33332542945E+03  0.33332542949E+03  0.50400001928E-02 0.  1.
    10030    2    1    2    0    0  0.00000000000E+00  0.00000000000E+00  0.18291003916E+03  0.84956089812E+03  0.82963705148E+03 0.  0.
        1    1    3    3  502    0 -0.24565513284E+03  0.26107408853E+03  0.30519787646E+03  0.47079917992E+03  0.50400001928E-02 0. -1.
       -1    1    3    3    0  502  0.24565513284E+03 -0.26107408853E+03 -0.12228783731E+03  0.37876171820E+03  0.50400001928E-02 0.  1.
</event>
<event>
 5   0  0.2606520E-02  0.7578591E+03  0.7818609E-02  0.9623101E-01
        1   -1    0    0  501    0  0.00000000000E+00  0.00000000000E+00  0.11726047964E+04  0.11726047964E+04  0.50400001928E-02 0. -1.
       -1   -1    0    0    0  501  0.00000000000E+00  0.00000000000E+00 -0.12245183182E+03  0.12245183192E+03  0.50400001928E-02 0.  1.
    10030    2    1    2    0    0  0.00000000000E+00  0.00000000000E+00  0.10501529646E+04  0.12950566283E+04  0.75785910403E+03 0.  0.
        5    1    3    3  502    0  0.76635018079E+02 -0.77958201648E+02  0.11450214792E+04  0.11502376646E+04  0.46999998093E+01 0. -1.
       -5    1    3    3    0  502 -0.76635018079E+02  0.77958201648E+02 -0.94868514611E+02  0.14481896375E+03  0.46999998093E+01 0.  1.
</event>
<event>
 5   0  0.2606520E-02  0.8154196E+03  0.7818609E-02  0.9537962E-01
       -1   -1    0    0    0  501  0.00000000000E+00  0.00000000000E+00  0.26218269195E+03  0.26218269200E+03  0.50400001928E-02 0. -1.
        1   -1    0    0  501    0  0.00000000000E+00  0.00000000000E+00 -0.63401314729E+03  0.63401314731E+03  0.50400001928E-02 0.  1.
    10030    2    1    2    0    0  0.00000000000E+00  0.00000000000E+00 -0.37183045534E+03  0.89619583931E+03  0.81541958211E+03 0.  0.
        5    1    3    3  502    0 -0.29182994075E+03  0.59281374133E+02  0.12010208841E+03  0.32113174442E+03  0.46999998093E+01 0. -1.
       -5    1    3    3    0  502  0.29182994075E+03 -0.59281374133E+02 -0.49193254375E+03  0.57506409489E+03  0.46999998093E+01 0.  1.
</event>
<event>
 5   0  0.2769394E-02  0.7942540E+03  0.7818609E-02  0.9568372E-01
       -1   -1    0    0    0  501  0.00000000000E+00  0.00000000000E+00  0.11110673438E+04  0.11110673438E+04  0.50400001928E-02 0. -1.
        1   -1    0    0  501    0  0.00000000000E+00  0.00000000000E+00 -0.14194446014E+03  0.14194446023E+03  0.50400001928E-02 0.  1.
    10030    2    1    2    0    0  0.00000000000E+00  0.00000000000E+00  0.96912288370E+03  0.12530118041E+04  0.79425400059E+03 0.  0.
        2    1    3    3  502    0 -0.13022117667E+03 -0.11134588750E+03 -0.80637213099E+02  0.18936161612E+03  0.25500000920E-02 0.  1.
       -2    1    3    3    0  502  0.13022117667E+03  0.11134588750E+03  0.10497600968E+04  0.10636501880E+04  0.25500000920E-02 0. -1.
</event>
<event>
 5   0  0.2769394E-02  0.6816654E+03  0.7818609E-02  0.9749111E-01
        1   -1    0    0  501    0  0.00000000000E+00  0.00000000000E+00  0.47518732127E+03  0.47518732129E+03  0.50400001928E-02 0.  1.
       -1   -1    0    0    0  501  0.00000000000E+00  0.00000000000E+00 -0.24446552739E+03  0.24446552744E+03  0.50400001928E-02 0. -1.
    10030    2    1    2    0    0  0.00000000000E+00  0.00000000000E+00  0.23072179388E+03  0.71965284873E+03  0.68166536990E+03 0.  0.
        2    1    3    3  502    0 -0.68918530476E+02 -0.11073276599E+03 -0.21707661584E+03  0.25324645399E+03  0.25500000920E-02 0. -1.
       -2    1    3    3    0  502  0.68918530476E+02  0.11073276599E+03  0.44779840972E+03  0.46640639474E+03  0.25500000920E-02 0.  1.
</event>
<event>
 5   0  0.2769394E-02  0.7987008E+03  0.7818609E-02  0.9561899E-01
       -1   -1    0    0    0  501  0.00000000000E+00  0.00000000000E+00  0.65591442187E+03  0.65591442189E+03  0.50400001928E-02 0.  1.
        1   -1    0    0  501    0  0.00000000000E+00  0.00000000000E+00 -0.24314263350E+03  0.24314263356E+03  0.50400001928E-02 0. -1.
    10030    2    1    2    0    0  0.00000000000E+00  0.00000000000E+00  0.41277178836E+03  0.89905705544E+03  0.79870084492E+03 0.  0.
        2    1    3    3  502    0 -0.33272948144E+03  0.67982506266E+02  0.44290683588E+03  0.55811915776E+03  0.25500000920E-02 0.  1.
       -2    1    3    3    0  502  0.33272948144E+03 -0.67982506266E+02 -0.30135047523E+02  0.34093789768E+03  0.25500000920E-02 0. -1.
</event>
<event>
 5   0  0.4663634E-02  0.8044943E+03  0.7818609E-02  0.9553535E-01
       -2   -1    0    0    0  501  0.00000000000E+00  0.00000000000E+00  0.29219946617E+03  0.29219946618E+03  0.25500000920E-02 0.  1.
        2   -1    0    0  501    0  0.00000000000E+00  0.00000000000E+00 -0.55374075168E+03  0.55374075169E+03  0.25500000920E-02 0. -1.
    10030    2    1    2    0    0  0.00000000000E+00  0.00000000000E+00 -0.26154128552E+03  0.84594021787E+03  0.80449425615E+03 0.  0.
        5    1    3    3  502    0  0.36414826480E+03 -0.16540295495E+03 -0.85929029064E+02  0.40910632395E+03  0.46999998093E+01 0. -1.
       -5    1    3    3    0  502 -0.36414826480E+03  0.16540295495E+03 -0.17561225645E+03  0.43683389392E+03  0.46999998093E+01 0.  1.
</event>
<event>
 5   0  0.2635243E-02  0.8019564E+03  0.7818609E-02  0.9557190E-01
        1   -1    0    0  501    0  0.00000000000E+00  0.00000000000E+00  0.15914275771E+03  0.15914275779E+03  0.50400001928E-02 0.  1.
       -1   -1    0    0    0  501  0.00000000000E+00  0.00000000000E+00 -0.10103099237E+04  0.10103099237E+04  0.50400001928E-02 0. -1.
    10030    2    1    2    0    0  0.00000000000E+00  0.00000000000E+00 -0.85116716602E+03  0.11694526815E+04  0.80195637652E+03 0.  0.
        1    1    3    3  502    0  0.24458028239E+02 -0.24838744105E+03 -0.88322545579E+03  0.91781355503E+03  0.50400001928E-02 0. -1.
       -1    1    3    3    0  502 -0.24458028239E+02  0.24838744105E+03  0.32058289778E+02  0.25163912650E+03  0.50400001928E-02 0.  1.
</event>
<event>
 5   0  0.2606520E-02  0.8039266E+03  0.7818609E-02  0.9554351E-01
        1   -1    0    0  501    0  0.00000000000E+00  0.00000000000E+00  0.41642924050E+03  0.41642924053E+03  0.50400001928E-02 0. -1.
       -1   -1    0    0    0  501  0.00000000000E+00  0.00000000000E+00 -0.38799987145E+03  0.38799987149E+03  0.50400001928E-02 0.  1.
    10030    2    1    2    0    0  0.00000000000E+00  0.00000000000E+00  0.28429369045E+02  0.80442911202E+03  0.80392659319E+03 0.  0.
        5    1    3    3  502    0 -0.17404659405E+03 -0.19109190881E+03  0.32221233006E+03  0.41309951604E+03  0.46999998093E+01 0. -1.
       -5    1    3    3    0  502  0.17404659405E+03  0.19109190881E+03 -0.29378296101E+03  0.39132959598E+03  0.46999998093E+01 0.  1.
</event>
<event>
 5   0  0.4663634E-02  0.7713626E+03  0.7818609E-02  0.9602419E-01
        2   -1    0    0  501    0  0.00000000000E+00  0.00000000000E+00  0.17720350239E+04  0.17720350239E+04  0.25500000920E-02 0. -1.
       -2   -1    0    0    0  501  0.00000000000E+00  0.00000000000E+00 -0.83943080240E+02  0.83943080279E+02  0.25500000920E-02 0.  1.
    10030    2    1    2    0    0  0.00000000000E+00  0.00000000000E+00  0.16880919437E+04  0.18559781042E+04  0.77136263389E+03 0.  0.
        5    1    3    3  502    0 -0.13999752922E+03  0.28683513804E+03  0.32322447375E+03  0.45427948999E+03  0.46999998093E+01 0.  1.
       -5    1    3    3    0  502  0.13999752922E+03 -0.28683513804E+03  0.13648674699E+04  0.14016986142E+04  0.46999998093E+01 0. -1.
</event>
<event>
 5   0  0.2689372E-02  0.7712737E+03  0.7818609E-02  0.9602554E-01
       -1   -1    0    0    0  501  0.00000000000E+00  0.00000000000E+00  0.35453001251E+03  0.35453001254E+03  0.50400001928E-02 0. -1.
        1   -1    0    0  501    0  0.00000000000E+00  0.00000000000E+00 -0.41947298716E+03  0.41947298719E+03  0.50400001928E-02 0.  1.
    10030    2    1    2    0    0  0.00000000000E+00  0.00000000000E+00 -0.64942974652E+02  0.77400299973E+03  0.77127365678E+03 0.  0.
        4    1    3    3  502    0 -0.46986923823E+02  0.64519287106E+02  0.34614819008E+03  0.35523329209E+03  0.12699999809E+01 0. -1.
       -4    1    3    3    0  502  0.46986923823E+02 -0.64519287106E+02 -0.41109116473E+03  0.41876970764E+03  0.12699999809E+01 0.  1.
</event>
<event>
 5   0  0.4700220E-02  0.7092481E+03  0.7818609E-02  0.9701546E-01
        2   -1    0    0  501    0  0.00000000000E+00  0.00000000000E+00  0.76764398133E+03  0.76764398134E+03  0.25500000920E-02 0.  1.
       -2   -1    0    0    0  501  0.00000000000E+00  0.00000000000E+00 -0.16382364128E+03  0.16382364130E+03  0.25500000920E-02 0. -1.
    10030    2    1    2    0    0  0.00000000000E+00  0.00000000000E+00  0.60382034005E+03  0.93146762264E+03  0.70924814344E+03 0.  0.
        4    1    3    3  502    0 -0.82744227519E+02 -0.26392146061E+03  0.10438190258E+02  0.27678821014E+03  0.12699999809E+01 0. -1.
       -4    1    3    3    0  502  0.82744227519E+02  0.26392146061E+03  0.59338214979E+03  0.65467941250E+03  0.12699999809E+01 0.  1.
</event>
<event>
 5   0  0.4684283E-02  0.8249606E+03  0.7818609E-02  0.9524574E-01
       -2   -1    0    0    0  501  0.00000000000E+00  0.00000000000E+00  0.15430404280E+04  0.15430404280E+04  0.25500000920E-02 0.  1.
        2   -1    0    0  501    0  0.00000000000E+00  0.00000000000E+00 -0.11026283374E+03  0.11026283377E+03  0.25500000920E-02 0. -1.
    10030    2    1    2    0    0  0.00000000000E+00  0.00000000000E+00  0.14327775943E+04  0.16533032618E+04  0.82496062982E+03 0.  0.
        1    1    3    3  502    0 -0.26722323850E+03  0.31273828098E+03  0.65538647522E+03  0.77378609674E+03  0.50400001928E-02 0. -1.
       -1    1    3    3    0  502  0.26722323850E+03 -0.31273828098E+03  0.77739111905E+03  0.87951716503E+03  0.50400001928E-02 0.  1.
</event>
<event>
 5   0  0.2759559E-02  0.8088577E+03  0.7818609E-02  0.9547284E-01
       -1   -1    0    0    0  501  0.00000000000E+00  0.00000000000E+00  0.31795917338E+03  0.31795917342E+03  0.50400001928E-02 0.  1.
        1   -1    0    0  501    0  0.00000000000E+00  0.00000000000E+00 -0.51441415372E+03  0.51441415375E+03  0.50400001928E-02 0. -1.
    10030    2    1    2    0    0  0.00000000000E+00  0.00000000000E+00 -0.19645498034E+03  0.83237332717E+03  0.80885771090E+03 0.  0.
        3    1    3    3  502    0  0.35167627608E+03  0.19578075824E+03 -0.13882542205E+03  0.42576850102E+03  0.10100000352E+00 0. -1.
       -3    1    3    3    0  502 -0.35167627608E+03 -0.19578075824E+03 -0.57629558294E+02  0.40660482614E+03  0.10100000352E+00 0.  1.
</event>
<event>
 5   0  0.4590462E-02  0.8044711E+03  0.7818609E-02  0.9553568E-01
        2   -1    0    0  501    0  0.00000000000E+00  0.00000000000E+00  0.71783275811E+03  0.71783275811E+03  0.25500000920E-02 0. -1.
       -2   -1    0    0    0  501  0.00000000000E+00  0.00000000000E+00 -0.22539155632E+03  0.22539155633E+03  0.25500000920E-02 0.  1.
    10030    2    1    2    0    0  0.00000000000E+00  0.00000000000E+00  0.49244120179E+03  0.94322431445E+03  0.80447111206E+03 0.  0.
        3    1    3    3  502    0  0.21022788136E+03 -0.10813412624E+03 -0.13533875948E+03  0.27240657367E+03  0.10100000352E+00 0.  1.
       -3    1    3    3    0  502 -0.21022788136E+03  0.10813412624E+03  0.62777996127E+03  0.67081774077E+03  0.10100000352E+00 0. -1.
</event>
<event>
 5   0  0.2689372E-02  0.7940319E+03  0.7818609E-02  0.9568696E-01
       -1   -1    0    0    0  501  0.00000000000E+00  0.00000000000E+00  0.93348964810E+02  0.93348964946E+02  0.50400001928E-02 0.  1.
        1   -1    0    0  501    0  0.00000000000E+00  0.00000000000E+00 -0.16885208872E+04  0.16885208872E+04  0.50400001928E-02 0. -1.
    10030    2    1    2    0    0  0.00000000000E+00  0.00000000000E+00 -0.15951719224E+04  0.17818698522E+04  0.79403193137E+03 0.  0.
        4    1    3    3  502    0 -0.19575955481E+03  0.94884607201E+02 -0.52311457880E+02  0.22374761118E+03  0.12699999809E+01 0.  1.
       -4    1    3    3    0  502  0.19575955481E+03 -0.94884607201E+02 -0.15428604645E+04  0.15581222410E+04  0.12699999809E+01 0. -1.
</event>
<event>
 5   0  0.4377843E-02  0.7948550E+03  0.7818609E-02  0.9567494E-01
        2   -1    0    0  501    0  0.00000000000E+00  0.00000000000E+00  0.16320177473E+04  0.16320177473E+04  0.25500000920E-02 0.  1.
       -2   -1    0    0    0  501  0.00000000000E+00  0.00000000000E+00 -0.96781183534E+02  0.96781183567E+02  0.25500000920E-02 0. -1.
    10030    2    1    2    0    0  0.00000000000E+00  0.00000000000E+00  0.15352365637E+04  0.17287989308E+04  0.79485497837E+03 0.  0.
        2    1    3    3  502    0  0.56574148211E+00 -0.24581943747E+03  0.88405473252E+02  0.26123369539E+03  0.25500000920E-02 0. -1.
       -2    1    3    3    0  502 -0.56574148211E+00  0.24581943747E+03  0.14468310905E+04  0.14675652355E+04  0.25500000920E-02 0.  1.
</event>
<event>
 5   0  0.2689372E-02  0.7892319E+03  0.7818609E-02  0.9575736E-01
        1   -1    0    0  501    0  0.00000000000E+00  0.00000000000E+00  0.10192645311E+04  0.10192645311E+04  0.50400001928E-02 0.  1.
       -1   -1    0    0    0  501  0.00000000000E+00  0.00000000000E+00 -0.15277854932E+03  0.15277854940E+03  0.50400001928E-02 0. -1.
    10030    2    1    2    0    0  0.00000000000E+00  0.00000000000E+00  0.86648598178E+03  0.11720430805E+04  0.78923192152E+03 0.  0.
        4    1    3    3  502    0 -0.27330716019E+03 -0.24558117147E+03  0.21951430009E+03  0.42801291620E+03  0.12699999809E+01 0.  1.
       -4    1    3    3    0  502  0.27330716019E+03  0.24558117147E+03  0.64697168169E+03  0.74403016430E+03  0.12699999809E+01 0. -1.
</event>
<event>
 5   0  0.2689372E-02  0.7951221E+03  0.7818609E-02  0.9567105E-01
        1   -1    0    0  501    0  0.00000000000E+00  0.00000000000E+00  0.31279600576E+03  0.31279600580E+03  0.50400001928E-02 0.  1.
       -1   -1    0    0    0  501  0.00000000000E+00  0.00000000000E+00 -0.50529675421E+03  0.50529675424E+03  0.50400001928E-02 0. -1.
    10030    2    1    2    0    0  0.00000000000E+00  0.00000000000E+00 -0.19250074845E+03  0.81809276004E+03  0.79512214526E+03 0.  0.
        4    1    3    3  502    0  0.13257876640E+03  0.31797565964E+03 -0.30039495777E+03  0.45708247940E+03  0.12699999809E+01 0. -1.
       -4    1    3    3    0  502 -0.13257876640E+03 -0.31797565964E+03  0.10789420932E+03  0.36101028064E+03  0.12699999809E+01 0.  1.
</event>
<event>
 5   0  0.2769394E-02  0.8219367E+03  0.7818609E-02  0.9528796E-01
       -1   -1    0    0    0  501  0.00000000000E+00  0.00000000000E+00  0.57939821412E+03  0.57939821414E+03  0.50400001928E-02 0.  1.
        1   -1    0    0  501    0  0.00000000000E+00  0.00000000000E+00 -0.29150070956E+03  0.29150070961E+03  0.50400001928E-02 0. -1.
    10030    2    1    2    0    0  0.00000000000E+00  0.00000000000E+00  0.28789750456E+03  0.87089892375E+03  0.82193671426E+03 0.  0.
        2    1    3    3  502    0  0.23036572583E+03 -0.83564865321E+02  0.49351596802E+03  0.55100768148E+03  0.25500000920E-02 0.  1.
       -2    1    3    3    0  502 -0.23036572583E+03  0.83564865321E+02 -0.20561846347E+03  0.31989124227E+03  0.25500000920E-02 0. -1.
</event>
<event>
 5   0  0.4377843E-02  0.8092900E+03  0.7818609E-02  0.9546667E-01
       -2   -1    0    0    0  501  0.00000000000E+00  0.00000000000E+00  0.15874683003E+03  0.15874683005E+03  0.25500000920E-02 0. -1.
        2   -1    0    0  501    0  0.00000000000E+00  0.00000000000E+00 -0.10314383176E+04  0.10314383177E+04  0.25500000920E-02 0.  1.
    10030    2    1    2    0    0  0.00000000000E+00  0.00000000000E+00 -0.87269148762E+03  0.11901851477E+04  0.80928996858E+03 0.  0.
        2    1    3    3  502    0 -0.29600888072E+02 -0.40110396262E+03 -0.37095601752E+03  0.54714620381E+03  0.25500000920E-02 0.  1.
       -2    1    3    3    0  502  0.29600888072E+02  0.40110396262E+03 -0.50173547009E+03  0.64303894389E+03  0.25500000920E-02 0. -1.
</event>
<event>
 5   0  0.4684283E-02  0.7761970E+03  0.7818609E-02  0.9595125E-01
        2   -1    0    0  501    0  0.00000000000E+00  0.00000000000E+00  0.18350243855E+03  0.18350243857E+03  0.25500000920E-02 0.  1.
       -2   -1    0    0    0  501  0.00000000000E+00  0.00000000000E+00 -0.82080900581E+03  0.82080900582E+03  0.25500000920E-02 0. -1.
    10030    2    1    2    0    0  0.00000000000E+00  0.00000000000E+00 -0.63730656726E+03  0.10043114444E+04  0.77619702180E+03 0.  0.
        1    1    3    3  502    0 -0.74964850487E+02  0.37898172772E+03 -0.36660704615E+03  0.53258577250E+03  0.50400001928E-02 0. -1.
       -1    1    3    3    0  502  0.74964850487E+02 -0.37898172772E+03 -0.27069952112E+03  0.47172567188E+03  0.50400001928E-02 0.  1.
</event>
<event>
 5   0  0.1786500E-02  0.7409260E+03  0.7818609E-02  0.9649695E-01
       -4   -1    0    0    0  501  0.00000000000E+00  0.00000000000E+00  0.25774231768E+03  0.25774544656E+03  0.12699999809E+01 0.  1.
        4   -1    0    0  501    0  0.00000000000E+00  0.00000000000E+00 -0.53247366728E+03  0.53247518181E+03  0.12699999809E+01 0. -1.
    10030    2    1    2    0    0  0.00000000000E+00  0.00000000000E+00 -0.27473134960E+03  0.79022062837E+03  0.74092599296E+03 0.  0.
        4    1    3    3  502    0  0.87665187208E+02 -0.35900802828E+03 -0.16495709334E+03  0.40470286009E+03  0.12699999809E+01 0. -1.
       -4    1    3    3    0  502 -0.87665187208E+02  0.35900802828E+03 -0.10977425626E+03  0.38551776828E+03  0.12699999809E+01 0.  1.
</event>
<event>
 5   0  0.4684283E-02  0.7815984E+03  0.7818609E-02  0.9587041E-01
        2   -1    0    0  501    0  0.00000000000E+00  0.00000000000E+00  0.87474857039E+03  0.87474857039E+03  0.25500000920E-02 0.  1.
       -2   -1    0    0    0  501  0.00000000000E+00  0.00000000000E+00 -0.17459189148E+03  0.17459189150E+03  0.25500000920E-02 0. -1.
    10030    2    1    2    0    0  0.00000000000E+00  0.00000000000E+00  0.70015667891E+03  0.10493404619E+04  0.78159838148E+03 0.  0.
        1    1    3    3  502    0  0.13628727730E+03  0.80556017962E+02 -0.12961209845E+03  0.20460398352E+03  0.50400001928E-02 0. -1.
       -1    1    3    3    0  502 -0.13628727730E+03 -0.80556017962E+02  0.82976877736E+03  0.84473647837E+03  0.50400001928E-02 0.  1.
</event>
<event>
 5   0  0.2635243E-02  0.8009514E+03  0.7818609E-02  0.9558641E-01
       -1   -1    0    0    0  501  0.00000000000E+00  0.00000000000E+00  0.78212435126E+03  0.78212435128E+03  0.50400001928E-02 0. -1.
        1   -1    0    0  501    0  0.00000000000E+00  0.00000000000E+00 -0.20505791484E+03  0.20505791490E+03  0.50400001928E-02 0.  1.
    10030    2    1    2    0    0  0.00000000000E+00  0.00000000000E+00  0.57706643643E+03  0.98718226618E+03  0.80095140589E+03 0.  0.
        1    1    3    3  502    0 -0.10257233894E+03 -0.40244303378E+02  0.76307453016E+03  0.77098860385E+03  0.50400001928E-02 0. -1.
       -1    1    3    3    0  502  0.10257233894E+03  0.40244303378E+02 -0.18600809373E+03  0.21619366232E+03  0.50400001928E-02 0.  1.
</event>
<event>
 5   0  0.4663634E-02  0.7302312E+03  0.7818609E-02  0.9666885E-01
       -2   -1    0    0    0  501  0.00000000000E+00  0.00000000000E+00  0.45421984564E+03  0.45421984565E+03  0.25500000920E-02 0. -1.
        2   -1    0    0  501    0  0.00000000000E+00  0.00000000000E+00 -0.29349094305E+03  0.29349094307E+03  0.25500000920E-02 0.  1.
    10030    2    1    2    0    0  0.00000000000E+00  0.00000000000E+00  0.16072890259E+03  0.74771078872E+03  0.73023122601E+03 0.  0.
        5    1    3    3  502    0 -0.29802937386E+03 -0.20258270848E+03  0.14029809628E+03  0.38673881016E+03  0.46999998093E+01 0. -1.
       -5    1    3    3    0  502  0.29802937386E+03  0.20258270848E+03  0.20430806311E+02  0.36097197856E+03  0.46999998093E+01 0.  1.
</event>
<event>
 5   0  0.1786500E-02  0.7476404E+03  0.7818609E-02  0.9639060E-01
        3   -1    0    0  501    0  0.00000000000E+00  0.00000000000E+00  0.55441177351E+03  0.55441178271E+03  0.10100000352E+00 0. -1.
       -3   -1    0    0    0  501  0.00000000000E+00  0.00000000000E+00 -0.25205366618E+03  0.25205368642E+03  0.10100000352E+00 0.  1.
    10030    2    1    2    0    0  0.00000000000E+00  0.00000000000E+00  0.30235810733E+03  0.80646546913E+03  0.74764037332E+03 0.  0.
        4    1    3    3  502    0  0.58114840381E+02 -0.21181963329E+03 -0.17510194030E+03  0.28090424367E+03  0.12699999809E+01 0.  1.
       -4    1    3    3    0  502 -0.58114840381E+02  0.21181963329E+03  0.47746004763E+03  0.52556122545E+03  0.12699999809E+01 0. -1.
</event>
<event>
 5   0  0.4700220E-02  0.8375818E+03  0.7818609E-02  0.9507157E-01
        2   -1    0    0  501    0  0.00000000000E+00  0.00000000000E+00  0.91507151964E+03  0.91507151965E+03  0.25500000920E-02 0. -1.
       -2   -1    0    0    0  501  0.00000000000E+00  0.00000000000E+00 -0.19166351793E+03  0.19166351795E+03  0.25500000920E-02 0.  1.
    10030    2    1    2    0    0  0.00000000000E+00  0.00000000000E+00  0.72340800171E+03  0.11067350376E+04  0.83758182078E+03 0.  0.
        4    1    3    3  502    0 -0.10917643318E+03  0.33671499702E+03  0.65742495281E+03  0.74666301921E+03  0.12699999809E+01 0. -1.
       -4    1    3    3    0  502  0.10917643318E+03 -0.33671499702E+03  0.65983048902E+02  0.36007201839E+03  0.12699999809E+01 0.  1.
</event>
<event>
 5   0  0.4700220E-02  0.7381812E+03  0.7818609E-02  0.9654077E-01
        2   -1    0    0  501    0  0.00000000000E+00  0.00000000000E+00  0.74891461318E+03  0.74891461319E+03  0.25500000920E-02 0.  1.
       -2   -1    0    0    0  501  0.00000000000E+00  0.00000000000E+00 -0.18190040069E+03  0.18190040071E+03  0.25500000920E-02 0. -1.
    10030    2    1    2    0    0  0.00000000000E+00  0.00000000000E+00  0.56701421249E+03  0.93081501389E+03  0.73818119247E+03 0.  0.
        4    1    3    3  502    0  0.33206388287E+03 -0.17457098056E+02  0.48547722168E+03  0.58843939217E+03  0.12699999809E+01 0.  1.
       -4    1    3    3    0  502 -0.33206388287E+03  0.17457098056E+02  0.81536990813E+02  0.34237562173E+03  0.12699999809E+01 0. -1.
</event>
<event>
 5   0  0.2769394E-02  0.8276321E+03  0.7818609E-02  0.9520860E-01
       -1   -1    0    0    0  501  0.00000000000E+00  0.00000000000E+00  0.53316354084E+03  0.53316354087E+03  0.50400001928E-02 0. -1.
        1   -1    0    0  501    0  0.00000000000E+00  0.00000000000E+00 -0.32118420604E+03  0.32118420608E+03  0.50400001928E-02 0.  1.
    10030    2    1    2    0    0  0.00000000000E+00  0.00000000000E+00  0.21197933481E+03  0.85434774694E+03  0.82763206458E+03 0.  0.
        2    1    3    3  502    0  0.23872342092E+03  0.16354795711E+03  0.41135415293E+03  0.50294039916E+03  0.25500000920E-02 0. -1.
       -2    1    3    3    0  502 -0.23872342092E+03 -0.16354795711E+03 -0.19937481812E+03  0.35140734778E+03  0.25500000920E-02 0.  1.
</event>
<event>
 5   0  0.2635243E-02  0.7996006E+03  0.7818609E-02  0.9560595E-01
        1   -1    0    0  501    0  0.00000000000E+00  0.00000000000E+00  0.81589560181E+03  0.81589560183E+03  0.50400001928E-02 0. -1.
       -1   -1    0    0    0  501  0.00000000000E+00  0.00000000000E+00 -0.19590773997E+03  0.19590774004E+03  0.50400001928E-02 0.  1.
    10030    2    1    2    0    0  0.00000000000E+00  0.00000000000E+00  0.61998786184E+03  0.10118033419E+04  0.79960055889E+03 0.  0.
        1    1    3    3  502    0  0.49244901674E+02  0.32480270530E+03  0.21668005648E+02  0.32922843165E+03  0.50400001928E-02 0.  1.
       -1    1    3    3    0  502 -0.49244901674E+02 -0.32480270530E+03  0.59831985619E+03  0.68257491021E+03  0.50400001928E-02 0. -1.
</event>
<event>
 5   0  0.2606520E-02  0.8199949E+03  0.7818609E-02  0.9531518E-01
       -1   -1    0    0    0  501  0.00000000000E+00  0.00000000000E+00  0.40005966379E+03  0.40005966382E+03  0.50400001928E-02 0.  1.
        1   -1    0    0  501    0  0.00000000000E+00  0.00000000000E+00 -0.42018207722E+03  0.42018207725E+03  0.50400001928E-02 0. -1.
    10030    2    1    2    0    0  0.00000000000E+00  0.00000000000E+00 -0.20122413424E+02  0.82024174107E+03  0.81999487942E+03 0.  0.
        5    1    3    3  502    0 -0.60084938813E+02 -0.25773134583E+03 -0.32326913041E+03  0.41780458012E+03  0.46999998093E+01 0. -1.
       -5    1    3    3    0  502  0.60084938813E+02  0.25773134583E+03  0.30314671698E+03  0.40243716095E+03  0.46999998093E+01 0.  1.
</event>
<event>
 5   0  0.4700220E-02  0.8067785E+03  0.7818609E-02  0.9550257E-01
        2   -1    0    0  501    0  0.00000000000E+00  0.00000000000E+00  0.26374860602E+03  0.26374860603E+03  0.25500000920E-02 0.  1.
       -2   -1    0    0    0  501  0.00000000000E+00  0.00000000000E+00 -0.61696208434E+03  0.61696208434E+03  0.25500000920E-02 0. -1.
    10030    2    1    2    0    0  0.00000000000E+00  0.00000000000E+00 -0.35321347832E+03  0.88071069037E+03  0.80677850670E+03 0.  0.
        4    1    3    3  502    0 -0.17741268173E+03 -0.28604372859E+03 -0.41929697199E+03  0.53768749095E+03  0.12699999809E+01 0.  1.
       -4    1    3    3    0  502  0.17741268173E+03  0.28604372859E+03  0.66083493674E+02  0.34302319942E+03  0.12699999809E+01 0. -1.
</event>
<event>
 5   0  0.4663634E-02  0.8038481E+03  0.7818609E-02  0.9554464E-01
        2   -1    0    0  501    0  0.00000000000E+00  0.00000000000E+00  0.87222718644E+03  0.87222718645E+03  0.25500000920E-02 0. -1.
       -2   -1    0    0    0  501  0.00000000000E+00  0.00000000000E+00 -0.18520740307E+03  0.18520740309E+03  0.25500000920E-02 0.  1.
    10030    2    1    2    0    0  0.00000000000E+00  0.00000000000E+00  0.68701978337E+03  0.10574345895E+04  0.80384807544E+03 0.  0.
        5    1    3    3  502    0 -0.38111272901E+03 -0.11831389699E+03  0.28075581118E+03  0.48794569979E+03  0.46999998093E+01 0.  1.
       -5    1    3    3    0  502  0.38111272901E+03  0.11831389699E+03  0.40626397220E+03  0.56948888974E+03  0.46999998093E+01 0. -1.
</event>
<event>
 5   0  0.4684283E-02  0.8167144E+03  0.7818609E-02  0.9536134E-01
       -2   -1    0    0    0  501  0.00000000000E+00  0.00000000000E+00  0.25782332094E+03  0.25782332095E+03  0.25500000920E-02 0.  1.
        2   -1    0    0  501    0  0.00000000000E+00  0.00000000000E+00 -0.64678243440E+03  0.64678243440E+03  0.25500000920E-02 0. -1.
    10030    2    1    2    0    0  0.00000000000E+00  0.00000000000E+00 -0.38895911346E+03  0.90460575536E+03  0.81671438134E+03 0.  0.
        1    1    3    3  502    0  0.12298142074E+03 -0.78407323748E+02  0.22799051596E+03  0.27065072262E+03  0.50400001928E-02 0.  1.
       -1    1    3    3    0  502 -0.12298142074E+03  0.78407323748E+02 -0.61694962942E+03  0.63395503273E+03  0.50400001928E-02 0. -1.
</event>
<event>
 5   0  0.4684283E-02  0.7886139E+03  0.7818609E-02  0.9576646E-01
       -2   -1    0    0    0  501  0.00000000000E+00  0.00000000000E+00  0.46114964743E+03  0.46114964744E+03  0.25500000920E-02 0. -1.
        2   -1    0    0  501    0  0.00000000000E+00  0.00000000000E+00 -0.33715298108E+03  0.33715298109E+03  0.25500000920E-02 0.  1.
    10030    2    1    2    0    0  0.00000000000E+00  0.00000000000E+00  0.12399666635E+03  0.79830262853E+03  0.78861391913E+03 0.  0.
        1    1    3    3  502    0 -0.12579758864E+03  0.20291012220E+02  0.43973316219E+03  0.45782312353E+03  0.50400001928E-02 0. -1.
       -1    1    3    3    0  502  0.12579758864E+03 -0.20291012220E+02 -0.31573649585E+03  0.34047950499E+03  0.50400001928E-02 0.  1.
</event>
<event>
 5   0  0.2606520E-02  0.8159987E+03  0.7818609E-02  0.9537144E-01
       -1   -1    0    0    0  501  0.00000000000E+00  0.00000000000E+00  0.43212875729E+03  0.43212875732E+03  0.50400001928E-02 0. -1.
        1   -1    0    0  501    0  0.00000000000E+00  0.00000000000E+00 -0.38521727807E+03  0.38521727810E+03  0.50400001928E-02 0.  1.
    10030    2    1    2    0    0  0.00000000000E+00  0.00000000000E+00  0.46911479222E+02  0.81734603543E+03  0.81599868550E+03 0.  0.
        5    1    3    3  502    0 -0.70558912597E+02 -0.17765796104E+03 -0.33755643640E+03  0.38795276649E+03  0.46999998093E+01 0.  1.
       -5    1    3    3    0  502  0.70558912597E+02  0.17765796104E+03  0.38446791563E+03  0.42939326894E+03  0.46999998093E+01 0. -1.
</event>
<event>
 5   0  0.2606520E-02  0.8087122E+03  0.7818609E-02  0.9547491E-01
        1   -1    0    0  501    0  0.00000000000E+00  0.00000000000E+00  0.15728976515E+04  0.15728976515E+04  0.50400001928E-02 0.  1.
       -1   -1    0    0    0  501  0.00000000000E+00  0.00000000000E+00 -0.10395073148E+03  0.10395073161E+03  0.50400001928E-02 0. -1.
    10030    2    1    2    0    0  0.00000000000E+00  0.00000000000E+00  0.14689469201E+04  0.16768483832E+04  0.80871221466E+03 0.  0.
        5    1    3    3  502    0  0.16125516476E+03 -0.17786908843E+03  0.59903450276E+02  0.24748970511E+03  0.46999998093E+01 0. -1.
       -5    1    3    3    0  502 -0.16125516476E+03  0.17786908843E+03  0.14090434698E+04  0.14293586780E+04  0.46999998093E+01 0.  1.
</event>
<event>
 5   0  0.4700220E-02  0.1139611E+04  0.7818609E-02  0.9167421E-01
       -2   -1    0    0    0  501  0.00000000000E+00  0.00000000000E+00  0.23466541923E+03  0.23466541925E+03  0.25500000920E-02 0.  1.
        2   -1    0    0  501    0  0.00000000000E+00  0.00000000000E+00 -0.13835803023E+04  0.13835803023E+04  0.25500000920E-02 0. -1.
    10030    2    1    2    0    0  0.00000000000E+00  0.00000000000E+00 -0.11489148831E+04  0.16182457216E+04  0.11396112525E+04 0.  0.
        4    1    3    3  502    0  0.46601385885E+03  0.21131389467E+03 -0.21845297789E+03  0.55636839879E+03  0.12699999809E+01 0.  1.
       -4    1    3    3    0  502 -0.46601385885E+03 -0.21131389467E+03 -0.93046190519E+03  0.10618773228E+04  0.12699999809E+01 0. -1.
</event>
<event>
 5   0  0.2689372E-02  0.7592783E+03  0.7818609E-02  0.9620906E-01
       -1   -1    0    0    0  501  0.00000000000E+00  0.00000000000E+00  0.15743270252E+03  0.15743270260E+03  0.50400001928E-02 0. -1.
        1   -1    0    0  501    0  0.00000000000E+00  0.00000000000E+00 -0.91547622683E+03  0.91547622684E+03  0.50400001928E-02 0.  1.
    10030    2    1    2    0    0  0.00000000000E+00  0.00000000000E+00 -0.75804352430E+03  0.10729089294E+04  0.75927833246E+03 0.  0.
        4    1    3    3  502    0  0.38029539030E+02 -0.13883425927E+03 -0.87541386524E+03  0.88717092251E+03  0.12699999809E+01 0.  1.
       -4    1    3    3    0  502 -0.38029539030E+02  0.13883425927E+03  0.11737034094E+03  0.18573800693E+03  0.12699999809E+01 0. -1.
</event>
<event>
 5   0  0.4700220E-02  0.7999857E+03  0.7818609E-02  0.9560038E-01
       -2   -1    0    0    0  501  0.00000000000E+00  0.00000000000E+00  0.81934072828E+02  0.81934072868E+02  0.25500000920E-02 0. -1.
        2   -1    0    0  501    0  0.00000000000E+00  0.00000000000E+00 -0.19527195970E+04  0.19527195970E+04  0.25500000920E-02 0.  1.
    10030    2    1    2    0    0  0.00000000000E+00  0.00000000000E+00 -0.18707855242E+04  0.20346536699E+04  0.79998567416E+03 0.  0.
        4    1    3    3  502    0  0.20420009535E+03 -0.22609590940E+03 -0.27619743471E+03  0.41122217235E+03  0.12699999809E+01 0. -1.
       -4    1    3    3    0  502 -0.20420009535E+03  0.22609590940E+03 -0.15945880895E+04  0.16234314975E+04  0.12699999809E+01 0.  1.
</event>
<event>
 5   0  0.2759559E-02  0.8569533E+03  0.7818609E-02  0.9481052E-01
       -1   -1    0    0    0  501  0.00000000000E+00  0.00000000000E+00  0.45035701742E+03  0.45035701745E+03  0.50400001928E-02 0.  1.
        1   -1    0    0  501    0  0.00000000000E+00  0.00000000000E+00 -0.40765932732E+03  0.40765932735E+03  0.50400001928E-02 0. -1.
    10030    2    1    2    0    0  0.00000000000E+00  0.00000000000E+00  0.42697690100E+02  0.85801634479E+03  0.85695329814E+03 0.  0.
        3    1    3    3  502    0 -0.35277790906E+03  0.10598505621E+03  0.24049736602E+03  0.43991371714E+03  0.10100000352E+00 0.  1.
       -3    1    3    3    0  502  0.35277790906E+03 -0.10598505621E+03 -0.19779967592E+03  0.41810262766E+03  0.10100000352E+00 0. -1.
</event>
<event>
 5   0  0.2689372E-02  0.8865802E+03  0.7818609E-02  0.9442514E-01
        1   -1    0    0  501    0  0.00000000000E+00  0.00000000000E+00  0.98132740265E+03  0.98132740266E+03  0.50400001928E-02 0.  1.
       -1   -1    0    0    0  501  0.00000000000E+00  0.00000000000E+00 -0.20024522292E+03  0.20024522299E+03  0.50400001928E-02 0. -1.
    10030    2    1    2    0    0  0.00000000000E+00  0.00000000000E+00  0.78108217972E+03  0.11815726256E+04  0.88658022659E+03 0.  0.
        4    1    3    3  502    0 -0.12696929818E+03 -0.19926352658E+03 -0.10932592361E+03  0.26034770246E+03  0.12699999809E+01 0. -1.
       -4    1    3    3    0  502  0.12696929818E+03  0.19926352658E+03  0.89040810334E+03  0.92122492318E+03  0.12699999809E+01 0.  1.
</event>
<event>
 5   0  0.2769394E-02  0.8148822E+03  0.7818609E-02  0.9538722E-01
        1   -1    0    0  501    0  0.00000000000E+00  0.00000000000E+00  0.13836437801E+04  0.13836437801E+04  0.50400001928E-02 0. -1.
       -1   -1    0    0    0  501  0.00000000000E+00  0.00000000000E+00 -0.11997903083E+03  0.11997903094E+03  0.50400001928E-02 0.  1.
    10030    2    1    2    0    0  0.00000000000E+00  0.00000000000E+00  0.12636647493E+04  0.15036228111E+04  0.81488217516E+03 0.  0.
        2    1    3    3  502    0  0.98947358228E+02 -0.37478695066E+03  0.86342113465E+03  0.94644170125E+03  0.25500000920E-02 0. -1.
       -2    1    3    3    0  502 -0.98947358228E+02  0.37478695066E+03  0.40024361464E+03  0.55718110983E+03  0.25500000920E-02 0.  1.
</event>
<event>
 5   0  0.4684283E-02  0.7957962E+03  0.7818609E-02  0.9566122E-01
        2   -1    0    0  501    0  0.00000000000E+00  0.00000000000E+00  0.12851139215E+04  0.12851139215E+04  0.25500000920E-02 0. -1.
       -2   -1    0    0    0  501  0.00000000000E+00  0.00000000000E+00 -0.12319755819E+03  0.12319755821E+03  0.25500000920E-02 0.  1.
    10030    2    1    2    0    0  0.00000000000E+00  0.00000000000E+00  0.11619163633E+04  0.14083114797E+04  0.79579619788E+03 0.  0.
        1    1    3    3  502    0  0.32972266686E+03 -0.69643634347E+02  0.95534510321E+03  0.10130407391E+04  0.50400001928E-02 0. -1.
       -1    1    3    3    0  502 -0.32972266686E+03  0.69643634347E+02  0.20657126009E+03  0.39527074059E+03  0.50400001928E-02 0.  1.
</event>
<event>
 5   0  0.2635243E-02  0.7913634E+03  0.7818609E-02  0.9572603E-01
        1   -1    0    0  501    0  0.00000000000E+00  0.00000000000E+00  0.69770254221E+03  0.69770254223E+03  0.50400001928E-02 0. -1.
       -1   -1    0    0    0  501  0.00000000000E+00  0.00000000000E+00 -0.22439937436E+03  0.22439937441E+03  0.50400001928E-02 0.  1.
    10030    2    1    2    0    0  0.00000000000E+00  0.00000000000E+00  0.47330316786E+03  0.92210191664E+03  0.79136341587E+03 0.  0.
        1    1    3    3  502    0  0.86163919326E+01  0.39502122647E+03  0.26131442621E+03  0.47371008110E+03  0.50400001928E-02 0.  1.
       -1    1    3    3    0  502 -0.86163919326E+01 -0.39502122647E+03  0.21198874164E+03  0.44839183554E+03  0.50400001928E-02 0. -1.
</event>
<event>
 5   0  0.4590462E-02  0.8911936E+03  0.7818609E-02  0.9436657E-01
        2   -1    0    0  501    0  0.00000000000E+00  0.00000000000E+00  0.50404104505E+03  0.50404104505E+03  0.25500000920E-02 0. -1.
       -2   -1    0    0    0  501  0.00000000000E+00  0.00000000000E+00 -0.39392926368E+03  0.39392926369E+03  0.25500000920E-02 0.  1.
    10030    2    1    2    0    0  0.00000000000E+00  0.00000000000E+00  0.11011178136E+03  0.89797030875E+03  0.89119362150E+03 0.  0.
        3    1    3    3  502    0 -0.28020254845E+03  0.23038880179E+02  0.40339009191E+03  0.49169892679E+03  0.10100000352E+00 0. -1.
       -3    1    3    3    0  502  0.28020254845E+03 -0.23038880179E+02 -0.29327831054E+03  0.40627138195E+03  0.10100000352E+00 0.  1.
</event>
<event>
 5   0  0.4377843E-02  0.8081671E+03  0.7818609E-02  0.9548270E-01
       -2   -1    0    0    0  501  0.00000000000E+00  0.00000000000E+00  0.61205803414E+03  0.61205803415E+03  0.25500000920E-02 0. -1.
        2   -1    0    0  501    0  0.00000000000E+00  0.00000000000E+00 -0.26677782892E+03  0.26677782893E+03  0.25500000920E-02 0.  1.
    10030    2    1    2    0    0  0.00000000000E+00  0.00000000000E+00  0.34528020523E+03  0.87883586308E+03  0.80816709542E+03 0.  0.
        2    1    3    3  502    0 -0.15697539870E+03  0.17482743547E+03  0.53013880031E+03  0.57987330995E+03  0.25500000920E-02 0. -1.
       -2    1    3    3    0  502  0.15697539870E+03 -0.17482743547E+03 -0.18485859509E+03  0.29896255313E+03  0.25500000920E-02 0.  1.
</event>
<event>
 5   0  0.4700220E-02  0.7884313E+03  0.7818609E-02  0.9576915E-01
       -2   -1    0    0    0  501  0.00000000000E+00  0.00000000000E+00  0.20945482614E+03  0.20945482615E+03  0.25500000920E-02 0.  1.
        2   -1    0    0  501    0  0.00000000000E+00  0.00000000000E+00 -0.74195469080E+03  0.74195469080E+03  0.25500000920E-02 0. -1.
    10030    2    1    2    0    0  0.00000000000E+00  0.00000000000E+00 -0.53249986466E+03  0.95140951695E+03  0.78843133061E+03 0.  0.
        4    1    3    3  502    0  0.10760019647E+03  0.35739437142E+03 -0.11315513741E+03  0.39001825217E+03  0.12699999809E+01 0. -1.
       -4    1    3    3    0  502 -0.10760019647E+03 -0.35739437142E+03 -0.41934472725E+03  0.56139126478E+03  0.12699999809E+01 0.  1.
</event>
<event>
 5   0  0.2769394E-02  0.7903368E+03  0.7818609E-02  0.9574110E-01
       -1   -1    0    0    0  501  0.00000000000E+00  0.00000000000E+00  0.11399727069E+03  0.11399727080E+03  0.50400001928E-02 0.  1.
        1   -1    0    0  501    0  0.00000000000E+00  0.00000000000E+00 -0.13698405499E+04  0.13698405499E+04  0.50400001928E-02 0. -1.
    10030    2    1    2    0    0  0.00000000000E+00  0.00000000000E+00 -0.12558432792E+04  0.14838378207E+04  0.79033684985E+03 0.  0.
        2    1    3    3  502    0  0.35189060636E+02 -0.37886518298E+03 -0.82821390193E+03  0.91143588048E+03  0.25500000920E-02 0. -1.
       -2    1    3    3    0  502 -0.35189060636E+02  0.37886518298E+03 -0.42762937723E+03  0.57240194019E+03  0.25500000920E-02 0.  1.
</event>
<event>
 5   0  0.2635243E-02  0.8503989E+03  0.7818609E-02  0.9489802E-01
        1   -1    0    0  501    0  0.00000000000E+00  0.00000000000E+00  0.58290951261E+03  0.58290951263E+03  0.50400001928E-02 0.  1.
       -1   -1    0    0    0  501  0.00000000000E+00  0.00000000000E+00 -0.31015893434E+03  0.31015893438E+03  0.50400001928E-02 0. -1.
    10030    2    1    2    0    0  0.00000000000E+00  0.00000000000E+00  0.27275057827E+03  0.89306844701E+03  0.85039894938E+03 0.  0.
        1    1    3    3  502    0  0.19882750260E+03 -0.26343109456E+03 -0.14515465927E+03  0.36055262099E+03  0.50400001928E-02 0. -1.
       -1    1    3    3    0  502 -0.19882750260E+03  0.26343109456E+03  0.41790523754E+03  0.53251582602E+03  0.50400001928E-02 0.  1.
</event>
<event>
 5   0  0.4700220E-02  0.6012128E+03  0.7818609E-02  0.9902893E-01
       -2   -1    0    0    0  501  0.00000000000E+00  0.00000000000E+00  0.17203488408E+03  0.17203488410E+03  0.25500000920E-02 0. -1.
        2   -1    0    0  501    0  0.00000000000E+00  0.00000000000E+00 -0.52526681525E+03  0.52526681526E+03  0.25500000920E-02 0.  1.
    10030    2    1    2    0    0  0.00000000000E+00  0.00000000000E+00 -0.35323193117E+03  0.69730169935E+03  0.60121282648E+03 0.  0.
        4    1    3    3  502    0 -0.26803310309E+03 -0.83903177866E+02 -0.30089118054E+03  0.41160491133E+03  0.12699999809E+01 0. -1.
       -4    1    3    3    0  502  0.26803310309E+03  0.83903177866E+02 -0.52340750637E+02  0.28569678802E+03  0.12699999809E+01 0.  1.
</event>
<event>
 5   0  0.4663634E-02  0.7783898E+03  0.7818609E-02  0.9591835E-01
       -2   -1    0    0    0  501  0.00000000000E+00  0.00000000000E+00  0.82866917475E+02  0.82866917514E+02  0.25500000920E-02 0.  1.
        2   -1    0    0  501    0  0.00000000000E+00  0.00000000000E+00 -0.18279029684E+04  0.18279029684E+04  0.25500000920E-02 0. -1.
    10030    2    1    2    0    0  0.00000000000E+00  0.00000000000E+00 -0.17450360509E+04  0.19107698859E+04  0.77838983671E+03 0.  0.
        5    1    3    3  502    0  0.54434126637E+02  0.35525397326E+03 -0.12389468506E+04  0.12900309485E+04  0.46999998093E+01 0. -1.
       -5    1    3    3    0  502 -0.54434126637E+02 -0.35525397326E+03 -0.50608920036E+03  0.62073893738E+03  0.46999998093E+01 0.  1.
</event>
<event>
 5   0  0.2769394E-02  0.7895283E+03  0.7818609E-02  0.9575299E-01
       -1   -1    0    0    0  501  0.00000000000E+00  0.00000000000E+00  0.98234305860E+02  0.98234305989E+02  0.50400001928E-02 0.  1.
        1   -1    0    0  501    0  0.00000000000E+00  0.00000000000E+00 -0.15863981494E+04  0.15863981494E+04  0.50400001928E-02 0. -1.
    10030    2    1    2    0    0  0.00000000000E+00  0.00000000000E+00 -0.14881638435E+04  0.16846324554E+04  0.78952826710E+03 0.  0.
        2    1    3    3  502    0  0.92702972452E+02  0.91039307978E+02  0.51302835580E+02  0.13969243947E+03  0.25500000920E-02 0.  1.
       -2    1    3    3    0  502 -0.92702972452E+02 -0.91039307978E+02 -0.15394666791E+04  0.15449400159E+04  0.25500000920E-02 0. -1.
</event>
<event>
 5   0  0.1786500E-02  0.7767801E+03  0.7818609E-02  0.9594249E-01
       -3   -1    0    0    0  501  0.00000000000E+00  0.00000000000E+00  0.13232095082E+04  0.13232095121E+04  0.10100000352E+00 0.  1.
        3   -1    0    0  501    0  0.00000000000E+00  0.00000000000E+00 -0.11400069005E+03  0.11400073479E+03  0.10100000352E+00 0. -1.
    10030    2    1    2    0    0  0.00000000000E+00  0.00000000000E+00  0.12092088182E+04  0.14372102469E+04  0.77678010256E+03 0.  0.
        1    1    3    3  502    0 -0.76355932139E+02  0.24529857476E+03  0.65670035611E+02  0.26516819710E+03  0.50400001928E-02 0. -1.
       -1    1    3    3    0  502  0.76355932139E+02 -0.24529857476E+03  0.11435387825E+04  0.11720420497E+04  0.50400001928E-02 0.  1.
</event>
<event>
 5   0  0.2759559E-02  0.6674684E+03  0.7818609E-02  0.9774542E-01
        1   -1    0    0  501    0  0.00000000000E+00  0.00000000000E+00  0.32905973921E+03  0.32905973925E+03  0.50400001928E-02 0. -1.
       -1   -1    0    0    0  501  0.00000000000E+00  0.00000000000E+00 -0.33847509523E+03  0.33847509527E+03  0.50400001928E-02 0.  1.
    10030    2    1    2    0    0  0.00000000000E+00  0.00000000000E+00 -0.94153560181E+01  0.66753483452E+03  0.66746843099E+03 0.  0.
        3    1    3    3  502    0 -0.18239040242E+03 -0.50903711194E+02 -0.27954598857E+03  0.33764391989E+03  0.10100000352E+00 0.  1.
       -3    1    3    3    0  502  0.18239040242E+03  0.50903711194E+02  0.27013063256E+03  0.32989091463E+03  0.10100000352E+00 0. -1.
</event>
<event>
 5   0  0.4377843E-02  0.8220871E+03  0.7818609E-02  0.9528586E-01
       -2   -1    0    0    0  501  0.00000000000E+00  0.00000000000E+00  0.19862652630E+03  0.19862652632E+03  0.25500000920E-02 0. -1.
        2   -1    0    0  501    0  0.00000000000E+00  0.00000000000E+00 -0.85062563667E+03  0.85062563668E+03  0.25500000920E-02 0.  1.
    10030    2    1    2    0    0  0.00000000000E+00  0.00000000000E+00 -0.65199911038E+03  0.10492521630E+04  0.82208713748E+03 0.  0.
        2    1    3    3  502    0  0.25128943407E+02  0.37057650743E+03 -0.10128475070E+03  0.38498962633E+03  0.25500000920E-02 0. -1.
       -2    1    3    3    0  502 -0.25128943407E+02 -0.37057650743E+03 -0.55071435968E+03  0.66426253666E+03  0.25500000920E-02 0.  1.
</event>
<event>
 5   0  0.4700220E-02  0.8016852E+03  0.7818609E-02  0.9557581E-01
       -2   -1    0    0    0  501  0.00000000000E+00  0.00000000000E+00  0.54038512749E+03  0.54038512750E+03  0.25500000920E-02 0. -1.
        2   -1    0    0  501    0  0.00000000000E+00  0.00000000000E+00 -0.29733387267E+03  0.29733387268E+03  0.25500000920E-02 0.  1.
    10030    2    1    2    0    0  0.00000000000E+00  0.00000000000E+00  0.24305125482E+03  0.83771900018E+03  0.80168523174E+03 0.  0.
        4    1    3    3  502    0 -0.23145050978E+03  0.18271915122E+03  0.40523910526E+03  0.50117459237E+03  0.12699999809E+01 0. -1.
       -4    1    3    3    0  502  0.23145050978E+03 -0.18271915122E+03 -0.16218785044E+03  0.33654440781E+03  0.12699999809E+01 0.  1.
</event>
<event>
 5   0  0.2635243E-02  0.7720256E+03  0.7818609E-02  0.9601416E-01
        1   -1    0    0  501    0  0.00000000000E+00  0.00000000000E+00  0.25906464144E+03  0.25906464149E+03  0.50400001928E-02 0. -1.
       -1   -1    0    0    0  501  0.00000000000E+00  0.00000000000E+00 -0.57516866664E+03  0.57516866667E+03  0.50400001928E-02 0.  1.
    10030    2    1    2    0    0  0.00000000000E+00  0.00000000000E+00 -0.31610402520E+03  0.83423330816E+03  0.77202555508E+03 0.  0.
        1    1    3    3  502    0 -0.27601982997E+03  0.14232011089E+03  0.89689996799E+02  0.32324333876E+03  0.50400001928E-02 0. -1.
       -1    1    3    3    0  502  0.27601982997E+03 -0.14232011089E+03 -0.40579402200E+03  0.51098996939E+03  0.50400001928E-02 0.  1.
</event>
<event>
 5   0  0.2635243E-02  0.7688798E+03  0.7818609E-02  0.9606188E-01
       -1   -1    0    0    0  501  0.00000000000E+00  0.00000000000E+00  0.48077205322E+03  0.48077205325E+03  0.50400001928E-02 0. -1.
        1   -1    0    0  501    0  0.00000000000E+00  0.00000000000E+00 -0.30740980184E+03  0.30740980188E+03  0.50400001928E-02 0.  1.
    10030    2    1    2    0    0  0.00000000000E+00  0.00000000000E+00  0.17336225138E+03  0.78818185513E+03  0.76887981281E+03 0.  0.
        1    1    3    3  502    0 -0.23949932754E+02 -0.17714573590E+03 -0.26221562996E+03  0.31735035473E+03  0.50400001928E-02 0.  1.
       -1    1    3    3    0  502  0.23949932754E+02  0.17714573590E+03  0.43557788134E+03  0.47083150040E+03  0.50400001928E-02 0. -1.
</event>
<event>
 5   0  0.4590462E-02  0.7927543E+03  0.7818609E-02  0.9570565E-01
       -2   -1    0    0    0  501  0.00000000000E+00  0.00000000000E+00  0.13185264887E+03  0.13185264889E+03  0.25500000920E-02 0. -1.
        2   -1    0    0  501    0  0.00000000000E+00  0.00000000000E+00 -0.11915940124E+04  0.11915940124E+04  0.25500000920E-02 0.  1.
    10030    2    1    2    0    0  0.00000000000E+00  0.00000000000E+00 -0.10597413636E+04  0.13234466613E+04  0.79275425432E+03 0.  0.
        3    1    3    3  502    0 -0.32235740457E+03  0.98416690239E+02 -0.18162500304E+03  0.38286785335E+03  0.10100000352E+00 0. -1.
       -3    1    3    3    0  502  0.32235740457E+03 -0.98416690239E+02 -0.87811636053E+03  0.94057880798E+03  0.10100000352E+00 0.  1.
</event>
<event>
 5   0  0.2689372E-02  0.8171619E+03  0.7818609E-02  0.9535503E-01
       -1   -1    0    0    0  501  0.00000000000E+00  0.00000000000E+00  0.44801041340E+03  0.44801041342E+03  0.50400001928E-02 0. -1.
        1   -1    0    0  501    0  0.00000000000E+00  0.00000000000E+00 -0.37262164543E+03  0.37262164547E+03  0.50400001928E-02 0.  1.
    10030    2    1    2    0    0  0.00000000000E+00  0.00000000000E+00  0.75388767964E+02  0.82063205889E+03  0.81716186264E+03 0.  0.
        4    1    3    3  502    0 -0.30426052278E+03  0.25234236592E+03  0.14150468224E+03  0.41985274009E+03  0.12699999809E+01 0. -1.
       -4    1    3    3    0  502  0.30426052278E+03 -0.25234236592E+03 -0.66115914280E+02  0.40077931881E+03  0.12699999809E+01 0.  1.
</event>
<event>
 5   0  0.2635243E-02  0.7845858E+03  0.7818609E-02  0.9582600E-01
        1   -1    0    0  501    0  0.00000000000E+00  0.00000000000E+00  0.10678930306E+04  0.10678930306E+04  0.50400001928E-02 0.  1.
       -1   -1    0    0    0  501  0.00000000000E+00  0.00000000000E+00 -0.14410968029E+03  0.14410968038E+03  0.50400001928E-02 0. -1.
    10030    2    1    2    0    0  0.00000000000E+00  0.00000000000E+00  0.92378335029E+03  0.12120027110E+04  0.78458580991E+03 0.  0.
        1    1    3    3  502    0 -0.73500710914E+02 -0.23531549095E+03 -0.94978578358E+01  0.24671024323E+03  0.50400001928E-02 0. -1.
       -1    1    3    3    0  502  0.73500710914E+02  0.23531549095E+03  0.93328120813E+03  0.96529246773E+03  0.50400001928E-02 0.  1.
</event>
<event>
 5   0  0.1786500E-02  0.7938447E+03  0.7818609E-02  0.9568970E-01
        3   -1    0    0  501    0  0.00000000000E+00  0.00000000000E+00  0.11599686094E+04  0.11599686138E+04  0.10100000352E+00 0. -1.
       -3   -1    0    0    0  501  0.00000000000E+00  0.00000000000E+00 -0.13582033826E+03  0.13582037581E+03  0.10100000352E+00 0.  1.
    10030    2    1    2    0    0  0.00000000000E+00  0.00000000000E+00  0.10241482711E+04  0.12957889896E+04  0.79384471044E+03 0.  0.
        1    1    3    3  502    0  0.15576918164E+03 -0.43210537441E+02  0.11038035101E+04  0.11155775981E+04  0.50400001928E-02 0. -1.
       -1    1    3    3    0  502 -0.15576918164E+03  0.43210537441E+02 -0.79655238976E+02  0.18021139147E+03  0.50400001928E-02 0.  1.
</event>
<event>
 5   0  0.2635243E-02  0.9320833E+03  0.7818609E-02  0.9386341E-01
       -1   -1    0    0    0  501  0.00000000000E+00  0.00000000000E+00  0.23539208991E+03  0.23539208996E+03  0.50400001928E-02 0.  1.
        1   -1    0    0  501    0  0.00000000000E+00  0.00000000000E+00 -0.92269383761E+03  0.92269383762E+03  0.50400001928E-02 0. -1.
    10030    2    1    2    0    0  0.00000000000E+00  0.00000000000E+00 -0.68730174770E+03  0.11580859276E+04  0.93208332422E+03 0.  0.
        1    1    3    3  502    0  0.86275120431E+02  0.42995355321E+03 -0.14762630698E+03  0.46270614958E+03  0.50400001928E-02 0.  1.
       -1    1    3    3    0  502 -0.86275120431E+02 -0.42995355321E+03 -0.53967544072E+03  0.69537977801E+03  0.50400001928E-02 0. -1.
</event>
<event>
 5   0  0.2759559E-02  0.7838694E+03  0.7818609E-02  0.9583663E-01
        1   -1    0    0  501    0  0.00000000000E+00  0.00000000000E+00  0.87998657326E+03  0.87998657327E+03  0.50400001928E-02 0.  1.
       -1   -1    0    0    0  501  0.00000000000E+00  0.00000000000E+00 -0.17456267649E+03  0.17456267656E+03  0.50400001928E-02 0. -1.
    10030    2    1    2    0    0  0.00000000000E+00  0.00000000000E+00  0.70542389677E+03  0.10545492498E+04  0.78386940633E+03 0.  0.
        3    1    3    3  502    0 -0.27088212013E+03 -0.17288074759E+03  0.50846127261E+02  0.32534629973E+03  0.10100000352E+00 0. -1.
       -3    1    3    3    0  502  0.27088212013E+03  0.17288074759E+03  0.65457776951E+03  0.72920295010E+03  0.10100000352E+00 0.  1.
</event>
<event>
 5   0  0.1786500E-02  0.7322832E+03  0.7818609E-02  0.9663563E-01
        4   -1    0    0  501    0  0.00000000000E+00  0.00000000000E+00  0.66004710972E+03  0.66004833153E+03  0.12699999809E+01 0.  1.
       -4   -1    0    0    0  501  0.00000000000E+00  0.00000000000E+00 -0.20310279641E+03  0.20310676702E+03  0.12699999809E+01 0. -1.
    10030    2    1    2    0    0  0.00000000000E+00  0.00000000000E+00  0.45694431332E+03  0.86315509855E+03  0.73228315471E+03 0.  0.
        2    1    3    3  502    0  0.67408815410E+02  0.15858003286E+03 -0.15232495205E+03  0.22998796978E+03  0.25500000920E-02 0. -1.
       -2    1    3    3    0  502 -0.67408815410E+02 -0.15858003286E+03  0.60926926537E+03  0.63316712877E+03  0.25500000920E-02 0.  1.
</event>
<event>
 5   0  0.2689372E-02  0.6795880E+03  0.7818609E-02  0.9752790E-01
        1   -1    0    0  501    0  0.00000000000E+00  0.00000000000E+00  0.12616561050E+03  0.12616561060E+03  0.50400001928E-02 0.  1.
       -1   -1    0    0    0  501  0.00000000000E+00  0.00000000000E+00 -0.91514614741E+03  0.91514614742E+03  0.50400001928E-02 0. -1.
    10030    2    1    2    0    0  0.00000000000E+00  0.00000000000E+00 -0.78898053691E+03  0.10413117580E+04  0.67958802945E+03 0.  0.
        4    1    3    3  502    0 -0.25277294403E+03  0.14440076347E+03 -0.12595986174E+03  0.31719590381E+03  0.12699999809E+01 0.  1.
       -4    1    3    3    0  502  0.25277294403E+03 -0.14440076347E+03 -0.66302067517E+03  0.72411585421E+03  0.12699999809E+01 0. -1.
</event>
<event>
 5   0  0.2635243E-02  0.8447074E+03  0.7818609E-02  0.9497468E-01
        1   -1    0    0  501    0  0.00000000000E+00  0.00000000000E+00  0.88421250553E+03  0.88421250555E+03  0.50400001928E-02 0. -1.
       -1   -1    0    0    0  501  0.00000000000E+00  0.00000000000E+00 -0.20174183445E+03  0.20174183451E+03  0.50400001928E-02 0.  1.
    10030    2    1    2    0    0  0.00000000000E+00  0.00000000000E+00  0.68247067109E+03  0.10859543401E+04  0.84470741194E+03 0.  0.
        1    1    3    3  502    0 -0.38810105929E+03  0.98200115340E+01  0.55506161769E+03  0.67735682200E+03  0.50400001928E-02 0. -1.
       -1    1    3    3    0  502  0.38810105929E+03 -0.98200115340E+01  0.12740905340E+03  0.40859751806E+03  0.50400001928E-02 0.  1.
</event>
<event>
 5   0  0.2635243E-02  0.7942976E+03  0.7818609E-02  0.9568308E-01
       -1   -1    0    0    0  501  0.00000000000E+00  0.00000000000E+00  0.39144317404E+03  0.39144317407E+03  0.50400001928E-02 0.  1.
        1   -1    0    0  501    0  0.00000000000E+00  0.00000000000E+00 -0.40293761421E+03  0.40293761424E+03  0.50400001928E-02 0. -1.
    10030    2    1    2    0    0  0.00000000000E+00  0.00000000000E+00 -0.11494440168E+02  0.79438078831E+03  0.79429762349E+03 0.  0.
        1    1    3    3  502    0  0.29646521560E+03 -0.11494540590E+02  0.25829449464E+03  0.39336979359E+03  0.50400001928E-02 0.  1.
       -1    1    3    3    0  502 -0.29646521560E+03  0.11494540590E+02 -0.26978893481E+03  0.40101099473E+03  0.50400001928E-02 0. -1.
</event>
<event>
 5   0  0.4663634E-02  0.8059023E+03  0.7818609E-02  0.9551513E-01
       -2   -1    0    0    0  501  0.00000000000E+00  0.00000000000E+00  0.20649930374E+03  0.20649930375E+03  0.25500000920E-02 0.  1.
        2   -1    0    0  501    0  0.00000000000E+00  0.00000000000E+00 -0.78629621799E+03  0.78629621800E+03  0.25500000920E-02 0. -1.
    10030    2    1    2    0    0  0.00000000000E+00  0.00000000000E+00 -0.57979691426E+03  0.99279552175E+03  0.80590228082E+03 0.  0.
        5    1    3    3  502    0  0.25923306819E+02  0.17717123408E+03  0.15475951106E+03  0.23671556831E+03  0.46999998093E+01 0.  1.
       -5    1    3    3    0  502 -0.25923306819E+02 -0.17717123408E+03 -0.73455642531E+03  0.75607995344E+03  0.46999998093E+01 0. -1.
</event>
<event>
 5   0  0.4700220E-02  0.7996548E+03  0.7818609E-02  0.9560517E-01
        2   -1    0    0  501    0  0.00000000000E+00  0.00000000000E+00  0.15147638008E+03  0.15147638010E+03  0.25500000920E-02 0. -1.
       -2   -1    0    0    0  501  0.00000000000E+00  0.00000000000E+00 -0.10553588473E+04  0.10553588473E+04  0.25500000920E-02 0.  1.
    10030    2    1    2    0    0  0.00000000000E+00  0.00000000000E+00 -0.90388246725E+03  0.12068352274E+04  0.79965477024E+03 0.  0.
        4    1    3    3  502    0  0.31932282883E+03 -0.23430890204E+03 -0.53450117507E+03  0.66525247060E+03  0.12699999809E+01 0.  1.
       -4    1    3    3    0  502 -0.31932282883E+03  0.23430890204E+03 -0.36938129217E+03  0.54158275683E+03  0.12699999809E+01 0. -1.
</event>
<event>
 5   0  0.2606520E-02  0.7950143E+03  0.7818609E-02  0.9567262E-01
       -1   -1    0    0    0  501  0.00000000000E+00  0.00000000000E+00  0.13519929950E+03  0.13519929959E+03  0.50400001928E-02 0. -1.
        1   -1    0    0  501    0  0.00000000000E+00  0.00000000000E+00 -0.11687335099E+04  0.11687335099E+04  0.50400001928E-02 0.  1.
    10030    2    1    2    0    0  0.00000000000E+00  0.00000000000E+00 -0.10335342104E+04  0.13039328095E+04  0.79501434428E+03 0.  0.
        5    1    3    3  502    0  0.18348643318E+03  0.35179003696E+03 -0.55579964221E+03  0.68290470312E+03  0.46999998093E+01 0. -1.
       -5    1    3    3    0  502 -0.18348643318E+03 -0.35179003696E+03 -0.47773456816E+03  0.62102810635E+03  0.46999998093E+01 0.  1.
</event>
<event>
 5   0  0.4700220E-02  0.8197761E+03  0.7818609E-02  0.9531825E-01
       -2   -1    0    0    0  501  0.00000000000E+00  0.00000000000E+00  0.33493103809E+03  0.33493103810E+03  0.25500000920E-02 0. -1.
        2   -1    0    0  501    0  0.00000000000E+00  0.00000000000E+00 -0.50162035623E+03  0.50162035624E+03  0.25500000920E-02 0.  1.
    10030    2    1    2    0    0  0.00000000000E+00  0.00000000000E+00 -0.16668931815E+03  0.83655139434E+03  0.81977613199E+03 0.  0.
        4    1    3    3  502    0  0.11928753394E+03  0.37381753997E+03  0.37559971814E+02  0.39418451685E+03  0.12699999809E+01 0. -1.
       -4    1    3    3    0  502 -0.11928753394E+03 -0.37381753997E+03 -0.20424928996E+03  0.44236687748E+03  0.12699999809E+01 0.  1.
</event>
<event>
 5   0  0.2759559E-02  0.8424447E+03  0.7818609E-02  0.9500534E-01
       -1   -1    0    0    0  501  0.00000000000E+00  0.00000000000E+00  0.20301323315E+03  0.20301323321E+03  0.50400001928E-02 0. -1.
        1   -1    0    0  501    0  0.00000000000E+00  0.00000000000E+00 -0.87397386200E+03  0.87397386201E+03  0.50400001928E-02 0.  1.
    10030    2    1    2    0    0  0.00000000000E+00  0.00000000000E+00 -0.67096062885E+03  0.10769870952E+04  0.84244467938E+03 0.  0.
        3    1    3    3  502    0  0.17877294233E+03  0.27082507720E+03  0.78433798603E+01  0.32460362931E+03  0.10100000352E+00 0. -1.
       -3    1    3    3    0  502 -0.17877294233E+03 -0.27082507720E+03 -0.67880400871E+03  0.75238346592E+03  0.10100000352E+00 0.  1.
</event>
<event>
 5   0  0.4377843E-02  0.8114687E+03  0.7818609E-02  0.9543563E-01
       -2   -1    0    0    0  501  0.00000000000E+00  0.00000000000E+00  0.67928326586E+02  0.67928326633E+02  0.25500000920E-02 0. -1.
        2   -1    0    0  501    0  0.00000000000E+00  0.00000000000E+00 -0.24234419008E+04  0.24234419008E+04  0.25500000920E-02 0.  1.
    10030    2    1    2    0    0  0.00000000000E+00  0.00000000000E+00 -0.23555135742E+04  0.24913702274E+04  0.81146867582E+03 0.  0.
        2    1    3    3  502    0  0.21720388334E+02  0.19756454661E+03 -0.22637431516E+04  0.22724516677E+04  0.25500000920E-02 0.  1.
       -2    1    3    3    0  502 -0.21720388334E+02 -0.19756454661E+03 -0.91770422603E+02  0.21891855978E+03  0.25500000920E-02 0. -1.
</event>
<event>
 5   0  0.4684283E-02  0.7876785E+03  0.7818609E-02  0.9578025E-01
       -2   -1    0    0    0  501  0.00000000000E+00  0.00000000000E+00  0.82910051001E+03  0.82910051001E+03  0.25500000920E-02 0. -1.
        2   -1    0    0  501    0  0.00000000000E+00  0.00000000000E+00 -0.18708150411E+03  0.18708150412E+03  0.25500000920E-02 0.  1.
    10030    2    1    2    0    0  0.00000000000E+00  0.00000000000E+00  0.64201900590E+03  0.10161820141E+04  0.78767853971E+03 0.  0.
        1    1    3    3  502    0 -0.32654775826E+03  0.10523165061E+03  0.71509101397E+02  0.35045782960E+03  0.50400001928E-02 0.  1.
       -1    1    3    3    0  502  0.32654775826E+03 -0.10523165061E+03  0.57050990451E+03  0.66572418454E+03  0.50400001928E-02 0. -1.
</event>
<event>
 5   0  0.2689372E-02  0.7452441E+03  0.7818609E-02  0.9642841E-01
        1   -1    0    0  501    0  0.00000000000E+00  0.00000000000E+00  0.94669957360E+03  0.94669957362E+03  0.50400001928E-02 0. -1.
       -1   -1    0    0    0  501  0.00000000000E+00  0.00000000000E+00 -0.14666448244E+03  0.14666448253E+03  0.50400001928E-02 0.  1.
    10030    2    1    2    0    0  0.00000000000E+00  0.00000000000E+00  0.80003509116E+03  0.10933640561E+04  0.74524412924E+03 0.  0.
        4    1    3    3  502    0 -0.26814971298E+03 -0.24366027790E+03  0.27236114911E+03  0.45327343629E+03  0.12699999809E+01 0.  1.
       -4    1    3    3    0  502  0.26814971298E+03  0.24366027790E+03  0.52767394206E+03  0.64009061986E+03  0.12699999809E+01 0. -1.
</event>
<event>
 5   0  0.4684283E-02  0.7890754E+03  0.7818609E-02  0.9575966E-01
       -2   -1    0    0    0  501  0.00000000000E+00  0.00000000000E+00  0.16873552788E+03  0.16873552789E+03  0.25500000920E-02 0.  1.
        2   -1    0    0  501    0  0.00000000000E+00  0.00000000000E+00 -0.92250866848E+03  0.92250866849E+03  0.25500000920E-02 0. -1.
    10030    2    1    2    0    0  0.00000000000E+00  0.00000000000E+00 -0.75377314061E+03  0.10912441964E+04  0.78907537576E+03 0.  0.
        1    1    3    3  502    0  0.29996456923E+02 -0.29957879759E+03 -0.72950312981E+03  0.78919076263E+03  0.50400001928E-02 0. -1.
       -1    1    3    3    0  502 -0.29996456923E+02  0.29957879759E+03 -0.24270010797E+02  0.30205343375E+03  0.50400001928E-02 0.  1.
</event>
<event>
 5   0  0.1786500E-02  0.8087909E+03  0.7818609E-02  0.9547379E-01
       -4   -1    0    0    0  501  0.00000000000E+00  0.00000000000E+00  0.29347671618E+03  0.29347946409E+03  0.12699999809E+01 0. -1.
        4   -1    0    0  501    0  0.00000000000E+00  0.00000000000E+00 -0.55722952110E+03  0.55723096834E+03  0.12699999809E+01 0.  1.
    10030    2    1    2    0    0  0.00000000000E+00  0.00000000000E+00 -0.26375280492E+03  0.85071043243E+03  0.80879088629E+03 0.  0.
        5    1    3    3  502    0 -0.20103246341E+03  0.26764814551E+03 -0.37049115620E+03  0.49933492564E+03  0.46999998093E+01 0. -1.
       -5    1    3    3    0  502  0.20103246341E+03 -0.26764814551E+03  0.10673835129E+03  0.35137550679E+03  0.46999998093E+01 0.  1.
</event>
<event>
 5   0  0.4700220E-02  0.7407889E+03  0.7818609E-02  0.9649913E-01
       -2   -1    0    0    0  501  0.00000000000E+00  0.00000000000E+00  0.38812364714E+03  0.38812364715E+03  0.25500000920E-02 0.  1.
        2   -1    0    0  501    0  0.00000000000E+00  0.00000000000E+00 -0.35347514695E+03  0.35347514696E+03  0.25500000920E-02 0. -1.
    10030    2    1    2    0    0  0.00000000000E+00  0.00000000000E+00  0.34648500193E+02  0.74159879410E+03  0.74078893948E+03 0.  0.
        4    1    3    3  502    0 -0.34301120930E+03  0.99234556396E+02 -0.81202160969E+02  0.36619610967E+03  0.12699999809E+01 0. -1.
       -4    1    3    3    0  502  0.34301120930E+03 -0.99234556396E+02  0.11585066116E+03  0.37540268444E+03  0.12699999809E+01 0.  1.
</event>
<event>
 5   0  0.4590462E-02  0.7840986E+03  0.7818609E-02  0.9583323E-01
       -2   -1    0    0    0  501  0.00000000000E+00  0.00000000000E+00  0.14685219500E+03  0.14685219503E+03  0.25500000920E-02 0.  1.
        2   -1    0    0  501    0  0.00000000000E+00  0.00000000000E+00 -0.10466486127E+04  0.10466486127E+04  0.25500000920E-02 0. -1.
    10030    2    1    2    0    0  0.00000000000E+00  0.00000000000E+00 -0.89979641773E+03  0.11935008078E+04  0.78409858103E+03 0.  0.
        3    1    3    3  502    0 -0.25998298135E+03  0.25365048062E+03 -0.67449853298E+03  0.76607962908E+03  0.10100000352E+00 0. -1.
       -3    1    3    3    0  502  0.25998298135E+03 -0.25365048062E+03 -0.22529788475E+03  0.42742117868E+03  0.10100000352E+00 0.  1.
</event>
<event>
 5   0  0.2769394E-02  0.7837011E+03  0.7818609E-02  0.9583913E-01
       -1   -1    0    0    0  501  0.00000000000E+00  0.00000000000E+00  0.10992796538E+03  0.10992796550E+03  0.50400001928E-02 0.  1.
        1   -1    0    0  501    0  0.00000000000E+00  0.00000000000E+00 -0.13967952798E+04  0.13967952798E+04  0.50400001928E-02 0. -1.
    10030    2    1    2    0    0  0.00000000000E+00  0.00000000000E+00 -0.12868673144E+04  0.15067232453E+04  0.78370112481E+03 0.  0.
        2    1    3    3  502    0  0.26343370187E+03 -0.88317123247E+02 -0.11746684332E+04  0.12070804271E+04  0.25500000920E-02 0. -1.
       -2    1    3    3    0  502 -0.26343370187E+03  0.88317123247E+02 -0.11219888120E+03  0.29964281818E+03  0.25500000920E-02 0.  1.
</event>
<event>
 5   0  0.2689372E-02  0.8339033E+03  0.7818609E-02  0.9512200E-01
       -1   -1    0    0    0  501  0.00000000000E+00  0.00000000000E+00  0.71554167897E+02  0.71554168074E+02  0.50400001928E-02 0. -1.
        1   -1    0    0  501    0  0.00000000000E+00  0.00000000000E+00 -0.24296091849E+04  0.24296091849E+04  0.50400001928E-02 0.  1.
    10030    2    1    2    0    0  0.00000000000E+00  0.00000000000E+00 -0.23580550170E+04  0.25011633530E+04  0.83390326481E+03 0.  0.
        4    1    3    3  502    0  0.16358814665E+03 -0.24636363043E+03 -0.29745008621E+03  0.41944521312E+03  0.12699999809E+01 0. -1.
       -4    1    3    3    0  502 -0.16358814665E+03  0.24636363043E+03 -0.20606049308E+04  0.20817181398E+04  0.12699999809E+01 0.  1.
</event>
<event>
 5   0  0.2759559E-02  0.7950467E+03  0.7818609E-02  0.9567215E-01
       -1   -1    0    0    0  501  0.00000000000E+00  0.00000000000E+00  0.12140511049E+03  0.12140511060E+03  0.50400001928E-02 0. -1.
        1   -1    0    0  501    0  0.00000000000E+00  0.00000000000E+00 -0.13016323216E+04  0.13016323216E+04  0.50400001928E-02 0.  1.
    10030    2    1    2    0    0  0.00000000000E+00  0.00000000000E+00 -0.11802272111E+04  0.14230374322E+04  0.79504670530E+03 0.  0.
        3    1    3    3  502    0  0.18042408824E+03  0.29845482673E+03 -0.24864206779E+03  0.42831182950E+03  0.10100000352E+00 0. -1.
       -3    1    3    3    0  502 -0.18042408824E+03 -0.29845482673E+03 -0.93158514329E+03  0.99472560268E+03  0.10100000352E+00 0.  1.
</event>
<event>
 5   0  0.2759559E-02  0.8508407E+03  0.7818609E-02  0.9489209E-01
       -1   -1    0    0    0  501  0.00000000000E+00  0.00000000000E+00  0.14117150067E+03  0.14117150076E+03  0.50400001928E-02 0.  1.
        1   -1    0    0  501    0  0.00000000000E+00  0.00000000000E+00 -0.12820044319E+04  0.12820044319E+04  0.50400001928E-02 0. -1.
    10030    2    1    2    0    0  0.00000000000E+00  0.00000000000E+00 -0.11408329312E+04  0.14231759327E+04  0.85084073618E+03 0.  0.
        3    1    3    3  502    0  0.39192940059E+02  0.37086899403E+03 -0.22801886792E+03  0.43711841829E+03  0.10100000352E+00 0.  1.
       -3    1    3    3    0  502 -0.39192940059E+02 -0.37086899403E+03 -0.91281406332E+03  0.98605751439E+03  0.10100000352E+00 0. -1.
</event>
<event>
 5   0  0.4590462E-02  0.7880880E+03  0.7818609E-02  0.9577421E-01
       -2   -1    0    0    0  501  0.00000000000E+00  0.00000000000E+00  0.17946569718E+03  0.17946569719E+03  0.25500000920E-02 0. -1.
        2   -1    0    0  501    0  0.00000000000E+00  0.00000000000E+00 -0.86518306674E+03  0.86518306674E+03  0.25500000920E-02 0.  1.
    10030    2    1    2    0    0  0.00000000000E+00  0.00000000000E+00 -0.68571736956E+03  0.10446487639E+04  0.78808802114E+03 0.  0.
        3    1    3    3  502    0  0.34039825339E+03 -0.49013927851E+02 -0.59782381872E+03  0.68968591726E+03  0.10100000352E+00 0.  1.
       -3    1    3    3    0  502 -0.34039825339E+03  0.49013927851E+02 -0.87893550837E+02  0.35496284667E+03  0.10100000352E+00 0. -1.
</event>
<event>
 5   0  0.4663634E-02  0.7700130E+03  0.7818609E-02  0.9604466E-01
        2   -1    0    0  501    0  0.00000000000E+00  0.00000000000E+00  0.32589912980E+03  0.32589912981E+03  0.25500000920E-02 0.  1.
       -2   -1    0    0    0  501  0.00000000000E+00  0.00000000000E+00 -0.45483403668E+03  0.45483403669E+03  0.25500000920E-02 0. -1.
    10030    2    1    2    0    0  0.00000000000E+00  0.00000000000E+00 -0.12893490688E+03  0.78073316651E+03  0.77001303045E+03 0.  0.
        5    1    3    3  502    0 -0.35898326585E+03 -0.91909405778E+02  0.41348329786E+02  0.37289153705E+03  0.46999998093E+01 0.  1.
       -5    1    3    3    0  502  0.35898326585E+03  0.91909405778E+02 -0.17028323667E+03  0.40784162946E+03  0.46999998093E+01 0. -1.
</event>
<event>
 5   0  0.4377843E-02  0.7918764E+03  0.7818609E-02  0.9571851E-01
        2   -1    0    0  501    0  0.00000000000E+00  0.00000000000E+00  0.12973261126E+04  0.12973261126E+04  0.25500000920E-02 0. -1.
       -2   -1    0    0    0  501  0.00000000000E+00  0.00000000000E+00 -0.12083859002E+03  0.12083859005E+03  0.25500000920E-02 0.  1.
    10030    2    1    2    0    0  0.00000000000E+00  0.00000000000E+00  0.11764875226E+04  0.14181647027E+04  0.79187640013E+03 0.  0.
        2    1    3    3  502    0 -0.11240205822E+02  0.38797505870E+03  0.72830097762E+03  0.82527165370E+03  0.25500000920E-02 0. -1.
       -2    1    3    3    0  502  0.11240205822E+02 -0.38797505870E+03  0.44818654496E+03  0.59289304895E+03  0.25500000920E-02 0.  1.
</event>
<event>
 5   0  0.2635243E-02  0.7819890E+03  0.7818609E-02  0.9586459E-01
        1   -1    0    0  501    0  0.00000000000E+00  0.00000000000E+00  0.24504111534E+03  0.24504111540E+03  0.50400001928E-02 0. -1.
       -1   -1    0    0    0  501  0.00000000000E+00  0.00000000000E+00 -0.62388184231E+03  0.62388184233E+03  0.50400001928E-02 0.  1.
    10030    2    1    2    0    0  0.00000000000E+00  0.00000000000E+00 -0.37884072696E+03  0.86892295772E+03  0.78198900891E+03 0.  0.
        1    1    3    3  502    0 -0.89062485984E+02 -0.36207882713E+02  0.23170227949E+03  0.25085669919E+03  0.50400001928E-02 0. -1.
       -1    1    3    3    0  502  0.89062485984E+02  0.36207882713E+02 -0.61054300646E+03  0.61806625853E+03  0.50400001928E-02 0.  1.
</event>
<event>
 5   0  0.4377843E-02  0.7451796E+03  0.7818609E-02  0.9642943E-01
       -2   -1    0    0    0  501  0.00000000000E+00  0.00000000000E+00  0.16790659767E+03  0.16790659769E+03  0.25500000920E-02 0.  1.
        2   -1    0    0  501    0  0.00000000000E+00  0.00000000000E+00 -0.82678789984E+03  0.82678789984E+03  0.25500000920E-02 0. -1.
    10030    2    1    2    0    0  0.00000000000E+00  0.00000000000E+00 -0.65888130217E+03  0.99469449753E+03  0.74517955761E+03 0.  0.
        2    1    3    3  502    0  0.22180357584E+03 -0.92536072155E+02 -0.70949103027E+03  0.74909096440E+03  0.25500000920E-02 0. -1.
       -2    1    3    3    0  502 -0.22180357584E+03  0.92536072155E+02  0.50609728101E+02  0.24560353314E+03  0.25500000920E-02 0.  1.
</event>
<event>
 5   0  0.2635243E-02  0.8007926E+03  0.7818609E-02  0.9558871E-01
        1   -1    0    0  501    0  0.00000000000E+00  0.00000000000E+00  0.34807031863E+03  0.34807031866E+03  0.50400001928E-02 0. -1.
       -1   -1    0    0    0  501  0.00000000000E+00  0.00000000000E+00 -0.46058848667E+03  0.46058848670E+03  0.50400001928E-02 0.  1.
    10030    2    1    2    0    0  0.00000000000E+00  0.00000000000E+00 -0.11251816805E+03  0.80865880536E+03  0.80079256075E+03 0.  0.
        1    1    3    3  502    0  0.29683235083E+03 -0.25835347898E+03  0.18366886993E+02  0.39394581755E+03  0.50400001928E-02 0. -1.
       -1    1    3    3    0  502 -0.29683235083E+03  0.25835347898E+03 -0.13088505504E+03  0.41471298781E+03  0.50400001928E-02 0.  1.
</event>
<event>
 5   0  0.2606520E-02  0.8022020E+03  0.7818609E-02  0.9556835E-01
       -1   -1    0    0    0  501  0.00000000000E+00  0.00000000000E+00  0.20113982236E+03  0.20113982242E+03  0.50400001928E-02 0. -1.
        1   -1    0    0  501    0  0.00000000000E+00  0.00000000000E+00 -0.79985156319E+03  0.79985156321E+03  0.50400001928E-02 0.  1.
    10030    2    1    2    0    0  0.00000000000E+00  0.00000000000E+00 -0.59871174083E+03  0.10009913856E+04  0.80220197301E+03 0.  0.
        5    1    3    3  502    0  0.35606549318E+03 -0.17450415174E+03 -0.37448964003E+03  0.54543461102E+03  0.46999998093E+01 0. -1.
       -5    1    3    3    0  502 -0.35606549318E+03  0.17450415174E+03 -0.22422210081E+03  0.45555677461E+03  0.46999998093E+01 0.  1.
</event>
<event>
 5   0  0.4700220E-02  0.7822352E+03  0.7818609E-02  0.9586093E-01
        2   -1    0    0  501    0  0.00000000000E+00  0.00000000000E+00  0.10642079943E+04  0.10642079943E+04  0.25500000920E-02 0. -1.
       -2   -1    0    0    0  501  0.00000000000E+00  0.00000000000E+00 -0.14374349618E+03  0.14374349620E+03  0.25500000920E-02 0.  1.
    10030    2    1    2    0    0  0.00000000000E+00  0.00000000000E+00  0.92046449808E+03  0.12079514905E+04  0.78223520190E+03 0.  0.
        4    1    3    3  502    0  0.25886817429E+03 -0.15666404662E+03  0.84292426384E+03  0.89558879104E+03  0.12699999809E+01 0. -1.
       -4    1    3    3    0  502 -0.25886817429E+03  0.15666404662E+03  0.77540234232E+02  0.31236269942E+03  0.12699999809E+01 0.  1.
</event>
<event>
 5   0  0.2635243E-02  0.7744078E+03  0.7818609E-02  0.9597818E-01
        1   -1    0    0  501    0  0.00000000000E+00  0.00000000000E+00  0.72585050340E+03  0.72585050342E+03  0.50400001928E-02 0. -1.
       -1   -1    0    0    0  501  0.00000000000E+00  0.00000000000E+00 -0.20655333849E+03  0.20655333855E+03  0.50400001928E-02 0.  1.
    10030    2    1    2    0    0  0.00000000000E+00  0.00000000000E+00  0.51929716491E+03  0.93240384197E+03  0.77440776019E+03 0.  0.
        1    1    3    3  502    0 -0.36333918627E+03  0.57268065413E+01  0.98657383753E+02  0.37653876292E+03  0.50400001928E-02 0.  1.
       -1    1    3    3    0  502  0.36333918627E+03 -0.57268065413E+01  0.42063978116E+03  0.55586507905E+03  0.50400001928E-02 0. -1.
</event>
<event>
 5   0  0.1786500E-02  0.7917945E+03  0.7818609E-02  0.9571971E-01
       -3   -1    0    0    0  501  0.00000000000E+00  0.00000000000E+00  0.45841727518E+03  0.45841728631E+03  0.10100000352E+00 0.  1.
        3   -1    0    0  501    0  0.00000000000E+00  0.00000000000E+00 -0.34190382169E+03  0.34190383661E+03  0.10100000352E+00 0. -1.
    10030    2    1    2    0    0  0.00000000000E+00  0.00000000000E+00  0.11651345349E+03  0.80032112292E+03  0.79179449035E+03 0.  0.
        2    1    3    3  502    0  0.37914705103E+03  0.72653078248E+01 -0.56675092135E+02  0.38342839890E+03  0.25500000920E-02 0. -1.
       -2    1    3    3    0  502 -0.37914705103E+03 -0.72653078248E+01  0.17318854562E+03  0.41689272403E+03  0.25500000920E-02 0.  1.
</event>
<event>
 5   0  0.2635243E-02  0.9885072E+03  0.7818609E-02  0.9321240E-01
       -1   -1    0    0    0  501  0.00000000000E+00  0.00000000000E+00  0.25293508981E+03  0.25293508986E+03  0.50400001928E-02 0. -1.
        1   -1    0    0  501    0  0.00000000000E+00  0.00000000000E+00 -0.96580755608E+03  0.96580755610E+03  0.50400001928E-02 0.  1.
    10030    2    1    2    0    0  0.00000000000E+00  0.00000000000E+00 -0.71287246627E+03  0.12187426460E+04  0.98850719973E+03 0.  0.
        1    1    3    3  502    0 -0.22179381599E+02 -0.14562914348E+03  0.22524080688E+03  0.26913415522E+03  0.50400001928E-02 0. -1.
       -1    1    3    3    0  502  0.22179381599E+02  0.14562914348E+03 -0.93811327315E+03  0.94960849074E+03  0.50400001928E-02 0.  1.
</event>
<event>
 5   0  0.2769394E-02  0.8078439E+03  0.7818609E-02  0.9548732E-01
        1   -1    0    0  501    0  0.00000000000E+00  0.00000000000E+00  0.12290488989E+04  0.12290488989E+04  0.50400001928E-02 0.  1.
       -1   -1    0    0    0  501  0.00000000000E+00  0.00000000000E+00 -0.13274731439E+03  0.13274731449E+03  0.50400001928E-02 0. -1.
    10030    2    1    2    0    0  0.00000000000E+00  0.00000000000E+00  0.10963015845E+04  0.13617962134E+04  0.80784389746E+03 0.  0.
        2    1    3    3  502    0  0.20431069818E+03 -0.23248612354E+03  0.11064216557E+03  0.32868578892E+03  0.25500000920E-02 0. -1.
       -2    1    3    3    0  502 -0.20431069818E+03  0.23248612354E+03  0.98565941896E+03  0.10331104245E+04  0.25500000920E-02 0.  1.
</event>
<event>
 5   0  0.2689372E-02  0.8043842E+03  0.7818609E-02  0.9553693E-01
        1   -1    0    0  501    0  0.00000000000E+00  0.00000000000E+00  0.12867800017E+04  0.12867800017E+04  0.50400001928E-02 0.  1.
       -1   -1    0    0    0  501  0.00000000000E+00  0.00000000000E+00 -0.12570794454E+03  0.12570794464E+03  0.50400001928E-02 0. -1.
    10030    2    1    2    0    0  0.00000000000E+00  0.00000000000E+00  0.11610720571E+04  0.14124879463E+04  0.80438415988E+03 0.  0.
        4    1    3    3  502    0 -0.15363328785E+03  0.43651253033E+02  0.12287026862E+04  0.12390401619E+04  0.12699999809E+01 0.  1.
       -4    1    3    3    0  502  0.15363328785E+03 -0.43651253033E+02 -0.67630629027E+02  0.17344778439E+03  0.12699999809E+01 0. -1.
</event>
<event>
 5   0  0.2606520E-02  0.7976926E+03  0.7818609E-02  0.9563363E-01
       -1   -1    0    0    0  501  0.00000000000E+00  0.00000000000E+00  0.21280228523E+03  0.21280228529E+03  0.50400001928E-02 0.  1.
        1   -1    0    0  501    0  0.00000000000E+00  0.00000000000E+00 -0.74754073592E+03  0.74754073594E+03  0.50400001928E-02 0. -1.
    10030    2    1    2    0    0  0.00000000000E+00  0.00000000000E+00 -0.53473845070E+03  0.96034302123E+03  0.79769261484E+03 0.  0.
        5    1    3    3  502    0 -0.37787893644E+03 -0.12245860347E+03 -0.22450482100E+03  0.45630374184E+03  0.46999998093E+01 0.  1.
       -5    1    3    3    0  502  0.37787893644E+03  0.12245860347E+03 -0.31023362970E+03  0.50403927939E+03  0.46999998093E+01 0. -1.
</event>
<event>
 5   0  0.4684283E-02  0.8350639E+03  0.7818609E-02  0.9510606E-01
        2   -1    0    0  501    0  0.00000000000E+00  0.00000000000E+00  0.13022691597E+03  0.13022691599E+03  0.25500000920E-02 0.  1.
       -2   -1    0    0    0  501  0.00000000000E+00  0.00000000000E+00 -0.13386859946E+04  0.13386859946E+04  0.25500000920E-02 0. -1.
    10030    2    1    2    0    0  0.00000000000E+00  0.00000000000E+00 -0.12084590786E+04  0.14689129106E+04  0.83506394617E+03 0.  0.
        1    1    3    3  502    0  0.23732647385E+03  0.12287920101E+03 -0.39936527971E+02  0.27021857731E+03  0.50400001928E-02 0.  1.
       -1    1    3    3    0  502 -0.23732647385E+03 -0.12287920101E+03 -0.11685225506E+04  0.11986943333E+04  0.50400001928E-02 0. -1.
</event>
<event>
 5   0  0.2769394E-02  0.8134655E+03  0.7818609E-02  0.9540728E-01
        1   -1    0    0  501    0  0.00000000000E+00  0.00000000000E+00  0.61504107909E+03  0.61504107911E+03  0.50400001928E-02 0. -1.
       -1   -1    0    0    0  501  0.00000000000E+00  0.00000000000E+00 -0.26897640846E+03  0.26897640851E+03  0.50400001928E-02 0.  1.
    10030    2    1    2    0    0  0.00000000000E+00  0.00000000000E+00  0.34606467063E+03  0.88401748762E+03  0.81346552610E+03 0.  0.
        2    1    3    3  502    0 -0.93887521859E+02 -0.25762366780E+03  0.49949792768E+03  0.56980961797E+03  0.25500000920E-02 0. -1.
       -2    1    3    3    0  502  0.93887521859E+02  0.25762366780E+03 -0.15343325705E+03  0.31420786964E+03  0.25500000920E-02 0.  1.
</event>
<event>
 5   0  0.4590462E-02  0.9152900E+03  0.7818609E-02  0.9406667E-01
        2   -1    0    0  501    0  0.00000000000E+00  0.00000000000E+00  0.16660031971E+04  0.16660031971E+04  0.25500000920E-02 0.  1.
       -2   -1    0    0    0  501  0.00000000000E+00  0.00000000000E+00 -0.12571341240E+03  0.12571341243E+03  0.25500000920E-02 0. -1.
    10030    2    1    2    0    0  0.00000000000E+00  0.00000000000E+00  0.15402897847E+04  0.17917166096E+04  0.91529000216E+03 0.  0.
        3    1    3    3  502    0 -0.20918757332E+03  0.31650230801E+03  0.26913023797E+03  0.46514970386E+03  0.10100000352E+00 0.  1.
       -3    1    3    3    0  502  0.20918757332E+03 -0.31650230801E+03  0.12711595468E+04  0.13265669057E+04  0.10100000352E+00 0. -1.
</event>
<event>
 5   0  0.2689372E-02  0.8132793E+03  0.7818609E-02  0.9540992E-01
        1   -1    0    0  501    0  0.00000000000E+00  0.00000000000E+00  0.18325842526E+04  0.18325842526E+04  0.50400001928E-02 0.  1.
       -1   -1    0    0    0  501  0.00000000000E+00  0.00000000000E+00 -0.90230938549E+02  0.90230938690E+02  0.50400001928E-02 0. -1.
    10030    2    1    2    0    0  0.00000000000E+00  0.00000000000E+00  0.17423533141E+04  0.19228151913E+04  0.81327928100E+03 0.  0.
        4    1    3    3  502    0  0.34500201496E+03  0.27573156453E+02  0.36648571645E+03  0.50408338848E+03  0.12699999809E+01 0. -1.
       -4    1    3    3    0  502 -0.34500201496E+03 -0.27573156453E+02  0.13758675976E+04  0.14187318028E+04  0.12699999809E+01 0.  1.
</event>
<event>
 5   0  0.4684283E-02  0.8195066E+03  0.7818609E-02  0.9532204E-01
        2   -1    0    0  501    0  0.00000000000E+00  0.00000000000E+00  0.25945585301E+03  0.25945585303E+03  0.25500000920E-02 0. -1.
       -2   -1    0    0    0  501  0.00000000000E+00  0.00000000000E+00 -0.64711494106E+03  0.64711494107E+03  0.25500000920E-02 0.  1.
    10030    2    1    2    0    0  0.00000000000E+00  0.00000000000E+00 -0.38765908805E+03  0.90657079409E+03  0.81950658091E+03 0.  0.
        1    1    3    3  502    0  0.35667591594E+03  0.14480319530E+03 -0.38513773374E+02  0.38687076026E+03  0.50400001928E-02 0. -1.
       -1    1    3    3    0  502 -0.35667591594E+03 -0.14480319530E+03 -0.34914531467E+03  0.51970003383E+03  0.50400001928E-02 0.  1.
</event>
<event>
 5   0  0.2759559E-02  0.8332689E+03  0.7818609E-02  0.9513072E-01
       -1   -1    0    0    0  501  0.00000000000E+00  0.00000000000E+00  0.40110755141E+03  0.40110755144E+03  0.50400001928E-02 0. -1.
        1   -1    0    0  501    0  0.00000000000E+00  0.00000000000E+00 -0.43276239832E+03  0.43276239835E+03  0.50400001928E-02 0.  1.
    10030    2    1    2    0    0  0.00000000000E+00  0.00000000000E+00 -0.31654846917E+02  0.83386994979E+03  0.83326890248E+03 0.  0.
        3    1    3    3  502    0 -0.30437037544E+03  0.28013594202E+02 -0.29915382311E+03  0.42769043360E+03  0.10100000352E+00 0.  1.
       -3    1    3    3    0  502  0.30437037544E+03 -0.28013594202E+02  0.26749897620E+03  0.40617951619E+03  0.10100000352E+00 0. -1.
</event>
<event>
 5   0  0.4700220E-02  0.8298130E+03  0.7818609E-02  0.9517839E-01
       -2   -1    0    0    0  501  0.00000000000E+00  0.00000000000E+00  0.63693537895E+02  0.63693537946E+02  0.25500000920E-02 0.  1.
        2   -1    0    0  501    0  0.00000000000E+00  0.00000000000E+00 -0.27027452214E+04  0.27027452214E+04  0.25500000920E-02 0. -1.
    10030    2    1    2    0    0  0.00000000000E+00  0.00000000000E+00 -0.26390516835E+04  0.27664387594E+04  0.82981300364E+03 0.  0.
        4    1    3    3  502    0 -0.25510183006E+03 -0.30793447062E+03 -0.16884388349E+04  0.17351449202E+04  0.12699999809E+01 0. -1.
       -4    1    3    3    0  502  0.25510183006E+03  0.30793447062E+03 -0.95061284863E+03  0.10312938392E+04  0.12699999809E+01 0.  1.
</event>
<event>
 5   0  0.1786500E-02  0.7732782E+03  0.7818609E-02  0.9599522E-01
       -3   -1    0    0    0  501  0.00000000000E+00  0.00000000000E+00  0.13970280118E+03  0.13970283769E+03  0.10100000352E+00 0. -1.
        3   -1    0    0  501    0  0.00000000000E+00  0.00000000000E+00 -0.10700556668E+04  0.10700556716E+04  0.10100000352E+00 0.  1.
    10030    2    1    2    0    0  0.00000000000E+00  0.00000000000E+00 -0.93035286562E+03  0.12097585093E+04  0.77327821393E+03 0.  0.
        4    1    3    3  502    0  0.54044222634E+02  0.41703157171E+02 -0.10605500140E+04  0.10627454429E+04  0.12699999809E+01 0.  1.
       -4    1    3    3    0  502 -0.54044222634E+02 -0.41703157171E+02  0.13019714840E+03  0.14701306633E+03  0.12699999809E+01 0. -1.
</event>
<event>
 5   0  0.4377843E-02  0.7867673E+03  0.7818609E-02  0.9579371E-01
        2   -1    0    0  501    0  0.00000000000E+00  0.00000000000E+00  0.11425078507E+04  0.11425078507E+04  0.25500000920E-02 0. -1.
       -2   -1    0    0    0  501  0.00000000000E+00  0.00000000000E+00 -0.13544826340E+03  0.13544826342E+03  0.25500000920E-02 0.  1.
    10030    2    1    2    0    0  0.00000000000E+00  0.00000000000E+00  0.10070595873E+04  0.12779561141E+04  0.78676732091E+03 0.  0.
        2    1    3    3  502    0  0.81759486336E+02  0.26707064456E+03  0.53564810186E+02  0.28439502754E+03  0.25500000920E-02 0.  1.
       -2    1    3    3    0  502 -0.81759486336E+02 -0.26707064456E+03  0.95349477709E+03  0.99356108656E+03  0.25500000920E-02 0. -1.
</event>
<event>
 5   0  0.4663634E-02  0.8041001E+03  0.7818609E-02  0.9554101E-01
       -2   -1    0    0    0  501  0.00000000000E+00  0.00000000000E+00  0.12688612261E+03  0.12688612264E+03  0.25500000920E-02 0.  1.
        2   -1    0    0  501    0  0.00000000000E+00  0.00000000000E+00 -0.12739315259E+04  0.12739315259E+04  0.25500000920E-02 0. -1.
    10030    2    1    2    0    0  0.00000000000E+00  0.00000000000E+00 -0.11470454033E+04  0.14008176485E+04  0.80410007291E+03 0.  0.
        5    1    3    3  502    0  0.15473898148E+03  0.28590348429E+03 -0.98554603833E+03  0.10377899780E+04  0.46999998093E+01 0. -1.
       -5    1    3    3    0  502 -0.15473898148E+03 -0.28590348429E+03 -0.16149936495E+03  0.36302767056E+03  0.46999998093E+01 0.  1.
</event>
<event>
 5   0  0.4377843E-02  0.8017145E+03  0.7818609E-02  0.9557539E-01
        2   -1    0    0  501    0  0.00000000000E+00  0.00000000000E+00  0.14362678869E+04  0.14362678869E+04  0.25500000920E-02 0. -1.
       -2   -1    0    0    0  501  0.00000000000E+00  0.00000000000E+00 -0.11187784272E+03  0.11187784275E+03  0.25500000920E-02 0.  1.
    10030    2    1    2    0    0  0.00000000000E+00  0.00000000000E+00  0.13243900442E+04  0.15481457296E+04  0.80171454465E+03 0.  0.
        2    1    3    3  502    0  0.30097538522E+03  0.20562434967E+03  0.98427432015E+03  0.10496015877E+04  0.25500000920E-02 0. -1.
       -2    1    3    3    0  502 -0.30097538522E+03 -0.20562434967E+03  0.34011572402E+03  0.49854414189E+03  0.25500000920E-02 0.  1.
</event>
<event>
 5   0  0.4590462E-02  0.7970300E+03  0.7818609E-02  0.9564326E-01
        2   -1    0    0  501    0  0.00000000000E+00  0.00000000000E+00  0.11300129240E+04  0.11300129240E+04  0.25500000920E-02 0.  1.
       -2   -1    0    0    0  501  0.00000000000E+00  0.00000000000E+00 -0.14054195463E+03  0.14054195465E+03  0.25500000920E-02 0. -1.
    10030    2    1    2    0    0  0.00000000000E+00  0.00000000000E+00  0.98947096939E+03  0.12705548787E+04  0.79703004992E+03 0.  0.
        3    1    3    3  502    0 -0.37541604240E+03  0.37725336605E+02  0.69921601291E+03  0.79452089263E+03  0.10100000352E+00 0.  1.
       -3    1    3    3    0  502  0.37541604240E+03 -0.37725336605E+02  0.29025495648E+03  0.47603398605E+03  0.10100000352E+00 0. -1.
</event>
<event>
 5   0  0.4590462E-02  0.7965088E+03  0.7818609E-02  0.9565084E-01
       -2   -1    0    0    0  501  0.00000000000E+00  0.00000000000E+00  0.12233107898E+03  0.12233107900E+03  0.25500000920E-02 0. -1.
        2   -1    0    0  501    0  0.00000000000E+00  0.00000000000E+00 -0.12965354478E+04  0.12965354478E+04  0.25500000920E-02 0.  1.
    10030    2    1    2    0    0  0.00000000000E+00  0.00000000000E+00 -0.11742043688E+04  0.14188665268E+04  0.79650883305E+03 0.  0.
        3    1    3    3  502    0  0.18854980078E+03  0.36388092862E+02  0.34413858415E+02  0.19508829931E+03  0.10100000352E+00 0. -1.
       -3    1    3    3    0  502 -0.18854980078E+03 -0.36388092862E+02 -0.12086182272E+04  0.12237782275E+04  0.10100000352E+00 0.  1.
</event>
<event>
 5   0  0.4377843E-02  0.8005524E+03  0.7818609E-02  0.9559218E-01
       -2   -1    0    0    0  501  0.00000000000E+00  0.00000000000E+00  0.14831079248E+03  0.14831079250E+03  0.25500000920E-02 0.  1.
        2   -1    0    0  501    0  0.00000000000E+00  0.00000000000E+00 -0.10803059458E+04  0.10803059458E+04  0.25500000920E-02 0. -1.
    10030    2    1    2    0    0  0.00000000000E+00  0.00000000000E+00 -0.93199515330E+03  0.12286167383E+04  0.80055238668E+03 0.  0.
        2    1    3    3  502    0 -0.21950064894E+03 -0.31311989628E+03 -0.28443127107E+03  0.47657712104E+03  0.25500000920E-02 0.  1.
       -2    1    3    3    0  502  0.21950064894E+03  0.31311989628E+03 -0.64756388223E+03  0.75203961724E+03  0.25500000920E-02 0. -1.
</event>
<event>
 5   0  0.1786500E-02  0.7602859E+03  0.7818609E-02  0.9619350E-01
       -3   -1    0    0    0  501  0.00000000000E+00  0.00000000000E+00  0.73521795783E+03  0.73521796476E+03  0.10100000352E+00 0. -1.
        3   -1    0    0  501    0  0.00000000000E+00  0.00000000000E+00 -0.19655210848E+03  0.19655213443E+03  0.10100000352E+00 0.  1.
    10030    2    1    2    0    0  0.00000000000E+00  0.00000000000E+00  0.53866584934E+03  0.93177009919E+03  0.76028588077E+03 0.  0.
        2    1    3    3  502    0  0.24980894708E+03  0.23967033071E+03  0.76869399622E+02  0.35461991212E+03  0.25500000920E-02 0.  1.
       -2    1    3    3    0  502 -0.24980894708E+03 -0.23967033071E+03  0.46179644972E+03  0.57715018708E+03  0.25500000920E-02 0. -1.
</event>
<event>
 5   0  0.1786500E-02  0.7923846E+03  0.7818609E-02  0.9571106E-01
        4   -1    0    0  501    0  0.00000000000E+00  0.00000000000E+00  0.15612772634E+03  0.15613289158E+03  0.12699999809E+01 0.  1.
       -4   -1    0    0    0  501  0.00000000000E+00  0.00000000000E+00 -0.10053618734E+04  0.10053626756E+04  0.12699999809E+01 0. -1.
    10030    2    1    2    0    0  0.00000000000E+00  0.00000000000E+00 -0.84923414710E+03  0.11614955672E+04  0.79238457580E+03 0.  0.
        4    1    3    3  502    0  0.39594537784E+03 -0.13901985534E+02 -0.42585103134E+03  0.58164999890E+03  0.12699999809E+01 0. -1.
       -4    1    3    3    0  502 -0.39594537784E+03  0.13901985534E+02 -0.42338311576E+03  0.57984556827E+03  0.12699999809E+01 0.  1.
</event>
<event>
 5   0  0.4590462E-02  0.7953132E+03  0.7818609E-02  0.9566826E-01
        2   -1    0    0  501    0  0.00000000000E+00  0.00000000000E+00  0.78688564185E+03  0.78688564185E+03  0.25500000920E-02 0.  1.
       -2   -1    0    0    0  501  0.00000000000E+00  0.00000000000E+00 -0.20095774405E+03  0.20095774407E+03  0.25500000920E-02 0. -1.
    10030    2    1    2    0    0  0.00000000000E+00  0.00000000000E+00  0.58592789780E+03  0.98784338592E+03  0.79531317962E+03 0.  0.
        3    1    3    3  502    0 -0.90348672793E+02  0.16083573295E+03 -0.14459376885E+03  0.23438938513E+03  0.10100000352E+00 0. -1.
       -3    1    3    3    0  502  0.90348672793E+02 -0.16083573295E+03  0.73052166665E+03  0.75345400079E+03  0.10100000352E+00 0.  1.
</event>
<event>
 5   0  0.2689372E-02  0.7811242E+03  0.7818609E-02  0.9587748E-01
        1   -1    0    0  501    0  0.00000000000E+00  0.00000000000E+00  0.79010109829E+03  0.79010109830E+03  0.50400001928E-02 0. -1.
       -1   -1    0    0    0  501  0.00000000000E+00  0.00000000000E+00 -0.19306230360E+03  0.19306230367E+03  0.50400001928E-02 0.  1.
    10030    2    1    2    0    0  0.00000000000E+00  0.00000000000E+00  0.59703879469E+03  0.98316340197E+03  0.78112415954E+03 0.  0.
        4    1    3    3  502    0 -0.24062732992E+03  0.24690553169E+03  0.52948552389E+03  0.63183889275E+03  0.12699999809E+01 0. -1.
       -4    1    3    3    0  502  0.24062732992E+03 -0.24690553169E+03  0.67553270795E+02  0.35132450922E+03  0.12699999809E+01 0.  1.
</event>
<event>
 5   0  0.4684283E-02  0.7926319E+03  0.7818609E-02  0.9570744E-01
        2   -1    0    0  501    0  0.00000000000E+00  0.00000000000E+00  0.16444507248E+04  0.16444507248E+04  0.25500000920E-02 0. -1.
       -2   -1    0    0    0  501  0.00000000000E+00  0.00000000000E+00 -0.95512936961E+02  0.95512936995E+02  0.25500000920E-02 0.  1.
    10030    2    1    2    0    0  0.00000000000E+00  0.00000000000E+00  0.15489377878E+04  0.17399636618E+04  0.79263186522E+03 0.  0.
        1    1    3    3  502    0 -0.48323675794E+02  0.26523651115E+03  0.14121305457E+04  0.14376363458E+04  0.50400001928E-02 0. -1.
       -1    1    3    3    0  502  0.48323675794E+02 -0.26523651115E+03  0.13680724209E+03  0.30232731600E+03  0.50400001928E-02 0.  1.
</event>
<event>
 5   0  0.4377843E-02  0.8642577E+03  0.7818609E-02  0.9471398E-01
        2   -1    0    0  501    0  0.00000000000E+00  0.00000000000E+00  0.61730933266E+03  0.61730933267E+03  0.25500000920E-02 0. -1.
       -2   -1    0    0    0  501  0.00000000000E+00  0.00000000000E+00 -0.30249879351E+03  0.30249879352E+03  0.25500000920E-02 0.  1.
    10030    2    1    2    0    0  0.00000000000E+00  0.00000000000E+00  0.31481053916E+03  0.91980812619E+03  0.86425766611E+03 0.  0.
        2    1    3    3  502    0  0.28793828587E+03  0.19887933462E+03 -0.11241294716E+03  0.36755695736E+03  0.25500000920E-02 0.  1.
       -2    1    3    3    0  502 -0.28793828587E+03 -0.19887933462E+03  0.42722348632E+03  0.55225116883E+03  0.25500000920E-02 0. -1.
</event>
<event>
 5   0  0.2769394E-02  0.8086133E+03  0.7818609E-02  0.9547633E-01
       -1   -1    0    0    0  501  0.00000000000E+00  0.00000000000E+00  0.19042034102E+03  0.19042034109E+03  0.50400001928E-02 0.  1.
        1   -1    0    0  501    0  0.00000000000E+00  0.00000000000E+00 -0.85843702561E+03  0.85843702563E+03  0.50400001928E-02 0. -1.
    10030    2    1    2    0    0  0.00000000000E+00  0.00000000000E+00 -0.66801668459E+03  0.10488573667E+04  0.80861330982E+03 0.  0.
        2    1    3    3  502    0 -0.35219603070E+03  0.10550930054E+01 -0.76472434841E+02  0.36040420442E+03  0.25500000920E-02 0.  1.
       -2    1    3    3    0  502  0.35219603070E+03 -0.10550930054E+01 -0.59154424975E+03  0.68845316230E+03  0.25500000920E-02 0. -1.
</event>
<event>
 5   0  0.4663634E-02  0.8455232E+03  0.7818609E-02  0.9496365E-01
        2   -1    0    0  501    0  0.00000000000E+00  0.00000000000E+00  0.12430778426E+04  0.12430778426E+04  0.25500000920E-02 0.  1.
       -2   -1    0    0    0  501  0.00000000000E+00  0.00000000000E+00 -0.14377808652E+03  0.14377808654E+03  0.25500000920E-02 0. -1.
    10030    2    1    2    0    0  0.00000000000E+00  0.00000000000E+00  0.10992997561E+04  0.13868559291E+04  0.84552316022E+03 0.  0.
        5    1    3    3  502    0 -0.30251374516E+03 -0.10010507300E+03  0.10052975614E+04  0.10545998618E+04  0.46999998093E+01 0.  1.
       -5    1    3    3    0  502  0.30251374516E+03  0.10010507300E+03  0.94002194683E+02  0.33225606730E+03  0.46999998093E+01 0. -1.
</event>
<event>
 5   0  0.2759559E-02  0.7827287E+03  0.7818609E-02  0.9585359E-01
       -1   -1    0    0    0  501  0.00000000000E+00  0.00000000000E+00  0.15043100561E+03  0.15043100570E+03  0.50400001928E-02 0.  1.
        1   -1    0    0  501    0  0.00000000000E+00  0.00000000000E+00 -0.10181814039E+04  0.10181814039E+04  0.50400001928E-02 0. -1.
    10030    2    1    2    0    0  0.00000000000E+00  0.00000000000E+00 -0.86775039824E+03  0.11686124096E+04  0.78272869510E+03 0.  0.
        3    1    3    3  502    0 -0.26482215020E+03 -0.19407451232E+03 -0.11586186810E+03  0.34816615323E+03  0.10100000352E+00 0.  1.
       -3    1    3    3    0  502  0.26482215020E+03  0.19407451232E+03 -0.75188853014E+03  0.82044625633E+03  0.10100000352E+00 0. -1.
</event>
<event>
 5   0  0.2759559E-02  0.7982477E+03  0.7818609E-02  0.9562557E-01
       -1   -1    0    0    0  501  0.00000000000E+00  0.00000000000E+00  0.34362928274E+03  0.34362928277E+03  0.50400001928E-02 0.  1.
        1   -1    0    0  501    0  0.00000000000E+00  0.00000000000E+00 -0.46358054062E+03  0.46358054065E+03  0.50400001928E-02 0. -1.
    10030    2    1    2    0    0  0.00000000000E+00  0.00000000000E+00 -0.11995125788E+03  0.80720982342E+03  0.79824770263E+03 0.  0.
        3    1    3    3  502    0 -0.63287721860E+02  0.33015323908E+03 -0.27755014484E+03  0.43593645192E+03  0.10100000352E+00 0. -1.
       -3    1    3    3    0  502  0.63287721860E+02 -0.33015323908E+03  0.15759888695E+03  0.37127337150E+03  0.10100000352E+00 0.  1.
</event>
<event>
 5   0  0.2689372E-02  0.7991252E+03  0.7818609E-02  0.9561284E-01
        1   -1    0    0  501    0  0.00000000000E+00  0.00000000000E+00  0.18444468047E+03  0.18444468054E+03  0.50400001928E-02 0.  1.
       -1   -1    0    0    0  501  0.00000000000E+00  0.00000000000E+00 -0.86557269706E+03  0.86557269708E+03  0.50400001928E-02 0. -1.
    10030    2    1    2    0    0  0.00000000000E+00  0.00000000000E+00 -0.68112801659E+03  0.10500173776E+04  0.79912522067E+03 0.  0.
        4    1    3    3  502    0  0.29123024783E+03 -0.13698700222E+03 -0.65169254221E+03  0.72683235928E+03  0.12699999809E+01 0. -1.
       -4    1    3    3    0  502 -0.29123024783E+03  0.13698700222E+03 -0.29435474377E+02  0.32318501834E+03  0.12699999809E+01 0.  1.
</event>
<event>
 5   0  0.4700220E-02  0.8011752E+03  0.7818609E-02  0.9558318E-01
       -2   -1    0    0    0  501  0.00000000000E+00  0.00000000000E+00  0.60365621602E+03  0.60365621603E+03  0.25500000920E-02 0.  1.
        2   -1    0    0  501    0  0.00000000000E+00  0.00000000000E+00 -0.26583081804E+03  0.26583081806E+03  0.25500000920E-02 0. -1.
    10030    2    1    2    0    0  0.00000000000E+00  0.00000000000E+00  0.33782539798E+03  0.86948703409E+03  0.80117520114E+03 0.  0.
        4    1    3    3  502    0 -0.34739793954E+03  0.17930867356E+03  0.74103278263E+02  0.39790682019E+03  0.12699999809E+01 0. -1.
       -4    1    3    3    0  502  0.34739793954E+03 -0.17930867356E+03  0.26372211972E+03  0.47158021389E+03  0.12699999809E+01 0.  1.
</event>
<event>
 5   0  0.4377843E-02  0.8039286E+03  0.7818609E-02  0.9554348E-01
       -2   -1    0    0    0  501  0.00000000000E+00  0.00000000000E+00  0.13571399315E+03  0.13571399317E+03  0.25500000920E-02 0. -1.
        2   -1    0    0  501    0  0.00000000000E+00  0.00000000000E+00 -0.11905574694E+04  0.11905574694E+04  0.25500000920E-02 0.  1.
    10030    2    1    2    0    0  0.00000000000E+00  0.00000000000E+00 -0.10548434763E+04  0.13262714626E+04  0.80392862435E+03 0.  0.
        2    1    3    3  502    0 -0.23052084500E+03  0.38888106658E+02 -0.10668712847E+04  0.10921842716E+04  0.25500000920E-02 0.  1.
       -2    1    3    3    0  502  0.23052084500E+03 -0.38888106658E+02  0.12027808482E+02  0.23408719103E+03  0.25500000920E-02 0. -1.
</event>
<event>
 5   0  0.4700220E-02  0.7997085E+03  0.7818609E-02  0.9560439E-01
       -2   -1    0    0    0  501  0.00000000000E+00  0.00000000000E+00  0.19196722712E+03  0.19196722714E+03  0.25500000920E-02 0.  1.
        2   -1    0    0  501    0  0.00000000000E+00  0.00000000000E+00 -0.83286834423E+03  0.83286834423E+03  0.25500000920E-02 0. -1.
    10030    2    1    2    0    0  0.00000000000E+00  0.00000000000E+00 -0.64090111711E+03  0.10248355714E+04  0.79970851342E+03 0.  0.
        4    1    3    3  502    0  0.68253252764E+00  0.39002615299E+03 -0.43334689630E+03  0.58301973491E+03  0.12699999809E+01 0. -1.
       -4    1    3    3    0  502 -0.68253252764E+00 -0.39002615299E+03 -0.20755422081E+03  0.44181583646E+03  0.12699999809E+01 0.  1.
</event>
<event>
 5   0  0.4684283E-02  0.7604604E+03  0.7818609E-02  0.9619081E-01
       -2   -1    0    0    0  501  0.00000000000E+00  0.00000000000E+00  0.16425909333E+03  0.16425909335E+03  0.25500000920E-02 0. -1.
        2   -1    0    0  501    0  0.00000000000E+00  0.00000000000E+00 -0.88016450493E+03  0.88016450494E+03  0.25500000920E-02 0.  1.
    10030    2    1    2    0    0  0.00000000000E+00  0.00000000000E+00 -0.71590541160E+03  0.10444235983E+04  0.76046044887E+03 0.  0.
        1    1    3    3  502    0  0.36249211697E+03 -0.27295131260E+02 -0.20483470382E+03  0.41725629411E+03  0.50400001928E-02 0. -1.
       -1    1    3    3    0  502 -0.36249211697E+03  0.27295131260E+02 -0.51107070778E+03  0.62716730418E+03  0.50400001928E-02 0.  1.
</event>
<event>
 5   0  0.4590462E-02  0.6985461E+03  0.7818609E-02  0.9719722E-01
        2   -1    0    0  501    0  0.00000000000E+00  0.00000000000E+00  0.53379069036E+03  0.53379069037E+03  0.25500000920E-02 0.  1.
       -2   -1    0    0    0  501  0.00000000000E+00  0.00000000000E+00 -0.22853836869E+03  0.22853836871E+03  0.25500000920E-02 0. -1.
    10030    2    1    2    0    0  0.00000000000E+00  0.00000000000E+00  0.30525232167E+03  0.76232905908E+03  0.69854607180E+03 0.  0.
        3    1    3    3  502    0  0.34038291250E+03 -0.69380165008E+02  0.19223792766E+03  0.39702590022E+03  0.10100000352E+00 0. -1.
       -3    1    3    3    0  502 -0.34038291250E+03  0.69380165008E+02  0.11301439401E+03  0.36530315886E+03  0.10100000352E+00 0.  1.
</event>
<event>
 5   0  0.2635243E-02  0.7877737E+03  0.7818609E-02  0.9577885E-01
        1   -1    0    0  501    0  0.00000000000E+00  0.00000000000E+00  0.75076836953E+03  0.75076836955E+03  0.50400001928E-02 0. -1.
       -1   -1    0    0    0  501  0.00000000000E+00  0.00000000000E+00 -0.20665076584E+03  0.20665076590E+03  0.50400001928E-02 0.  1.
    10030    2    1    2    0    0  0.00000000000E+00  0.00000000000E+00  0.54411760369E+03  0.95741913545E+03  0.78777372022E+03 0.  0.
        1    1    3    3  502    0  0.38433581965E+03  0.11075775254E+02  0.37597043226E+03  0.53776431736E+03  0.50400001928E-02 0. -1.
       -1    1    3    3    0  502 -0.38433581965E+03 -0.11075775254E+02  0.16814717143E+03  0.41965481809E+03  0.50400001928E-02 0.  1.
</event>
<event>
 5   0  0.4377843E-02  0.7998033E+03  0.7818609E-02  0.9560302E-01
       -2   -1    0    0    0  501  0.00000000000E+00  0.00000000000E+00  0.59288322580E+03  0.59288322580E+03  0.25500000920E-02 0.  1.
        2   -1    0    0  501    0  0.00000000000E+00  0.00000000000E+00 -0.26973494707E+03  0.26973494708E+03  0.25500000920E-02 0. -1.
    10030    2    1    2    0    0  0.00000000000E+00  0.00000000000E+00  0.32314827873E+03  0.86261817288E+03  0.79980328966E+03 0.  0.
        2    1    3    3  502    0  0.20138751624E+03 -0.17511109207E+02 -0.21057263709E+03  0.29189793789E+03  0.25500000920E-02 0. -1.
       -2    1    3    3    0  502 -0.20138751624E+03  0.17511109207E+02  0.53372091582E+03  0.57072023500E+03  0.25500000920E-02 0.  1.
</event>
<event>
 5   0  0.2769394E-02  0.7867368E+03  0.7818609E-02  0.9579416E-01
        1   -1    0    0  501    0  0.00000000000E+00  0.00000000000E+00  0.23052672483E+04  0.23052672484E+04  0.50400001928E-02 0. -1.
       -1   -1    0    0    0  501  0.00000000000E+00  0.00000000000E+00 -0.67123972049E+02  0.67123972239E+02  0.50400001928E-02 0.  1.
    10030    2    1    2    0    0  0.00000000000E+00  0.00000000000E+00  0.22381432763E+04  0.23723912206E+04  0.78673679099E+03 0.  0.
        2    1    3    3  502    0  0.11074027328E+03  0.37156567506E+03  0.91872382761E+03  0.99718500312E+03  0.25500000920E-02 0. -1.
       -2    1    3    3    0  502 -0.11074027328E+03 -0.37156567506E+03  0.13194194487E+04  0.13752062175E+04  0.25500000920E-02 0.  1.
</event>
<event>
 5   0  0.4377843E-02  0.8029443E+03  0.7818609E-02  0.9555765E-01
       -2   -1    0    0    0  501  0.00000000000E+00  0.00000000000E+00  0.22523850395E+03  0.22523850396E+03  0.25500000920E-02 0.  1.
        2   -1    0    0  501    0  0.00000000000E+00  0.00000000000E+00 -0.71559648938E+03  0.71559648939E+03  0.25500000920E-02 0. -1.
    10030    2    1    2    0    0  0.00000000000E+00  0.00000000000E+00 -0.49035798544E+03  0.94083499335E+03  0.80294428875E+03 0.  0.
        2    1    3    3  502    0 -0.30273069939E+02  0.40004923411E+03 -0.26271720138E+03  0.47955831386E+03  0.25500000920E-02 0.  1.
       -2    1    3    3    0  502  0.30273069939E+02 -0.40004923411E+03 -0.22764078405E+03  0.46127667950E+03  0.25500000920E-02 0. -1.
</event>
<event>
 5   0  0.4700220E-02  0.8080150E+03  0.7818609E-02  0.9548488E-01
        2   -1    0    0  501    0  0.00000000000E+00  0.00000000000E+00  0.13864902892E+04  0.13864902892E+04  0.25500000920E-02 0.  1.
       -2   -1    0    0    0  501  0.00000000000E+00  0.00000000000E+00 -0.11772318245E+03  0.11772318248E+03  0.25500000920E-02 0. -1.
    10030    2    1    2    0    0  0.00000000000E+00  0.00000000000E+00  0.12687671067E+04  0.15042134717E+04  0.80801497340E+03 0.  0.
        4    1    3    3  502    0 -0.10878033182E+03  0.38885600732E+03  0.65924023040E+03  0.77307273222E+03  0.12699999809E+01 0. -1.
       -4    1    3    3    0  502  0.10878033182E+03 -0.38885600732E+03  0.60952687632E+03  0.73114073945E+03  0.12699999809E+01 0.  1.
</event>
<event>
 5   0  0.2635243E-02  0.7937016E+03  0.7818609E-02  0.9569179E-01
        1   -1    0    0  501    0  0.00000000000E+00  0.00000000000E+00  0.12334106909E+04  0.12334106910E+04  0.50400001928E-02 0.  1.
       -1   -1    0    0    0  501  0.00000000000E+00  0.00000000000E+00 -0.12768702970E+03  0.12768702980E+03  0.50400001928E-02 0. -1.
    10030    2    1    2    0    0  0.00000000000E+00  0.00000000000E+00  0.11057236612E+04  0.13610977208E+04  0.79370157516E+03 0.  0.
        1    1    3    3  502    0  0.22385983957E+03  0.33070389411E+01 -0.90474777064E+01  0.22406700149E+03  0.50400001928E-02 0. -1.
       -1    1    3    3    0  502 -0.22385983957E+03 -0.33070389411E+01  0.11147711390E+04  0.11370307193E+04  0.50400001928E-02 0.  1.
</event>
<event>
 5   0  0.2759559E-02  0.8045303E+03  0.7818609E-02  0.9553483E-01
       -1   -1    0    0    0  501  0.00000000000E+00  0.00000000000E+00  0.89179317964E+02  0.89179318107E+02  0.50400001928E-02 0. -1.
        1   -1    0    0  501    0  0.00000000000E+00  0.00000000000E+00 -0.18145154302E+04  0.18145154302E+04  0.50400001928E-02 0.  1.
    10030    2    1    2    0    0  0.00000000000E+00  0.00000000000E+00 -0.17253361123E+04  0.19036947483E+04  0.80453029439E+03 0.  0.
        3    1    3    3  502    0 -0.24075256899E+03 -0.23772255054E+02 -0.16231426663E+04  0.16410725288E+04  0.10100000352E+00 0.  1.
       -3    1    3    3    0  502  0.24075256899E+03  0.23772255054E+02 -0.10219344601E+03  0.26262221953E+03  0.10100000352E+00 0. -1.
</event>
<event>
 5   0  0.4590462E-02  0.8158982E+03  0.7818609E-02  0.9537286E-01
        2   -1    0    0  501    0  0.00000000000E+00  0.00000000000E+00  0.63256106485E+03  0.63256106486E+03  0.25500000920E-02 0. -1.
       -2   -1    0    0    0  501  0.00000000000E+00  0.00000000000E+00 -0.26309310419E+03  0.26309310420E+03  0.25500000920E-02 0.  1.
    10030    2    1    2    0    0  0.00000000000E+00  0.00000000000E+00  0.36946796066E+03  0.89565416906E+03  0.81589816558E+03 0.  0.
        3    1    3    3  502    0  0.40098738749E+03  0.29745842469E+02  0.26036540730E+03  0.47902594459E+03  0.10100000352E+00 0. -1.
       -3    1    3    3    0  502 -0.40098738749E+03 -0.29745842469E+02  0.10910255336E+03  0.41662822447E+03  0.10100000352E+00 0.  1.
</event>
<event>
 5   0  0.2606520E-02  0.8001668E+03  0.7818609E-02  0.9559776E-01
        1   -1    0    0  501    0  0.00000000000E+00  0.00000000000E+00  0.63758115086E+03  0.63758115088E+03  0.50400001928E-02 0.  1.
       -1   -1    0    0    0  501  0.00000000000E+00  0.00000000000E+00 -0.25105311607E+03  0.25105311612E+03  0.50400001928E-02 0. -1.
    10030    2    1    2    0    0  0.00000000000E+00  0.00000000000E+00  0.38652803480E+03  0.88863426700E+03  0.80016681936E+03 0.  0.
        5    1    3    3  502    0  0.16329737178E+02 -0.39799077828E+03  0.15198870003E+03  0.42636366502E+03  0.46999998093E+01 0. -1.
       -5    1    3    3    0  502 -0.16329737178E+02  0.39799077828E+03  0.23453933476E+03  0.46227060198E+03  0.46999998093E+01 0.  1.
</event>
<event>
 5   0  0.2689372E-02  0.7878552E+03  0.7818609E-02  0.9577764E-01
       -1   -1    0    0    0  501  0.00000000000E+00  0.00000000000E+00  0.11249829623E+03  0.11249829634E+03  0.50400001928E-02 0. -1.
        1   -1    0    0  501    0  0.00000000000E+00  0.00000000000E+00 -0.13793894252E+04  0.13793894253E+04  0.50400001928E-02 0.  1.
    10030    2    1    2    0    0  0.00000000000E+00  0.00000000000E+00 -0.12668911290E+04  0.14918877216E+04  0.78785521581E+03 0.  0.
        4    1    3    3  502    0 -0.26938453443E+03  0.39329177751E+02 -0.11725834086E+04  0.12037725178E+04  0.12699999809E+01 0.  1.
       -4    1    3    3    0  502  0.26938453443E+03 -0.39329177751E+02 -0.94307720387E+02  0.28811520376E+03  0.12699999809E+01 0. -1.
</event>
<event>
 5   0  0.4700220E-02  0.6250329E+03  0.7818609E-02  0.9854790E-01
       -2   -1    0    0    0  501  0.00000000000E+00  0.00000000000E+00  0.17288462045E+03  0.17288462047E+03  0.25500000920E-02 0. -1.
        2   -1    0    0  501    0  0.00000000000E+00  0.00000000000E+00 -0.56492316913E+03  0.56492316914E+03  0.25500000920E-02 0.  1.
    10030    2    1    2    0    0  0.00000000000E+00  0.00000000000E+00 -0.39203854869E+03  0.73780778961E+03  0.62503288773E+03 0.  0.
        4    1    3    3  502    0  0.24405488102E+03 -0.19509514071E+03 -0.20348645602E+03  0.37287162611E+03  0.12699999809E+01 0.  1.
       -4    1    3    3    0  502 -0.24405488102E+03  0.19509514071E+03 -0.18855209266E+03  0.36493616349E+03  0.12699999809E+01 0. -1.
</event>
<event>
 5   0  0.4684283E-02  0.7740021E+03  0.7818609E-02  0.9598430E-01
        2   -1    0    0  501    0  0.00000000000E+00  0.00000000000E+00  0.92740922685E+03  0.92740922685E+03  0.25500000920E-02 0.  1.
       -2   -1    0    0    0  501  0.00000000000E+00  0.00000000000E+00 -0.16149267912E+03  0.16149267914E+03  0.25500000920E-02 0. -1.
    10030    2    1    2    0    0  0.00000000000E+00  0.00000000000E+00  0.76591654773E+03  0.10889019060E+04  0.77400206898E+03 0.  0.
        1    1    3    3  502    0 -0.27296253757E+03  0.22176689363E+02 -0.17298015107E+01  0.27386738526E+03  0.50400001928E-02 0. -1.
       -1    1    3    3    0  502  0.27296253757E+03 -0.22176689363E+02  0.76764634924E+03  0.81503452074E+03  0.50400001928E-02 0.  1.
</event>
<event>
 5   0  0.2769394E-02  0.8021941E+03  0.7818609E-02  0.9556847E-01
        1   -1    0    0  501    0  0.00000000000E+00  0.00000000000E+00  0.27440121169E+03  0.27440121173E+03  0.50400001928E-02 0.  1.
       -1   -1    0    0    0  501  0.00000000000E+00  0.00000000000E+00 -0.58629052803E+03  0.58629052805E+03  0.50400001928E-02 0. -1.
    10030    2    1    2    0    0  0.00000000000E+00  0.00000000000E+00 -0.31188931634E+03  0.86069173979E+03  0.80219406959E+03 0.  0.
        2    1    3    3  502    0 -0.10646368283E+02 -0.22324797954E+03 -0.51328703620E+03  0.55983621450E+03  0.25500000920E-02 0. -1.
       -2    1    3    3    0  502  0.10646368283E+02  0.22324797954E+03  0.20139771986E+03  0.30085552529E+03  0.25500000920E-02 0.  1.
</event>
<event>
 5   0  0.4377843E-02  0.7978613E+03  0.7818609E-02  0.9563118E-01
       -2   -1    0    0    0  501  0.00000000000E+00  0.00000000000E+00  0.65681922399E+02  0.65681922448E+02  0.25500000920E-02 0. -1.
        2   -1    0    0  501    0  0.00000000000E+00  0.00000000000E+00 -0.24229750198E+04  0.24229750198E+04  0.25500000920E-02 0.  1.
    10030    2    1    2    0    0  0.00000000000E+00  0.00000000000E+00 -0.23572930974E+04  0.24886569422E+04  0.79786128440E+03 0.  0.
        2    1    3    3  502    0  0.19837540156E+03  0.26821643411E+03 -0.49632147998E+03  0.59801995532E+03  0.25500000920E-02 0. -1.
       -2    1    3    3    0  502 -0.19837540156E+03 -0.26821643411E+03 -0.18609716174E+04  0.18906369869E+04  0.25500000920E-02 0.  1.
</event>
<event>
 5   0  0.1786500E-02  0.7652257E+03  0.7818609E-02  0.9611762E-01
        3   -1    0    0  501    0  0.00000000000E+00  0.00000000000E+00  0.16577297433E+03  0.16577300510E+03  0.10100000352E+00 0. -1.
       -3   -1    0    0    0  501  0.00000000000E+00  0.00000000000E+00 -0.88309067220E+03  0.88309067797E+03  0.10100000352E+00 0.  1.
    10030    2    1    2    0    0  0.00000000000E+00  0.00000000000E+00 -0.71731769786E+03  0.10488636831E+04  0.76522568305E+03 0.  0.
        3    1    3    3  502    0  0.20234044658E+03  0.22887546224E+03 -0.67440752964E+03  0.74037231159E+03  0.10100000352E+00 0.  1.
       -3    1    3    3    0  502 -0.20234044658E+03 -0.22887546224E+03 -0.42910168224E+02  0.30849137148E+03  0.10100000352E+00 0. -1.
</event>
<event>
 5   0  0.4684283E-02  0.8118302E+03  0.7818609E-02  0.9543050E-01
        2   -1    0    0  501    0  0.00000000000E+00  0.00000000000E+00  0.31181698526E+03  0.31181698527E+03  0.25500000920E-02 0. -1.
       -2   -1    0    0    0  501  0.00000000000E+00  0.00000000000E+00 -0.52840953053E+03  0.52840953054E+03  0.25500000920E-02 0.  1.
    10030    2    1    2    0    0  0.00000000000E+00  0.00000000000E+00 -0.21659254527E+03  0.84022651581E+03  0.81183019604E+03 0.  0.
        1    1    3    3  502    0  0.17796540966E+02  0.15601341300E+03 -0.49570197060E+03  0.51997821646E+03  0.50400001928E-02 0.  1.
       -1    1    3    3    0  502 -0.17796540966E+02 -0.15601341300E+03  0.27910942533E+03  0.32024829935E+03  0.50400001928E-02 0. -1.
</event>
<event>
 5   0  0.4590462E-02  0.7965530E+03  0.7818609E-02  0.9565020E-01
        2   -1    0    0  501    0  0.00000000000E+00  0.00000000000E+00  0.57229103337E+03  0.57229103338E+03  0.25500000920E-02 0.  1.
       -2   -1    0    0    0  501  0.00000000000E+00  0.00000000000E+00 -0.27717393447E+03  0.27717393449E+03  0.25500000920E-02 0. -1.
    10030    2    1    2    0    0  0.00000000000E+00  0.00000000000E+00  0.29511709890E+03  0.84946496786E+03  0.79655296721E+03 0.  0.
        3    1    3    3  502    0  0.80397856284E+02  0.31978254759E+03  0.38577881855E+03  0.50749384241E+03  0.10100000352E+00 0.  1.
       -3    1    3    3    0  502 -0.80397856284E+02 -0.31978254759E+03 -0.90661719649E+02  0.34197112546E+03  0.10100000352E+00 0. -1.
</event>
<event>
 5   0  0.4377843E-02  0.8579681E+03  0.7818609E-02  0.9479704E-01
        2   -1    0    0  501    0  0.00000000000E+00  0.00000000000E+00  0.50998601670E+03  0.50998601671E+03  0.25500000920E-02 0.  1.
       -2   -1    0    0    0  501  0.00000000000E+00  0.00000000000E+00 -0.36084774842E+03  0.36084774843E+03  0.25500000920E-02 0. -1.
    10030    2    1    2    0    0  0.00000000000E+00  0.00000000000E+00  0.14913826828E+03  0.87083376514E+03  0.85796807833E+03 0.  0.
        2    1    3    3  502    0  0.18028151769E+03  0.26188053781E+03  0.36688866493E+03  0.48547928294E+03  0.25500000920E-02 0.  1.
       -2    1    3    3    0  502 -0.18028151769E+03 -0.26188053781E+03 -0.21775039665E+03  0.38535448220E+03  0.25500000920E-02 0. -1.
</event>
<event>
 5   0  0.2606520E-02  0.7942803E+03  0.7818609E-02  0.9568333E-01
        1   -1    0    0  501    0  0.00000000000E+00  0.00000000000E+00  0.40487277110E+03  0.40487277113E+03  0.50400001928E-02 0. -1.
       -1   -1    0    0    0  501  0.00000000000E+00  0.00000000000E+00 -0.38955522966E+03  0.38955522970E+03  0.50400001928E-02 0.  1.
    10030    2    1    2    0    0  0.00000000000E+00  0.00000000000E+00  0.15317541434E+02  0.79442800082E+03  0.79428031665E+03 0.  0.
        5    1    3    3  502    0 -0.24000990076E+03 -0.23353049247E+03 -0.20582170798E+03  0.39309783624E+03  0.46999998093E+01 0.  1.
       -5    1    3    3    0  502  0.24000990076E+03  0.23353049247E+03  0.22113924942E+03  0.40133016459E+03  0.46999998093E+01 0. -1.
</event>
<event>
 5   0  0.4700220E-02  0.8006117E+03  0.7818609E-02  0.9559132E-01
        2   -1    0    0  501    0  0.00000000000E+00  0.00000000000E+00  0.16570733746E+04  0.16570733746E+04  0.25500000920E-02 0. -1.
       -2   -1    0    0    0  501  0.00000000000E+00  0.00000000000E+00 -0.96703489071E+02  0.96703489105E+02  0.25500000920E-02 0.  1.
    10030    2    1    2    0    0  0.00000000000E+00  0.00000000000E+00  0.15603698855E+04  0.17537768637E+04  0.80061170864E+03 0.  0.
        4    1    3    3  502    0 -0.27649265192E+02 -0.17095137663E+03 -0.10399836811E+02  0.17348955168E+03  0.12699999809E+01 0.  1.
       -4    1    3    3    0  502  0.27649265192E+02  0.17095137663E+03  0.15707697224E+04  0.15802873120E+04  0.12699999809E+01 0. -1.
</event>
<event>
 5   0  0.2759559E-02  0.7835533E+03  0.7818609E-02  0.9584133E-01
        1   -1    0    0  501    0  0.00000000000E+00  0.00000000000E+00  0.47002005888E+03  0.47002005890E+03  0.50400001928E-02 0. -1.
       -1   -1    0    0    0  501  0.00000000000E+00  0.00000000000E+00 -0.32655824976E+03  0.32655824980E+03  0.50400001928E-02 0.  1.
    10030    2    1    2    0    0  0.00000000000E+00  0.00000000000E+00  0.14346180911E+03  0.79657830871E+03  0.78355325998E+03 0.  0.
        3    1    3    3  502    0 -0.77463847009E+02  0.55107283318E+02  0.45811649174E+03  0.46787625552E+03  0.10100000352E+00 0. -1.
       -3    1    3    3    0  502  0.77463847009E+02 -0.55107283318E+02 -0.31465468263E+03  0.32870205319E+03  0.10100000352E+00 0.  1.
</event>
<event>
 5   0  0.2635243E-02  0.8036343E+03  0.7818609E-02  0.9554771E-01
        1   -1    0    0  501    0  0.00000000000E+00  0.00000000000E+00  0.37280030584E+03  0.37280030587E+03  0.50400001928E-02 0. -1.
       -1   -1    0    0    0  501  0.00000000000E+00  0.00000000000E+00 -0.43309256316E+03  0.43309256319E+03  0.50400001928E-02 0.  1.
    10030    2    1    2    0    0  0.00000000000E+00  0.00000000000E+00 -0.60292257324E+02  0.80589286907E+03  0.80363434478E+03 0.  0.
        1    1    3    3  502    0  0.18437625521E+03  0.34692642773E+03  0.54378892024E+02  0.39662275989E+03  0.50400001928E-02 0.  1.
       -1    1    3    3    0  502 -0.18437625521E+03 -0.34692642773E+03 -0.11467114935E+03  0.40927010917E+03  0.50400001928E-02 0. -1.
</event>
<event>
 5   0  0.4590462E-02  0.8055482E+03  0.7818609E-02  0.9552021E-01
       -2   -1    0    0    0  501  0.00000000000E+00  0.00000000000E+00  0.27036010944E+03  0.27036010945E+03  0.25500000920E-02 0.  1.
        2   -1    0    0  501    0  0.00000000000E+00  0.00000000000E+00 -0.60004033100E+03  0.60004033101E+03  0.25500000920E-02 0. -1.
    10030    2    1    2    0    0  0.00000000000E+00  0.00000000000E+00 -0.32968022156E+03  0.87040044046E+03  0.80554818494E+03 0.  0.
        3    1    3    3  502    0  0.58591444819E+02  0.36174042833E+03 -0.34544278712E+03  0.50360681515E+03  0.10100000352E+00 0. -1.
       -3    1    3    3    0  502 -0.58591444819E+02 -0.36174042833E+03  0.15762565556E+02  0.36679362531E+03  0.10100000352E+00 0.  1.
</event>
<event>
 5   0  0.1786500E-02  0.7895672E+03  0.7818609E-02  0.9575242E-01
        3   -1    0    0  501    0  0.00000000000E+00  0.00000000000E+00  0.36467965589E+03  0.36467966988E+03  0.10100000352E+00 0.  1.
       -3   -1    0    0    0  501  0.00000000000E+00  0.00000000000E+00 -0.42737254404E+03  0.42737255597E+03  0.10100000352E+00 0. -1.
    10030    2    1    2    0    0  0.00000000000E+00  0.00000000000E+00 -0.62692888145E+02  0.79205222585E+03  0.78956717906E+03 0.  0.
        2    1    3    3  502    0  0.33115474702E+03  0.41298623059E+02  0.18023214827E+03  0.37927914525E+03  0.25500000920E-02 0.  1.
       -2    1    3    3    0  502 -0.33115474702E+03 -0.41298623059E+02 -0.24292503642E+03  0.41277308060E+03  0.25500000920E-02 0. -1.
</event>
<event>
 5   0  0.2759559E-02  0.8476429E+03  0.7818609E-02  0.9493506E-01
       -1   -1    0    0    0  501  0.00000000000E+00  0.00000000000E+00  0.11840418624E+03  0.11840418635E+03  0.50400001928E-02 0. -1.
        1   -1    0    0  501    0  0.00000000000E+00  0.00000000000E+00 -0.15170461768E+04  0.15170461768E+04  0.50400001928E-02 0.  1.
    10030    2    1    2    0    0  0.00000000000E+00  0.00000000000E+00 -0.13986419905E+04  0.16354503632E+04  0.84764289215E+03 0.  0.
        3    1    3    3  502    0  0.32742065008E+03 -0.15152056291E+03 -0.27021992430E+03  0.45075667579E+03  0.10100000352E+00 0. -1.
       -3    1    3    3    0  502 -0.32742065008E+03  0.15152056291E+03 -0.11284220662E+04  0.11846936874E+04  0.10100000352E+00 0.  1.
</event>
<event>
 5   0  0.2689372E-02  0.7127348E+03  0.7818609E-02  0.9695698E-01
       -1   -1    0    0    0  501  0.00000000000E+00  0.00000000000E+00  0.18643964725E+03  0.18643964732E+03  0.50400001928E-02 0. -1.
        1   -1    0    0  501    0  0.00000000000E+00  0.00000000000E+00 -0.68117339447E+03  0.68117339449E+03  0.50400001928E-02 0.  1.
    10030    2    1    2    0    0  0.00000000000E+00  0.00000000000E+00 -0.49473374722E+03  0.86761304181E+03  0.71273481021E+03 0.  0.
        4    1    3    3  502    0  0.93756698600E+02  0.19803810558E+03  0.94750476162E+02  0.23872300984E+03  0.12699999809E+01 0. -1.
       -4    1    3    3    0  502 -0.93756698600E+02 -0.19803810558E+03 -0.58948422338E+03  0.62889003197E+03  0.12699999809E+01 0.  1.
</event>
<event>
 5   0  0.2606520E-02  0.8098418E+03  0.7818609E-02  0.9545880E-01
       -1   -1    0    0    0  501  0.00000000000E+00  0.00000000000E+00  0.64923688112E+03  0.64923688114E+03  0.50400001928E-02 0. -1.
        1   -1    0    0  501    0  0.00000000000E+00  0.00000000000E+00 -0.25254409976E+03  0.25254409981E+03  0.50400001928E-02 0.  1.
    10030    2    1    2    0    0  0.00000000000E+00  0.00000000000E+00  0.39669278136E+03  0.90178098095E+03  0.80984182087E+03 0.  0.
        5    1    3    3  502    0 -0.33850863347E+03  0.22142343603E+03  0.17835180723E+03  0.44209488812E+03  0.46999998093E+01 0.  1.
       -5    1    3    3    0  502  0.33850863347E+03 -0.22142343603E+03  0.21834097413E+03  0.45968609283E+03  0.46999998093E+01 0. -1.
</event>
<event>
 5   0  0.2689372E-02  0.8112182E+03  0.7818609E-02  0.9543920E-01
        1   -1    0    0  501    0  0.00000000000E+00  0.00000000000E+00  0.43190317512E+03  0.43190317515E+03  0.50400001928E-02 0. -1.
       -1   -1    0    0    0  501  0.00000000000E+00  0.00000000000E+00 -0.38091579983E+03  0.38091579986E+03  0.50400001928E-02 0.  1.
    10030    2    1    2    0    0  0.00000000000E+00  0.00000000000E+00  0.50987375295E+02  0.81281897502E+03  0.81121820351E+03 0.  0.
        4    1    3    3  502    0 -0.21527813587E+03  0.10785004001E+02  0.36976468108E+03  0.42800528545E+03  0.12699999809E+01 0. -1.
       -4    1    3    3    0  502  0.21527813587E+03 -0.10785004001E+02 -0.31877730578E+03  0.38481368957E+03  0.12699999809E+01 0.  1.
</event>
<event>
 5   0  0.4590462E-02  0.8120525E+03  0.7818609E-02  0.9542734E-01
        2   -1    0    0  501    0  0.00000000000E+00  0.00000000000E+00  0.70580977644E+03  0.70580977645E+03  0.25500000920E-02 0. -1.
       -2   -1    0    0    0  501  0.00000000000E+00  0.00000000000E+00 -0.23357185069E+03  0.23357185070E+03  0.25500000920E-02 0.  1.
    10030    2    1    2    0    0  0.00000000000E+00  0.00000000000E+00  0.47223792575E+03  0.93938162715E+03  0.81205245083E+03 0.  0.
        3    1    3    3  502    0 -0.18564476273E+03  0.22035312698E+02 -0.18082291216E+03  0.26008934753E+03  0.10100000352E+00 0.  1.
       -3    1    3    3    0  502  0.18564476273E+03 -0.22035312698E+02  0.65306083791E+03  0.67929227962E+03  0.10100000352E+00 0. -1.
</event>
<event>
 5   0  0.2689372E-02  0.8006319E+03  0.7818609E-02  0.9559103E-01
        1   -1    0    0  501    0  0.00000000000E+00  0.00000000000E+00  0.21813864457E+03  0.21813864463E+03  0.50400001928E-02 0.  1.
       -1   -1    0    0    0  501  0.00000000000E+00  0.00000000000E+00 -0.73463757948E+03  0.73463757950E+03  0.50400001928E-02 0. -1.
    10030    2    1    2    0    0  0.00000000000E+00  0.00000000000E+00 -0.51649893491E+03  0.95277622413E+03  0.80063186516E+03 0.  0.
        4    1    3    3  502    0 -0.71040663813E+02  0.48023755807E+02  0.20707853927E+03  0.22413431545E+03  0.12699999809E+01 0.  1.
       -4    1    3    3    0  502  0.71040663813E+02 -0.48023755807E+02 -0.72357747418E+03  0.72864190868E+03  0.12699999809E+01 0. -1.
</event>
<event>
 5   0  0.4590462E-02  0.8202732E+03  0.7818609E-02  0.9531127E-01
        2   -1    0    0  501    0  0.00000000000E+00  0.00000000000E+00  0.82147916801E+03  0.82147916802E+03  0.25500000920E-02 0.  1.
       -2   -1    0    0    0  501  0.00000000000E+00  0.00000000000E+00 -0.20476725464E+03  0.20476725466E+03  0.25500000920E-02 0. -1.
    10030    2    1    2    0    0  0.00000000000E+00  0.00000000000E+00  0.61671191337E+03  0.10262464227E+04  0.82027320813E+03 0.  0.
        3    1    3    3  502    0 -0.78547387946E+02 -0.22623831303E+03  0.72491612561E+03  0.76345063089E+03  0.10100000352E+00 0.  1.
       -3    1    3    3    0  502  0.78547387946E+02  0.22623831303E+03 -0.10820421224E+03  0.26279579179E+03  0.10100000352E+00 0. -1.
</event>
<event>
 5   0  0.4700220E-02  0.7951788E+03  0.7818609E-02  0.9567022E-01
       -2   -1    0    0    0  501  0.00000000000E+00  0.00000000000E+00  0.13663320589E+03  0.13663320592E+03  0.25500000920E-02 0. -1.
        2   -1    0    0  501    0  0.00000000000E+00  0.00000000000E+00 -0.11569466252E+04  0.11569466252E+04  0.25500000920E-02 0.  1.
    10030    2    1    2    0    0  0.00000000000E+00  0.00000000000E+00 -0.10203134193E+04  0.12935798311E+04  0.79517878861E+03 0.  0.
        4    1    3    3  502    0 -0.72886258269E+00  0.38451308195E+03 -0.34565993319E+03  0.51704278714E+03  0.12699999809E+01 0. -1.
       -4    1    3    3    0  502  0.72886258269E+00 -0.38451308195E+03 -0.67465348610E+03  0.77653704395E+03  0.12699999809E+01 0.  1.
</event>
<event>
 5   0  0.2689372E-02  0.8308375E+03  0.7818609E-02  0.9516423E-01
        1   -1    0    0  501    0  0.00000000000E+00  0.00000000000E+00  0.10301795353E+03  0.10301795365E+03  0.50400001928E-02 0.  1.
       -1   -1    0    0    0  501  0.00000000000E+00  0.00000000000E+00 -0.16751714496E+04  0.16751714496E+04  0.50400001928E-02 0. -1.
    10030    2    1    2    0    0  0.00000000000E+00  0.00000000000E+00 -0.15721534961E+04  0.17781894033E+04  0.83083749233E+03 0.  0.
        4    1    3    3  502    0 -0.13593521076E+03  0.25344766238E+03 -0.14451576546E+03  0.32187034417E+03  0.12699999809E+01 0.  1.
       -4    1    3    3    0  502  0.13593521076E+03 -0.25344766238E+03 -0.14276377306E+04  0.14563190591E+04  0.12699999809E+01 0. -1.
</event>
<event>
 5   0  0.2635243E-02  0.7863287E+03  0.7818609E-02  0.9580019E-01
       -1   -1    0    0    0  501  0.00000000000E+00  0.00000000000E+00  0.64976991166E+02  0.64976991362E+02  0.50400001928E-02 0.  1.
        1   -1    0    0  501    0  0.00000000000E+00  0.00000000000E+00 -0.23789685782E+04  0.23789685782E+04  0.50400001928E-02 0. -1.
    10030    2    1    2    0    0  0.00000000000E+00  0.00000000000E+00 -0.23139915870E+04  0.24439455695E+04  0.78632873669E+03 0.  0.
        1    1    3    3  502    0 -0.18304970098E+03 -0.16963295192E+03 -0.21012264360E+04  0.21159950536E+04  0.50400001928E-02 0. -1.
       -1    1    3    3    0  502  0.18304970098E+03  0.16963295192E+03 -0.21276515100E+03  0.32795051595E+03  0.50400001928E-02 0.  1.
</event>
<event>
 5   0  0.4377843E-02  0.8228140E+03  0.7818609E-02  0.9527569E-01
       -2   -1    0    0    0  501  0.00000000000E+00  0.00000000000E+00  0.34782340322E+03  0.34782340323E+03  0.25500000920E-02 0.  1.
        2   -1    0    0  501    0  0.00000000000E+00  0.00000000000E+00 -0.48661400265E+03  0.48661400265E+03  0.25500000920E-02 0. -1.
    10030    2    1    2    0    0  0.00000000000E+00  0.00000000000E+00 -0.13879059942E+03  0.83443740589E+03  0.82281404573E+03 0.  0.
        2    1    3    3  502    0 -0.13725989264E+03  0.42868569474E+02  0.32150765265E+03  0.35220045868E+03  0.25500000920E-02 0.  1.
       -2    1    3    3    0  502  0.13725989264E+03 -0.42868569474E+02 -0.46029825207E+03  0.48223694720E+03  0.25500000920E-02 0. -1.
</event>
<event>
 5   0  0.4590462E-02  0.7714879E+03  0.7818609E-02  0.9602230E-01
        2   -1    0    0  501    0  0.00000000000E+00  0.00000000000E+00  0.45199375249E+03  0.45199375250E+03  0.25500000920E-02 0.  1.
       -2   -1    0    0    0  501  0.00000000000E+00  0.00000000000E+00 -0.32920452649E+03  0.32920452650E+03  0.25500000920E-02 0. -1.
    10030    2    1    2    0    0  0.00000000000E+00  0.00000000000E+00  0.12278922600E+03  0.78119827900E+03  0.77148788525E+03 0.  0.
        3    1    3    3  502    0  0.32922722307E+03  0.80420162888E+02 -0.12515344079E+03  0.36127740166E+03  0.10100000352E+00 0. -1.
       -3    1    3    3    0  502 -0.32922722307E+03 -0.80420162888E+02  0.24794266680E+03  0.41992087734E+03  0.10100000352E+00 0.  1.
</event>
<event>
 5   0  0.2689372E-02  0.7833259E+03  0.7818609E-02  0.9584471E-01
        1   -1    0    0  501    0  0.00000000000E+00  0.00000000000E+00  0.17458791258E+04  0.17458791258E+04  0.50400001928E-02 0.  1.
       -1   -1    0    0    0  501  0.00000000000E+00  0.00000000000E+00 -0.87863959837E+02  0.87863959982E+02  0.50400001928E-02 0. -1.
    10030    2    1    2    0    0  0.00000000000E+00  0.00000000000E+00  0.16580151659E+04  0.18337430858E+04  0.78332586712E+03 0.  0.
        4    1    3    3  502    0 -0.16434840262E+02  0.92805132915E+02 -0.60916585863E+02  0.11222896241E+03  0.12699999809E+01 0. -1.
       -4    1    3    3    0  502  0.16434840262E+02 -0.92805132915E+02  0.17189317518E+04  0.17215141234E+04  0.12699999809E+01 0.  1.
</event>
<event>
 5   0  0.2769394E-02  0.5102033E+03  0.7818609E-02  0.1011149E+00
        1   -1    0    0  501    0  0.00000000000E+00  0.00000000000E+00  0.14492653446E+04  0.14492653446E+04  0.50400001928E-02 0.  1.
       -1   -1    0    0    0  501  0.00000000000E+00  0.00000000000E+00 -0.44903339462E+02  0.44903339745E+02  0.50400001928E-02 0. -1.
    10030    2    1    2    0    0  0.00000000000E+00  0.00000000000E+00  0.14043620051E+04  0.14941686844E+04  0.51020330833E+03 0.  0.
        2    1    3    3  502    0 -0.18806194390E+03  0.15377152215E+03  0.47413020592E+03  0.53274048836E+03  0.25500000920E-02 0.  1.
       -2    1    3    3    0  502  0.18806194390E+03 -0.15377152215E+03  0.93023179922E+03  0.96142819599E+03  0.25500000920E-02 0. -1.
</event>
<event>
 5   0  0.2635243E-02  0.6945346E+03  0.7818609E-02  0.9726625E-01
       -1   -1    0    0    0  501  0.00000000000E+00  0.00000000000E+00  0.16268962418E+03  0.16268962426E+03  0.50400001928E-02 0. -1.
        1   -1    0    0  501    0  0.00000000000E+00  0.00000000000E+00 -0.74125558794E+03  0.74125558795E+03  0.50400001928E-02 0.  1.
    10030    2    1    2    0    0  0.00000000000E+00  0.00000000000E+00 -0.57856596376E+03  0.90394521221E+03  0.69453464439E+03 0.  0.
        1    1    3    3  502    0  0.27811628108E+03 -0.77924270550E+02 -0.54022090315E+03  0.61258426520E+03  0.50400001928E-02 0.  1.
       -1    1    3    3    0  502 -0.27811628108E+03  0.77924270550E+02 -0.38345060612E+02  0.29136094701E+03  0.50400001928E-02 0. -1.
</event>
<event>
 5   0  0.4377843E-02  0.8099378E+03  0.7818609E-02  0.9545743E-01
        2   -1    0    0  501    0  0.00000000000E+00  0.00000000000E+00  0.15450865759E+03  0.15450865761E+03  0.25500000920E-02 0. -1.
       -2   -1    0    0    0  501  0.00000000000E+00  0.00000000000E+00 -0.10614280623E+04  0.10614280623E+04  0.25500000920E-02 0.  1.
    10030    2    1    2    0    0  0.00000000000E+00  0.00000000000E+00 -0.90691940474E+03  0.12159367199E+04  0.80993783725E+03 0.  0.
        2    1    3    3  502    0  0.23226517763E+03 -0.20898019925E+03 -0.84025204940E+03  0.89646156802E+03  0.25500000920E-02 0.  1.
       -2    1    3    3    0  502 -0.23226517763E+03  0.20898019925E+03 -0.66667355339E+02  0.31947515192E+03  0.25500000920E-02 0. -1.
</event>
<event>
 5   0  0.1786500E-02  0.8020528E+03  0.7818609E-02  0.9557051E-01
        3   -1    0    0  501    0  0.00000000000E+00  0.00000000000E+00  0.44001471590E+03  0.44001472749E+03  0.10100000352E+00 0.  1.
       -3   -1    0    0    0  501  0.00000000000E+00  0.00000000000E+00 -0.36549268328E+03  0.36549269724E+03  0.10100000352E+00 0. -1.
    10030    2    1    2    0    0  0.00000000000E+00  0.00000000000E+00  0.74522032618E+02  0.80550742473E+03  0.80205279000E+03 0.  0.
        5    1    3    3  502    0  0.75062759716E+02 -0.26734105308E+03 -0.25328495212E+03  0.37587366698E+03  0.46999998093E+01 0. -1.
       -5    1    3    3    0  502 -0.75062759716E+02  0.26734105308E+03  0.32780698474E+03  0.42963375775E+03  0.46999998093E+01 0.  1.
</event>
<event>
 5   0  0.2606520E-02  0.8063553E+03  0.7818609E-02  0.9550863E-01
        1   -1    0    0  501    0  0.00000000000E+00  0.00000000000E+00  0.66374144987E+03  0.66374144989E+03  0.50400001928E-02 0.  1.
       -1   -1    0    0    0  501  0.00000000000E+00  0.00000000000E+00 -0.24490290879E+03  0.24490290884E+03  0.50400001928E-02 0. -1.
    10030    2    1    2    0    0  0.00000000000E+00  0.00000000000E+00  0.41883854108E+03  0.90864435873E+03  0.80635528593E+03 0.  0.
        5    1    3    3  502    0  0.11148757468E+03 -0.18013268617E+03 -0.17709785209E+03  0.27615756942E+03  0.46999998093E+01 0. -1.
       -5    1    3    3    0  502 -0.11148757468E+03  0.18013268617E+03  0.59593639317E+03  0.63248678930E+03  0.46999998093E+01 0.  1.
</event>
<event>
 5   0  0.2759559E-02  0.5681636E+03  0.7818609E-02  0.9973750E-01
       -1   -1    0    0    0  501  0.00000000000E+00  0.00000000000E+00  0.98858366786E+02  0.98858366914E+02  0.50400001928E-02 0. -1.
        1   -1    0    0  501    0  0.00000000000E+00  0.00000000000E+00 -0.81634448154E+03  0.81634448155E+03  0.50400001928E-02 0.  1.
    10030    2    1    2    0    0  0.00000000000E+00  0.00000000000E+00 -0.71748611475E+03  0.91520284847E+03  0.56816364630E+03 0.  0.
        3    1    3    3  502    0  0.20428375118E+03 -0.19672564527E+03 -0.38519376670E+03  0.47833782895E+03  0.10100000352E+00 0.  1.
       -3    1    3    3    0  502 -0.20428375118E+03  0.19672564527E+03 -0.33229234805E+03  0.43686501951E+03  0.10100000352E+00 0. -1.
</event>
<event>
 5   0  0.4590462E-02  0.7694117E+03  0.7818609E-02  0.9605379E-01
        2   -1    0    0  501    0  0.00000000000E+00  0.00000000000E+00  0.51373603646E+03  0.51373603647E+03  0.25500000920E-02 0.  1.
       -2   -1    0    0    0  501  0.00000000000E+00  0.00000000000E+00 -0.28808296198E+03  0.28808296199E+03  0.25500000920E-02 0. -1.
    10030    2    1    2    0    0  0.00000000000E+00  0.00000000000E+00  0.22565307449E+03  0.80181899846E+03  0.76941172091E+03 0.  0.
        3    1    3    3  502    0 -0.16922169719E+02 -0.24633953057E+03  0.42025898474E+03  0.48742912162E+03  0.10100000352E+00 0.  1.
       -3    1    3    3    0  502  0.16922169719E+02  0.24633953057E+03 -0.19460591026E+03  0.31438987684E+03  0.10100000352E+00 0. -1.
</event>
<event>
 5   0  0.4590462E-02  0.7984289E+03  0.7818609E-02  0.9562294E-01
       -2   -1    0    0    0  501  0.00000000000E+00  0.00000000000E+00  0.42802872827E+03  0.42802872828E+03  0.25500000920E-02 0.  1.
        2   -1    0    0  501    0  0.00000000000E+00  0.00000000000E+00 -0.37233991153E+03  0.37233991154E+03  0.25500000920E-02 0. -1.
    10030    2    1    2    0    0  0.00000000000E+00  0.00000000000E+00  0.55688816744E+02  0.80036863982E+03  0.79842890435E+03 0.  0.
        3    1    3    3  502    0 -0.17690417018E+03  0.35484818211E+03 -0.18742693383E+02  0.39694283787E+03  0.10100000352E+00 0. -1.
       -3    1    3    3    0  502  0.17690417018E+03 -0.35484818211E+03  0.74431510127E+02  0.40342580195E+03  0.10100000352E+00 0.  1.
</event>
<event>
 5   0  0.2635243E-02  0.8410022E+03  0.7818609E-02  0.9502494E-01
        1   -1    0    0  501    0  0.00000000000E+00  0.00000000000E+00  0.10867110213E+04  0.10867110213E+04  0.50400001928E-02 0. -1.
       -1   -1    0    0    0  501  0.00000000000E+00  0.00000000000E+00 -0.16271224204E+03  0.16271224211E+03  0.50400001928E-02 0.  1.
    10030    2    1    2    0    0  0.00000000000E+00  0.00000000000E+00  0.92399877924E+03  0.12494232634E+04  0.84100222776E+03 0.  0.
        1    1    3    3  502    0 -0.27806280699E+02 -0.28784061947E+02 -0.15987637125E+03  0.16480948267E+03  0.50400001928E-02 0.  1.
       -1    1    3    3    0  502  0.27806280699E+02  0.28784061947E+02  0.10838751505E+04  0.10846137807E+04  0.50400001928E-02 0. -1.
</event>
<event>
 5   0  0.4684283E-02  0.7919358E+03  0.7818609E-02  0.9571764E-01
       -2   -1    0    0    0  501  0.00000000000E+00  0.00000000000E+00  0.93566099159E+02  0.93566099194E+02  0.25500000920E-02 0. -1.
        2   -1    0    0  501    0  0.00000000000E+00  0.00000000000E+00 -0.16757198490E+04  0.16757198490E+04  0.25500000920E-02 0.  1.
    10030    2    1    2    0    0  0.00000000000E+00  0.00000000000E+00 -0.15821537499E+04  0.17692859482E+04  0.79193577919E+03 0.  0.
        1    1    3    3  502    0  0.66909144139E+02 -0.18876843413E+03 -0.15542211890E+04  0.15670717468E+04  0.50400001928E-02 0.  1.
       -1    1    3    3    0  502 -0.66909144139E+02  0.18876843413E+03 -0.27932560930E+02  0.20221420147E+03  0.50400001928E-02 0. -1.
</event>
<event>
 5   0  0.2769394E-02  0.7945327E+03  0.7818609E-02  0.9567965E-01
       -1   -1    0    0    0  501  0.00000000000E+00  0.00000000000E+00  0.20231299716E+03  0.20231299722E+03  0.50400001928E-02 0.  1.
        1   -1    0    0  501    0  0.00000000000E+00  0.00000000000E+00 -0.78008120065E+03  0.78008120066E+03  0.50400001928E-02 0. -1.
    10030    2    1    2    0    0  0.00000000000E+00  0.00000000000E+00 -0.57776820349E+03  0.98239419789E+03  0.79453273254E+03 0.  0.
        2    1    3    3  502    0 -0.20556627520E+03  0.15242279893E+03 -0.66458848838E+03  0.71215732955E+03  0.25500000920E-02 0. -1.
       -2    1    3    3    0  502  0.20556627520E+03 -0.15242279893E+03  0.86820284892E+02  0.27023686834E+03  0.25500000920E-02 0.  1.
</event>
<event>
 5   0  0.2635243E-02  0.8056730E+03  0.7818609E-02  0.9551842E-01
        1   -1    0    0  501    0  0.00000000000E+00  0.00000000000E+00  0.11466253734E+04  0.11466253734E+04  0.50400001928E-02 0. -1.
       -1   -1    0    0    0  501  0.00000000000E+00  0.00000000000E+00 -0.14152593339E+03  0.14152593348E+03  0.50400001928E-02 0.  1.
    10030    2    1    2    0    0  0.00000000000E+00  0.00000000000E+00  0.10050994400E+04  0.12881513069E+04  0.80567295173E+03 0.  0.
        1    1    3    3  502    0 -0.99967856717E+02  0.27809348575E+03  0.64839029027E+02  0.30254530058E+03  0.50400001928E-02 0.  1.
       -1    1    3    3    0  502  0.99967856717E+02 -0.27809348575E+03  0.94026041100E+03  0.98560600633E+03  0.50400001928E-02 0. -1.
</event>
<event>
 5   0  0.1786500E-02  0.7938469E+03  0.7818609E-02  0.9568966E-01
       -4   -1    0    0    0  501  0.00000000000E+00  0.00000000000E+00  0.69068371255E+03  0.69068488016E+03  0.12699999809E+01 0.  1.
        4   -1    0    0  501    0  0.00000000000E+00  0.00000000000E+00 -0.22810160343E+03  0.22810513889E+03  0.12699999809E+01 0. -1.
    10030    2    1    2    0    0  0.00000000000E+00  0.00000000000E+00  0.46258210912E+03  0.91879001904E+03  0.79384689419E+03 0.  0.
        1    1    3    3  502    0 -0.14420220177E+03 -0.21154201046E+03  0.58235214533E+03  0.63614331592E+03  0.50400001928E-02 0.  1.
       -1    1    3    3    0  502  0.14420220177E+03  0.21154201046E+03 -0.11977003621E+03  0.28264670312E+03  0.50400001928E-02 0. -1.
</event>
<event>
 5   0  0.4590462E-02  0.7877355E+03  0.7818609E-02  0.9577941E-01
        2   -1    0    0  501    0  0.00000000000E+00  0.00000000000E+00  0.21227422038E+04  0.21227422038E+04  0.25500000920E-02 0.  1.
       -2   -1    0    0    0  501  0.00000000000E+00  0.00000000000E+00 -0.73080841230E+02  0.73080841275E+02  0.25500000920E-02 0. -1.
    10030    2    1    2    0    0  0.00000000000E+00  0.00000000000E+00  0.20496613626E+04  0.21958230451E+04  0.78773545310E+03 0.  0.
        3    1    3    3  502    0 -0.42344169905E+02  0.14627916339E+03  0.20373587818E+04  0.20430422018E+04  0.10100000352E+00 0.  1.
       -3    1    3    3    0  502  0.42344169905E+02 -0.14627916339E+03  0.12302580738E+02  0.15278084324E+03  0.10100000352E+00 0. -1.
</event>
<event>
 5   0  0.2769394E-02  0.7984211E+03  0.7818609E-02  0.9562305E-01
       -1   -1    0    0    0  501  0.00000000000E+00  0.00000000000E+00  0.22489974099E+03  0.22489974105E+03  0.50400001928E-02 0.  1.
        1   -1    0    0  501    0  0.00000000000E+00  0.00000000000E+00 -0.70862278922E+03  0.70862278923E+03  0.50400001928E-02 0. -1.
    10030    2    1    2    0    0  0.00000000000E+00  0.00000000000E+00 -0.48372304823E+03  0.93352253028E+03  0.79842114649E+03 0.  0.
        2    1    3    3  502    0 -0.13440503768E+03  0.22185913918E+03  0.11293735865E+03  0.28291525017E+03  0.25500000920E-02 0.  1.
       -2    1    3    3    0  502  0.13440503768E+03 -0.22185913918E+03 -0.59666040688E+03  0.65060728011E+03  0.25500000920E-02 0. -1.
</event>
<event>
 5   0  0.2769394E-02  0.8022365E+03  0.7818609E-02  0.9556785E-01
        1   -1    0    0  501    0  0.00000000000E+00  0.00000000000E+00  0.12735382645E+04  0.12735382646E+04  0.50400001928E-02 0.  1.
       -1   -1    0    0    0  501  0.00000000000E+00  0.00000000000E+00 -0.12633767858E+03  0.12633767868E+03  0.50400001928E-02 0. -1.
    10030    2    1    2    0    0  0.00000000000E+00  0.00000000000E+00  0.11472005860E+04  0.13998759432E+04  0.80223654369E+03 0.  0.
        2    1    3    3  502    0  0.19955413473E+03  0.23213688905E+03  0.10259018195E+04  0.10705997997E+04  0.25500000920E-02 0.  1.
       -2    1    3    3    0  502 -0.19955413473E+03 -0.23213688905E+03  0.12129876651E+03  0.32927614355E+03  0.25500000920E-02 0. -1.
</event>
<event>
 5   0  0.4377843E-02  0.8181652E+03  0.7818609E-02  0.9534090E-01
       -2   -1    0    0    0  501  0.00000000000E+00  0.00000000000E+00  0.12005531660E+03  0.12005531662E+03  0.25500000920E-02 0. -1.
        2   -1    0    0  501    0  0.00000000000E+00  0.00000000000E+00 -0.13939288076E+04  0.13939288076E+04  0.25500000920E-02 0.  1.
    10030    2    1    2    0    0  0.00000000000E+00  0.00000000000E+00 -0.12738734910E+04  0.15139841242E+04  0.81816517729E+03 0.  0.
        2    1    3    3  502    0  0.30616365184E+03  0.27121912125E+03 -0.65035366970E+03  0.76828112637E+03  0.25500000920E-02 0. -1.
       -2    1    3    3    0  502 -0.30616365184E+03 -0.27121912125E+03 -0.62351982131E+03  0.74570299786E+03  0.25500000920E-02 0.  1.
</event>
<event>
 5   0  0.1786500E-02  0.7369930E+03  0.7818609E-02  0.9655980E-01
        3   -1    0    0  501    0  0.00000000000E+00  0.00000000000E+00  0.90226928880E+03  0.90226929445E+03  0.10100000352E+00 0.  1.
       -3   -1    0    0    0  501  0.00000000000E+00  0.00000000000E+00 -0.15049793051E+03  0.15049796440E+03  0.10100000352E+00 0. -1.
    10030    2    1    2    0    0  0.00000000000E+00  0.00000000000E+00  0.75177135829E+03  0.10527672589E+04  0.73699302994E+03 0.  0.
        1    1    3    3  502    0  0.14089523373E+03  0.33681514226E+03  0.30455151350E+03  0.47544456180E+03  0.50400001928E-02 0.  1.
       -1    1    3    3    0  502 -0.14089523373E+03 -0.33681514226E+03  0.44721984479E+03  0.57732269706E+03  0.50400001928E-02 0. -1.
</event>
<event>
 5   0  0.2759559E-02  0.6673054E+03  0.7818609E-02  0.9774838E-01
        1   -1    0    0  501    0  0.00000000000E+00  0.00000000000E+00  0.26354699402E+03  0.26354699407E+03  0.50400001928E-02 0.  1.
       -1   -1    0    0    0  501  0.00000000000E+00  0.00000000000E+00 -0.42240710689E+03  0.42240710692E+03  0.50400001928E-02 0. -1.
    10030    2    1    2    0    0  0.00000000000E+00  0.00000000000E+00 -0.15886011287E+03  0.68595410099E+03  0.66730539726E+03 0.  0.
        3    1    3    3  502    0  0.12555763885E+03 -0.14096156824E+03 -0.36223530108E+03  0.40847191819E+03  0.10100000352E+00 0. -1.
       -3    1    3    3    0  502 -0.12555763885E+03  0.14096156824E+03  0.20337518821E+03  0.27748218281E+03  0.10100000352E+00 0.  1.
</event>
<event>
 5   0  0.4663634E-02  0.7874774E+03  0.7818609E-02  0.9578322E-01
       -2   -1    0    0    0  501  0.00000000000E+00  0.00000000000E+00  0.75918609466E+02  0.75918609509E+02  0.25500000920E-02 0. -1.
        2   -1    0    0  501    0  0.00000000000E+00  0.00000000000E+00 -0.20420574970E+04  0.20420574970E+04  0.25500000920E-02 0.  1.
    10030    2    1    2    0    0  0.00000000000E+00  0.00000000000E+00 -0.19661388875E+04  0.21179761065E+04  0.78747740454E+03 0.  0.
        5    1    3    3  502    0 -0.13497982395E+02 -0.27817574565E+03 -0.17315443093E+04  0.17538049282E+04  0.46999998093E+01 0.  1.
       -5    1    3    3    0  502  0.13497982395E+02  0.27817574565E+03 -0.23459457821E+03  0.36417117832E+03  0.46999998093E+01 0. -1.
</event>
<event>
 5   0  0.2759559E-02  0.8041406E+03  0.7818609E-02  0.9554043E-01
       -1   -1    0    0    0  501  0.00000000000E+00  0.00000000000E+00  0.16606497223E+03  0.16606497231E+03  0.50400001928E-02 0. -1.
        1   -1    0    0  501    0  0.00000000000E+00  0.00000000000E+00 -0.97347767040E+03  0.97347767042E+03  0.50400001928E-02 0.  1.
    10030    2    1    2    0    0  0.00000000000E+00  0.00000000000E+00 -0.80741269817E+03  0.11395426427E+04  0.80414064033E+03 0.  0.
        3    1    3    3  502    0  0.46907758981E+02  0.12749204000E+03 -0.93997095984E+03  0.94973679178E+03  0.10100000352E+00 0.  1.
       -3    1    3    3    0  502 -0.46907758981E+02 -0.12749204000E+03  0.13255826167E+03  0.18980585095E+03  0.10100000352E+00 0. -1.
</event>
<event>
 5   0  0.4377843E-02  0.9853242E+03  0.7818609E-02  0.9324789E-01
        2   -1    0    0  501    0  0.00000000000E+00  0.00000000000E+00  0.73157117568E+03  0.73157117569E+03  0.25500000920E-02 0.  1.
       -2   -1    0    0    0  501  0.00000000000E+00  0.00000000000E+00 -0.33177353404E+03  0.33177353405E+03  0.25500000920E-02 0. -1.
    10030    2    1    2    0    0  0.00000000000E+00  0.00000000000E+00  0.39979764164E+03  0.10633447097E+04  0.98532421946E+03 0.  0.
        2    1    3    3  502    0 -0.25159145833E+03  0.33568190798E+03  0.47868605618E+03  0.63649111984E+03  0.25500000920E-02 0.  1.
       -2    1    3    3    0  502  0.25159145833E+03 -0.33568190798E+03 -0.78888414542E+02  0.42685358989E+03  0.25500000920E-02 0. -1.
</event>
<event>
 5   0  0.4377843E-02  0.8043322E+03  0.7818609E-02  0.9553767E-01
       -2   -1    0    0    0  501  0.00000000000E+00  0.00000000000E+00  0.75184127426E+03  0.75184127427E+03  0.25500000920E-02 0. -1.
        2   -1    0    0  501    0  0.00000000000E+00  0.00000000000E+00 -0.21512197115E+03  0.21512197116E+03  0.25500000920E-02 0.  1.
    10030    2    1    2    0    0  0.00000000000E+00  0.00000000000E+00  0.53671930312E+03  0.96696324543E+03  0.80433221226E+03 0.  0.
        2    1    3    3  502    0  0.28787982528E+03 -0.56986470146E+02  0.59894181490E+03  0.66697342467E+03  0.25500000920E-02 0. -1.
       -2    1    3    3    0  502 -0.28787982528E+03  0.56986470146E+02 -0.62222511779E+02  0.29998982076E+03  0.25500000920E-02 0.  1.
</event>
<event>
 5   0  0.2635243E-02  0.7986108E+03  0.7818609E-02  0.9562030E-01
        1   -1    0    0  501    0  0.00000000000E+00  0.00000000000E+00  0.21832694697E+03  0.21832694703E+03  0.50400001928E-02 0. -1.
       -1   -1    0    0    0  501  0.00000000000E+00  0.00000000000E+00 -0.73030291600E+03  0.73030291602E+03  0.50400001928E-02 0.  1.
    10030    2    1    2    0    0  0.00000000000E+00  0.00000000000E+00 -0.51197596903E+03  0.94862986305E+03  0.79861080897E+03 0.  0.
        1    1    3    3  502    0 -0.27629678163E+03  0.25824683944E+03 -0.40816944128E+03  0.55644733303E+03  0.50400001928E-02 0.  1.
       -1    1    3    3    0  502  0.27629678163E+03 -0.25824683944E+03 -0.10380652776E+03  0.39218253002E+03  0.50400001928E-02 0. -1.
</event>
<event>
 5   0  0.4590462E-02  0.7500812E+03  0.7818609E-02  0.9635223E-01
       -2   -1    0    0    0  501  0.00000000000E+00  0.00000000000E+00  0.51548022481E+03  0.51548022482E+03  0.25500000920E-02 0. -1.
        2   -1    0    0  501    0  0.00000000000E+00  0.00000000000E+00 -0.27286294222E+03  0.27286294223E+03  0.25500000920E-02 0.  1.
    10030    2    1    2    0    0  0.00000000000E+00  0.00000000000E+00  0.24261728259E+03  0.78834316705E+03  0.75008119775E+03 0.  0.
        3    1    3    3  502    0 -0.26938766712E+03  0.25391320460E+03  0.58127177614E+02  0.37472711357E+03  0.10100000352E+00 0.  1.
       -3    1    3    3    0  502  0.26938766712E+03 -0.25391320460E+03  0.18449010497E+03  0.41361605348E+03  0.10100000352E+00 0. -1.
</event>
<event>
 5   0  0.4377843E-02  0.8401293E+03  0.7818609E-02  0.9503682E-01
        2   -1    0    0  501    0  0.00000000000E+00  0.00000000000E+00  0.61258716498E+03  0.61258716498E+03  0.25500000920E-02 0. -1.
       -2   -1    0    0    0  501  0.00000000000E+00  0.00000000000E+00 -0.28804769338E+03  0.28804769339E+03  0.25500000920E-02 0.  1.
    10030    2    1    2    0    0  0.00000000000E+00  0.00000000000E+00  0.32453947160E+03  0.90063485837E+03  0.84012932307E+03 0.  0.
        2    1    3    3  502    0 -0.31151875982E+03 -0.73467024558E+02 -0.12937661692E+03  0.34522405830E+03  0.25500000920E-02 0. -1.
       -2    1    3    3    0  502  0.31151875982E+03  0.73467024558E+02  0.45391608852E+03  0.55541080007E+03  0.25500000920E-02 0.  1.
</event>
<event>
 5   0  0.2759559E-02  0.8372738E+03  0.7818609E-02  0.9507579E-01
       -1   -1    0    0    0  501  0.00000000000E+00  0.00000000000E+00  0.33995726455E+03  0.33995726458E+03  0.50400001928E-02 0.  1.
        1   -1    0    0  501    0  0.00000000000E+00  0.00000000000E+00 -0.51552608283E+03  0.51552608286E+03  0.50400001928E-02 0. -1.
    10030    2    1    2    0    0  0.00000000000E+00  0.00000000000E+00 -0.17556881829E+03  0.85548334744E+03  0.83727375917E+03 0.  0.
        3    1    3    3  502    0 -0.17707075025E+03 -0.34127653058E+03 -0.25701605154E+03  0.46247268229E+03  0.10100000352E+00 0.  1.
       -3    1    3    3    0  502  0.17707075025E+03  0.34127653058E+03  0.81447233250E+02  0.39301066515E+03  0.10100000352E+00 0. -1.
</event>
<event>
 5   0  0.2759559E-02  0.8252666E+03  0.7818609E-02  0.9524148E-01
        1   -1    0    0  501    0  0.00000000000E+00  0.00000000000E+00  0.11607781518E+04  0.11607781518E+04  0.50400001928E-02 0.  1.
       -1   -1    0    0    0  501  0.00000000000E+00  0.00000000000E+00 -0.14668285647E+03  0.14668285656E+03  0.50400001928E-02 0. -1.
    10030    2    1    2    0    0  0.00000000000E+00  0.00000000000E+00  0.10140952953E+04  0.13074610083E+04  0.82526663592E+03 0.  0.
        3    1    3    3  502    0  0.24055981505E+03 -0.11872488324E+03  0.10037712553E+04  0.10390001759E+04  0.10100000352E+00 0.  1.
       -3    1    3    3    0  502 -0.24055981505E+03  0.11872488324E+03  0.10324040017E+02  0.26846083238E+03  0.10100000352E+00 0. -1.
</event>
<event>
 5   0  0.2689372E-02  0.8014865E+03  0.7818609E-02  0.9557868E-01
       -1   -1    0    0    0  501  0.00000000000E+00  0.00000000000E+00  0.79538124368E+02  0.79538124528E+02  0.50400001928E-02 0.  1.
        1   -1    0    0  501    0  0.00000000000E+00  0.00000000000E+00 -0.20190963696E+04  0.20190963696E+04  0.50400001928E-02 0. -1.
    10030    2    1    2    0    0  0.00000000000E+00  0.00000000000E+00 -0.19395582452E+04  0.20986344941E+04  0.80148646484E+03 0.  0.
        4    1    3    3  502    0  0.24859625919E+03  0.14851885363E+03 -0.16951147193E+04  0.17196724904E+04  0.12699999809E+01 0. -1.
       -4    1    3    3    0  502 -0.24859625919E+03 -0.14851885363E+03 -0.24444352598E+03  0.37896200372E+03  0.12699999809E+01 0.  1.
</event>
<event>
 5   0  0.4590462E-02  0.7952186E+03  0.7818609E-02  0.9566964E-01
        2   -1    0    0  501    0  0.00000000000E+00  0.00000000000E+00  0.44140059405E+03  0.44140059405E+03  0.25500000920E-02 0. -1.
       -2   -1    0    0    0  501  0.00000000000E+00  0.00000000000E+00 -0.35816256565E+03  0.35816256566E+03  0.25500000920E-02 0.  1.
    10030    2    1    2    0    0  0.00000000000E+00  0.00000000000E+00  0.83238028398E+02  0.79956315971E+03  0.79521863471E+03 0.  0.
        3    1    3    3  502    0 -0.20889755905E+03 -0.63188557299E+02 -0.29255526683E+03  0.36499257294E+03  0.10100000352E+00 0.  1.
       -3    1    3    3    0  502  0.20889755905E+03  0.63188557299E+02  0.37579329523E+03  0.43457058677E+03  0.10100000352E+00 0. -1.
</event>
<event>
 5   0  0.4377843E-02  0.8020903E+03  0.7818609E-02  0.9556996E-01
       -2   -1    0    0    0  501  0.00000000000E+00  0.00000000000E+00  0.12956213878E+03  0.12956213881E+03  0.25500000920E-02 0.  1.
        2   -1    0    0  501    0  0.00000000000E+00  0.00000000000E+00 -0.12413905697E+04  0.12413905697E+04  0.25500000920E-02 0. -1.
    10030    2    1    2    0    0  0.00000000000E+00  0.00000000000E+00 -0.11118284309E+04  0.13709527085E+04  0.80209031234E+03 0.  0.
        2    1    3    3  502    0  0.23227061855E+03  0.29172344509E+03 -0.30363697543E+03  0.48088212850E+03  0.25500000920E-02 0. -1.
       -2    1    3    3    0  502 -0.23227061855E+03 -0.29172344509E+03 -0.80819145545E+03  0.89007057997E+03  0.25500000920E-02 0.  1.
</event>
<event>
 5   0  0.4700220E-02  0.7892605E+03  0.7818609E-02  0.9575694E-01
        2   -1    0    0  501    0  0.00000000000E+00  0.00000000000E+00  0.32912785332E+03  0.32912785333E+03  0.25500000920E-02 0.  1.
       -2   -1    0    0    0  501  0.00000000000E+00  0.00000000000E+00 -0.47316877266E+03  0.47316877267E+03  0.25500000920E-02 0. -1.
    10030    2    1    2    0    0  0.00000000000E+00  0.00000000000E+00 -0.14404091934E+03  0.80229662601E+03  0.78926047010E+03 0.  0.
        4    1    3    3  502    0  0.21690848085E+03 -0.95001316355E+02  0.24887844606E+03  0.34353549014E+03  0.12699999809E+01 0.  1.
       -4    1    3    3    0  502 -0.21690848085E+03  0.95001316355E+02 -0.39291936540E+03  0.45876113586E+03  0.12699999809E+01 0. -1.
</event>
<event>
 5   0  0.2769394E-02  0.7805141E+03  0.7818609E-02  0.9588658E-01
       -1   -1    0    0    0  501  0.00000000000E+00  0.00000000000E+00  0.11185750494E+03  0.11185750505E+03  0.50400001928E-02 0.  1.
        1   -1    0    0  501    0  0.00000000000E+00  0.00000000000E+00 -0.13615587281E+04  0.13615587281E+04  0.50400001928E-02 0. -1.
    10030    2    1    2    0    0  0.00000000000E+00  0.00000000000E+00 -0.12497012232E+04  0.14734162332E+04  0.78051409275E+03 0.  0.
        2    1    3    3  502    0 -0.25915883154E+03 -0.17070543434E+03 -0.10715617276E+04  0.11155931971E+04  0.25500000920E-02 0. -1.
       -2    1    3    3    0  502  0.25915883154E+03  0.17070543434E+03 -0.17813949556E+03  0.35782303610E+03  0.25500000920E-02 0.  1.
</event>
<event>
 5   0  0.1786500E-02  0.8042784E+03  0.7818609E-02  0.9553845E-01
       -3   -1    0    0    0  501  0.00000000000E+00  0.00000000000E+00  0.14638978352E+04  0.14638978387E+04  0.10100000352E+00 0. -1.
        3   -1    0    0  501    0  0.00000000000E+00  0.00000000000E+00 -0.11046938213E+03  0.11046942830E+03  0.10100000352E+00 0.  1.
    10030    2    1    2    0    0  0.00000000000E+00  0.00000000000E+00  0.13534284531E+04  0.15743672670E+04  0.80427838079E+03 0.  0.
        2    1    3    3  502    0  0.12867501820E+03  0.10871329820E+01 -0.69080616781E+02  0.14604990171E+03  0.25500000920E-02 0.  1.
       -2    1    3    3    0  502 -0.12867501820E+03 -0.10871329820E+01  0.14225090699E+04  0.14283173653E+04  0.25500000920E-02 0. -1.
</event>
<event>
 5   0  0.4590462E-02  0.7357278E+03  0.7818609E-02  0.9658011E-01
        2   -1    0    0  501    0  0.00000000000E+00  0.00000000000E+00  0.72763357874E+03  0.72763357874E+03  0.25500000920E-02 0. -1.
       -2   -1    0    0    0  501  0.00000000000E+00  0.00000000000E+00 -0.18597801418E+03  0.18597801419E+03  0.25500000920E-02 0.  1.
    10030    2    1    2    0    0  0.00000000000E+00  0.00000000000E+00  0.54165556456E+03  0.91361159294E+03  0.73572779758E+03 0.  0.
        3    1    3    3  502    0  0.35552979450E+03 -0.40469070417E+02  0.37681390443E+03  0.51964209723E+03  0.10100000352E+00 0.  1.
       -3    1    3    3    0  502 -0.35552979450E+03  0.40469070417E+02  0.16484166013E+03  0.39396949571E+03  0.10100000352E+00 0. -1.
</event>
<event>
 5   0  0.4377843E-02  0.7498719E+03  0.7818609E-02  0.9635551E-01
       -2   -1    0    0    0  501  0.00000000000E+00  0.00000000000E+00  0.11278626310E+03  0.11278626313E+03  0.25500000920E-02 0.  1.
        2   -1    0    0  501    0  0.00000000000E+00  0.00000000000E+00 -0.12464013970E+04  0.12464013970E+04  0.25500000920E-02 0. -1.
    10030    2    1    2    0    0  0.00000000000E+00  0.00000000000E+00 -0.11336151339E+04  0.13591876602E+04  0.74987187150E+03 0.  0.
        2    1    3    3  502    0 -0.80050615450E+02  0.14993242593E+03  0.38948537533E+02  0.17436978512E+03  0.25500000920E-02 0.  1.
       -2    1    3    3    0  502  0.80050615450E+02 -0.14993242593E+03 -0.11725636715E+04  0.11848178750E+04  0.25500000920E-02 0. -1.
</event>
<event>
 5   0  0.2635243E-02  0.8075956E+03  0.7818609E-02  0.9549087E-01
       -1   -1    0    0    0  501  0.00000000000E+00  0.00000000000E+00  0.39817651419E+03  0.39817651422E+03  0.50400001928E-02 0. -1.
        1   -1    0    0  501    0  0.00000000000E+00  0.00000000000E+00 -0.40949843662E+03  0.40949843665E+03  0.50400001928E-02 0.  1.
    10030    2    1    2    0    0  0.00000000000E+00  0.00000000000E+00 -0.11321922425E+02  0.80767495087E+03  0.80759559207E+03 0.  0.
        1    1    3    3  502    0 -0.15552785067E+03 -0.25339024917E+03  0.26760045669E+03  0.40000691888E+03  0.50400001928E-02 0. -1.
       -1    1    3    3    0  502  0.15552785067E+03  0.25339024917E+03 -0.27892237912E+03  0.40766803199E+03  0.50400001928E-02 0.  1.
</event>
<event>
 5   0  0.2759559E-02  0.8302657E+03  0.7818609E-02  0.9517213E-01
       -1   -1    0    0    0  501  0.00000000000E+00  0.00000000000E+00  0.37188652356E+03  0.37188652360E+03  0.50400001928E-02 0.  1.
        1   -1    0    0  501    0  0.00000000000E+00  0.00000000000E+00 -0.46340829280E+03  0.46340829283E+03  0.50400001928E-02 0. -1.
    10030    2    1    2    0    0  0.00000000000E+00  0.00000000000E+00 -0.91521769240E+02  0.83529481643E+03  0.83026573824E+03 0.  0.
        3    1    3    3  502    0 -0.29916426554E+03 -0.25701923923E+03  0.84550288970E+02  0.40336944440E+03  0.10100000352E+00 0.  1.
       -3    1    3    3    0  502  0.29916426554E+03  0.25701923923E+03 -0.17607205821E+03  0.43192537202E+03  0.10100000352E+00 0. -1.
</event>
<event>
 5   0  0.2689372E-02  0.7911933E+03  0.7818609E-02  0.9572853E-01
       -1   -1    0    0    0  501  0.00000000000E+00  0.00000000000E+00  0.95943139205E+02  0.95943139338E+02  0.50400001928E-02 0. -1.
        1   -1    0    0  501    0  0.00000000000E+00  0.00000000000E+00 -0.16311402054E+04  0.16311402055E+04  0.50400001928E-02 0.  1.
    10030    2    1    2    0    0  0.00000000000E+00  0.00000000000E+00 -0.15351970662E+04  0.17270833448E+04  0.79119330613E+03 0.  0.
        4    1    3    3  502    0 -0.27179059257E+03 -0.19477447371E+03 -0.12290494936E+04  0.12737234756E+04  0.12699999809E+01 0.  1.
       -4    1    3    3    0  502  0.27179059257E+03  0.19477447371E+03 -0.30614757267E+03  0.45335986917E+03  0.12699999809E+01 0. -1.
</event>
<event>
 5   0  0.1786500E-02  0.7333159E+03  0.7818609E-02  0.9661895E-01
        3   -1    0    0  501    0  0.00000000000E+00  0.00000000000E+00  0.81625528762E+03  0.81625529387E+03  0.10100000352E+00 0.  1.
       -3   -1    0    0    0  501  0.00000000000E+00  0.00000000000E+00 -0.16470094694E+03  0.16470097791E+03  0.10100000352E+00 0. -1.
    10030    2    1    2    0    0  0.00000000000E+00  0.00000000000E+00  0.65155434068E+03  0.98095627179E+03  0.73331585848E+03 0.  0.
        1    1    3    3  502    0  0.18713465561E+03  0.40447954166E+02  0.74407865654E+03  0.76831534116E+03  0.50400001928E-02 0.  1.
       -1    1    3    3    0  502 -0.18713465561E+03 -0.40447954166E+02 -0.92524315856E+02  0.21264093062E+03  0.50400001928E-02 0. -1.
</event>
<event>
 5   0  0.2635243E-02  0.5886339E+03  0.7818609E-02  0.9929272E-01
        1   -1    0    0  501    0  0.00000000000E+00  0.00000000000E+00  0.37017158443E+03  0.37017158446E+03  0.50400001928E-02 0.  1.
       -1   -1    0    0    0  501  0.00000000000E+00  0.00000000000E+00 -0.23400625247E+03  0.23400625253E+03  0.50400001928E-02 0. -1.
    10030    2    1    2    0    0  0.00000000000E+00  0.00000000000E+00  0.13616533196E+03  0.60417783699E+03  0.58863389393E+03 0.  0.
        1    1    3    3  502    0 -0.23865942234E+03  0.10445741127E+02  0.24453818264E+03  0.34185721606E+03  0.50400001928E-02 0.  1.
       -1    1    3    3    0  502  0.23865942234E+03 -0.10445741127E+02 -0.10837285068E+03  0.26232062093E+03  0.50400001928E-02 0. -1.
</event>
<event>
 5   0  0.4590462E-02  0.8512043E+03  0.7818609E-02  0.9488722E-01
        2   -1    0    0  501    0  0.00000000000E+00  0.00000000000E+00  0.17330293647E+04  0.17330293647E+04  0.25500000920E-02 0. -1.
       -2   -1    0    0    0  501  0.00000000000E+00  0.00000000000E+00 -0.10452056312E+03  0.10452056316E+03  0.25500000920E-02 0.  1.
    10030    2    1    2    0    0  0.00000000000E+00  0.00000000000E+00  0.16285088016E+04  0.18375499279E+04  0.85120433538E+03 0.  0.
        3    1    3    3  502    0  0.29557264866E+03  0.24168442164E+03  0.12202092090E+04  0.12785480336E+04  0.10100000352E+00 0.  1.
       -3    1    3    3    0  502 -0.29557264866E+03 -0.24168442164E+03  0.40829959263E+03  0.55900189431E+03  0.10100000352E+00 0. -1.
</event>
<event>
 5   0  0.2769394E-02  0.7873935E+03  0.7818609E-02  0.9578446E-01
       -1   -1    0    0    0  501  0.00000000000E+00  0.00000000000E+00  0.37763263937E+03  0.37763263940E+03  0.50400001928E-02 0.  1.
        1   -1    0    0  501    0  0.00000000000E+00  0.00000000000E+00 -0.41044417047E+03  0.41044417050E+03  0.50400001928E-02 0. -1.
    10030    2    1    2    0    0  0.00000000000E+00  0.00000000000E+00 -0.32811531099E+02  0.78807680990E+03  0.78739346056E+03 0.  0.
        2    1    3    3  502    0 -0.84804672207E+02 -0.30805686205E+03  0.21380744716E+03  0.38445349153E+03  0.25500000920E-02 0.  1.
       -2    1    3    3    0  502  0.84804672207E+02  0.30805686205E+03 -0.24661897826E+03  0.40362331837E+03  0.25500000920E-02 0. -1.
</event>
<event>
 5   0  0.4684283E-02  0.7958098E+03  0.7818609E-02  0.9566102E-01
       -2   -1    0    0    0  501  0.00000000000E+00  0.00000000000E+00  0.14396873606E+03  0.14396873608E+03  0.25500000920E-02 0.  1.
        2   -1    0    0  501    0  0.00000000000E+00  0.00000000000E+00 -0.10997408165E+04  0.10997408165E+04  0.25500000920E-02 0. -1.
    10030    2    1    2    0    0  0.00000000000E+00  0.00000000000E+00 -0.95577208046E+03  0.12437095526E+04  0.79580976461E+03 0.  0.
        1    1    3    3  502    0 -0.34210317438E+03  0.14668865874E+03 -0.69766220434E+03  0.79074945205E+03  0.50400001928E-02 0.  1.
       -1    1    3    3    0  502  0.34210317438E+03 -0.14668865874E+03 -0.25810987612E+03  0.45296010056E+03  0.50400001928E-02 0. -1.
</event>
<event>
 5   0  0.2769394E-02  0.7970128E+03  0.7818609E-02  0.9564351E-01
       -1   -1    0    0    0  501  0.00000000000E+00  0.00000000000E+00  0.94879705022E+02  0.94879705156E+02  0.50400001928E-02 0. -1.
        1   -1    0    0  501    0  0.00000000000E+00  0.00000000000E+00 -0.16737759506E+04  0.16737759506E+04  0.50400001928E-02 0.  1.
    10030    2    1    2    0    0  0.00000000000E+00  0.00000000000E+00 -0.15788962455E+04  0.17686556557E+04  0.79701284453E+03 0.  0.
        2    1    3    3  502    0 -0.15818437315E+03 -0.29772588095E+03 -0.31795020731E+03  0.46341701569E+03  0.25500000920E-02 0. -1.
       -2    1    3    3    0  502  0.15818437315E+03  0.29772588095E+03 -0.12609460382E+04  0.13052386400E+04  0.25500000920E-02 0.  1.
</event>
<event>
 5   0  0.2759559E-02  0.7891487E+03  0.7818609E-02  0.9575858E-01
        1   -1    0    0  501    0  0.00000000000E+00  0.00000000000E+00  0.76846400809E+03  0.76846400810E+03  0.50400001928E-02 0. -1.
       -1   -1    0    0    0  501  0.00000000000E+00  0.00000000000E+00 -0.20259752054E+03  0.20259752060E+03  0.50400001928E-02 0.  1.
    10030    2    1    2    0    0  0.00000000000E+00  0.00000000000E+00  0.56586648755E+03  0.97106152871E+03  0.78914866204E+03 0.  0.
        3    1    3    3  502    0  0.89724707056E+02 -0.34209139794E+03  0.67638872196E+02  0.36007231890E+03  0.10100000352E+00 0.  1.
       -3    1    3    3    0  502 -0.89724707056E+02  0.34209139794E+03  0.49822761535E+03  0.61098920981E+03  0.10100000352E+00 0. -1.
</event>
<event>
 5   0  0.4684283E-02  0.7886005E+03  0.7818609E-02  0.9576666E-01
       -2   -1    0    0    0  501  0.00000000000E+00  0.00000000000E+00  0.95687531287E+02  0.95687531321E+02  0.25500000920E-02 0. -1.
        2   -1    0    0  501    0  0.00000000000E+00  0.00000000000E+00 -0.16247957241E+04  0.16247957241E+04  0.25500000920E-02 0.  1.
    10030    2    1    2    0    0  0.00000000000E+00  0.00000000000E+00 -0.15291081928E+04  0.17204832554E+04  0.78860051158E+03 0.  0.
        1    1    3    3  502    0 -0.83409145199E+02 -0.32234406244E+03 -0.30375769686E+03  0.45070114102E+03  0.50400001928E-02 0. -1.
       -1    1    3    3    0  502  0.83409145199E+02  0.32234406244E+03 -0.12253504960E+04  0.12697821144E+04  0.50400001928E-02 0.  1.
</event>
<event>
 5   0  0.2689372E-02  0.8264269E+03  0.7818609E-02  0.9522534E-01
        1   -1    0    0  501    0  0.00000000000E+00  0.00000000000E+00  0.96233948395E+03  0.96233948397E+03  0.50400001928E-02 0. -1.
       -1   -1    0    0    0  501  0.00000000000E+00  0.00000000000E+00 -0.17742734086E+03  0.17742734093E+03  0.50400001928E-02 0.  1.
    10030    2    1    2    0    0  0.00000000000E+00  0.00000000000E+00  0.78491214309E+03  0.11397668249E+04  0.82642685264E+03 0.  0.
        4    1    3    3  502    0 -0.24425493201E+03  0.28382224992E+03  0.15148658135E+03  0.40393729537E+03  0.12699999809E+01 0.  1.
       -4    1    3    3    0  502  0.24425493201E+03 -0.28382224992E+03  0.63342556174E+03  0.73582952953E+03  0.12699999809E+01 0. -1.
</event>
<event>
 5   0  0.4377843E-02  0.7547601E+03  0.7818609E-02  0.9627912E-01
        2   -1    0    0  501    0  0.00000000000E+00  0.00000000000E+00  0.13020923165E+04  0.13020923165E+04  0.25500000920E-02 0. -1.
       -2   -1    0    0    0  501  0.00000000000E+00  0.00000000000E+00 -0.10937449477E+03  0.10937449480E+03  0.25500000920E-02 0.  1.
    10030    2    1    2    0    0  0.00000000000E+00  0.00000000000E+00  0.11927178217E+04  0.14114668113E+04  0.75476006592E+03 0.  0.
        2    1    3    3  502    0  0.36808891082E+03 -0.80041283867E+02  0.63898851714E+03  0.74175627967E+03  0.25500000920E-02 0.  1.
       -2    1    3    3    0  502 -0.36808891082E+03  0.80041283867E+02  0.55372930455E+03  0.66971053159E+03  0.25500000920E-02 0. -1.
</event>
<event>
 5   0  0.2606520E-02  0.7884419E+03  0.7818609E-02  0.9576899E-01
       -1   -1    0    0    0  501  0.00000000000E+00  0.00000000000E+00  0.26795742708E+03  0.26795742713E+03  0.50400001928E-02 0. -1.
        1   -1    0    0  501    0  0.00000000000E+00  0.00000000000E+00 -0.57998083807E+03  0.57998083810E+03  0.50400001928E-02 0.  1.
    10030    2    1    2    0    0  0.00000000000E+00  0.00000000000E+00 -0.31202341099E+03  0.84793826522E+03  0.78844193992E+03 0.  0.
        5    1    3    3  502    0 -0.25712208306E+03  0.23180723509E+03  0.46739645761E+02  0.34936090841E+03  0.46999998093E+01 0. -1.
       -5    1    3    3    0  502  0.25712208306E+03 -0.23180723509E+03 -0.35876305676E+03  0.49857735682E+03  0.46999998093E+01 0.  1.
</event>
<event>
 5   0  0.4590462E-02  0.8304808E+03  0.7818609E-02  0.9516916E-01
       -2   -1    0    0    0  501  0.00000000000E+00  0.00000000000E+00  0.33888469294E+03  0.33888469295E+03  0.25500000920E-02 0. -1.
        2   -1    0    0  501    0  0.00000000000E+00  0.00000000000E+00 -0.50880016542E+03  0.50880016542E+03  0.25500000920E-02 0.  1.
    10030    2    1    2    0    0  0.00000000000E+00  0.00000000000E+00 -0.16991547248E+03  0.84768485837E+03  0.83048079527E+03 0.  0.
        3    1    3    3  502    0  0.31212436836E+03  0.20546538939E+03  0.99864920592E+02  0.38679537243E+03  0.10100000352E+00 0. -1.
       -3    1    3    3    0  502 -0.31212436836E+03 -0.20546538939E+03 -0.26978039307E+03  0.46088948594E+03  0.10100000352E+00 0.  1.
</event>
<event>
 5   0  0.2769394E-02  0.7873467E+03  0.7818609E-02  0.9578515E-01
       -1   -1    0    0    0  501  0.00000000000E+00  0.00000000000E+00  0.29642194968E+03  0.29642194972E+03  0.50400001928E-02 0.  1.
        1   -1    0    0  501    0  0.00000000000E+00  0.00000000000E+00 -0.52283145179E+03  0.52283145181E+03  0.50400001928E-02 0. -1.
    10030    2    1    2    0    0  0.00000000000E+00  0.00000000000E+00 -0.22640950211E+03  0.81925340154E+03  0.78734673003E+03 0.  0.
        2    1    3    3  502    0  0.54145438469E+02  0.11884399363E+03 -0.49963465071E+03  0.51642076597E+03  0.25500000920E-02 0. -1.
       -2    1    3    3    0  502 -0.54145438469E+02 -0.11884399363E+03  0.27322514860E+03  0.30283263557E+03  0.25500000920E-02 0.  1.
</event>
<event>
 5   0  0.4377843E-02  0.7788864E+03  0.7818609E-02  0.9591091E-01
       -2   -1    0    0    0  501  0.00000000000E+00  0.00000000000E+00  0.28627723155E+03  0.28627723156E+03  0.25500000920E-02 0.  1.
        2   -1    0    0  501    0  0.00000000000E+00  0.00000000000E+00 -0.52978717703E+03  0.52978717704E+03  0.25500000920E-02 0. -1.
    10030    2    1    2    0    0  0.00000000000E+00  0.00000000000E+00 -0.24350994548E+03  0.81606440860E+03  0.77888640085E+03 0.  0.
        2    1    3    3  502    0  0.22072213730E+03  0.30582516949E+03 -0.20072515583E+02  0.37769061687E+03  0.25500000920E-02 0.  1.
       -2    1    3    3    0  502 -0.22072213730E+03 -0.30582516949E+03 -0.22343742990E+03  0.43837379172E+03  0.25500000920E-02 0. -1.
</event>
<event>
 5   0  0.4684283E-02  0.8319993E+03  0.7818609E-02  0.9514820E-01
       -2   -1    0    0    0  501  0.00000000000E+00  0.00000000000E+00  0.10920744044E+03  0.10920744047E+03  0.25500000920E-02 0. -1.
        2   -1    0    0  501    0  0.00000000000E+00  0.00000000000E+00 -0.15846513678E+04  0.15846513678E+04  0.25500000920E-02 0.  1.
    10030    2    1    2    0    0  0.00000000000E+00  0.00000000000E+00 -0.14754439274E+04  0.16938588083E+04  0.83199932667E+03 0.  0.
        1    1    3    3  502    0 -0.31689649115E+03 -0.23370363091E+03 -0.46446532460E+03  0.60890788382E+03  0.50400001928E-02 0.  1.
       -1    1    3    3    0  502  0.31689649115E+03  0.23370363091E+03 -0.10109786028E+04  0.10849509245E+04  0.50400001928E-02 0. -1.
</event>
<event>
 5   0  0.2759559E-02  0.6916123E+03  0.7818609E-02  0.9731685E-01
        1   -1    0    0  501    0  0.00000000000E+00  0.00000000000E+00  0.62806229059E+03  0.62806229061E+03  0.50400001928E-02 0.  1.
       -1   -1    0    0    0  501  0.00000000000E+00  0.00000000000E+00 -0.19039814501E+03  0.19039814508E+03  0.50400001928E-02 0. -1.
    10030    2    1    2    0    0  0.00000000000E+00  0.00000000000E+00  0.43766414558E+03  0.81846043569E+03  0.69161230502E+03 0.  0.
        3    1    3    3  502    0 -0.14071441030E+03 -0.57342645672E+02 -0.14877448051E+03  0.21265601457E+03  0.10100000352E+00 0. -1.
       -3    1    3    3    0  502  0.14071441030E+03  0.57342645672E+02  0.58643862609E+03  0.60580442112E+03  0.10100000352E+00 0.  1.
</event>
<event>
 5   0  0.2769394E-02  0.8149483E+03  0.7818609E-02  0.9538629E-01
       -1   -1    0    0    0  501  0.00000000000E+00  0.00000000000E+00  0.93364447789E+02  0.93364447925E+02  0.50400001928E-02 0.  1.
        1   -1    0    0  501    0  0.00000000000E+00  0.00000000000E+00 -0.17783556695E+04  0.17783556695E+04  0.50400001928E-02 0. -1.
    10030    2    1    2    0    0  0.00000000000E+00  0.00000000000E+00 -0.16849912217E+04  0.18717201175E+04  0.81494833012E+03 0.  0.
        2    1    3    3  502    0  0.27561831107E+03  0.28151082501E+03 -0.10814156091E+04  0.11509446197E+04  0.25500000920E-02 0. -1.
       -2    1    3    3    0  502 -0.27561831107E+03 -0.28151082501E+03 -0.60357561261E+03  0.72077549774E+03  0.25500000920E-02 0.  1.
</event>
<event>
 5   0  0.4377843E-02  0.8933043E+03  0.7818609E-02  0.9433990E-01
       -2   -1    0    0    0  501  0.00000000000E+00  0.00000000000E+00  0.21196442412E+03  0.21196442413E+03  0.25500000920E-02 0.  1.
        2   -1    0    0  501    0  0.00000000000E+00  0.00000000000E+00 -0.94118702018E+03  0.94118702018E+03  0.25500000920E-02 0. -1.
    10030    2    1    2    0    0  0.00000000000E+00  0.00000000000E+00 -0.72922259606E+03  0.11531514443E+04  0.89330434843E+03 0.  0.
        2    1    3    3  502    0 -0.96472614747E+02  0.29798375692E+03 -0.77566559744E+03  0.83651563275E+03  0.25500000920E-02 0. -1.
       -2    1    3    3    0  502  0.96472614747E+02 -0.29798375692E+03  0.46443001375E+02  0.31663581157E+03  0.25500000920E-02 0.  1.
</event>
<event>
 5   0  0.4700220E-02  0.8623393E+03  0.7818609E-02  0.9473924E-01
       -2   -1    0    0    0  501  0.00000000000E+00  0.00000000000E+00  0.28104527671E+03  0.28104527672E+03  0.25500000920E-02 0.  1.
        2   -1    0    0  501    0  0.00000000000E+00  0.00000000000E+00 -0.66148508670E+03  0.66148508671E+03  0.25500000920E-02 0. -1.
    10030    2    1    2    0    0  0.00000000000E+00  0.00000000000E+00 -0.38043980999E+03  0.94253036343E+03  0.86233928182E+03 0.  0.
        4    1    3    3  502    0  0.10592931201E+03 -0.30615158862E+03 -0.50120619991E+03  0.59679065181E+03  0.12699999809E+01 0. -1.
       -4    1    3    3    0  502 -0.10592931201E+03  0.30615158862E+03  0.12076638992E+03  0.34573971162E+03  0.12699999809E+01 0.  1.
</event>
<event>
 5   0  0.4590462E-02  0.8106451E+03  0.7818609E-02  0.9544735E-01
        2   -1    0    0  501    0  0.00000000000E+00  0.00000000000E+00  0.11346256066E+04  0.11346256066E+04  0.25500000920E-02 0. -1.
       -2   -1    0    0    0  501  0.00000000000E+00  0.00000000000E+00 -0.14479345680E+03  0.14479345682E+03  0.25500000920E-02 0.  1.
    10030    2    1    2    0    0  0.00000000000E+00  0.00000000000E+00  0.98983214977E+03  0.12794190634E+04  0.81064508575E+03 0.  0.
        3    1    3    3  502    0 -0.36360910139E+03  0.46671605396E+02  0.22202300923E+03  0.42858376566E+03  0.10100000352E+00 0.  1.
       -3    1    3    3    0  502  0.36360910139E+03 -0.46671605396E+02  0.76780914055E+03  0.85083529773E+03  0.10100000352E+00 0. -1.
</event>
<event>
 5   0  0.4663634E-02  0.8402706E+03  0.7818609E-02  0.9503489E-01
       -2   -1    0    0    0  501  0.00000000000E+00  0.00000000000E+00  0.47235807541E+03  0.47235807542E+03  0.25500000920E-02 0. -1.
        2   -1    0    0  501    0  0.00000000000E+00  0.00000000000E+00 -0.37368614134E+03  0.37368614135E+03  0.25500000920E-02 0.  1.
    10030    2    1    2    0    0  0.00000000000E+00  0.00000000000E+00  0.98671934072E+02  0.84604421676E+03  0.84027059103E+03 0.  0.
        5    1    3    3  502    0 -0.16902125304E+03  0.25832644334E+03  0.33623389916E+03  0.45648226718E+03  0.46999998093E+01 0. -1.
       -5    1    3    3    0  502  0.16902125304E+03 -0.25832644334E+03 -0.23756196509E+03  0.38956194958E+03  0.46999998093E+01 0.  1.
</event>
<event>
 5   0  0.2689372E-02  0.8436387E+03  0.7818609E-02  0.9498915E-01
       -1   -1    0    0    0  501  0.00000000000E+00  0.00000000000E+00  0.95623973425E+02  0.95623973558E+02  0.50400001928E-02 0. -1.
        1   -1    0    0  501    0  0.00000000000E+00  0.00000000000E+00 -0.18607421338E+04  0.18607421338E+04  0.50400001928E-02 0.  1.
    10030    2    1    2    0    0  0.00000000000E+00  0.00000000000E+00 -0.17651181603E+04  0.19563661073E+04  0.84363868210E+03 0.  0.
        4    1    3    3  502    0  0.12104529947E+02  0.14408375167E+03 -0.18014748211E+04  0.18072685996E+04  0.12699999809E+01 0.  1.
       -4    1    3    3    0  502 -0.12104529947E+02 -0.14408375167E+03  0.36356660735E+02  0.14909750776E+03  0.12699999809E+01 0. -1.
</event>
<event>
 5   0  0.2759559E-02  0.8003541E+03  0.7818609E-02  0.9559505E-01
       -1   -1    0    0    0  501  0.00000000000E+00  0.00000000000E+00  0.17791294661E+03  0.17791294668E+03  0.50400001928E-02 0. -1.
        1   -1    0    0  501    0  0.00000000000E+00  0.00000000000E+00 -0.90011262764E+03  0.90011262766E+03  0.50400001928E-02 0.  1.
    10030    2    1    2    0    0  0.00000000000E+00  0.00000000000E+00 -0.72219968103E+03  0.10780255743E+04  0.80035414640E+03 0.  0.
        3    1    3    3  502    0  0.13070238677E+03 -0.32681361006E+03 -0.61755381645E+03  0.71081852539E+03  0.10100000352E+00 0.  1.
       -3    1    3    3    0  502 -0.13070238677E+03  0.32681361006E+03 -0.10464586458E+03  0.36720704895E+03  0.10100000352E+00 0. -1.
</event>
<event>
 5   0  0.2635243E-02  0.7858426E+03  0.7818609E-02  0.9580738E-01
       -1   -1    0    0    0  501  0.00000000000E+00  0.00000000000E+00  0.49132832867E+03  0.49132832869E+03  0.50400001928E-02 0.  1.
        1   -1    0    0  501    0  0.00000000000E+00  0.00000000000E+00 -0.31422400783E+03  0.31422400787E+03  0.50400001928E-02 0. -1.
    10030    2    1    2    0    0  0.00000000000E+00  0.00000000000E+00  0.17710432084E+03  0.80555233656E+03  0.78584262195E+03 0.  0.
        1    1    3    3  502    0 -0.24974635491E+03 -0.11689106613E+03  0.37548401970E+03  0.46585943396E+03  0.50400001928E-02 0.  1.
       -1    1    3    3    0  502  0.24974635491E+03  0.11689106613E+03 -0.19837969886E+03  0.33969290260E+03  0.50400001928E-02 0. -1.
</event>
<event>
 5   0  0.4700220E-02  0.8231943E+03  0.7818609E-02  0.9527038E-01
        2   -1    0    0  501    0  0.00000000000E+00  0.00000000000E+00  0.33952875078E+03  0.33952875079E+03  0.25500000920E-02 0. -1.
       -2   -1    0    0    0  501  0.00000000000E+00  0.00000000000E+00 -0.49896274182E+03  0.49896274182E+03  0.25500000920E-02 0.  1.
    10030    2    1    2    0    0  0.00000000000E+00  0.00000000000E+00 -0.15943399104E+03  0.83849149261E+03  0.82319425756E+03 0.  0.
        4    1    3    3  502    0  0.27374300211E+03 -0.26832619161E+03  0.72990295939E+02  0.39020939572E+03  0.12699999809E+01 0. -1.
       -4    1    3    3    0  502 -0.27374300211E+03  0.26832619161E+03 -0.23242428698E+03  0.44828209689E+03  0.12699999809E+01 0.  1.
</event>
<event>
 5   0  0.4700220E-02  0.8011555E+03  0.7818609E-02  0.9558346E-01
       -2   -1    0    0    0  501  0.00000000000E+00  0.00000000000E+00  0.11082703379E+03  0.11082703382E+03  0.25500000920E-02 0. -1.
        2   -1    0    0  501    0  0.00000000000E+00  0.00000000000E+00 -0.14478646574E+04  0.14478646574E+04  0.25500000920E-02 0.  1.
    10030    2    1    2    0    0  0.00000000000E+00  0.00000000000E+00 -0.13370376236E+04  0.15586916912E+04  0.80115552882E+03 0.  0.
        4    1    3    3  502    0  0.10579544143E+03 -0.14582515953E+03  0.27552820915E+02  0.18225922039E+03  0.12699999809E+01 0. -1.
       -4    1    3    3    0  502 -0.10579544143E+03  0.14582515953E+03 -0.13645904445E+04  0.13764324709E+04  0.12699999809E+01 0.  1.
</event>
<event>
 5   0  0.2606520E-02  0.8134555E+03  0.7818609E-02  0.9540743E-01
       -1   -1    0    0    0  501  0.00000000000E+00  0.00000000000E+00  0.60665671020E+03  0.60665671022E+03  0.50400001928E-02 0. -1.
        1   -1    0    0  501    0  0.00000000000E+00  0.00000000000E+00 -0.27268707256E+03  0.27268707261E+03  0.50400001928E-02 0.  1.
    10030    2    1    2    0    0  0.00000000000E+00  0.00000000000E+00  0.33396963764E+03  0.87934378283E+03  0.81345545025E+03 0.  0.
        5    1    3    3  502    0  0.16649412126E+03  0.10714469133E+03  0.55101321082E+03  0.58552363385E+03  0.46999998093E+01 0. -1.
       -5    1    3    3    0  502 -0.16649412126E+03 -0.10714469133E+03 -0.21704357318E+03  0.29382014898E+03  0.46999998093E+01 0.  1.
</event>
<event>
 5   0  0.4377843E-02  0.8087526E+03  0.7818609E-02  0.9547434E-01
       -2   -1    0    0    0  501  0.00000000000E+00  0.00000000000E+00  0.20500822671E+03  0.20500822673E+03  0.25500000920E-02 0. -1.
        2   -1    0    0  501    0  0.00000000000E+00  0.00000000000E+00 -0.79762738952E+03  0.79762738952E+03  0.25500000920E-02 0.  1.
    10030    2    1    2    0    0  0.00000000000E+00  0.00000000000E+00 -0.59261916281E+03  0.10026356162E+04  0.80875256218E+03 0.  0.
        2    1    3    3  502    0 -0.65723405810E+02 -0.39899936809E+03 -0.29588935573E+03  0.50106942897E+03  0.25500000920E-02 0. -1.
       -2    1    3    3    0  502  0.65723405810E+02  0.39899936809E+03 -0.29672980708E+03  0.50156618728E+03  0.25500000920E-02 0.  1.
</event>
<event>
 5   0  0.2769394E-02  0.6865877E+03  0.7818609E-02  0.9740448E-01
        1   -1    0    0  501    0  0.00000000000E+00  0.00000000000E+00  0.16501506391E+04  0.16501506391E+04  0.50400001928E-02 0. -1.
       -1   -1    0    0    0  501  0.00000000000E+00  0.00000000000E+00 -0.71418129548E+02  0.71418129726E+02  0.50400001928E-02 0.  1.
    10030    2    1    2    0    0  0.00000000000E+00  0.00000000000E+00  0.15787325096E+04  0.17215687689E+04  0.68658771407E+03 0.  0.
        2    1    3    3  502    0  0.19772483576E+03  0.99693591470E+02  0.13159419041E+03  0.25758678889E+03  0.25500000920E-02 0.  1.
       -2    1    3    3    0  502 -0.19772483576E+03 -0.99693591470E+02  0.14471383192E+04  0.14639819800E+04  0.25500000920E-02 0. -1.
</event>
<event>
 5   0  0.2759559E-02  0.8090717E+03  0.7818609E-02  0.9546978E-01
        1   -1    0    0  501    0  0.00000000000E+00  0.00000000000E+00  0.81743050385E+03  0.81743050387E+03  0.50400001928E-02 0. -1.
       -1   -1    0    0    0  501  0.00000000000E+00  0.00000000000E+00 -0.20019961372E+03  0.20019961378E+03  0.50400001928E-02 0.  1.
    10030    2    1    2    0    0  0.00000000000E+00  0.00000000000E+00  0.61723089014E+03  0.10176301176E+04  0.80907174256E+03 0.  0.
        3    1    3    3  502    0  0.20766949420E+03  0.18136538518E+03 -0.63714047965E+02  0.28298323602E+03  0.10100000352E+00 0.  1.
       -3    1    3    3    0  502 -0.20766949420E+03 -0.18136538518E+03  0.68094493810E+03  0.73464688163E+03  0.10100000352E+00 0. -1.
</event>
<event>
 5   0  0.4663634E-02  0.7186795E+03  0.7818609E-02  0.9685811E-01
       -2   -1    0    0    0  501  0.00000000000E+00  0.00000000000E+00  0.90891494698E+02  0.90891494734E+02  0.25500000920E-02 0.  1.
        2   -1    0    0  501    0  0.00000000000E+00  0.00000000000E+00 -0.14206504294E+04  0.14206504294E+04  0.25500000920E-02 0. -1.
    10030    2    1    2    0    0  0.00000000000E+00  0.00000000000E+00 -0.13297589347E+04  0.15115419241E+04  0.71867945845E+03 0.  0.
        5    1    3    3  502    0  0.30648200271E+03  0.77336002086E+02 -0.30553701451E+03  0.43964421120E+03  0.46999998093E+01 0.  1.
       -5    1    3    3    0  502 -0.30648200271E+03 -0.77336002086E+02 -0.10242219202E+04  0.10718977129E+04  0.46999998093E+01 0. -1.
</event>
<event>
 5   0  0.4684283E-02  0.7868772E+03  0.7818609E-02  0.9579209E-01
       -2   -1    0    0    0  501  0.00000000000E+00  0.00000000000E+00  0.12333655193E+03  0.12333655196E+03  0.25500000920E-02 0.  1.
        2   -1    0    0  501    0  0.00000000000E+00  0.00000000000E+00 -0.12550530795E+04  0.12550530795E+04  0.25500000920E-02 0. -1.
    10030    2    1    2    0    0  0.00000000000E+00  0.00000000000E+00 -0.11317165276E+04  0.13783896315E+04  0.78687716790E+03 0.  0.
        1    1    3    3  502    0  0.25629423162E+03 -0.26246503385E+03 -0.81494352336E+03  0.89370441055E+03  0.50400001928E-02 0. -1.
       -1    1    3    3    0  502 -0.25629423162E+03  0.26246503385E+03 -0.31677300425E+03  0.48468522095E+03  0.50400001928E-02 0.  1.
</event>
<event>
 5   0  0.2689372E-02  0.8670507E+03  0.7818609E-02  0.9467734E-01
       -1   -1    0    0    0  501  0.00000000000E+00  0.00000000000E+00  0.27844539659E+03  0.27844539663E+03  0.50400001928E-02 0. -1.
        1   -1    0    0  501    0  0.00000000000E+00  0.00000000000E+00 -0.67497693495E+03  0.67497693497E+03  0.50400001928E-02 0.  1.
    10030    2    1    2    0    0  0.00000000000E+00  0.00000000000E+00 -0.39653153836E+03  0.95342233160E+03  0.86705067988E+03 0.  0.
        4    1    3    3  502    0 -0.22040124340E+03  0.92743344569E+02 -0.59590194120E+03  0.64208938044E+03  0.12699999809E+01 0.  1.
       -4    1    3    3    0  502  0.22040124340E+03 -0.92743344569E+02  0.19937040284E+03  0.31133295116E+03  0.12699999809E+01 0. -1.
</event>
<event>
 5   0  0.2689372E-02  0.7940582E+03  0.7818609E-02  0.9568658E-01
       -1   -1    0    0    0  501  0.00000000000E+00  0.00000000000E+00  0.31503700018E+03  0.31503700022E+03  0.50400001928E-02 0.  1.
        1   -1    0    0  501    0  0.00000000000E+00  0.00000000000E+00 -0.50036064698E+03  0.50036064701E+03  0.50400001928E-02 0. -1.
    10030    2    1    2    0    0  0.00000000000E+00  0.00000000000E+00 -0.18532364680E+03  0.81539764723E+03  0.79405822774E+03 0.  0.
        4    1    3    3  502    0  0.21086435432E+03 -0.48322229167E+02  0.24919880205E+03  0.33000071151E+03  0.12699999809E+01 0.  1.
       -4    1    3    3    0  502 -0.21086435432E+03  0.48322229167E+02 -0.43452244885E+03  0.48539693572E+03  0.12699999809E+01 0. -1.
</event>
<event>
 5   0  0.2759559E-02  0.8258434E+03  0.7818609E-02  0.9523345E-01
       -1   -1    0    0    0  501  0.00000000000E+00  0.00000000000E+00  0.33855864964E+03  0.33855864968E+03  0.50400001928E-02 0.  1.
        1   -1    0    0  501    0  0.00000000000E+00  0.00000000000E+00 -0.50361825983E+03  0.50361825986E+03  0.50400001928E-02 0. -1.
    10030    2    1    2    0    0  0.00000000000E+00  0.00000000000E+00 -0.16505961019E+03  0.84217690954E+03  0.82584337016E+03 0.  0.
        3    1    3    3  502    0 -0.26352717491E+03  0.15252415707E+03 -0.36696217658E+03  0.47683481379E+03  0.10100000352E+00 0. -1.
       -3    1    3    3    0  502  0.26352717491E+03 -0.15252415707E+03  0.20190256638E+03  0.36534209574E+03  0.10100000352E+00 0.  1.
</event>
<event>
 5   0  0.4700220E-02  0.8176342E+03  0.7818609E-02  0.9534837E-01
       -2   -1    0    0    0  501  0.00000000000E+00  0.00000000000E+00  0.19929659336E+03  0.19929659337E+03  0.25500000920E-02 0.  1.
        2   -1    0    0  501    0  0.00000000000E+00  0.00000000000E+00 -0.83860652575E+03  0.83860652575E+03  0.25500000920E-02 0. -1.
    10030    2    1    2    0    0  0.00000000000E+00  0.00000000000E+00 -0.63930993239E+03  0.10379031191E+04  0.81763420613E+03 0.  0.
        4    1    3    3  502    0 -0.24772640615E+02  0.39064552569E+03 -0.46938043355E+03  0.61117690955E+03  0.12699999809E+01 0. -1.
       -4    1    3    3    0  502  0.24772640615E+02 -0.39064552569E+03 -0.16992949884E+03  0.42672620958E+03  0.12699999809E+01 0.  1.
</event>
<event>
 5   0  0.2606520E-02  0.7912026E+03  0.7818609E-02  0.9572839E-01
       -1   -1    0    0    0  501  0.00000000000E+00  0.00000000000E+00  0.28276941318E+03  0.28276941322E+03  0.50400001928E-02 0. -1.
        1   -1    0    0  501    0  0.00000000000E+00  0.00000000000E+00 -0.55345586949E+03  0.55345586951E+03  0.50400001928E-02 0.  1.
    10030    2    1    2    0    0  0.00000000000E+00  0.00000000000E+00 -0.27068645632E+03  0.83622528274E+03  0.79120260733E+03 0.  0.
        5    1    3    3  502    0  0.36910250784E+01  0.15638022258E+03 -0.51934996325E+03  0.54241577411E+03  0.46999998093E+01 0.  1.
       -5    1    3    3    0  502 -0.36910250784E+01 -0.15638022258E+03  0.24866350693E+03  0.29380950862E+03  0.46999998093E+01 0. -1.
</event>
<event>
 5   0  0.4590462E-02  0.8161178E+03  0.7818609E-02  0.9536976E-01
       -2   -1    0    0    0  501  0.00000000000E+00  0.00000000000E+00  0.15100567302E+03  0.15100567304E+03  0.25500000920E-02 0.  1.
        2   -1    0    0  501    0  0.00000000000E+00  0.00000000000E+00 -0.11026875991E+04  0.11026875991E+04  0.25500000920E-02 0. -1.
    10030    2    1    2    0    0  0.00000000000E+00  0.00000000000E+00 -0.95168192609E+03  0.12536932721E+04  0.81611784209E+03 0.  0.
        3    1    3    3  502    0  0.26394263516E+03 -0.21950732266E+03 -0.81471429036E+03  0.88408628791E+03  0.10100000352E+00 0. -1.
       -3    1    3    3    0  502 -0.26394263516E+03  0.21950732266E+03 -0.13696763574E+03  0.36960698424E+03  0.10100000352E+00 0.  1.
</event>
<event>
 5   0  0.4590462E-02  0.7977860E+03  0.7818609E-02  0.9563227E-01
        2   -1    0    0  501    0  0.00000000000E+00  0.00000000000E+00  0.74566663502E+03  0.74566663502E+03  0.25500000920E-02 0. -1.
       -2   -1    0    0    0  501  0.00000000000E+00  0.00000000000E+00 -0.21338707570E+03  0.21338707571E+03  0.25500000920E-02 0.  1.
    10030    2    1    2    0    0  0.00000000000E+00  0.00000000000E+00  0.53227955932E+03  0.95905371073E+03  0.79778599311E+03 0.  0.
        3    1    3    3  502    0  0.47884514556E+02  0.14794068519E+00 -0.20991939174E+03  0.21531165748E+03  0.10100000352E+00 0.  1.
       -3    1    3    3    0  502 -0.47884514556E+02 -0.14794068519E+00  0.74219895106E+03  0.74374205325E+03  0.10100000352E+00 0. -1.
</event>
<event>
 5   0  0.1786500E-02  0.8000531E+03  0.7818609E-02  0.9559940E-01
        3   -1    0    0  501    0  0.00000000000E+00  0.00000000000E+00  0.85188073260E+03  0.85188073859E+03  0.10100000352E+00 0.  1.
       -3   -1    0    0    0  501  0.00000000000E+00  0.00000000000E+00 -0.18784465462E+03  0.18784468178E+03  0.10100000352E+00 0. -1.
    10030    2    1    2    0    0  0.00000000000E+00  0.00000000000E+00  0.66403607798E+03  0.10397254204E+04  0.80005314629E+03 0.  0.
        2    1    3    3  502    0 -0.16993236710E+02 -0.24732592095E+03 -0.75977496849E+02  0.25929030314E+03  0.25500000920E-02 0. -1.
       -2    1    3    3    0  502  0.16993236710E+02  0.24732592095E+03  0.74001357483E+03  0.78043511723E+03  0.25500000920E-02 0.  1.
</event>
<event>
 5   0  0.1786500E-02  0.8073581E+03  0.7818609E-02  0.9549427E-01
        3   -1    0    0  501    0  0.00000000000E+00  0.00000000000E+00  0.14263495493E+03  0.14263499069E+03  0.10100000352E+00 0. -1.
       -3   -1    0    0    0  501  0.00000000000E+00  0.00000000000E+00 -0.11424742521E+04  0.11424742566E+04  0.10100000352E+00 0.  1.
    10030    2    1    2    0    0  0.00000000000E+00  0.00000000000E+00 -0.99983929715E+03  0.12851092472E+04  0.80735813443E+03 0.  0.
        5    1    3    3  502    0 -0.52985171693E+02 -0.20754382182E+03  0.44664238935E+02  0.21885806047E+03  0.46999998093E+01 0. -1.
       -5    1    3    3    0  502  0.52985171693E+02  0.20754382182E+03 -0.10445035361E+04  0.10662511868E+04  0.46999998093E+01 0.  1.
</event>
<event>
 5   0  0.2606520E-02  0.8063764E+03  0.7818609E-02  0.9550833E-01
        1   -1    0    0  501    0  0.00000000000E+00  0.00000000000E+00  0.20159451801E+03  0.20159451807E+03  0.50400001928E-02 0.  1.
       -1   -1    0    0    0  501  0.00000000000E+00  0.00000000000E+00 -0.80637478990E+03  0.80637478992E+03  0.50400001928E-02 0. -1.
    10030    2    1    2    0    0  0.00000000000E+00  0.00000000000E+00 -0.60478027189E+03  0.10079693080E+04  0.80637643107E+03 0.  0.
        5    1    3    3  502    0 -0.75147787289E+02  0.18384504977E+01 -0.79750327667E+03  0.80105189354E+03  0.46999998093E+01 0. -1.
       -5    1    3    3    0  502  0.75147787289E+02 -0.18384504977E+01  0.19272300478E+03  0.20691741446E+03  0.46999998093E+01 0.  1.
</event>
<event>
 5   0  0.4590462E-02  0.5985570E+03  0.7818609E-02  0.9908404E-01
       -2   -1    0    0    0  501  0.00000000000E+00  0.00000000000E+00  0.90677864492E+02  0.90677864528E+02  0.25500000920E-02 0.  1.
        2   -1    0    0  501    0  0.00000000000E+00  0.00000000000E+00 -0.98775626854E+03  0.98775626854E+03  0.25500000920E-02 0. -1.
    10030    2    1    2    0    0  0.00000000000E+00  0.00000000000E+00 -0.89707840404E+03  0.10784341331E+04  0.59855702850E+03 0.  0.
        3    1    3    3  502    0 -0.73151495535E+02  0.27585026786E+03 -0.61092542689E+03  0.67429548345E+03  0.10100000352E+00 0.  1.
       -3    1    3    3    0  502  0.73151495535E+02 -0.27585026786E+03 -0.28615297716E+03  0.40413864962E+03  0.10100000352E+00 0. -1.
</event>
<event>
 5   0  0.1786500E-02  0.8084128E+03  0.7818609E-02  0.9547919E-01
       -3   -1    0    0    0  501  0.00000000000E+00  0.00000000000E+00  0.37826158623E+03  0.37826159971E+03  0.10100000352E+00 0. -1.
        3   -1    0    0  501    0  0.00000000000E+00  0.00000000000E+00 -0.43193071867E+03  0.43193073048E+03  0.10100000352E+00 0.  1.
    10030    2    1    2    0    0  0.00000000000E+00  0.00000000000E+00 -0.53669132440E+02  0.81019233019E+03  0.80841278820E+03 0.  0.
        4    1    3    3  502    0  0.38331056725E+01  0.40103806671E+03 -0.77293907521E+02  0.40843871596E+03  0.12699999809E+01 0. -1.
       -4    1    3    3    0  502 -0.38331056725E+01 -0.40103806671E+03  0.23624775081E+02  0.40175361423E+03  0.12699999809E+01 0.  1.
</event>
<event>
 5   0  0.4377843E-02  0.7641197E+03  0.7818609E-02  0.9613456E-01
       -2   -1    0    0    0  501  0.00000000000E+00  0.00000000000E+00  0.12325712109E+03  0.12325712112E+03  0.25500000920E-02 0.  1.
        2   -1    0    0  501    0  0.00000000000E+00  0.00000000000E+00 -0.11842700017E+04  0.11842700017E+04  0.25500000920E-02 0. -1.
    10030    2    1    2    0    0  0.00000000000E+00  0.00000000000E+00 -0.10610128806E+04  0.13075271228E+04  0.76411965301E+03 0.  0.
        2    1    3    3  502    0  0.66440073588E+02  0.35709697937E+03 -0.32777122471E+03  0.48925097017E+03  0.25500000920E-02 0.  1.
       -2    1    3    3    0  502 -0.66440073588E+02 -0.35709697937E+03 -0.73324165590E+03  0.81827615266E+03  0.25500000920E-02 0. -1.
</event>
<event>
 5   0  0.4684283E-02  0.8001227E+03  0.7818609E-02  0.9559840E-01
        2   -1    0    0  501    0  0.00000000000E+00  0.00000000000E+00  0.40084123129E+03  0.40084123130E+03  0.25500000920E-02 0.  1.
       -2   -1    0    0    0  501  0.00000000000E+00  0.00000000000E+00 -0.39928293827E+03  0.39928293828E+03  0.25500000920E-02 0. -1.
    10030    2    1    2    0    0  0.00000000000E+00  0.00000000000E+00  0.15582930274E+01  0.80012416958E+03  0.80012265214E+03 0.  0.
        1    1    3    3  502    0 -0.23844925395E+02 -0.27497305391E+01 -0.39856222123E+03  0.39928434192E+03  0.50400001928E-02 0. -1.
       -1    1    3    3    0  502  0.23844925395E+02  0.27497305391E+01  0.40012051426E+03  0.40083982766E+03  0.50400001928E-02 0.  1.
</event>
<event>
 5   0  0.2635243E-02  0.7979310E+03  0.7818609E-02  0.9563017E-01
        1   -1    0    0  501    0  0.00000000000E+00  0.00000000000E+00  0.22477134958E+03  0.22477134963E+03  0.50400001928E-02 0.  1.
       -1   -1    0    0    0  501  0.00000000000E+00  0.00000000000E+00 -0.70815731376E+03  0.70815731377E+03  0.50400001928E-02 0. -1.
    10030    2    1    2    0    0  0.00000000000E+00  0.00000000000E+00 -0.48338596418E+03  0.93292866341E+03  0.79793101246E+03 0.  0.
        1    1    3    3  502    0  0.19134200276E+03 -0.32446513555E+03 -0.87981490140E+02  0.38682053829E+03  0.50400001928E-02 0.  1.
       -1    1    3    3    0  502 -0.19134200276E+03  0.32446513555E+03 -0.39540447404E+03  0.54610812512E+03  0.50400001928E-02 0. -1.
</event>
<event>
 5   0  0.4700220E-02  0.8022499E+03  0.7818609E-02  0.9556766E-01
        2   -1    0    0  501    0  0.00000000000E+00  0.00000000000E+00  0.49794205670E+03  0.49794205671E+03  0.25500000920E-02 0. -1.
       -2   -1    0    0    0  501  0.00000000000E+00  0.00000000000E+00 -0.32313240114E+03  0.32313240115E+03  0.25500000920E-02 0.  1.
    10030    2    1    2    0    0  0.00000000000E+00  0.00000000000E+00  0.17480965556E+03  0.82107445786E+03  0.80224986736E+03 0.  0.
        4    1    3    3  502    0  0.10098786622E+03  0.96164391947E+02 -0.29752332529E+03  0.32858466396E+03  0.12699999809E+01 0.  1.
       -4    1    3    3    0  502 -0.10098786622E+03 -0.96164391947E+02  0.47233298084E+03  0.49248979390E+03  0.12699999809E+01 0. -1.
</event>
<event>
 5   0  0.4700220E-02  0.8116926E+03  0.7818609E-02  0.9543245E-01
       -2   -1    0    0    0  501  0.00000000000E+00  0.00000000000E+00  0.20378688160E+03  0.20378688162E+03  0.25500000920E-02 0. -1.
        2   -1    0    0  501    0  0.00000000000E+00  0.00000000000E+00 -0.80825226443E+03  0.80825226443E+03  0.25500000920E-02 0.  1.
    10030    2    1    2    0    0  0.00000000000E+00  0.00000000000E+00 -0.60446538283E+03  0.10120391460E+04  0.81169257364E+03 0.  0.
        4    1    3    3  502    0  0.29008548144E+03  0.17886761338E+03 -0.57700542380E+03  0.67013437582E+03  0.12699999809E+01 0.  1.
       -4    1    3    3    0  502 -0.29008548144E+03 -0.17886761338E+03 -0.27459959022E+02  0.34190477023E+03  0.12699999809E+01 0. -1.
</event>
<event>
 5   0  0.4663634E-02  0.7877654E+03  0.7818609E-02  0.9577897E-01
       -2   -1    0    0    0  501  0.00000000000E+00  0.00000000000E+00  0.18360130115E+03  0.18360130116E+03  0.25500000920E-02 0. -1.
        2   -1    0    0  501    0  0.00000000000E+00  0.00000000000E+00 -0.84500255165E+03  0.84500255166E+03  0.25500000920E-02 0.  1.
    10030    2    1    2    0    0  0.00000000000E+00  0.00000000000E+00 -0.66140125051E+03  0.10286038528E+04  0.78776536600E+03 0.  0.
        5    1    3    3  502    0 -0.40592204279E+02 -0.27915524348E+03  0.28186014239E+02  0.28353468643E+03  0.46999998093E+01 0. -1.
       -5    1    3    3    0  502  0.40592204279E+02  0.27915524348E+03 -0.68958726475E+03  0.74506916639E+03  0.46999998093E+01 0.  1.
</event>
<event>
 5   0  0.2689372E-02  0.7450553E+03  0.7818609E-02  0.9643140E-01
       -1   -1    0    0    0  501  0.00000000000E+00  0.00000000000E+00  0.27945897676E+03  0.27945897680E+03  0.50400001928E-02 0. -1.
        1   -1    0    0  501    0  0.00000000000E+00  0.00000000000E+00 -0.49659116558E+03  0.49659116560E+03  0.50400001928E-02 0.  1.
    10030    2    1    2    0    0  0.00000000000E+00  0.00000000000E+00 -0.21713218882E+03  0.77605014241E+03  0.74505532419E+03 0.  0.
        4    1    3    3  502    0  0.23884212948E+03 -0.14078595954E+03  0.15059997616E+03  0.31551262247E+03  0.12699999809E+01 0. -1.
       -4    1    3    3    0  502 -0.23884212948E+03  0.14078595954E+03 -0.36773216497E+03  0.46053751994E+03  0.12699999809E+01 0.  1.
</event>
<event>
 5   0  0.2769394E-02  0.9035179E+03  0.7818609E-02  0.9421195E-01
        1   -1    0    0  501    0  0.00000000000E+00  0.00000000000E+00  0.37827370655E+03  0.37827370658E+03  0.50400001928E-02 0. -1.
       -1   -1    0    0    0  501  0.00000000000E+00  0.00000000000E+00 -0.53951980716E+03  0.53951980718E+03  0.50400001928E-02 0.  1.
    10030    2    1    2    0    0  0.00000000000E+00  0.00000000000E+00 -0.16124610061E+03  0.91779351377E+03  0.90351791844E+03 0.  0.
        2    1    3    3  502    0  0.17265422589E+03  0.31312869383E+03 -0.36107786715E+03  0.50816954530E+03  0.25500000920E-02 0.  1.
       -2    1    3    3    0  502 -0.17265422589E+03 -0.31312869383E+03  0.19983176654E+03  0.40962396847E+03  0.25500000920E-02 0. -1.
</event>
<event>
 5   0  0.4590462E-02  0.5566201E+03  0.7818609E-02  0.9999732E-01
        2   -1    0    0  501    0  0.00000000000E+00  0.00000000000E+00  0.43828235869E+03  0.43828235870E+03  0.25500000920E-02 0. -1.
       -2   -1    0    0    0  501  0.00000000000E+00  0.00000000000E+00 -0.17672734486E+03  0.17672734488E+03  0.25500000920E-02 0.  1.
    10030    2    1    2    0    0  0.00000000000E+00  0.00000000000E+00  0.26155501383E+03  0.61500970358E+03  0.55662007711E+03 0.  0.
        3    1    3    3  502    0  0.21186118329E+03 -0.11062231428E+03 -0.26778373515E+02  0.24049854239E+03  0.10100000352E+00 0.  1.
       -3    1    3    3    0  502 -0.21186118329E+03  0.11062231428E+03  0.28833338735E+03  0.37451116120E+03  0.10100000352E+00 0. -1.
</event>
<event>
 5   0  0.4700220E-02  0.8477475E+03  0.7818609E-02  0.9493365E-01
       -2   -1    0    0    0  501  0.00000000000E+00  0.00000000000E+00  0.13380123671E+03  0.13380123673E+03  0.25500000920E-02 0.  1.
        2   -1    0    0  501    0  0.00000000000E+00  0.00000000000E+00 -0.13428050168E+04  0.13428050168E+04  0.25500000920E-02 0. -1.
    10030    2    1    2    0    0  0.00000000000E+00  0.00000000000E+00 -0.12090037800E+04  0.14766062535E+04  0.84774753770E+03 0.  0.
        4    1    3    3  502    0 -0.16602685450E+03 -0.27714397543E+03 -0.12655749916E+03  0.34697566633E+03  0.12699999809E+01 0.  1.
       -4    1    3    3    0  502  0.16602685450E+03  0.27714397543E+03 -0.10824462809E+04  0.11296305872E+04  0.12699999809E+01 0. -1.
</event>
<event>
 5   0  0.4700220E-02  0.8199559E+03  0.7818609E-02  0.9531573E-01
        2   -1    0    0  501    0  0.00000000000E+00  0.00000000000E+00  0.40487770503E+03  0.40487770504E+03  0.25500000920E-02 0. -1.
       -2   -1    0    0    0  501  0.00000000000E+00  0.00000000000E+00 -0.41514247087E+03  0.41514247088E+03  0.25500000920E-02 0.  1.
    10030    2    1    2    0    0  0.00000000000E+00  0.00000000000E+00 -0.10264765839E+02  0.82002017591E+03  0.81995592777E+03 0.  0.
        4    1    3    3  502    0  0.32060055372E+02  0.21908791024E+03  0.33993516999E+03  0.40569063615E+03  0.12699999809E+01 0. -1.
       -4    1    3    3    0  502 -0.32060055372E+02 -0.21908791024E+03 -0.35019993583E+03  0.41432953976E+03  0.12699999809E+01 0.  1.
</event>
<event>
 5   0  0.2759559E-02  0.8669162E+03  0.7818609E-02  0.9467910E-01
       -1   -1    0    0    0  501  0.00000000000E+00  0.00000000000E+00  0.36023399564E+03  0.36023399568E+03  0.50400001928E-02 0. -1.
        1   -1    0    0  501    0  0.00000000000E+00  0.00000000000E+00 -0.52156629093E+03  0.52156629095E+03  0.50400001928E-02 0.  1.
    10030    2    1    2    0    0  0.00000000000E+00  0.00000000000E+00 -0.16133229529E+03  0.88180028663E+03  0.86691616434E+03 0.  0.
        3    1    3    3  502    0  0.20915062985E+03  0.16006729875E+03 -0.43084477749E+03  0.50496807680E+03  0.10100000352E+00 0.  1.
       -3    1    3    3    0  502 -0.20915062985E+03 -0.16006729875E+03  0.26951248221E+03  0.37683220983E+03  0.10100000352E+00 0. -1.
</event>
<event>
 5   0  0.2635243E-02  0.7995106E+03  0.7818609E-02  0.9560726E-01
        1   -1    0    0  501    0  0.00000000000E+00  0.00000000000E+00  0.55071622339E+03  0.55071622342E+03  0.50400001928E-02 0.  1.
       -1   -1    0    0    0  501  0.00000000000E+00  0.00000000000E+00 -0.29017542792E+03  0.29017542796E+03  0.50400001928E-02 0. -1.
    10030    2    1    2    0    0  0.00000000000E+00  0.00000000000E+00  0.26054079547E+03  0.84089165138E+03  0.79951063986E+03 0.  0.
        1    1    3    3  502    0  0.39282175047E+03 -0.67209399794E+02  0.16316680196E+03  0.43063840557E+03  0.50400001928E-02 0. -1.
       -1    1    3    3    0  502 -0.39282175047E+03  0.67209399794E+02  0.97373993510E+02  0.41025324581E+03  0.50400001928E-02 0.  1.
</event>
<event>
 5   0  0.2769394E-02  0.8127166E+03  0.7818609E-02  0.9541791E-01
        1   -1    0    0  501    0  0.00000000000E+00  0.00000000000E+00  0.12870865530E+04  0.12870865530E+04  0.50400001928E-02 0.  1.
       -1   -1    0    0    0  501  0.00000000000E+00  0.00000000000E+00 -0.12829522009E+03  0.12829522019E+03  0.50400001928E-02 0. -1.
    10030    2    1    2    0    0  0.00000000000E+00  0.00000000000E+00  0.11587913329E+04  0.14153817732E+04  0.81271656230E+03 0.  0.
        2    1    3    3  502    0 -0.19100814421E+03 -0.20684160200E+03  0.69092047108E+02  0.28989872447E+03  0.25500000920E-02 0. -1.
       -2    1    3    3    0  502  0.19100814421E+03  0.20684160200E+03  0.10896992858E+04  0.11254830487E+04  0.25500000920E-02 0.  1.
</event>
<event>
 5   0  0.4684283E-02  0.8273125E+03  0.7818609E-02  0.9521304E-01
       -2   -1    0    0    0  501  0.00000000000E+00  0.00000000000E+00  0.11791568881E+03  0.11791568883E+03  0.25500000920E-02 0. -1.
        2   -1    0    0  501    0  0.00000000000E+00  0.00000000000E+00 -0.14511342841E+04  0.14511342841E+04  0.25500000920E-02 0.  1.
    10030    2    1    2    0    0  0.00000000000E+00  0.00000000000E+00 -0.13332185953E+04  0.15690499729E+04  0.82731251334E+03 0.  0.
        1    1    3    3  502    0 -0.29008515366E+02  0.41168160955E+03 -0.61336156567E+03  0.73928049607E+03  0.50400001928E-02 0.  1.
       -1    1    3    3    0  502  0.29008515366E+02 -0.41168160955E+03 -0.71985702961E+03  0.82976947685E+03  0.50400001928E-02 0. -1.
</event>
<event>
 5   0  0.4700220E-02  0.7714881E+03  0.7818609E-02  0.9602229E-01
        2   -1    0    0  501    0  0.00000000000E+00  0.00000000000E+00  0.88049780582E+03  0.88049780583E+03  0.25500000920E-02 0. -1.
       -2   -1    0    0    0  501  0.00000000000E+00  0.00000000000E+00 -0.16899356312E+03  0.16899356313E+03  0.25500000920E-02 0.  1.
    10030    2    1    2    0    0  0.00000000000E+00  0.00000000000E+00  0.71150424271E+03  0.10494913690E+04  0.77148807258E+03 0.  0.
        4    1    3    3  502    0  0.34978891048E+03  0.73125273849E+02  0.55334108968E+03  0.65870142098E+03  0.12699999809E+01 0.  1.
       -4    1    3    3    0  502 -0.34978891048E+03 -0.73125273849E+02  0.15816315303E+03  0.39078994798E+03  0.12699999809E+01 0. -1.
</event>
<event>
 5   0  0.2606520E-02  0.8200920E+03  0.7818609E-02  0.9531382E-01
        1   -1    0    0  501    0  0.00000000000E+00  0.00000000000E+00  0.13164478986E+04  0.13164478986E+04  0.50400001928E-02 0.  1.
       -1   -1    0    0    0  501  0.00000000000E+00  0.00000000000E+00 -0.12772075884E+03  0.12772075894E+03  0.50400001928E-02 0. -1.
    10030    2    1    2    0    0  0.00000000000E+00  0.00000000000E+00  0.11887271398E+04  0.14441686576E+04  0.82009200622E+03 0.  0.
        5    1    3    3  502    0  0.34764736308E+03 -0.85277823057E+02  0.24223446421E+03  0.43223907946E+03  0.46999998093E+01 0. -1.
       -5    1    3    3    0  502 -0.34764736308E+03  0.85277823057E+02  0.94649267555E+03  0.10119295781E+04  0.46999998093E+01 0.  1.
</event>
<event>
 5   0  0.4684283E-02  0.7908270E+03  0.7818609E-02  0.9573390E-01
        2   -1    0    0  501    0  0.00000000000E+00  0.00000000000E+00  0.64189599098E+03  0.64189599099E+03  0.25500000920E-02 0.  1.
       -2   -1    0    0    0  501  0.00000000000E+00  0.00000000000E+00 -0.24357812052E+03  0.24357812053E+03  0.25500000920E-02 0. -1.
    10030    2    1    2    0    0  0.00000000000E+00  0.00000000000E+00  0.39831787046E+03  0.88547411152E+03  0.79082695721E+03 0.  0.
        1    1    3    3  502    0  0.19534415364E+03 -0.79475121952E+02 -0.17535090130E+03  0.27426915974E+03  0.50400001928E-02 0. -1.
       -1    1    3    3    0  502 -0.19534415364E+03  0.79475121952E+02  0.57366877176E+03  0.61120495179E+03  0.50400001928E-02 0.  1.
</event>
<event>
 5   0  0.2759559E-02  0.7881752E+03  0.7818609E-02  0.9577293E-01
       -1   -1    0    0    0  501  0.00000000000E+00  0.00000000000E+00  0.34578602994E+03  0.34578602998E+03  0.50400001928E-02 0. -1.
        1   -1    0    0  501    0  0.00000000000E+00  0.00000000000E+00 -0.44913621937E+03  0.44913621940E+03  0.50400001928E-02 0.  1.
    10030    2    1    2    0    0  0.00000000000E+00  0.00000000000E+00 -0.10335018943E+03  0.79492224938E+03  0.78817518415E+03 0.  0.
        3    1    3    3  502    0 -0.13241567388E+03 -0.13845435379E+03  0.29565865835E+03  0.35230323761E+03  0.10100000352E+00 0. -1.
       -3    1    3    3    0  502  0.13241567388E+03  0.13845435379E+03 -0.39900884778E+03  0.44261901177E+03  0.10100000352E+00 0.  1.
</event>
<event>
 5   0  0.2606520E-02  0.7579856E+03  0.7818609E-02  0.9622905E-01
        1   -1    0    0  501    0  0.00000000000E+00  0.00000000000E+00  0.94771460805E+03  0.94771460807E+03  0.50400001928E-02 0.  1.
       -1   -1    0    0    0  501  0.00000000000E+00  0.00000000000E+00 -0.15155989612E+03  0.15155989621E+03  0.50400001928E-02 0. -1.
    10030    2    1    2    0    0  0.00000000000E+00  0.00000000000E+00  0.79615471193E+03  0.10992745043E+04  0.75798556082E+03 0.  0.
        5    1    3    3  502    0  0.69825461039E+01  0.36614273219E+03  0.25669260237E+03  0.44723868169E+03  0.46999998093E+01 0.  1.
       -5    1    3    3    0  502 -0.69825461039E+01 -0.36614273219E+03  0.53946210956E+03  0.65203582259E+03  0.46999998093E+01 0. -1.
</event>
<event>
 5   0  0.2606520E-02  0.7129341E+03  0.7818609E-02  0.9695365E-01
       -1   -1    0    0    0  501  0.00000000000E+00  0.00000000000E+00  0.42741123207E+03  0.42741123210E+03  0.50400001928E-02 0. -1.
        1   -1    0    0  501    0  0.00000000000E+00  0.00000000000E+00 -0.29729857085E+03  0.29729857089E+03  0.50400001928E-02 0.  1.
    10030    2    1    2    0    0  0.00000000000E+00  0.00000000000E+00  0.13011266122E+03  0.72470980300E+03  0.71293407405E+03 0.  0.
        5    1    3    3  502    0 -0.33655862395E+03  0.63771975598E+02 -0.35100731573E+02  0.34437294259E+03  0.46999998093E+01 0.  1.
       -5    1    3    3    0  502  0.33655862395E+03 -0.63771975598E+02  0.16521339280E+03  0.38033686041E+03  0.46999998093E+01 0. -1.
</event>
<event>
 5   0  0.1786500E-02  0.8109164E+03  0.7818609E-02  0.9544349E-01
       -4   -1    0    0    0  501  0.00000000000E+00  0.00000000000E+00  0.49856578089E+03  0.49856739843E+03  0.12699999809E+01 0.  1.
        4   -1    0    0  501    0  0.00000000000E+00  0.00000000000E+00 -0.32973517232E+03  0.32973761806E+03  0.12699999809E+01 0. -1.
    10030    2    1    2    0    0  0.00000000000E+00  0.00000000000E+00  0.16883060857E+03  0.82830501649E+03  0.81091641120E+03 0.  0.
        4    1    3    3  502    0 -0.16742695739E+02 -0.39626216884E+03  0.17042736400E+03  0.43168405532E+03  0.12699999809E+01 0.  1.
       -4    1    3    3    0  502  0.16742695739E+02  0.39626216884E+03 -0.15967554380E+01  0.39662096117E+03  0.12699999809E+01 0. -1.
</event>
<event>
 5   0  0.4663634E-02  0.8019177E+03  0.7818609E-02  0.9557245E-01
       -2   -1    0    0    0  501  0.00000000000E+00  0.00000000000E+00  0.56503038495E+03  0.56503038495E+03  0.25500000920E-02 0. -1.
        2   -1    0    0  501    0  0.00000000000E+00  0.00000000000E+00 -0.28452984574E+03  0.28452984575E+03  0.25500000920E-02 0.  1.
    10030    2    1    2    0    0  0.00000000000E+00  0.00000000000E+00  0.28050053921E+03  0.84956023070E+03  0.80191772215E+03 0.  0.
        5    1    3    3  502    0  0.15595698648E+03  0.15472452125E+03 -0.21506108038E+03  0.30746644923E+03  0.46999998093E+01 0.  1.
       -5    1    3    3    0  502 -0.15595698648E+03 -0.15472452125E+03  0.49556161959E+03  0.54209378148E+03  0.46999998093E+01 0. -1.
</event>
<event>
 5   0  0.4377843E-02  0.8079523E+03  0.7818609E-02  0.9548577E-01
        2   -1    0    0  501    0  0.00000000000E+00  0.00000000000E+00  0.10133882847E+04  0.10133882848E+04  0.25500000920E-02 0.  1.
       -2   -1    0    0    0  501  0.00000000000E+00  0.00000000000E+00 -0.16104068419E+03  0.16104068421E+03  0.25500000920E-02 0. -1.
    10030    2    1    2    0    0  0.00000000000E+00  0.00000000000E+00  0.85234760056E+03  0.11744289690E+04  0.80795233211E+03 0.  0.
        2    1    3    3  502    0  0.27652697297E+03 -0.42764036717E+02  0.84971624703E+03  0.89460249837E+03  0.25500000920E-02 0.  1.
       -2    1    3    3    0  502 -0.27652697297E+03  0.42764036717E+02  0.26313535318E+01  0.27982647059E+03  0.25500000920E-02 0. -1.
</event>
<event>
 5   0  0.2635243E-02  0.7779130E+03  0.7818609E-02  0.9592549E-01
        1   -1    0    0  501    0  0.00000000000E+00  0.00000000000E+00  0.39084931883E+03  0.39084931887E+03  0.50400001928E-02 0. -1.
       -1   -1    0    0    0  501  0.00000000000E+00  0.00000000000E+00 -0.38707285276E+03  0.38707285279E+03  0.50400001928E-02 0.  1.
    10030    2    1    2    0    0  0.00000000000E+00  0.00000000000E+00  0.37764660773E+01  0.77792217165E+03  0.77791300507E+03 0.  0.
        1    1    3    3  502    0  0.12414214783E+03 -0.25272215146E+03 -0.26645687899E+03  0.38765838968E+03  0.50400001928E-02 0.  1.
       -1    1    3    3    0  502 -0.12414214783E+03  0.25272215146E+03  0.27023334507E+03  0.39026378197E+03  0.50400001928E-02 0. -1.
</event>
<event>
 5   0  0.4663634E-02  0.8012904E+03  0.7818609E-02  0.9558151E-01
        2   -1    0    0  501    0  0.00000000000E+00  0.00000000000E+00  0.18690834694E+04  0.18690834694E+04  0.25500000920E-02 0. -1.
       -2   -1    0    0    0  501  0.00000000000E+00  0.00000000000E+00 -0.85879843545E+02  0.85879843583E+02  0.25500000920E-02 0.  1.
    10030    2    1    2    0    0  0.00000000000E+00  0.00000000000E+00  0.17832036259E+04  0.19549633130E+04  0.80129044912E+03 0.  0.
        5    1    3    3  502    0 -0.31881968709E+03 -0.17312138492E+03  0.47700263598E+03  0.59930844439E+03  0.46999998093E+01 0.  1.
       -5    1    3    3    0  502  0.31881968709E+03  0.17312138492E+03  0.13062009899E+04  0.13556548686E+04  0.46999998093E+01 0. -1.
</event>
<event>
 5   0  0.2606520E-02  0.8024510E+03  0.7818609E-02  0.9556476E-01
       -1   -1    0    0    0  501  0.00000000000E+00  0.00000000000E+00  0.24394301167E+03  0.24394301172E+03  0.50400001928E-02 0.  1.
        1   -1    0    0  501    0  0.00000000000E+00  0.00000000000E+00 -0.65991600021E+03  0.65991600023E+03  0.50400001928E-02 0. -1.
    10030    2    1    2    0    0  0.00000000000E+00  0.00000000000E+00 -0.41597298854E+03  0.90385901195E+03  0.80245098685E+03 0.  0.
        5    1    3    3  502    0  0.95805904112E+02  0.14135631324E+03 -0.61690704762E+03  0.64012246794E+03  0.46999998093E+01 0. -1.
       -5    1    3    3    0  502 -0.95805904112E+02 -0.14135631324E+03  0.20093405908E+03  0.26373654402E+03  0.46999998093E+01 0.  1.
</event>
<event>
 5   0  0.4590462E-02  0.8542362E+03  0.7818609E-02  0.9484669E-01
       -2   -1    0    0    0  501  0.00000000000E+00  0.00000000000E+00  0.14521386352E+03  0.14521386354E+03  0.25500000920E-02 0.  1.
        2   -1    0    0  501    0  0.00000000000E+00  0.00000000000E+00 -0.12562841263E+04  0.12562841263E+04  0.25500000920E-02 0. -1.
    10030    2    1    2    0    0  0.00000000000E+00  0.00000000000E+00 -0.11110702627E+04  0.14014979898E+04  0.85423620074E+03 0.  0.
        3    1    3    3  502    0  0.23979531811E+03 -0.28755542581E+03 -0.21834397640E+03  0.43343283186E+03  0.10100000352E+00 0.  1.
       -3    1    3    3    0  502 -0.23979531811E+03  0.28755542581E+03 -0.89272628633E+03  0.96806515794E+03  0.10100000352E+00 0. -1.
</event>
<event>
 5   0  0.4663634E-02  0.7991362E+03  0.7818609E-02  0.9561268E-01
        2   -1    0    0  501    0  0.00000000000E+00  0.00000000000E+00  0.82386634633E+03  0.82386634633E+03  0.25500000920E-02 0. -1.
       -2   -1    0    0    0  501  0.00000000000E+00  0.00000000000E+00 -0.19378710407E+03  0.19378710409E+03  0.25500000920E-02 0.  1.
    10030    2    1    2    0    0  0.00000000000E+00  0.00000000000E+00  0.63007924226E+03  0.10176534504E+04  0.79913621719E+03 0.  0.
        5    1    3    3  502    0 -0.14828373355E+02  0.11984902827E+03  0.80003358717E+03  0.80911031438E+03  0.46999998093E+01 0. -1.
       -5    1    3    3    0  502  0.14828373355E+02 -0.11984902827E+03 -0.16995434492E+03  0.20854313604E+03  0.46999998093E+01 0.  1.
</event>
<event>
 5   0  0.2689372E-02  0.8001853E+03  0.7818609E-02  0.9559749E-01
       -1   -1    0    0    0  501  0.00000000000E+00  0.00000000000E+00  0.37850271674E+03  0.37850271677E+03  0.50400001928E-02 0. -1.
        1   -1    0    0  501    0  0.00000000000E+00  0.00000000000E+00 -0.42291408777E+03  0.42291408780E+03  0.50400001928E-02 0.  1.
    10030    2    1    2    0    0  0.00000000000E+00  0.00000000000E+00 -0.44411371035E+02  0.80141680458E+03  0.80018530653E+03 0.  0.
        4    1    3    3  502    0  0.33553143644E+03 -0.53912092194E+02 -0.23368144863E+03  0.41242755832E+03  0.12699999809E+01 0.  1.
       -4    1    3    3    0  502 -0.33553143644E+03  0.53912092194E+02  0.18927007760E+03  0.38898924625E+03  0.12699999809E+01 0. -1.
</event>
<event>
 5   0  0.4590462E-02  0.7604780E+03  0.7818609E-02  0.9619054E-01
       -2   -1    0    0    0  501  0.00000000000E+00  0.00000000000E+00  0.98496254701E+02  0.98496254734E+02  0.25500000920E-02 0.  1.
        2   -1    0    0  501    0  0.00000000000E+00  0.00000000000E+00 -0.14678902920E+04  0.14678902920E+04  0.25500000920E-02 0. -1.
    10030    2    1    2    0    0  0.00000000000E+00  0.00000000000E+00 -0.13693940373E+04  0.15663865467E+04  0.76047799731E+03 0.  0.
        3    1    3    3  502    0  0.15031124804E+03 -0.17795391826E+03 -0.13037185288E+04  0.13243651615E+04  0.10100000352E+00 0. -1.
       -3    1    3    3    0  502 -0.15031124804E+03  0.17795391826E+03 -0.65675508479E+02  0.24202138527E+03  0.10100000352E+00 0.  1.
</event>
<event>
 5   0  0.4377843E-02  0.8626152E+03  0.7818609E-02  0.9473560E-01
       -2   -1    0    0    0  501  0.00000000000E+00  0.00000000000E+00  0.21172797074E+03  0.21172797075E+03  0.25500000920E-02 0. -1.
        2   -1    0    0  501    0  0.00000000000E+00  0.00000000000E+00 -0.87860973753E+03  0.87860973754E+03  0.25500000920E-02 0.  1.
    10030    2    1    2    0    0  0.00000000000E+00  0.00000000000E+00 -0.66688176680E+03  0.10903377083E+04  0.86261522548E+03 0.  0.
        2    1    3    3  502    0 -0.25585433811E+03  0.33272854190E+03 -0.45892997573E+03  0.62192157669E+03  0.25500000920E-02 0.  1.
       -2    1    3    3    0  502  0.25585433811E+03 -0.33272854190E+03 -0.20795179107E+03  0.46841613160E+03  0.25500000920E-02 0. -1.
</event>
<event>
 5   0  0.4700220E-02  0.8007719E+03  0.7818609E-02  0.9558901E-01
        2   -1    0    0  501    0  0.00000000000E+00  0.00000000000E+00  0.22877809201E+04  0.22877809201E+04  0.25500000920E-02 0. -1.
       -2   -1    0    0    0  501  0.00000000000E+00  0.00000000000E+00 -0.70071783928E+02  0.70071783974E+02  0.25500000920E-02 0.  1.
    10030    2    1    2    0    0  0.00000000000E+00  0.00000000000E+00  0.22177091362E+04  0.23578527041E+04  0.80077185356E+03 0.  0.
        4    1    3    3  502    0 -0.96346825322E+02  0.44965567354E+02  0.22454473370E+04  0.22479635159E+04  0.12699999809E+01 0. -1.
       -4    1    3    3    0  502  0.96346825322E+02 -0.44965567354E+02 -0.27738200755E+02  0.10988918818E+03  0.12699999809E+01 0.  1.
</event>
<event>
 5   0  0.4663634E-02  0.8535566E+03  0.7818609E-02  0.9485576E-01
       -2   -1    0    0    0  501  0.00000000000E+00  0.00000000000E+00  0.11585203610E+03  0.11585203613E+03  0.25500000920E-02 0.  1.
        2   -1    0    0  501    0  0.00000000000E+00  0.00000000000E+00 -0.15721755393E+04  0.15721755393E+04  0.25500000920E-02 0. -1.
    10030    2    1    2    0    0  0.00000000000E+00  0.00000000000E+00 -0.14563235032E+04  0.16880275754E+04  0.85355664687E+03 0.  0.
        5    1    3    3  502    0  0.22515173451E+03 -0.20670411172E+03 -0.13171457550E+04  0.13521519601E+04  0.46999998093E+01 0. -1.
       -5    1    3    3    0  502 -0.22515173451E+03  0.20670411172E+03 -0.13917774819E+03  0.33587561529E+03  0.46999998093E+01 0.  1.
</event>
<event>
 5   0  0.4684283E-02  0.8002744E+03  0.7818609E-02  0.9559620E-01
       -2   -1    0    0    0  501  0.00000000000E+00  0.00000000000E+00  0.42916609040E+03  0.42916609041E+03  0.25500000920E-02 0.  1.
        2   -1    0    0  501    0  0.00000000000E+00  0.00000000000E+00 -0.37307180550E+03  0.37307180551E+03  0.25500000920E-02 0. -1.
    10030    2    1    2    0    0  0.00000000000E+00  0.00000000000E+00  0.56094284902E+02  0.80223789591E+03  0.80027437347E+03 0.  0.
        1    1    3    3  502    0 -0.39501771905E+03  0.63012540936E+02  0.18013112730E+02  0.40041734594E+03  0.50400001928E-02 0. -1.
       -1    1    3    3    0  502  0.39501771905E+03 -0.63012540936E+02  0.38081172172E+02  0.40182054997E+03  0.50400001928E-02 0.  1.
</event>
<event>
 5   0  0.4684283E-02  0.7946556E+03  0.7818609E-02  0.9567785E-01
       -2   -1    0    0    0  501  0.00000000000E+00  0.00000000000E+00  0.19517334460E+03  0.19517334462E+03  0.25500000920E-02 0. -1.
        2   -1    0    0  501    0  0.00000000000E+00  0.00000000000E+00 -0.80886755331E+03  0.80886755331E+03  0.25500000920E-02 0.  1.
    10030    2    1    2    0    0  0.00000000000E+00  0.00000000000E+00 -0.61369420871E+03  0.10040408979E+04  0.79465561277E+03 0.  0.
        1    1    3    3  502    0 -0.27764681714E+03 -0.10367427086E+02 -0.66571915765E+03  0.72137177342E+03  0.50400001928E-02 0.  1.
       -1    1    3    3    0  502  0.27764681714E+03  0.10367427086E+02  0.52024948941E+02  0.28266912450E+03  0.50400001928E-02 0. -1.
</event>
<event>
 5   0  0.2635243E-02  0.7874185E+03  0.7818609E-02  0.9578409E-01
        1   -1    0    0  501    0  0.00000000000E+00  0.00000000000E+00  0.11669106975E+04  0.11669106975E+04  0.50400001928E-02 0. -1.
       -1   -1    0    0    0  501  0.00000000000E+00  0.00000000000E+00 -0.13283532364E+03  0.13283532373E+03  0.50400001928E-02 0.  1.
    10030    2    1    2    0    0  0.00000000000E+00  0.00000000000E+00  0.10340753738E+04  0.12997460212E+04  0.78741846619E+03 0.  0.
        1    1    3    3  502    0  0.20715213906E+02 -0.81545836179E+02  0.11518981262E+04  0.11549667254E+04  0.50400001928E-02 0. -1.
       -1    1    3    3    0  502 -0.20715213906E+02  0.81545836179E+02 -0.11782275242E+03  0.14477929582E+03  0.50400001928E-02 0.  1.
</event>
<event>
 5   0  0.2769394E-02  0.7520147E+03  0.7818609E-02  0.9632195E-01
        1   -1    0    0  501    0  0.00000000000E+00  0.00000000000E+00  0.96870711776E+03  0.96870711778E+03  0.50400001928E-02 0.  1.
       -1   -1    0    0    0  501  0.00000000000E+00  0.00000000000E+00 -0.14594869058E+03  0.14594869067E+03  0.50400001928E-02 0. -1.
    10030    2    1    2    0    0  0.00000000000E+00  0.00000000000E+00  0.82275842718E+03  0.11146558084E+04  0.75201472180E+03 0.  0.
        2    1    3    3  502    0 -0.12632189607E+03 -0.31896010909E+03  0.63951091042E+03  0.72571824917E+03  0.25500000920E-02 0.  1.
       -2    1    3    3    0  502  0.12632189607E+03  0.31896010909E+03  0.18324751676E+03  0.38893755928E+03  0.25500000920E-02 0. -1.
</event>
<event>
 5   0  0.4684283E-02  0.5363310E+03  0.7818609E-02  0.1004708E+00
        2   -1    0    0  501    0  0.00000000000E+00  0.00000000000E+00  0.54245260630E+03  0.54245260631E+03  0.25500000920E-02 0.  1.
       -2   -1    0    0    0  501  0.00000000000E+00  0.00000000000E+00 -0.13256960418E+03  0.13256960421E+03  0.25500000920E-02 0. -1.
    10030    2    1    2    0    0  0.00000000000E+00  0.00000000000E+00  0.40988300212E+03  0.67502221052E+03  0.53633096989E+03 0.  0.
        1    1    3    3  502    0 -0.22044531066E+03 -0.41902650329E+02  0.38974799244E+03  0.44972821207E+03  0.50400001928E-02 0.  1.
       -1    1    3    3    0  502  0.22044531066E+03  0.41902650329E+02  0.20135009686E+02  0.22529399845E+03  0.50400001928E-02 0. -1.
</event>
<event>
 5   0  0.2759559E-02  0.7905081E+03  0.7818609E-02  0.9573859E-01
        1   -1    0    0  501    0  0.00000000000E+00  0.00000000000E+00  0.40478431989E+03  0.40478431992E+03  0.50400001928E-02 0. -1.
       -1   -1    0    0    0  501  0.00000000000E+00  0.00000000000E+00 -0.38594817952E+03  0.38594817955E+03  0.50400001928E-02 0.  1.
    10030    2    1    2    0    0  0.00000000000E+00  0.00000000000E+00  0.18836140375E+02  0.79073249947E+03  0.79050811858E+03 0.  0.
        3    1    3    3  502    0 -0.35578228728E+03  0.15885270489E+03  0.75848842827E+02  0.39694870570E+03  0.10100000352E+00 0.  1.
       -3    1    3    3    0  502  0.35578228728E+03 -0.15885270489E+03 -0.57012702452E+02  0.39378379377E+03  0.10100000352E+00 0. -1.
</event>
<event>
 5   0  0.4663634E-02  0.8013275E+03  0.7818609E-02  0.9558098E-01
        2   -1    0    0  501    0  0.00000000000E+00  0.00000000000E+00  0.46688886325E+03  0.46688886325E+03  0.25500000920E-02 0.  1.
       -2   -1    0    0    0  501  0.00000000000E+00  0.00000000000E+00 -0.34383223739E+03  0.34383223740E+03  0.25500000920E-02 0. -1.
    10030    2    1    2    0    0  0.00000000000E+00  0.00000000000E+00  0.12305662586E+03  0.81072110065E+03  0.80132750475E+03 0.  0.
        5    1    3    3  502    0 -0.37399538986E+03  0.14311412380E+03  0.74130185453E+02  0.40727334612E+03  0.46999998093E+01 0.  1.
       -5    1    3    3    0  502  0.37399538986E+03 -0.14311412380E+03  0.48926440406E+02  0.40344775453E+03  0.46999998093E+01 0. -1.
</event>
<event>
 5   0  0.2759559E-02  0.7328815E+03  0.7818609E-02  0.9662596E-01
        1   -1    0    0  501    0  0.00000000000E+00  0.00000000000E+00  0.71990750539E+03  0.71990750541E+03  0.50400001928E-02 0. -1.
       -1   -1    0    0    0  501  0.00000000000E+00  0.00000000000E+00 -0.18652230168E+03  0.18652230175E+03  0.50400001928E-02 0.  1.
    10030    2    1    2    0    0  0.00000000000E+00  0.00000000000E+00  0.53338520371E+03  0.90642980716E+03  0.73288145000E+03 0.  0.
        3    1    3    3  502    0 -0.12823412705E+03 -0.68636993904E+02  0.68267732092E+03  0.69799954368E+03  0.10100000352E+00 0. -1.
       -3    1    3    3    0  502  0.12823412705E+03  0.68636993904E+02 -0.14929211721E+03  0.20843026348E+03  0.10100000352E+00 0.  1.
</event>
<event>
 5   0  0.4377843E-02  0.7950528E+03  0.7818609E-02  0.9567206E-01
       -2   -1    0    0    0  501  0.00000000000E+00  0.00000000000E+00  0.35940353880E+03  0.35940353881E+03  0.25500000920E-02 0.  1.
        2   -1    0    0  501    0  0.00000000000E+00  0.00000000000E+00 -0.43969300240E+03  0.43969300241E+03  0.25500000920E-02 0. -1.
    10030    2    1    2    0    0  0.00000000000E+00  0.00000000000E+00 -0.80289463604E+02  0.79909654122E+03  0.79505275562E+03 0.  0.
        2    1    3    3  502    0 -0.24766322208E+03  0.30125902749E+03 -0.11756343432E+03  0.40732693786E+03  0.25500000920E-02 0. -1.
       -2    1    3    3    0  502  0.24766322208E+03 -0.30125902749E+03  0.37273970715E+02  0.39176960336E+03  0.25500000920E-02 0.  1.
</event>
<event>
 5   0  0.2689372E-02  0.8060181E+03  0.7818609E-02  0.9551347E-01
        1   -1    0    0  501    0  0.00000000000E+00  0.00000000000E+00  0.64660626662E+03  0.64660626664E+03  0.50400001928E-02 0.  1.
       -1   -1    0    0    0  501  0.00000000000E+00  0.00000000000E+00 -0.25118269946E+03  0.25118269951E+03  0.50400001928E-02 0. -1.
    10030    2    1    2    0    0  0.00000000000E+00  0.00000000000E+00  0.39542356715E+03  0.89778896615E+03  0.80601813272E+03 0.  0.
        4    1    3    3  502    0 -0.11873688531E+03 -0.16957122312E+03  0.58285810948E+03  0.61852892926E+03  0.12699999809E+01 0.  1.
       -4    1    3    3    0  502  0.11873688531E+03  0.16957122312E+03 -0.18743454233E+03  0.27926003689E+03  0.12699999809E+01 0. -1.
</event>
<event>
 5   0  0.2606520E-02  0.8819476E+03  0.7818609E-02  0.9448433E-01
        1   -1    0    0  501    0  0.00000000000E+00  0.00000000000E+00  0.14366910941E+03  0.14366910950E+03  0.50400001928E-02 0.  1.
       -1   -1    0    0    0  501  0.00000000000E+00  0.00000000000E+00 -0.13535121508E+04  0.13535121508E+04  0.50400001928E-02 0. -1.
    10030    2    1    2    0    0  0.00000000000E+00  0.00000000000E+00 -0.12098430414E+04  0.14971812603E+04  0.88194758430E+03 0.  0.
        5    1    3    3  502    0 -0.39310100081E+03  0.11696095892E+03 -0.32999899479E+03  0.52643108695E+03  0.46999998093E+01 0. -1.
       -5    1    3    3    0  502  0.39310100081E+03 -0.11696095892E+03 -0.87984404662E+03  0.97075017338E+03  0.46999998093E+01 0.  1.
</event>
<event>
 5   0  0.2635243E-02  0.7644615E+03  0.7818609E-02  0.9612932E-01
        1   -1    0    0  501    0  0.00000000000E+00  0.00000000000E+00  0.99946042691E+03  0.99946042692E+03  0.50400001928E-02 0. -1.
       -1   -1    0    0    0  501  0.00000000000E+00  0.00000000000E+00 -0.14617923386E+03  0.14617923395E+03  0.50400001928E-02 0.  1.
    10030    2    1    2    0    0  0.00000000000E+00  0.00000000000E+00  0.85328119305E+03  0.11456396609E+04  0.76446153478E+03 0.  0.
        1    1    3    3  502    0  0.14825757892E+03  0.77990020850E+02 -0.88235345113E+02  0.18933628604E+03  0.50400001928E-02 0.  1.
       -1    1    3    3    0  502 -0.14825757892E+03 -0.77990020850E+02  0.94151653816E+03  0.95630337483E+03  0.50400001928E-02 0. -1.
</event>
<event>
 5   0  0.2769394E-02  0.7897033E+03  0.7818609E-02  0.9575042E-01
        1   -1    0    0  501    0  0.00000000000E+00  0.00000000000E+00  0.43036141532E+03  0.43036141535E+03  0.50400001928E-02 0.  1.
       -1   -1    0    0    0  501  0.00000000000E+00  0.00000000000E+00 -0.36227181625E+03  0.36227181629E+03  0.50400001928E-02 0. -1.
    10030    2    1    2    0    0  0.00000000000E+00  0.00000000000E+00  0.68089599067E+02  0.79263323163E+03  0.78970326477E+03 0.  0.
        2    1    3    3  502    0 -0.38805264014E+03  0.73383176438E+01 -0.38813149450E+02  0.39005789698E+03  0.25500000920E-02 0.  1.
       -2    1    3    3    0  502  0.38805264014E+03 -0.73383176438E+01  0.10690274852E+03  0.40257533465E+03  0.25500000920E-02 0. -1.
</event>
<event>
 5   0  0.4590462E-02  0.7945199E+03  0.7818609E-02  0.9567983E-01
        2   -1    0    0  501    0  0.00000000000E+00  0.00000000000E+00  0.15297566489E+04  0.15297566489E+04  0.25500000920E-02 0. -1.
       -2   -1    0    0    0  501  0.00000000000E+00  0.00000000000E+00 -0.10316376370E+03  0.10316376373E+03  0.25500000920E-02 0.  1.
    10030    2    1    2    0    0  0.00000000000E+00  0.00000000000E+00  0.14265928852E+04  0.16329204127E+04  0.79451986377E+03 0.  0.
        3    1    3    3  502    0  0.25965124650E+03  0.93226250229E+02  0.12582601437E+03  0.30321955681E+03  0.10100000352E+00 0.  1.
       -3    1    3    3    0  502 -0.25965124650E+03 -0.93226250229E+02  0.13007668708E+04  0.13297008558E+04  0.10100000352E+00 0. -1.
</event>
<event>
 5   0  0.4684283E-02  0.8114736E+03  0.7818609E-02  0.9543556E-01
       -2   -1    0    0    0  501  0.00000000000E+00  0.00000000000E+00  0.38988392871E+03  0.38988392872E+03  0.25500000920E-02 0. -1.
        2   -1    0    0  501    0  0.00000000000E+00  0.00000000000E+00 -0.42223422916E+03  0.42223422917E+03  0.25500000920E-02 0.  1.
    10030    2    1    2    0    0  0.00000000000E+00  0.00000000000E+00 -0.32350300455E+02  0.81211815789E+03  0.81147357346E+03 0.  0.
        1    1    3    3  502    0  0.29462957753E+03 -0.23819364369E+03  0.12912812605E+03  0.40027099922E+03  0.50400001928E-02 0. -1.
       -1    1    3    3    0  502 -0.29462957753E+03  0.23819364369E+03 -0.16147842651E+03  0.41184715867E+03  0.50400001928E-02 0.  1.
</event>
<event>
 5   0  0.2769394E-02  0.8548311E+03  0.7818609E-02  0.9483876E-01
        1   -1    0    0  501    0  0.00000000000E+00  0.00000000000E+00  0.10083217249E+04  0.10083217249E+04  0.50400001928E-02 0. -1.
       -1   -1    0    0    0  501  0.00000000000E+00  0.00000000000E+00 -0.18117633470E+03  0.18117633477E+03  0.50400001928E-02 0.  1.
    10030    2    1    2    0    0  0.00000000000E+00  0.00000000000E+00  0.82714539016E+03  0.11894980596E+04  0.85483105784E+03 0.  0.
        2    1    3    3  502    0  0.14488154025E+03  0.40209290218E+03  0.40824274497E+03  0.59104272394E+03  0.25500000920E-02 0.  1.
       -2    1    3    3    0  502 -0.14488154025E+03 -0.40209290218E+03  0.41890264518E+03  0.59845533571E+03  0.25500000920E-02 0. -1.
</event>
<event>
 5   0  0.2689372E-02  0.8148187E+03  0.7818609E-02  0.9538812E-01
        1   -1    0    0  501    0  0.00000000000E+00  0.00000000000E+00  0.24524655081E+03  0.24524655086E+03  0.50400001928E-02 0. -1.
       -1   -1    0    0    0  501  0.00000000000E+00  0.00000000000E+00 -0.67679800770E+03  0.67679800771E+03  0.50400001928E-02 0.  1.
    10030    2    1    2    0    0  0.00000000000E+00  0.00000000000E+00 -0.43155145688E+03  0.92204455858E+03  0.81481869644E+03 0.  0.
        4    1    3    3  502    0  0.19968753481E+03 -0.20222419261E+03 -0.54609873840E+03  0.61562584466E+03  0.12699999809E+01 0.  1.
       -4    1    3    3    0  502 -0.19968753481E+03  0.20222419261E+03  0.11454728152E+03  0.30641871391E+03  0.12699999809E+01 0. -1.
</event>
<event>
 5   0  0.2759559E-02  0.7992706E+03  0.7818609E-02  0.9561073E-01
       -1   -1    0    0    0  501  0.00000000000E+00  0.00000000000E+00  0.96158931375E+02  0.96158931507E+02  0.50400001928E-02 0.  1.
        1   -1    0    0  501    0  0.00000000000E+00  0.00000000000E+00 -0.16608793277E+04  0.16608793277E+04  0.50400001928E-02 0. -1.
    10030    2    1    2    0    0  0.00000000000E+00  0.00000000000E+00 -0.15647203963E+04  0.17570382592E+04  0.79927062105E+03 0.  0.
        3    1    3    3  502    0 -0.17211475824E+02 -0.39869344736E+03 -0.82928616520E+03  0.92030878180E+03  0.10100000352E+00 0. -1.
       -3    1    3    3    0  502  0.17211475824E+02  0.39869344736E+03 -0.73543423114E+03  0.83672947743E+03  0.10100000352E+00 0.  1.
</event>
<event>
 5   0  0.2689372E-02  0.7909158E+03  0.7818609E-02  0.9573260E-01
        1   -1    0    0  501    0  0.00000000000E+00  0.00000000000E+00  0.54491395246E+03  0.54491395248E+03  0.50400001928E-02 0.  1.
       -1   -1    0    0    0  501  0.00000000000E+00  0.00000000000E+00 -0.28699385989E+03  0.28699385994E+03  0.50400001928E-02 0. -1.
    10030    2    1    2    0    0  0.00000000000E+00  0.00000000000E+00  0.25792009256E+03  0.83190781242E+03  0.79091581993E+03 0.  0.
        4    1    3    3  502    0 -0.18966975081E+03  0.34668143500E+03  0.11326297572E+03  0.41108727335E+03  0.12699999809E+01 0.  1.
       -4    1    3    3    0  502  0.18966975081E+03 -0.34668143500E+03  0.14465711684E+03  0.42082053906E+03  0.12699999809E+01 0. -1.
</event>
<event>
 5   0  0.4377843E-02  0.7854786E+03  0.7818609E-02  0.9581277E-01
       -2   -1    0    0    0  501  0.00000000000E+00  0.00000000000E+00  0.59272275121E+02  0.59272275176E+02  0.25500000920E-02 0. -1.
        2   -1    0    0  501    0  0.00000000000E+00  0.00000000000E+00 -0.26022983186E+04  0.26022983186E+04  0.25500000920E-02 0.  1.
    10030    2    1    2    0    0  0.00000000000E+00  0.00000000000E+00 -0.25430260435E+04  0.26615705938E+04  0.78547855976E+03 0.  0.
        2    1    3    3  502    0 -0.14115689682E+03  0.36270017774E+03 -0.10932571595E+04  0.11604688300E+04  0.25500000920E-02 0.  1.
       -2    1    3    3    0  502  0.14115689682E+03 -0.36270017774E+03 -0.14497688839E+04  0.15011017638E+04  0.25500000920E-02 0. -1.
</event>
<event>
 5   0  0.4684283E-02  0.7985706E+03  0.7818609E-02  0.9562088E-01
       -2   -1    0    0    0  501  0.00000000000E+00  0.00000000000E+00  0.31735414276E+03  0.31735414277E+03  0.25500000920E-02 0.  1.
        2   -1    0    0  501    0  0.00000000000E+00  0.00000000000E+00 -0.50236860687E+03  0.50236860687E+03  0.25500000920E-02 0. -1.
    10030    2    1    2    0    0  0.00000000000E+00  0.00000000000E+00 -0.18501446411E+03  0.81972274964E+03  0.79857061951E+03 0.  0.
        1    1    3    3  502    0 -0.22321828422E+03  0.13638184857E+02 -0.43205023393E+03  0.48649748936E+03  0.50400001928E-02 0. -1.
       -1    1    3    3    0  502  0.22321828422E+03 -0.13638184857E+02  0.24703576981E+03  0.33322526028E+03  0.50400001928E-02 0.  1.
</event>
<event>
 5   0  0.1786500E-02  0.8058901E+03  0.7818609E-02  0.9551530E-01
       -3   -1    0    0    0  501  0.00000000000E+00  0.00000000000E+00  0.66216319183E+03  0.66216319953E+03  0.10100000352E+00 0. -1.
        3   -1    0    0  501    0  0.00000000000E+00  0.00000000000E+00 -0.24520342738E+03  0.24520344818E+03  0.10100000352E+00 0.  1.
    10030    2    1    2    0    0  0.00000000000E+00  0.00000000000E+00  0.41695976445E+03  0.90736664771E+03  0.80589005963E+03 0.  0.
        1    1    3    3  502    0  0.32542320780E+03  0.23498964832E+03  0.16876354210E+03  0.43543258050E+03  0.50400001928E-02 0. -1.
       -1    1    3    3    0  502 -0.32542320780E+03 -0.23498964832E+03  0.24819622235E+03  0.47193406722E+03  0.50400001928E-02 0.  1.
</event>
<event>
 5   0  0.2635243E-02  0.7334178E+03  0.7818609E-02  0.9661731E-01
        1   -1    0    0  501    0  0.00000000000E+00  0.00000000000E+00  0.60974839023E+03  0.60974839026E+03  0.50400001928E-02 0.  1.
       -1   -1    0    0    0  501  0.00000000000E+00  0.00000000000E+00 -0.22054244227E+03  0.22054244232E+03  0.50400001928E-02 0. -1.
    10030    2    1    2    0    0  0.00000000000E+00  0.00000000000E+00  0.38920594797E+03  0.83029083258E+03  0.73341775049E+03 0.  0.
        1    1    3    3  502    0 -0.30516566951E+03  0.11005865732E+03  0.38817420531E+03  0.50588359095E+03  0.50400001928E-02 0.  1.
       -1    1    3    3    0  502  0.30516566951E+03 -0.11005865732E+03  0.10317426585E+01  0.32440724163E+03  0.50400001928E-02 0. -1.
</event>
<event>
 5   0  0.4377843E-02  0.7915156E+03  0.7818609E-02  0.9572380E-01
        2   -1    0    0  501    0  0.00000000000E+00  0.00000000000E+00  0.37839475016E+03  0.37839475016E+03  0.25500000920E-02 0.  1.
       -2   -1    0    0    0  501  0.00000000000E+00  0.00000000000E+00 -0.41391756924E+03  0.41391756925E+03  0.25500000920E-02 0. -1.
    10030    2    1    2    0    0  0.00000000000E+00  0.00000000000E+00 -0.35522819083E+02  0.79231231941E+03  0.79151559733E+03 0.  0.
        2    1    3    3  502    0  0.29671993908E+03 -0.25438509362E+03  0.44508417834E+02  0.39336433159E+03  0.25500000920E-02 0.  1.
       -2    1    3    3    0  502 -0.29671993908E+03  0.25438509362E+03 -0.80031236917E+02  0.39894798782E+03  0.25500000920E-02 0. -1.
</event>
<event>
 5   0  0.2759559E-02  0.7957863E+03  0.7818609E-02  0.9566136E-01
       -1   -1    0    0    0  501  0.00000000000E+00  0.00000000000E+00  0.12296980086E+03  0.12296980096E+03  0.50400001928E-02 0. -1.
        1   -1    0    0  501    0  0.00000000000E+00  0.00000000000E+00 -0.12874620884E+04  0.12874620884E+04  0.50400001928E-02 0.  1.
    10030    2    1    2    0    0  0.00000000000E+00  0.00000000000E+00 -0.11644922876E+04  0.14104318894E+04  0.79578629470E+03 0.  0.
        3    1    3    3  502    0 -0.30479884031E+03  0.25568735755E+03 -0.57095448021E+03  0.69589322927E+03  0.10100000352E+00 0. -1.
       -3    1    3    3    0  502  0.30479884031E+03 -0.25568735755E+03 -0.59353780736E+03  0.71453866013E+03  0.10100000352E+00 0.  1.
</event>
<event>
 5   0  0.4684283E-02  0.8000604E+03  0.7818609E-02  0.9559930E-01
       -2   -1    0    0    0  501  0.00000000000E+00  0.00000000000E+00  0.55154163757E+03  0.55154163757E+03  0.25500000920E-02 0.  1.
        2   -1    0    0  501    0  0.00000000000E+00  0.00000000000E+00 -0.29013979139E+03  0.29013979140E+03  0.25500000920E-02 0. -1.
    10030    2    1    2    0    0  0.00000000000E+00  0.00000000000E+00  0.26140184618E+03  0.84168142897E+03  0.80006043690E+03 0.  0.
        1    1    3    3  502    0  0.24863353936E+03  0.31307496512E+03  0.11621487891E+03  0.41634176920E+03  0.50400001928E-02 0.  1.
       -1    1    3    3    0  502 -0.24863353936E+03 -0.31307496512E+03  0.14518696727E+03  0.42533965977E+03  0.50400001928E-02 0. -1.
</event>
<event>
 5   0  0.2759559E-02  0.7686452E+03  0.7818609E-02  0.9606545E-01
        1   -1    0    0  501    0  0.00000000000E+00  0.00000000000E+00  0.56584376631E+03  0.56584376633E+03  0.50400001928E-02 0. -1.
       -1   -1    0    0    0  501  0.00000000000E+00  0.00000000000E+00 -0.26103292774E+03  0.26103292779E+03  0.50400001928E-02 0.  1.
    10030    2    1    2    0    0  0.00000000000E+00  0.00000000000E+00  0.30481083857E+03  0.82687669412E+03  0.76864518470E+03 0.  0.
        3    1    3    3  502    0  0.16623086944E+03  0.32832114945E+03  0.33212694418E+02  0.36950043627E+03  0.10100000352E+00 0.  1.
       -3    1    3    3    0  502 -0.16623086944E+03 -0.32832114945E+03  0.27159814416E+03  0.45737625785E+03  0.10100000352E+00 0. -1.
</event>
<event>
 5   0  0.4663634E-02  0.8057135E+03  0.7818609E-02  0.9551784E-01
       -2   -1    0    0    0  501  0.00000000000E+00  0.00000000000E+00  0.36653526445E+03  0.36653526446E+03  0.25500000920E-02 0.  1.
        2   -1    0    0  501    0  0.00000000000E+00  0.00000000000E+00 -0.44277750270E+03  0.44277750270E+03  0.25500000920E-02 0. -1.
    10030    2    1    2    0    0  0.00000000000E+00  0.00000000000E+00 -0.76242238251E+02  0.80931276716E+03  0.80571351993E+03 0.  0.
        5    1    3    3  502    0 -0.48392100530E+02  0.24353052486E+03 -0.35674875181E+03  0.43467306547E+03  0.46999998093E+01 0. -1.
       -5    1    3    3    0  502  0.48392100530E+02 -0.24353052486E+03  0.28050651356E+03  0.37463970169E+03  0.46999998093E+01 0.  1.
</event>
<event>
 5   0  0.4684283E-02  0.7929644E+03  0.7818609E-02  0.9570257E-01
       -2   -1    0    0    0  501  0.00000000000E+00  0.00000000000E+00  0.24034216733E+03  0.24034216734E+03  0.25500000920E-02 0.  1.
        2   -1    0    0  501    0  0.00000000000E+00  0.00000000000E+00 -0.65405966221E+03  0.65405966222E+03  0.25500000920E-02 0. -1.
    10030    2    1    2    0    0  0.00000000000E+00  0.00000000000E+00 -0.41371749488E+03  0.89440182956E+03  0.79296435427E+03 0.  0.
        1    1    3    3  502    0  0.17142432110E+03  0.19212475842E+03 -0.54692278525E+03  0.60450207090E+03  0.50400001928E-02 0. -1.
       -1    1    3    3    0  502 -0.17142432110E+03 -0.19212475842E+03  0.13320529037E+03  0.28989975866E+03  0.50400001928E-02 0.  1.
</event>
<event>
 5   0  0.2769394E-02  0.7693519E+03  0.7818609E-02  0.9605470E-01
       -1   -1    0    0    0  501  0.00000000000E+00  0.00000000000E+00  0.88516177069E+03  0.88516177070E+03  0.50400001928E-02 0.  1.
        1   -1    0    0  501    0  0.00000000000E+00  0.00000000000E+00 -0.16717349378E+03  0.16717349386E+03  0.50400001928E-02 0. -1.
    10030    2    1    2    0    0  0.00000000000E+00  0.00000000000E+00  0.71798827691E+03  0.10523352646E+04  0.76935189820E+03 0.  0.
        2    1    3    3  502    0 -0.17918476915E+03  0.28386230416E+03  0.10203823809E+03  0.35085152309E+03  0.25500000920E-02 0.  1.
       -2    1    3    3    0  502  0.17918476915E+03 -0.28386230416E+03  0.61595003882E+03  0.70148374147E+03  0.25500000920E-02 0. -1.
</event>
<event>
 5   0  0.4377843E-02  0.8019228E+03  0.7818609E-02  0.9557238E-01
       -2   -1    0    0    0  501  0.00000000000E+00  0.00000000000E+00  0.38434543325E+03  0.38434543325E+03  0.25500000920E-02 0.  1.
        2   -1    0    0  501    0  0.00000000000E+00  0.00000000000E+00 -0.41829569030E+03  0.41829569031E+03  0.25500000920E-02 0. -1.
    10030    2    1    2    0    0  0.00000000000E+00  0.00000000000E+00 -0.33950257058E+02  0.80264112357E+03  0.80192278511E+03 0.  0.
        2    1    3    3  502    0  0.25050009635E+03  0.30359097427E+03 -0.93543722881E+02  0.40455927381E+03  0.25500000920E-02 0.  1.
       -2    1    3    3    0  502 -0.25050009635E+03 -0.30359097427E+03  0.59593465824E+02  0.39808184976E+03  0.25500000920E-02 0. -1.
</event>
<event>
 5   0  0.4684283E-02  0.8070659E+03  0.7818609E-02  0.9549845E-01
       -2   -1    0    0    0  501  0.00000000000E+00  0.00000000000E+00  0.14949445102E+04  0.14949445102E+04  0.25500000920E-02 0. -1.
        2   -1    0    0  501    0  0.00000000000E+00  0.00000000000E+00 -0.10892634946E+03  0.10892634949E+03  0.25500000920E-02 0.  1.
    10030    2    1    2    0    0  0.00000000000E+00  0.00000000000E+00  0.13860181607E+04  0.16038708597E+04  0.80706591594E+03 0.  0.
        1    1    3    3  502    0  0.49982804841E+02 -0.10798591978E+03 -0.73268456818E+02  0.13974085459E+03  0.50400001928E-02 0.  1.
       -1    1    3    3    0  502 -0.49982804841E+02  0.10798591978E+03  0.14592866175E+04  0.14641300051E+04  0.50400001928E-02 0. -1.
</event>
<event>
 5   0  0.2769394E-02  0.7791276E+03  0.7818609E-02  0.9590730E-01
        1   -1    0    0  501    0  0.00000000000E+00  0.00000000000E+00  0.15881156336E+04  0.15881156336E+04  0.50400001928E-02 0.  1.
       -1   -1    0    0    0  501  0.00000000000E+00  0.00000000000E+00 -0.95559767785E+02  0.95559767918E+02  0.50400001928E-02 0. -1.
    10030    2    1    2    0    0  0.00000000000E+00  0.00000000000E+00  0.14925558658E+04  0.16836754015E+04  0.77912761799E+03 0.  0.
        2    1    3    3  502    0  0.23059099046E+03  0.24012257721E+02  0.14228086963E+04  0.14415732308E+04  0.25500000920E-02 0.  1.
       -2    1    3    3    0  502 -0.23059099046E+03 -0.24012257721E+02  0.69747169462E+02  0.24210217070E+03  0.25500000920E-02 0. -1.
</event>
<event>
 5   0  0.2689372E-02  0.8238405E+03  0.7818609E-02  0.9526136E-01
        1   -1    0    0  501    0  0.00000000000E+00  0.00000000000E+00  0.44571475432E+03  0.44571475435E+03  0.50400001928E-02 0.  1.
       -1   -1    0    0    0  501  0.00000000000E+00  0.00000000000E+00 -0.38068809561E+03  0.38068809565E+03  0.50400001928E-02 0. -1.
    10030    2    1    2    0    0  0.00000000000E+00  0.00000000000E+00  0.65026658706E+02  0.82640284999E+03  0.82384052105E+03 0.  0.
        4    1    3    3  502    0  0.26433889857E+03  0.27402826315E+03  0.19019685122E+03  0.42560897243E+03  0.12699999809E+01 0.  1.
       -4    1    3    3    0  502 -0.26433889857E+03 -0.27402826315E+03 -0.12517019251E+03  0.40079387756E+03  0.12699999809E+01 0. -1.
</event>
<event>
 5   0  0.4663634E-02  0.7950693E+03  0.7818609E-02  0.9567182E-01
       -2   -1    0    0    0  501  0.00000000000E+00  0.00000000000E+00  0.20353889464E+03  0.20353889466E+03  0.25500000920E-02 0. -1.
        2   -1    0    0  501    0  0.00000000000E+00  0.00000000000E+00 -0.77643046868E+03  0.77643046869E+03  0.25500000920E-02 0.  1.
    10030    2    1    2    0    0  0.00000000000E+00  0.00000000000E+00 -0.57289157404E+03  0.97996936334E+03  0.79506930358E+03 0.  0.
        5    1    3    3  502    0  0.23244841422E+03 -0.98445282257E+02 -0.66491944371E+03  0.71124095460E+03  0.46999998093E+01 0.  1.
       -5    1    3    3    0  502 -0.23244841422E+03  0.98445282257E+02  0.92027869672E+02  0.26872840875E+03  0.46999998093E+01 0. -1.
</event>
<event>
 5   0  0.2759559E-02  0.7798890E+03  0.7818609E-02  0.9589592E-01
        1   -1    0    0  501    0  0.00000000000E+00  0.00000000000E+00  0.31505617508E+03  0.31505617512E+03  0.50400001928E-02 0.  1.
       -1   -1    0    0    0  501  0.00000000000E+00  0.00000000000E+00 -0.48263362621E+03  0.48263362624E+03  0.50400001928E-02 0. -1.
    10030    2    1    2    0    0  0.00000000000E+00  0.00000000000E+00 -0.16757745114E+03  0.79768980136E+03  0.77988897739E+03 0.  0.
        3    1    3    3  502    0 -0.19895407627E+03  0.69876644494E+01  0.25916299020E+03  0.32679812975E+03  0.10100000352E+00 0.  1.
       -3    1    3    3    0  502  0.19895407627E+03 -0.69876644494E+01 -0.42674044133E+03  0.47089167161E+03  0.10100000352E+00 0. -1.
</event>
<event>
 5   0  0.2759559E-02  0.8106017E+03  0.7818609E-02  0.9544797E-01
       -1   -1    0    0    0  501  0.00000000000E+00  0.00000000000E+00  0.26162210871E+03  0.26162210876E+03  0.50400001928E-02 0. -1.
        1   -1    0    0  501    0  0.00000000000E+00  0.00000000000E+00 -0.62788572395E+03  0.62788572397E+03  0.50400001928E-02 0.  1.
    10030    2    1    2    0    0  0.00000000000E+00  0.00000000000E+00 -0.36626361524E+03  0.88950783273E+03  0.81060172011E+03 0.  0.
        3    1    3    3  502    0 -0.13604657904E+03  0.34655903945E+03 -0.73618437035E+01  0.37237890171E+03  0.10100000352E+00 0. -1.
       -3    1    3    3    0  502  0.13604657904E+03 -0.34655903945E+03 -0.35890177154E+03  0.51712893103E+03  0.10100000352E+00 0.  1.
</event>
<event>
 5   0  0.4590462E-02  0.7898322E+03  0.7818609E-02  0.9574852E-01
       -2   -1    0    0    0  501  0.00000000000E+00  0.00000000000E+00  0.95659143297E+02  0.95659143331E+02  0.25500000920E-02 0. -1.
        2   -1    0    0  501    0  0.00000000000E+00  0.00000000000E+00 -0.16303589296E+04  0.16303589296E+04  0.25500000920E-02 0.  1.
    10030    2    1    2    0    0  0.00000000000E+00  0.00000000000E+00 -0.15346997863E+04  0.17260180729E+04  0.78983223156E+03 0.  0.
        3    1    3    3  502    0  0.11426888035E+03  0.37134228967E+03 -0.92197035923E+03  0.10004907929E+04  0.10100000352E+00 0.  1.
       -3    1    3    3    0  502 -0.11426888035E+03 -0.37134228967E+03 -0.61272942705E+03  0.72552728004E+03  0.10100000352E+00 0. -1.
</event>
<event>
 5   0  0.4663634E-02  0.8293122E+03  0.7818609E-02  0.9518532E-01
       -2   -1    0    0    0  501  0.00000000000E+00  0.00000000000E+00  0.10496862178E+03  0.10496862181E+03  0.25500000920E-02 0.  1.
        2   -1    0    0  501    0  0.00000000000E+00  0.00000000000E+00 -0.16380101346E+04  0.16380101346E+04  0.25500000920E-02 0. -1.
    10030    2    1    2    0    0  0.00000000000E+00  0.00000000000E+00 -0.15330415128E+04  0.17429787564E+04  0.82931216394E+03 0.  0.
        5    1    3    3  502    0  0.22643293949E+02  0.15260841257E+03  0.42341101996E+02  0.16005282023E+03  0.46999998093E+01 0.  1.
       -5    1    3    3    0  502 -0.22643293949E+02 -0.15260841257E+03 -0.15753826148E+04  0.15829259362E+04  0.46999998093E+01 0. -1.
</event>
<event>
 5   0  0.2606520E-02  0.7628092E+03  0.7818609E-02  0.9615466E-01
        1   -1    0    0  501    0  0.00000000000E+00  0.00000000000E+00  0.15408502647E+04  0.15408502647E+04  0.50400001928E-02 0. -1.
       -1   -1    0    0    0  501  0.00000000000E+00  0.00000000000E+00 -0.94408562373E+02  0.94408562508E+02  0.50400001928E-02 0.  1.
    10030    2    1    2    0    0  0.00000000000E+00  0.00000000000E+00  0.14464417023E+04  0.16352588272E+04  0.76280917256E+03 0.  0.
        5    1    3    3  502    0  0.18782682901E+03  0.31111434307E+03  0.47528526814E+03  0.59832201052E+03  0.46999998093E+01 0.  1.
       -5    1    3    3    0  502 -0.18782682901E+03 -0.31111434307E+03  0.97115643415E+03  0.10369368167E+04  0.46999998093E+01 0. -1.
</event>
<event>
 5   0  0.2769394E-02  0.8263887E+03  0.7818609E-02  0.9522587E-01
       -1   -1    0    0    0  501  0.00000000000E+00  0.00000000000E+00  0.34230946419E+03  0.34230946423E+03  0.50400001928E-02 0. -1.
        1   -1    0    0  501    0  0.00000000000E+00  0.00000000000E+00 -0.49875795384E+03  0.49875795387E+03  0.50400001928E-02 0.  1.
    10030    2    1    2    0    0  0.00000000000E+00  0.00000000000E+00 -0.15644848964E+03  0.84106741810E+03  0.82638869297E+03 0.  0.
        2    1    3    3  502    0 -0.31797250905E+03  0.22143142062E+03 -0.22426935920E+03  0.44769982805E+03  0.25500000920E-02 0.  1.
       -2    1    3    3    0  502  0.31797250905E+03 -0.22143142062E+03  0.67820869553E+02  0.39336759005E+03  0.25500000920E-02 0. -1.
</event>
<event>
 5   0  0.4700220E-02  0.7835737E+03  0.7818609E-02  0.9584103E-01
        2   -1    0    0  501    0  0.00000000000E+00  0.00000000000E+00  0.10988851010E+04  0.10988851010E+04  0.25500000920E-02 0.  1.
       -2   -1    0    0    0  501  0.00000000000E+00  0.00000000000E+00 -0.13968422882E+03  0.13968422885E+03  0.25500000920E-02 0. -1.
    10030    2    1    2    0    0  0.00000000000E+00  0.00000000000E+00  0.95920087222E+03  0.12385693299E+04  0.78357365428E+03 0.  0.
        4    1    3    3  502    0 -0.27105367715E+03 -0.15504329175E+02  0.33121839714E+02  0.27351261266E+03  0.12699999809E+01 0. -1.
       -4    1    3    3    0  502  0.27105367715E+03  0.15504329175E+02  0.92607903250E+03  0.96505671722E+03  0.12699999809E+01 0.  1.
</event>
<event>
 5   0  0.1786500E-02  0.7703811E+03  0.7818609E-02  0.9603907E-01
        4   -1    0    0  501    0  0.00000000000E+00  0.00000000000E+00  0.27106646042E+03  0.27106943551E+03  0.12699999809E+01 0.  1.
       -4   -1    0    0    0  501  0.00000000000E+00  0.00000000000E+00 -0.54735629268E+03  0.54735776603E+03  0.12699999809E+01 0. -1.
    10030    2    1    2    0    0  0.00000000000E+00  0.00000000000E+00 -0.27628983226E+03  0.81842720154E+03  0.77038108285E+03 0.  0.
        2    1    3    3  502    0  0.20520190253E+03  0.32577783600E+03 -0.15038446705E+03  0.41334550580E+03  0.25500000920E-02 0. -1.
       -2    1    3    3    0  502 -0.20520190253E+03 -0.32577783600E+03 -0.12590536521E+03  0.40508169574E+03  0.25500000920E-02 0.  1.
</event>
<event>
 5   0  0.2635243E-02  0.6075995E+03  0.7818609E-02  0.9889764E-01
       -1   -1    0    0    0  501  0.00000000000E+00  0.00000000000E+00  0.79220631293E+02  0.79220631453E+02  0.50400001928E-02 0. -1.
        1   -1    0    0  501    0  0.00000000000E+00  0.00000000000E+00 -0.11650285107E+04  0.11650285107E+04  0.50400001928E-02 0.  1.
    10030    2    1    2    0    0  0.00000000000E+00  0.00000000000E+00 -0.10858078794E+04  0.12442491421E+04  0.60759952006E+03 0.  0.
        1    1    3    3  502    0 -0.15598876023E+03 -0.17957758261E+03 -0.92990067949E+03  0.95984158862E+03  0.50400001928E-02 0.  1.
       -1    1    3    3    0  502  0.15598876023E+03  0.17957758261E+03 -0.15590719988E+03  0.28440755351E+03  0.50400001928E-02 0. -1.
</event>
<event>
 5   0  0.4377843E-02  0.8856849E+03  0.7818609E-02  0.9443655E-01
       -2   -1    0    0    0  501  0.00000000000E+00  0.00000000000E+00  0.62733085222E+03  0.62733085222E+03  0.25500000920E-02 0. -1.
        2   -1    0    0  501    0  0.00000000000E+00  0.00000000000E+00 -0.31260927095E+03  0.31260927096E+03  0.25500000920E-02 0.  1.
    10030    2    1    2    0    0  0.00000000000E+00  0.00000000000E+00  0.31472158126E+03  0.93994012318E+03  0.88568491094E+03 0.  0.
        2    1    3    3  502    0  0.24551482878E+03  0.36444932990E+03  0.99150091122E+02  0.45047928453E+03  0.25500000920E-02 0.  1.
       -2    1    3    3    0  502 -0.24551482878E+03 -0.36444932990E+03  0.21557149014E+03  0.48946083866E+03  0.25500000920E-02 0. -1.
</event>
<event>
 5   0  0.2769394E-02  0.6805964E+03  0.7818609E-02  0.9751003E-01
        1   -1    0    0  501    0  0.00000000000E+00  0.00000000000E+00  0.13225388546E+03  0.13225388555E+03  0.50400001928E-02 0. -1.
       -1   -1    0    0    0  501  0.00000000000E+00  0.00000000000E+00 -0.87561021369E+03  0.87561021370E+03  0.50400001928E-02 0.  1.
    10030    2    1    2    0    0  0.00000000000E+00  0.00000000000E+00 -0.74335632823E+03  0.10078640993E+04  0.68059636485E+03 0.  0.
        2    1    3    3  502    0 -0.23298106663E+03 -0.22553742818E+03 -0.21881594341E+03  0.39118758418E+03  0.25500000920E-02 0. -1.
       -2    1    3    3    0  502  0.23298106663E+03  0.22553742818E+03 -0.52454038483E+03  0.61667651507E+03  0.25500000920E-02 0.  1.
</event>
<event>
 5   0  0.4684283E-02  0.6020580E+03  0.7818609E-02  0.9901146E-01
        2   -1    0    0  501    0  0.00000000000E+00  0.00000000000E+00  0.90352110287E+03  0.90352110287E+03  0.25500000920E-02 0. -1.
       -2   -1    0    0    0  501  0.00000000000E+00  0.00000000000E+00 -0.10029477514E+03  0.10029477517E+03  0.25500000920E-02 0.  1.
    10030    2    1    2    0    0  0.00000000000E+00  0.00000000000E+00  0.80322632773E+03  0.10038158780E+04  0.60205795688E+03 0.  0.
        1    1    3    3  502    0  0.18267229747E+03 -0.12136700093E+03  0.57810719700E+02  0.22680651780E+03  0.50400001928E-02 0.  1.
       -1    1    3    3    0  502 -0.18267229747E+03  0.12136700093E+03  0.74541560803E+03  0.77700936024E+03  0.50400001928E-02 0. -1.
</event>
<event>
 5   0  0.2635243E-02  0.7568330E+03  0.7818609E-02  0.9624691E-01
       -1   -1    0    0    0  501  0.00000000000E+00  0.00000000000E+00  0.11392980213E+03  0.11392980224E+03  0.50400001928E-02 0. -1.
        1   -1    0    0  501    0  0.00000000000E+00  0.00000000000E+00 -0.12569061165E+04  0.12569061165E+04  0.50400001928E-02 0.  1.
    10030    2    1    2    0    0  0.00000000000E+00  0.00000000000E+00 -0.11429763144E+04  0.13708359187E+04  0.75683304692E+03 0.  0.
        1    1    3    3  502    0  0.24243243416E+03 -0.25434305070E+03 -0.31703603753E+03  0.47326073331E+03  0.50400001928E-02 0.  1.
       -1    1    3    3    0  502 -0.24243243416E+03  0.25434305070E+03 -0.82594027684E+03  0.89757518544E+03  0.50400001928E-02 0. -1.
</event>
<event>
 5   0  0.2759559E-02  0.8020184E+03  0.7818609E-02  0.9557100E-01
       -1   -1    0    0    0  501  0.00000000000E+00  0.00000000000E+00  0.54685721418E+03  0.54685721421E+03  0.50400001928E-02 0.  1.
        1   -1    0    0  501    0  0.00000000000E+00  0.00000000000E+00 -0.29405920154E+03  0.29405920158E+03  0.50400001928E-02 0. -1.
    10030    2    1    2    0    0  0.00000000000E+00  0.00000000000E+00  0.25279801265E+03  0.84091641579E+03  0.80201844314E+03 0.  0.
        3    1    3    3  502    0 -0.32643954326E+03  0.74956159218E+02 -0.10481175141E+03  0.35095115706E+03  0.10100000352E+00 0. -1.
       -3    1    3    3    0  502  0.32643954326E+03 -0.74956159218E+02  0.35760976406E+03  0.48996525872E+03  0.10100000352E+00 0.  1.
</event>
<event>
 5   0  0.4700220E-02  0.8086736E+03  0.7818609E-02  0.9547547E-01
       -2   -1    0    0    0  501  0.00000000000E+00  0.00000000000E+00  0.11606661555E+03  0.11606661558E+03  0.25500000920E-02 0.  1.
        2   -1    0    0  501    0  0.00000000000E+00  0.00000000000E+00 -0.14085725692E+04  0.14085725692E+04  0.25500000920E-02 0. -1.
    10030    2    1    2    0    0  0.00000000000E+00  0.00000000000E+00 -0.12925059537E+04  0.15246391848E+04  0.80867360756E+03 0.  0.
        4    1    3    3  502    0 -0.88346689718E+02 -0.27617852892E+03 -0.11775323871E+04  0.12127093027E+04  0.12699999809E+01 0. -1.
       -4    1    3    3    0  502  0.88346689718E+02  0.27617852892E+03 -0.11497356662E+03  0.31192988210E+03  0.12699999809E+01 0.  1.
</event>
<event>
 5   0  0.4684283E-02  0.8104778E+03  0.7818609E-02  0.9544974E-01
       -2   -1    0    0    0  501  0.00000000000E+00  0.00000000000E+00  0.79302692841E+02  0.79302692882E+02  0.25500000920E-02 0.  1.
        2   -1    0    0  501    0  0.00000000000E+00  0.00000000000E+00 -0.20707815253E+04  0.20707815253E+04  0.25500000920E-02 0. -1.
    10030    2    1    2    0    0  0.00000000000E+00  0.00000000000E+00 -0.19914788324E+04  0.21500842182E+04  0.81047776351E+03 0.  0.
        1    1    3    3  502    0  0.28528231127E+03  0.17051551927E+03 -0.16108198718E+04  0.16447498895E+04  0.50400001928E-02 0. -1.
       -1    1    3    3    0  502 -0.28528231127E+03 -0.17051551927E+03 -0.38065896063E+03  0.50533432870E+03  0.50400001928E-02 0.  1.
</event>
<event>
 5   0  0.1786500E-02  0.8351069E+03  0.7818609E-02  0.9510547E-01
        4   -1    0    0  501    0  0.00000000000E+00  0.00000000000E+00  0.42407295540E+03  0.42407485708E+03  0.12699999809E+01 0.  1.
       -4   -1    0    0    0  501  0.00000000000E+00  0.00000000000E+00 -0.41113033555E+03  0.41113229709E+03  0.12699999809E+01 0. -1.
    10030    2    1    2    0    0  0.00000000000E+00  0.00000000000E+00  0.12942619849E+02  0.83520715417E+03  0.83510686679E+03 0.  0.
        1    1    3    3  502    0 -0.93041429267E+02  0.21874859802E+03  0.34979552715E+03  0.42292383183E+03  0.50400001928E-02 0.  1.
       -1    1    3    3    0  502  0.93041429267E+02 -0.21874859802E+03 -0.33685290730E+03  0.41228332234E+03  0.50400001928E-02 0. -1.
</event>
<event>
 5   0  0.2689372E-02  0.8168898E+03  0.7818609E-02  0.9535886E-01
       -1   -1    0    0    0  501  0.00000000000E+00  0.00000000000E+00  0.36889294940E+03  0.36889294943E+03  0.50400001928E-02 0. -1.
        1   -1    0    0  501    0  0.00000000000E+00  0.00000000000E+00 -0.45223755854E+03  0.45223755857E+03  0.50400001928E-02 0.  1.
    10030    2    1    2    0    0  0.00000000000E+00  0.00000000000E+00 -0.83344609140E+02  0.82113050800E+03  0.81688982568E+03 0.  0.
        4    1    3    3  502    0  0.15280763306E+03  0.21730626357E+03 -0.35353027722E+03  0.44221878603E+03  0.12699999809E+01 0.  1.
       -4    1    3    3    0  502 -0.15280763306E+03 -0.21730626357E+03  0.27018566808E+03  0.37891172197E+03  0.12699999809E+01 0. -1.
</event>
<event>
 5   0  0.2606520E-02  0.8077172E+03  0.7818609E-02  0.9548914E-01
        1   -1    0    0  501    0  0.00000000000E+00  0.00000000000E+00  0.15159519482E+03  0.15159519490E+03  0.50400001928E-02 0.  1.
       -1   -1    0    0    0  501  0.00000000000E+00  0.00000000000E+00 -0.10759032207E+04  0.10759032207E+04  0.50400001928E-02 0. -1.
    10030    2    1    2    0    0  0.00000000000E+00  0.00000000000E+00 -0.92430802584E+03  0.12274984156E+04  0.80771717426E+03 0.  0.
        5    1    3    3  502    0  0.10040207881E+03  0.12332636222E+03 -0.10262720671E+04  0.10385308925E+04  0.46999998093E+01 0. -1.
       -5    1    3    3    0  502 -0.10040207881E+03 -0.12332636222E+03  0.10196404127E+03  0.18896752302E+03  0.46999998093E+01 0.  1.
</event>
<event>
 5   0  0.4377843E-02  0.7804061E+03  0.7818609E-02  0.9588820E-01
        2   -1    0    0  501    0  0.00000000000E+00  0.00000000000E+00  0.50737875173E+03  0.50737875173E+03  0.25500000920E-02 0.  1.
       -2   -1    0    0    0  501  0.00000000000E+00  0.00000000000E+00 -0.30008825478E+03  0.30008825479E+03  0.25500000920E-02 0. -1.
    10030    2    1    2    0    0  0.00000000000E+00  0.00000000000E+00  0.20729049694E+03  0.80746700653E+03  0.78040605873E+03 0.  0.
        2    1    3    3  502    0 -0.37576417458E+03 -0.86329730483E+02  0.41505540333E+02  0.38778118462E+03  0.25500000920E-02 0. -1.
       -2    1    3    3    0  502  0.37576417458E+03  0.86329730483E+02  0.16578495661E+03  0.41968582190E+03  0.25500000920E-02 0.  1.
</event>
<event>
 5   0  0.2689372E-02  0.8421369E+03  0.7818609E-02  0.9500952E-01
        1   -1    0    0  501    0  0.00000000000E+00  0.00000000000E+00  0.85354874741E+03  0.85354874742E+03  0.50400001928E-02 0.  1.
       -1   -1    0    0    0  501  0.00000000000E+00  0.00000000000E+00 -0.20771941887E+03  0.20771941893E+03  0.50400001928E-02 0. -1.
    10030    2    1    2    0    0  0.00000000000E+00  0.00000000000E+00  0.64582932854E+03  0.10612681664E+04  0.84213692433E+03 0.  0.
        4    1    3    3  502    0  0.36771213690E+03  0.20427958437E+03  0.29918146334E+03  0.51619136483E+03  0.12699999809E+01 0. -1.
       -4    1    3    3    0  502 -0.36771213690E+03 -0.20427958437E+03  0.34664786520E+03  0.54507680153E+03  0.12699999809E+01 0.  1.
</event>
<event>
 5   0  0.4663634E-02  0.7993138E+03  0.7818609E-02  0.9561011E-01
       -2   -1    0    0    0  501  0.00000000000E+00  0.00000000000E+00  0.77642204716E+03  0.77642204716E+03  0.25500000920E-02 0.  1.
        2   -1    0    0  501    0  0.00000000000E+00  0.00000000000E+00 -0.20572011257E+03  0.20572011259E+03  0.25500000920E-02 0. -1.
    10030    2    1    2    0    0  0.00000000000E+00  0.00000000000E+00  0.57070193459E+03  0.98214215975E+03  0.79931378307E+03 0.  0.
        5    1    3    3  502    0  0.62176873594E+02  0.22864328798E+03 -0.11006363606E+03  0.26130405801E+03  0.46999998093E+01 0. -1.
       -5    1    3    3    0  502 -0.62176873594E+02 -0.22864328798E+03  0.68076557064E+03  0.72083810174E+03  0.46999998093E+01 0.  1.
</event>
<event>
 5   0  0.2606520E-02  0.7225559E+03  0.7818609E-02  0.9679418E-01
        1   -1    0    0  501    0  0.00000000000E+00  0.00000000000E+00  0.11412927253E+04  0.11412927253E+04  0.50400001928E-02 0.  1.
       -1   -1    0    0    0  501  0.00000000000E+00  0.00000000000E+00 -0.11436308298E+03  0.11436308309E+03  0.50400001928E-02 0. -1.
    10030    2    1    2    0    0  0.00000000000E+00  0.00000000000E+00  0.10269296423E+04  0.12556558084E+04  0.72255589326E+03 0.  0.
        5    1    3    3  502    0 -0.10905547819E+03 -0.33960030708E+03  0.61296338407E+03  0.70920213345E+03  0.46999998093E+01 0. -1.
       -5    1    3    3    0  502  0.10905547819E+03  0.33960030708E+03  0.41396625826E+03  0.54645367495E+03  0.46999998093E+01 0.  1.
</event>
<event>
 5   0  0.2635243E-02  0.7520877E+03  0.7818609E-02  0.9632081E-01
        1   -1    0    0  501    0  0.00000000000E+00  0.00000000000E+00  0.60999997306E+02  0.60999997514E+02  0.50400001928E-02 0.  1.
       -1   -1    0    0    0  501  0.00000000000E+00  0.00000000000E+00 -0.23181800069E+04  0.23181800069E+04  0.50400001928E-02 0. -1.
    10030    2    1    2    0    0  0.00000000000E+00  0.00000000000E+00 -0.22571800096E+04  0.23791800044E+04  0.75208769283E+03 0.  0.
        1    1    3    3  502    0  0.25260716611E+03 -0.56187041089E+02 -0.19917010995E+04  0.20084423402E+04  0.50400001928E-02 0. -1.
       -1    1    3    3    0  502 -0.25260716611E+03  0.56187041089E+02 -0.26547891001E+03  0.37073766418E+03  0.50400001928E-02 0.  1.
</event>
<event>
 5   0  0.4377843E-02  0.8306167E+03  0.7818609E-02  0.9516728E-01
       -2   -1    0    0    0  501  0.00000000000E+00  0.00000000000E+00  0.68983055821E+03  0.68983055821E+03  0.25500000920E-02 0. -1.
        2   -1    0    0  501    0  0.00000000000E+00  0.00000000000E+00 -0.25003387844E+03  0.25003387845E+03  0.25500000920E-02 0.  1.
    10030    2    1    2    0    0  0.00000000000E+00  0.00000000000E+00  0.43979667977E+03  0.93986443666E+03  0.83061666235E+03 0.  0.
        2    1    3    3  502    0  0.22942272865E+03 -0.18367530817E+03  0.55193831337E+03  0.62530577243E+03  0.25500000920E-02 0. -1.
       -2    1    3    3    0  502 -0.22942272865E+03  0.18367530817E+03 -0.11214163361E+03  0.31455866424E+03  0.25500000920E-02 0.  1.
</event>
<event>
 5   0  0.2606520E-02  0.7918712E+03  0.7818609E-02  0.9571858E-01
        1   -1    0    0  501    0  0.00000000000E+00  0.00000000000E+00  0.77865786162E+03  0.77865786164E+03  0.50400001928E-02 0. -1.
       -1   -1    0    0    0  501  0.00000000000E+00  0.00000000000E+00 -0.20132721202E+03  0.20132721208E+03  0.50400001928E-02 0.  1.
    10030    2    1    2    0    0  0.00000000000E+00  0.00000000000E+00  0.57733064961E+03  0.97998507372E+03  0.79187124315E+03 0.  0.
        5    1    3    3  502    0 -0.27752854171E+03  0.14251052230E+03  0.59031333313E+03  0.66769997881E+03  0.46999998093E+01 0. -1.
       -5    1    3    3    0  502  0.27752854171E+03 -0.14251052230E+03 -0.12982683528E+02  0.31228509491E+03  0.46999998093E+01 0.  1.
</event>
<event>
 5   0  0.4684283E-02  0.7897907E+03  0.7818609E-02  0.9574913E-01
       -2   -1    0    0    0  501  0.00000000000E+00  0.00000000000E+00  0.12532994301E+03  0.12532994304E+03  0.25500000920E-02 0. -1.
        2   -1    0    0  501    0  0.00000000000E+00  0.00000000000E+00 -0.12442544422E+04  0.12442544422E+04  0.25500000920E-02 0.  1.
    10030    2    1    2    0    0  0.00000000000E+00  0.00000000000E+00 -0.11189244992E+04  0.13695843853E+04  0.78979070230E+03 0.  0.
        1    1    3    3  502    0 -0.25855255005E+03 -0.19406059008E+03 -0.16618446423E+03  0.36349169170E+03  0.50400001928E-02 0. -1.
       -1    1    3    3    0  502  0.25855255005E+03  0.19406059008E+03 -0.95274003500E+03  0.10060926936E+04  0.50400001928E-02 0.  1.
</event>
<event>
 5   0  0.2635243E-02  0.7934565E+03  0.7818609E-02  0.9569537E-01
        1   -1    0    0  501    0  0.00000000000E+00  0.00000000000E+00  0.29786756895E+03  0.29786756900E+03  0.50400001928E-02 0.  1.
       -1   -1    0    0    0  501  0.00000000000E+00  0.00000000000E+00 -0.52840022308E+03  0.52840022310E+03  0.50400001928E-02 0. -1.
    10030    2    1    2    0    0  0.00000000000E+00  0.00000000000E+00 -0.23053265412E+03  0.82626779210E+03  0.79345646361E+03 0.  0.
        1    1    3    3  502    0  0.25119306115E+03  0.30695710981E+03 -0.12414343044E+03  0.41561065022E+03  0.50400001928E-02 0. -1.
       -1    1    3    3    0  502 -0.25119306115E+03 -0.30695710981E+03 -0.10638922368E+03  0.41065714187E+03  0.50400001928E-02 0.  1.
</event>
<event>
 5   0  0.2769394E-02  0.8241335E+03  0.7818609E-02  0.9525727E-01
       -1   -1    0    0    0  501  0.00000000000E+00  0.00000000000E+00  0.47249647746E+03  0.47249647748E+03  0.50400001928E-02 0. -1.
        1   -1    0    0  501    0  0.00000000000E+00  0.00000000000E+00 -0.35936563658E+03  0.35936563662E+03  0.50400001928E-02 0.  1.
    10030    2    1    2    0    0  0.00000000000E+00  0.00000000000E+00  0.11313084088E+03  0.83186211410E+03  0.82413347810E+03 0.  0.
        2    1    3    3  502    0  0.19904129325E+03 -0.76935402961E+02  0.41238008301E+03  0.46432082176E+03  0.25500000920E-02 0. -1.
       -2    1    3    3    0  502 -0.19904129325E+03  0.76935402961E+02 -0.29924924214E+03  0.36754129234E+03  0.25500000920E-02 0.  1.
</event>
<event>
 5   0  0.4700220E-02  0.7955507E+03  0.7818609E-02  0.9566480E-01
       -2   -1    0    0    0  501  0.00000000000E+00  0.00000000000E+00  0.76607808092E+02  0.76607808135E+02  0.25500000920E-02 0.  1.
        2   -1    0    0  501    0  0.00000000000E+00  0.00000000000E+00 -0.20653929423E+04  0.20653929423E+04  0.25500000920E-02 0. -1.
    10030    2    1    2    0    0  0.00000000000E+00  0.00000000000E+00 -0.19887851342E+04  0.21420007504E+04  0.79555069280E+03 0.  0.
        4    1    3    3  502    0  0.21755292399E+03  0.43496779058E+02 -0.10545813548E+03  0.24565071904E+03  0.12699999809E+01 0.  1.
       -4    1    3    3    0  502 -0.21755292399E+03 -0.43496779058E+02 -0.18833269987E+04  0.18963500314E+04  0.12699999809E+01 0. -1.
</event>
<event>
 5   0  0.4377843E-02  0.7215477E+03  0.7818609E-02  0.9681076E-01
        2   -1    0    0  501    0  0.00000000000E+00  0.00000000000E+00  0.10246297677E+04  0.10246297677E+04  0.25500000920E-02 0. -1.
       -2   -1    0    0    0  501  0.00000000000E+00  0.00000000000E+00 -0.12702907385E+03  0.12702907388E+03  0.25500000920E-02 0.  1.
    10030    2    1    2    0    0  0.00000000000E+00  0.00000000000E+00  0.89760069383E+03  0.11516588416E+04  0.72154769890E+03 0.  0.
        2    1    3    3  502    0  0.10304522656E+03 -0.14061292627E+03  0.95294277728E+03  0.96875706476E+03  0.25500000920E-02 0. -1.
       -2    1    3    3    0  502 -0.10304522656E+03  0.14061292627E+03 -0.55342083454E+02  0.18290177680E+03  0.25500000920E-02 0.  1.
</event>
<event>
 5   0  0.4700220E-02  0.7936912E+03  0.7818609E-02  0.9569194E-01
        2   -1    0    0  501    0  0.00000000000E+00  0.00000000000E+00  0.13403857948E+03  0.13403857950E+03  0.25500000920E-02 0. -1.
       -2   -1    0    0    0  501  0.00000000000E+00  0.00000000000E+00 -0.11749336057E+04  0.11749336057E+04  0.25500000920E-02 0.  1.
    10030    2    1    2    0    0  0.00000000000E+00  0.00000000000E+00 -0.10408950262E+04  0.13089721852E+04  0.79369120320E+03 0.  0.
        4    1    3    3  502    0 -0.27057355593E+03  0.23785657933E+03 -0.79492771887E+03  0.87275282447E+03  0.12699999809E+01 0.  1.
       -4    1    3    3    0  502  0.27057355593E+03 -0.23785657933E+03 -0.24596730737E+03  0.43621936075E+03  0.12699999809E+01 0. -1.
</event>
<event>
 5   0  0.2769394E-02  0.7927230E+03  0.7818609E-02  0.9570610E-01
        1   -1    0    0  501    0  0.00000000000E+00  0.00000000000E+00  0.89111150445E+03  0.89111150446E+03  0.50400001928E-02 0.  1.
       -1   -1    0    0    0  501  0.00000000000E+00  0.00000000000E+00 -0.17629941510E+03  0.17629941517E+03  0.50400001928E-02 0. -1.
    10030    2    1    2    0    0  0.00000000000E+00  0.00000000000E+00  0.71481208935E+03  0.10674109196E+04  0.79272299593E+03 0.  0.
        2    1    3    3  502    0 -0.22317526636E+03  0.33863329866E+02 -0.81293456694E+02  0.23992196800E+03  0.25500000920E-02 0. -1.
       -2    1    3    3    0  502  0.22317526636E+03 -0.33863329866E+02  0.79610554604E+03  0.82748895163E+03  0.25500000920E-02 0.  1.
</event>
<event>
 5   0  0.4684283E-02  0.7986130E+03  0.7818609E-02  0.9562027E-01
        2   -1    0    0  501    0  0.00000000000E+00  0.00000000000E+00  0.31235828317E+03  0.31235828318E+03  0.25500000920E-02 0.  1.
       -2   -1    0    0    0  501  0.00000000000E+00  0.00000000000E+00 -0.51045762529E+03  0.51045762530E+03  0.25500000920E-02 0. -1.
    10030    2    1    2    0    0  0.00000000000E+00  0.00000000000E+00 -0.19809934212E+03  0.82281590848E+03  0.79861296627E+03 0.  0.
        1    1    3    3  502    0 -0.35860255806E+03 -0.13156873006E+03 -0.21893562705E+03  0.44027143241E+03  0.50400001928E-02 0. -1.
       -1    1    3    3    0  502  0.35860255806E+03  0.13156873006E+03  0.20836284926E+02  0.38254447607E+03  0.50400001928E-02 0.  1.
</event>
<event>
 5   0  0.2689372E-02  0.8290707E+03  0.7818609E-02  0.9518866E-01
       -1   -1    0    0    0  501  0.00000000000E+00  0.00000000000E+00  0.23152475611E+03  0.23152475617E+03  0.50400001928E-02 0.  1.
        1   -1    0    0  501    0  0.00000000000E+00  0.00000000000E+00 -0.74220806731E+03  0.74220806733E+03  0.50400001928E-02 0. -1.
    10030    2    1    2    0    0  0.00000000000E+00  0.00000000000E+00 -0.51068331120E+03  0.97373282350E+03  0.82907066479E+03 0.  0.
        4    1    3    3  502    0 -0.27191185722E+03  0.29963023973E+03 -0.36119930983E+03  0.54238445127E+03  0.12699999809E+01 0. -1.
       -4    1    3    3    0  502  0.27191185722E+03 -0.29963023973E+03 -0.14948400138E+03  0.43134837223E+03  0.12699999809E+01 0.  1.
</event>
<event>
 5   0  0.2769394E-02  0.5230334E+03  0.7818609E-02  0.1007936E+00
        1   -1    0    0  501    0  0.00000000000E+00  0.00000000000E+00  0.12459342156E+04  0.12459342156E+04  0.50400001928E-02 0.  1.
       -1   -1    0    0    0  501  0.00000000000E+00  0.00000000000E+00 -0.54891320645E+02  0.54891320876E+02  0.50400001928E-02 0. -1.
    10030    2    1    2    0    0  0.00000000000E+00  0.00000000000E+00  0.11910428949E+04  0.13008255364E+04  0.52303336293E+03 0.  0.
        2    1    3    3  502    0 -0.89327314804E+02  0.23841092798E+03  0.44688156556E+03  0.51431728864E+03  0.25500000920E-02 0. -1.
       -2    1    3    3    0  502  0.89327314804E+02 -0.23841092798E+03  0.74416132936E+03  0.78650824781E+03  0.25500000920E-02 0.  1.
</event>
<event>
 5   0  0.2635243E-02  0.7955112E+03  0.7818609E-02  0.9566537E-01
        1   -1    0    0  501    0  0.00000000000E+00  0.00000000000E+00  0.10620716085E+04  0.10620716085E+04  0.50400001928E-02 0.  1.
       -1   -1    0    0    0  501  0.00000000000E+00  0.00000000000E+00 -0.14896312188E+03  0.14896312197E+03  0.50400001928E-02 0. -1.
    10030    2    1    2    0    0  0.00000000000E+00  0.00000000000E+00  0.91310848664E+03  0.12110347305E+04  0.79551116279E+03 0.  0.
        1    1    3    3  502    0  0.18595009841E+03 -0.25130676539E+03  0.83092795322E+03  0.88779152558E+03  0.50400001928E-02 0.  1.
       -1    1    3    3    0  502 -0.18595009841E+03  0.25130676539E+03  0.82180533424E+02  0.32324320492E+03  0.50400001928E-02 0. -1.
</event>
<event>
 5   0  0.4684283E-02  0.7889875E+03  0.7818609E-02  0.9576095E-01
       -2   -1    0    0    0  501  0.00000000000E+00  0.00000000000E+00  0.16428957324E+03  0.16428957326E+03  0.25500000920E-02 0. -1.
        2   -1    0    0  501    0  0.00000000000E+00  0.00000000000E+00 -0.94726232717E+03  0.94726232717E+03  0.25500000920E-02 0.  1.
    10030    2    1    2    0    0  0.00000000000E+00  0.00000000000E+00 -0.78297275392E+03  0.11115519004E+04  0.78898751193E+03 0.  0.
        1    1    3    3  502    0  0.24182814285E+03  0.13202916845E+03  0.62758796041E+01  0.27559379290E+03  0.50400001928E-02 0. -1.
       -1    1    3    3    0  502 -0.24182814285E+03 -0.13202916845E+03 -0.78924863353E+03  0.83595810753E+03  0.50400001928E-02 0.  1.
</event>
<event>
 5   0  0.2759559E-02  0.8043381E+03  0.7818609E-02  0.9553759E-01
       -1   -1    0    0    0  501  0.00000000000E+00  0.00000000000E+00  0.39114235632E+03  0.39114235635E+03  0.50400001928E-02 0.  1.
        1   -1    0    0  501    0  0.00000000000E+00  0.00000000000E+00 -0.41350661918E+03  0.41350661921E+03  0.50400001928E-02 0. -1.
    10030    2    1    2    0    0  0.00000000000E+00  0.00000000000E+00 -0.22364262855E+02  0.80464897556E+03  0.80433812145E+03 0.  0.
        3    1    3    3  502    0 -0.36327740015E+02 -0.23859902937E+03  0.31064196600E+03  0.39337976912E+03  0.10100000352E+00 0.  1.
       -3    1    3    3    0  502  0.36327740015E+02  0.23859902937E+03 -0.33300622885E+03  0.41126920644E+03  0.10100000352E+00 0. -1.
</event>
<event>
 5   0  0.2606520E-02  0.8216144E+03  0.7818609E-02  0.9529248E-01
        1   -1    0    0  501    0  0.00000000000E+00  0.00000000000E+00  0.10541291865E+04  0.10541291865E+04  0.50400001928E-02 0. -1.
       -1   -1    0    0    0  501  0.00000000000E+00  0.00000000000E+00 -0.16009665003E+03  0.16009665011E+03  0.50400001928E-02 0.  1.
    10030    2    1    2    0    0  0.00000000000E+00  0.00000000000E+00  0.89403253643E+03  0.12142258366E+04  0.82161439010E+03 0.  0.
        5    1    3    3  502    0  0.37307811598E+02  0.14956907234E+03  0.10097228661E+04  0.10214328840E+04  0.46999998093E+01 0. -1.
       -5    1    3    3    0  502 -0.37307811598E+02 -0.14956907234E+03 -0.11569032963E+03  0.19279295261E+03  0.46999998093E+01 0.  1.
</event>
<event>
 5   0  0.2759559E-02  0.8579464E+03  0.7818609E-02  0.9479733E-01
        1   -1    0    0  501    0  0.00000000000E+00  0.00000000000E+00  0.42651995412E+03  0.42651995415E+03  0.50400001928E-02 0. -1.
       -1   -1    0    0    0  501  0.00000000000E+00  0.00000000000E+00 -0.43144058449E+03  0.43144058452E+03  0.50400001928E-02 0.  1.
    10030    2    1    2    0    0  0.00000000000E+00  0.00000000000E+00 -0.49206303697E+01  0.85796053867E+03  0.85794642800E+03 0.  0.
        3    1    3    3  502    0  0.19433453916E+03  0.24937438100E+03 -0.29240389309E+03  0.43064317236E+03  0.10100000352E+00 0.  1.
       -3    1    3    3    0  502 -0.19433453916E+03 -0.24937438100E+03  0.28748326272E+03  0.42731736631E+03  0.10100000352E+00 0. -1.
</event>
<event>
 5   0  0.4377843E-02  0.7854920E+03  0.7818609E-02  0.9581258E-01
       -2   -1    0    0    0  501  0.00000000000E+00  0.00000000000E+00  0.89181034837E+02  0.89181034873E+02  0.25500000920E-02 0.  1.
        2   -1    0    0  501    0  0.00000000000E+00  0.00000000000E+00 -0.17296212808E+04  0.17296212808E+04  0.25500000920E-02 0. -1.
    10030    2    1    2    0    0  0.00000000000E+00  0.00000000000E+00 -0.16404402460E+04  0.18188023157E+04  0.78549198782E+03 0.  0.
        2    1    3    3  502    0 -0.20339122258E+03 -0.25980525993E+03 -0.32694560569E+03  0.46449993713E+03  0.25500000920E-02 0.  1.
       -2    1    3    3    0  502  0.20339122258E+03  0.25980525993E+03 -0.13134946403E+04  0.13543023786E+04  0.25500000920E-02 0. -1.
</event>
<event>
 5   0  0.4377843E-02  0.7319144E+03  0.7818609E-02  0.9664159E-01
        2   -1    0    0  501    0  0.00000000000E+00  0.00000000000E+00  0.25248216808E+03  0.25248216809E+03  0.25500000920E-02 0.  1.
       -2   -1    0    0    0  501  0.00000000000E+00  0.00000000000E+00 -0.53043223169E+03  0.53043223170E+03  0.25500000920E-02 0. -1.
    10030    2    1    2    0    0  0.00000000000E+00  0.00000000000E+00 -0.27795006361E+03  0.78291439979E+03  0.73191442091E+03 0.  0.
        2    1    3    3  502    0  0.13989125416E+03  0.29953357708E+03 -0.30686628995E+03  0.45106191006E+03  0.25500000920E-02 0. -1.
       -2    1    3    3    0  502 -0.13989125416E+03 -0.29953357708E+03  0.28916226343E+02  0.33185248973E+03  0.25500000920E-02 0.  1.
</event>
<event>
 5   0  0.4700220E-02  0.7909181E+03  0.7818609E-02  0.9573257E-01
       -2   -1    0    0    0  501  0.00000000000E+00  0.00000000000E+00  0.17128818347E+03  0.17128818349E+03  0.25500000920E-02 0.  1.
        2   -1    0    0  501    0  0.00000000000E+00  0.00000000000E+00 -0.91301009725E+03  0.91301009725E+03  0.25500000920E-02 0. -1.
    10030    2    1    2    0    0  0.00000000000E+00  0.00000000000E+00 -0.74172191378E+03  0.10842982807E+04  0.79091805154E+03 0.  0.
        4    1    3    3  502    0 -0.29084487565E+03  0.11333822577E+03 -0.38003002790E+02  0.31445530085E+03  0.12699999809E+01 0.  1.
       -4    1    3    3    0  502  0.29084487565E+03 -0.11333822577E+03 -0.70371891099E+03  0.76984297990E+03  0.12699999809E+01 0. -1.
</event>
<event>
 5   0  0.2606520E-02  0.6837252E+03  0.7818609E-02  0.9745476E-01
        1   -1    0    0  501    0  0.00000000000E+00  0.00000000000E+00  0.11253587773E+04  0.11253587773E+04  0.50400001928E-02 0. -1.
       -1   -1    0    0    0  501  0.00000000000E+00  0.00000000000E+00 -0.10385137114E+03  0.10385137127E+03  0.50400001928E-02 0.  1.
    10030    2    1    2    0    0  0.00000000000E+00  0.00000000000E+00  0.10215074062E+04  0.12292101486E+04  0.68372524346E+03 0.  0.
        5    1    3    3  502    0 -0.26670176249E+03  0.12618281528E+03  0.82108367199E+03  0.87249780481E+03  0.46999998093E+01 0. -1.
       -5    1    3    3    0  502  0.26670176249E+03 -0.12618281528E+03  0.20042373418E+03  0.35671234378E+03  0.46999998093E+01 0.  1.
</event>
<event>
 5   0  0.2759559E-02  0.4801108E+03  0.7818609E-02  0.1019105E+00
       -1   -1    0    0    0  501  0.00000000000E+00  0.00000000000E+00  0.34045403570E+03  0.34045403573E+03  0.50400001928E-02 0.  1.
        1   -1    0    0  501    0  0.00000000000E+00  0.00000000000E+00 -0.16926392401E+03  0.16926392408E+03  0.50400001928E-02 0. -1.
    10030    2    1    2    0    0  0.00000000000E+00  0.00000000000E+00  0.17119011169E+03  0.50971795981E+03  0.48011076245E+03 0.  0.
        3    1    3    3  502    0 -0.12747706641E+03  0.98034128308E+02 -0.10362459067E+03  0.19130906608E+03  0.10100000352E+00 0. -1.
       -3    1    3    3    0  502  0.12747706641E+03 -0.98034128308E+02  0.27481470236E+03  0.31840889373E+03  0.10100000352E+00 0.  1.
</event>
<event>
 5   0  0.2689372E-02  0.8125787E+03  0.7818609E-02  0.9541986E-01
       -1   -1    0    0    0  501  0.00000000000E+00  0.00000000000E+00  0.19410039317E+03  0.19410039324E+03  0.50400001928E-02 0. -1.
        1   -1    0    0  501    0  0.00000000000E+00  0.00000000000E+00 -0.85044150358E+03  0.85044150359E+03  0.50400001928E-02 0.  1.
    10030    2    1    2    0    0  0.00000000000E+00  0.00000000000E+00 -0.65634111041E+03  0.10445418968E+04  0.81257868605E+03 0.  0.
        4    1    3    3  502    0 -0.25582896736E+03 -0.28239770429E+03 -0.50938241545E+03  0.63613597761E+03  0.12699999809E+01 0.  1.
       -4    1    3    3    0  502  0.25582896736E+03  0.28239770429E+03 -0.14695869495E+03  0.40840591922E+03  0.12699999809E+01 0. -1.
</event>
<event>
 5   0  0.4663634E-02  0.7902817E+03  0.7818609E-02  0.9574192E-01
       -2   -1    0    0    0  501  0.00000000000E+00  0.00000000000E+00  0.77918762567E+02  0.77918762609E+02  0.25500000920E-02 0. -1.
        2   -1    0    0  501    0  0.00000000000E+00  0.00000000000E+00 -0.20038340916E+04  0.20038340916E+04  0.25500000920E-02 0.  1.
    10030    2    1    2    0    0  0.00000000000E+00  0.00000000000E+00 -0.19259153291E+04  0.20817528543E+04  0.79028165323E+03 0.  0.
        5    1    3    3  502    0  0.60471206201E+02 -0.12773344174E+02  0.65032674907E+02  0.89840213182E+02  0.46999998093E+01 0. -1.
       -5    1    3    3    0  502 -0.60471206201E+02  0.12773344174E+02 -0.19909480040E+04  0.19919126411E+04  0.46999998093E+01 0.  1.
</event>
<event>
 5   0  0.2759559E-02  0.7787989E+03  0.7818609E-02  0.9591222E-01
       -1   -1    0    0    0  501  0.00000000000E+00  0.00000000000E+00  0.26512070181E+03  0.26512070186E+03  0.50400001928E-02 0.  1.
        1   -1    0    0  501    0  0.00000000000E+00  0.00000000000E+00 -0.57193545442E+03  0.57193545444E+03  0.50400001928E-02 0. -1.
    10030    2    1    2    0    0  0.00000000000E+00  0.00000000000E+00 -0.30681475261E+03  0.83705615631E+03  0.77879889342E+03 0.  0.
        3    1    3    3  502    0  0.31134311311E+03 -0.60685403086E+02 -0.39616719012E+03  0.50750931514E+03  0.10100000352E+00 0. -1.
       -3    1    3    3    0  502 -0.31134311311E+03  0.60685403086E+02  0.89352437509E+02  0.32954684116E+03  0.10100000352E+00 0.  1.
</event>
<event>
 5   0  0.2769394E-02  0.4670332E+03  0.7818609E-02  0.1022761E+00
        1   -1    0    0  501    0  0.00000000000E+00  0.00000000000E+00  0.19172716089E+03  0.19172716095E+03  0.50400001928E-02 0. -1.
       -1   -1    0    0    0  501  0.00000000000E+00  0.00000000000E+00 -0.28441462285E+03  0.28441462290E+03  0.50400001928E-02 0.  1.
    10030    2    1    2    0    0  0.00000000000E+00  0.00000000000E+00 -0.92687461968E+02  0.47614178385E+03  0.46703322443E+03 0.  0.
        2    1    3    3  502    0 -0.16747352884E+03 -0.58447219396E+02 -0.20118253887E+03  0.26821236786E+03  0.25500000920E-02 0.  1.
       -2    1    3    3    0  502  0.16747352884E+03  0.58447219396E+02  0.10849507690E+03  0.20792941600E+03  0.25500000920E-02 0. -1.
</event>
<event>
 5   0  0.4663634E-02  0.7819319E+03  0.7818609E-02  0.9586545E-01
        2   -1    0    0  501    0  0.00000000000E+00  0.00000000000E+00  0.40947409465E+03  0.40947409465E+03  0.25500000920E-02 0.  1.
       -2   -1    0    0    0  501  0.00000000000E+00  0.00000000000E+00 -0.37329434414E+03  0.37329434415E+03  0.25500000920E-02 0. -1.
    10030    2    1    2    0    0  0.00000000000E+00  0.00000000000E+00  0.36179750504E+02  0.78276843881E+03  0.78193187327E+03 0.  0.
        5    1    3    3  502    0  0.31414607743E+03  0.23029379197E+03 -0.15251688559E+02  0.38984316409E+03  0.46999998093E+01 0.  1.
       -5    1    3    3    0  502 -0.31414607743E+03 -0.23029379197E+03  0.51431439063E+02  0.39292527471E+03  0.46999998093E+01 0. -1.
</event>
<event>
 5   0  0.2759559E-02  0.8088511E+03  0.7818609E-02  0.9547293E-01
       -1   -1    0    0    0  501  0.00000000000E+00  0.00000000000E+00  0.58515158808E+03  0.58515158811E+03  0.50400001928E-02 0.  1.
        1   -1    0    0  501    0  0.00000000000E+00  0.00000000000E+00 -0.27951737004E+03  0.27951737009E+03  0.50400001928E-02 0. -1.
    10030    2    1    2    0    0  0.00000000000E+00  0.00000000000E+00  0.30563421804E+03  0.86466895819E+03  0.80885111858E+03 0.  0.
        3    1    3    3  502    0 -0.43707839432E+02  0.20045841212E+03  0.52538787296E+03  0.56402692974E+03  0.10100000352E+00 0.  1.
       -3    1    3    3    0  502  0.43707839432E+02 -0.20045841212E+03 -0.21975365492E+03  0.30064202845E+03  0.10100000352E+00 0. -1.
</event>
<event>
 5   0  0.2759559E-02  0.8005393E+03  0.7818609E-02  0.9559237E-01
       -1   -1    0    0    0  501  0.00000000000E+00  0.00000000000E+00  0.27769018475E+03  0.27769018479E+03  0.50400001928E-02 0. -1.
        1   -1    0    0  501    0  0.00000000000E+00  0.00000000000E+00 -0.57695873327E+03  0.57695873329E+03  0.50400001928E-02 0.  1.
    10030    2    1    2    0    0  0.00000000000E+00  0.00000000000E+00 -0.29926854852E+03  0.85464891808E+03  0.80053926140E+03 0.  0.
        3    1    3    3  502    0 -0.12006010565E+03 -0.35816821606E+03 -0.29093140028E+03  0.47680183498E+03  0.10100000352E+00 0.  1.
       -3    1    3    3    0  502  0.12006010565E+03  0.35816821606E+03 -0.83371482357E+01  0.37784708310E+03  0.10100000352E+00 0. -1.
</event>
<event>
 5   0  0.2759559E-02  0.8296906E+03  0.7818609E-02  0.9518008E-01
        1   -1    0    0  501    0  0.00000000000E+00  0.00000000000E+00  0.67589898070E+03  0.67589898072E+03  0.50400001928E-02 0.  1.
       -1   -1    0    0    0  501  0.00000000000E+00  0.00000000000E+00 -0.25461883232E+03  0.25461883237E+03  0.50400001928E-02 0. -1.
    10030    2    1    2    0    0  0.00000000000E+00  0.00000000000E+00  0.42128014838E+03  0.93051781310E+03  0.82969056706E+03 0.  0.
        3    1    3    3  502    0 -0.19272690580E+03 -0.26270537377E+03  0.49863122432E+03  0.59564325035E+03  0.10100000352E+00 0.  1.
       -3    1    3    3    0  502  0.19272690580E+03  0.26270537377E+03 -0.77351075936E+02  0.33487456274E+03  0.10100000352E+00 0. -1.
</event>
<event>
 5   0  0.1786500E-02  0.8034052E+03  0.7818609E-02  0.9555101E-01
       -4   -1    0    0    0  501  0.00000000000E+00  0.00000000000E+00  0.60031432679E+03  0.60031567017E+03  0.12699999809E+01 0.  1.
        4   -1    0    0  501    0  0.00000000000E+00  0.00000000000E+00 -0.26879765141E+03  0.26880065161E+03  0.12699999809E+01 0. -1.
    10030    2    1    2    0    0  0.00000000000E+00  0.00000000000E+00  0.33151667538E+03  0.86911632178E+03  0.80340517470E+03 0.  0.
        1    1    3    3  502    0  0.25363390147E+03 -0.30559702350E+03  0.23107263303E+03  0.45947171677E+03  0.50400001928E-02 0. -1.
       -1    1    3    3    0  502 -0.25363390147E+03  0.30559702350E+03  0.10044404235E+03  0.40964460501E+03  0.50400001928E-02 0.  1.
</event>
<event>
 5   0  0.2689372E-02  0.7958965E+03  0.7818609E-02  0.9565976E-01
       -1   -1    0    0    0  501  0.00000000000E+00  0.00000000000E+00  0.89909423947E+02  0.89909424088E+02  0.50400001928E-02 0.  1.
        1   -1    0    0  501    0  0.00000000000E+00  0.00000000000E+00 -0.17613594640E+04  0.17613594640E+04  0.50400001928E-02 0. -1.
    10030    2    1    2    0    0  0.00000000000E+00  0.00000000000E+00 -0.16714500400E+04  0.18512688881E+04  0.79589651314E+03 0.  0.
        4    1    3    3  502    0 -0.22800267700E+03  0.30869711439E+02 -0.80492516439E+02  0.24375975448E+03  0.12699999809E+01 0.  1.
       -4    1    3    3    0  502  0.22800267700E+03 -0.30869711439E+02 -0.15909575236E+04  0.16075091336E+04  0.12699999809E+01 0. -1.
</event>
<event>
 5   0  0.2689372E-02  0.7923905E+03  0.7818609E-02  0.9571097E-01
       -1   -1    0    0    0  501  0.00000000000E+00  0.00000000000E+00  0.35040110390E+03  0.35040110393E+03  0.50400001928E-02 0. -1.
        1   -1    0    0  501    0  0.00000000000E+00  0.00000000000E+00 -0.44797426435E+03  0.44797426438E+03  0.50400001928E-02 0.  1.
    10030    2    1    2    0    0  0.00000000000E+00  0.00000000000E+00 -0.97573160453E+02  0.79837536831E+03  0.79239050164E+03 0.  0.
        4    1    3    3  502    0 -0.37490389675E+03  0.12804651687E+03 -0.44255773572E+02  0.39863395324E+03  0.12699999809E+01 0. -1.
       -4    1    3    3    0  502  0.37490389675E+03 -0.12804651687E+03 -0.53317386880E+02  0.39974141507E+03  0.12699999809E+01 0.  1.
</event>
<event>
 5   0  0.4590462E-02  0.9305988E+03  0.7818609E-02  0.9388120E-01
       -2   -1    0    0    0  501  0.00000000000E+00  0.00000000000E+00  0.20973080273E+03  0.20973080275E+03  0.25500000920E-02 0. -1.
        2   -1    0    0  501    0  0.00000000000E+00  0.00000000000E+00 -0.10322923877E+04  0.10322923877E+04  0.25500000920E-02 0.  1.
    10030    2    1    2    0    0  0.00000000000E+00  0.00000000000E+00 -0.82256158497E+03  0.12420231905E+04  0.93059875594E+03 0.  0.
        3    1    3    3  502    0  0.61615457436E+02  0.40499938658E+03 -0.11680213695E+03  0.42598558323E+03  0.10100000352E+00 0. -1.
       -3    1    3    3    0  502 -0.61615457436E+02 -0.40499938658E+03 -0.70575944802E+03  0.81603760722E+03  0.10100000352E+00 0.  1.
</event>
<event>
 5   0  0.4700220E-02  0.7893960E+03  0.7818609E-02  0.9575494E-01
       -2   -1    0    0    0  501  0.00000000000E+00  0.00000000000E+00  0.15037262895E+03  0.15037262897E+03  0.25500000920E-02 0. -1.
        2   -1    0    0  501    0  0.00000000000E+00  0.00000000000E+00 -0.10360031226E+04  0.10360031226E+04  0.25500000920E-02 0.  1.
    10030    2    1    2    0    0  0.00000000000E+00  0.00000000000E+00 -0.88563049362E+03  0.11863757515E+04  0.78939600493E+03 0.  0.
        4    1    3    3  502    0 -0.14928188617E+03 -0.35854454324E+03 -0.54850627297E+03  0.67208631545E+03  0.12699999809E+01 0.  1.
       -4    1    3    3    0  502  0.14928188617E+03  0.35854454324E+03 -0.33712422065E+03  0.51428943609E+03  0.12699999809E+01 0. -1.
</event>
<event>
 5   0  0.4700220E-02  0.8143320E+03  0.7818609E-02  0.9539501E-01
       -2   -1    0    0    0  501  0.00000000000E+00  0.00000000000E+00  0.11756179005E+03  0.11756179007E+03  0.25500000920E-02 0. -1.
        2   -1    0    0  501    0  0.00000000000E+00  0.00000000000E+00 -0.14101875026E+04  0.14101875026E+04  0.25500000920E-02 0.  1.
    10030    2    1    2    0    0  0.00000000000E+00  0.00000000000E+00 -0.12926257125E+04  0.15277492926E+04  0.81433203824E+03 0.  0.
        4    1    3    3  502    0  0.31493919932E+03 -0.25980079288E+02 -0.16462898761E+03  0.35632285957E+03  0.12699999809E+01 0.  1.
       -4    1    3    3    0  502 -0.31493919932E+03  0.25980079288E+02 -0.11279967249E+04  0.11714264331E+04  0.12699999809E+01 0. -1.
</event>
<event>
 5   0  0.2606520E-02  0.7699762E+03  0.7818609E-02  0.9604522E-01
        1   -1    0    0  501    0  0.00000000000E+00  0.00000000000E+00  0.16144246033E+04  0.16144246034E+04  0.50400001928E-02 0. -1.
       -1   -1    0    0    0  501  0.00000000000E+00  0.00000000000E+00 -0.91807219946E+02  0.91807220084E+02  0.50400001928E-02 0.  1.
    10030    2    1    2    0    0  0.00000000000E+00  0.00000000000E+00  0.15226173834E+04  0.17062318234E+04  0.76997619384E+03 0.  0.
        5    1    3    3  502    0 -0.20522329299E+03 -0.13525313091E+03  0.14178586355E+04  0.14390118866E+04  0.46999998093E+01 0. -1.
       -5    1    3    3    0  502  0.20522329299E+03  0.13525313091E+03  0.10475874791E+03  0.26721993689E+03  0.46999998093E+01 0.  1.
</event>
<event>
 5   0  0.2759559E-02  0.7961979E+03  0.7818609E-02  0.9565537E-01
        1   -1    0    0  501    0  0.00000000000E+00  0.00000000000E+00  0.14174502424E+03  0.14174502433E+03  0.50400001928E-02 0.  1.
       -1   -1    0    0    0  501  0.00000000000E+00  0.00000000000E+00 -0.11180836302E+04  0.11180836302E+04  0.50400001928E-02 0. -1.
    10030    2    1    2    0    0  0.00000000000E+00  0.00000000000E+00 -0.97633860597E+03  0.12598286546E+04  0.79619794355E+03 0.  0.
        3    1    3    3  502    0 -0.28225505169E+02  0.36140702069E+03 -0.74851063374E+03  0.83167294820E+03  0.10100000352E+00 0. -1.
       -3    1    3    3    0  502  0.28225505169E+02 -0.36140702069E+03 -0.22782797223E+03  0.42815570635E+03  0.10100000352E+00 0.  1.
</event>
<event>
 5   0  0.4700220E-02  0.5112402E+03  0.7818609E-02  0.1010886E+00
        2   -1    0    0  501    0  0.00000000000E+00  0.00000000000E+00  0.97378613906E+03  0.97378613906E+03  0.25500000920E-02 0. -1.
       -2   -1    0    0    0  501  0.00000000000E+00  0.00000000000E+00 -0.67100599452E+02  0.67100599501E+02  0.25500000920E-02 0.  1.
    10030    2    1    2    0    0  0.00000000000E+00  0.00000000000E+00  0.90668553960E+03  0.10408867386E+04  0.51124019285E+03 0.  0.
        4    1    3    3  502    0  0.21115498624E+03 -0.78099663961E+02  0.69980881631E+03  0.73513262613E+03  0.12699999809E+01 0. -1.
       -4    1    3    3    0  502 -0.21115498624E+03  0.78099663961E+02  0.20687672330E+03  0.30575411243E+03  0.12699999809E+01 0.  1.
</event>
<event>
 5   0  0.4663634E-02  0.8325284E+03  0.7818609E-02  0.9514091E-01
        2   -1    0    0  501    0  0.00000000000E+00  0.00000000000E+00  0.11339949967E+04  0.11339949967E+04  0.25500000920E-02 0. -1.
       -2   -1    0    0    0  501  0.00000000000E+00  0.00000000000E+00 -0.15280127620E+03  0.15280127623E+03  0.25500000920E-02 0.  1.
    10030    2    1    2    0    0  0.00000000000E+00  0.00000000000E+00  0.98119372050E+03  0.12867962729E+04  0.83252839644E+03 0.  0.
        5    1    3    3  502    0 -0.27394580396E+03 -0.82015329032E+02  0.95809095684E+03  0.99986658574E+03  0.46999998093E+01 0. -1.
       -5    1    3    3    0  502  0.27394580396E+03  0.82015329032E+02  0.23102763661E+02  0.28692968719E+03  0.46999998093E+01 0.  1.
</event>
<event>
 5   0  0.2606520E-02  0.7932892E+03  0.7818609E-02  0.9569782E-01
        1   -1    0    0  501    0  0.00000000000E+00  0.00000000000E+00  0.13594592949E+04  0.13594592949E+04  0.50400001928E-02 0. -1.
       -1   -1    0    0    0  501  0.00000000000E+00  0.00000000000E+00 -0.11572757463E+03  0.11572757474E+03  0.50400001928E-02 0.  1.
    10030    2    1    2    0    0  0.00000000000E+00  0.00000000000E+00  0.12437317203E+04  0.14751868697E+04  0.79328917072E+03 0.  0.
        5    1    3    3  502    0  0.16927915592E+03 -0.86580958167E+02  0.12691319478E+04  0.12833042063E+04  0.46999998093E+01 0. -1.
       -5    1    3    3    0  502 -0.16927915592E+03  0.86580958167E+02 -0.25400227516E+02  0.19188266337E+03  0.46999998093E+01 0.  1.
</event>
<event>
 5   0  0.2759559E-02  0.7809529E+03  0.7818609E-02  0.9588004E-01
        1   -1    0    0  501    0  0.00000000000E+00  0.00000000000E+00  0.11086973468E+04  0.11086973469E+04  0.50400001928E-02 0. -1.
       -1   -1    0    0    0  501  0.00000000000E+00  0.00000000000E+00 -0.13752341516E+03  0.13752341525E+03  0.50400001928E-02 0.  1.
    10030    2    1    2    0    0  0.00000000000E+00  0.00000000000E+00  0.97117393169E+03  0.12462207621E+04  0.78095286818E+03 0.  0.
        3    1    3    3  502    0  0.20938006740E+03 -0.32775405246E+03  0.54107533491E+03  0.66635220400E+03  0.10100000352E+00 0.  1.
       -3    1    3    3    0  502 -0.20938006740E+03  0.32775405246E+03  0.43009859678E+03  0.57986855811E+03  0.10100000352E+00 0. -1.
</event>
<event>
 5   0  0.4377843E-02  0.8093014E+03  0.7818609E-02  0.9546650E-01
        2   -1    0    0  501    0  0.00000000000E+00  0.00000000000E+00  0.75888324052E+03  0.75888324052E+03  0.25500000920E-02 0. -1.
       -2   -1    0    0    0  501  0.00000000000E+00  0.00000000000E+00 -0.21576729018E+03  0.21576729020E+03  0.25500000920E-02 0.  1.
    10030    2    1    2    0    0  0.00000000000E+00  0.00000000000E+00  0.54311595034E+03  0.97465053072E+03  0.80930137868E+03 0.  0.
        2    1    3    3  502    0 -0.10630171712E+03  0.54452133685E+02  0.73717190134E+03  0.74678477627E+03  0.25500000920E-02 0. -1.
       -2    1    3    3    0  502  0.10630171712E+03 -0.54452133685E+02 -0.19405595101E+03  0.22786575446E+03  0.25500000920E-02 0.  1.
</event>
<event>
 5   0  0.4663634E-02  0.8196481E+03  0.7818609E-02  0.9532005E-01
       -2   -1    0    0    0  501  0.00000000000E+00  0.00000000000E+00  0.97457154724E+02  0.97457154758E+02  0.25500000920E-02 0.  1.
        2   -1    0    0  501    0  0.00000000000E+00  0.00000000000E+00 -0.17233802649E+04  0.17233802649E+04  0.25500000920E-02 0. -1.
    10030    2    1    2    0    0  0.00000000000E+00  0.00000000000E+00 -0.16259231102E+04  0.18208374197E+04  0.81964806389E+03 0.  0.
        5    1    3    3  502    0  0.33696960093E+03 -0.14481634649E+03 -0.12190342933E+04  0.12730227745E+04  0.46999998093E+01 0. -1.
       -5    1    3    3    0  502 -0.33696960093E+03  0.14481634649E+03 -0.40688881689E+03  0.54781464517E+03  0.46999998093E+01 0.  1.
</event>
<event>
 5   0  0.4684283E-02  0.8032112E+03  0.7818609E-02  0.9555381E-01
        2   -1    0    0  501    0  0.00000000000E+00  0.00000000000E+00  0.22085389183E+03  0.22085389184E+03  0.25500000920E-02 0. -1.
       -2   -1    0    0    0  501  0.00000000000E+00  0.00000000000E+00 -0.73028856180E+03  0.73028856180E+03  0.25500000920E-02 0.  1.
    10030    2    1    2    0    0  0.00000000000E+00  0.00000000000E+00 -0.50943466997E+03  0.95114245365E+03  0.80321123259E+03 0.  0.
        1    1    3    3  502    0 -0.27451301236E+03  0.10144665891E+03  0.70959250780E+02  0.30113789841E+03  0.50400001928E-02 0. -1.
       -1    1    3    3    0  502  0.27451301236E+03 -0.10144665891E+03 -0.58039392075E+03  0.65000455524E+03  0.50400001928E-02 0.  1.
</event>
<event>
 5   0  0.4700220E-02  0.8128054E+03  0.7818609E-02  0.9541665E-01
       -2   -1    0    0    0  501  0.00000000000E+00  0.00000000000E+00  0.22808779552E+03  0.22808779553E+03  0.25500000920E-02 0. -1.
        2   -1    0    0  501    0  0.00000000000E+00  0.00000000000E+00 -0.72412102464E+03  0.72412102465E+03  0.25500000920E-02 0.  1.
    10030    2    1    2    0    0  0.00000000000E+00  0.00000000000E+00 -0.49603322912E+03  0.95220882018E+03  0.81280543357E+03 0.  0.
        4    1    3    3  502    0 -0.10402369855E+03 -0.18816488234E+03 -0.65203368434E+03  0.68656863547E+03  0.12699999809E+01 0.  1.
       -4    1    3    3    0  502  0.10402369855E+03  0.18816488234E+03  0.15600045521E+03  0.26564018471E+03  0.12699999809E+01 0. -1.
</event>
<event>
 5   0  0.4663634E-02  0.8085903E+03  0.7818609E-02  0.9547666E-01
       -2   -1    0    0    0  501  0.00000000000E+00  0.00000000000E+00  0.21536627051E+03  0.21536627053E+03  0.25500000920E-02 0. -1.
        2   -1    0    0  501    0  0.00000000000E+00  0.00000000000E+00 -0.75896078372E+03  0.75896078373E+03  0.25500000920E-02 0.  1.
    10030    2    1    2    0    0  0.00000000000E+00  0.00000000000E+00 -0.54359451321E+03  0.97432705425E+03  0.80859026327E+03 0.  0.
        5    1    3    3  502    0 -0.32046608766E+03 -0.22080436153E+03 -0.13991283512E+03  0.41358284641E+03  0.46999998093E+01 0. -1.
       -5    1    3    3    0  502  0.32046608766E+03  0.22080436153E+03 -0.40368167809E+03  0.56074420785E+03  0.46999998093E+01 0.  1.
</event>
<event>
 5   0  0.4590462E-02  0.8067222E+03  0.7818609E-02  0.9550338E-01
        2   -1    0    0  501    0  0.00000000000E+00  0.00000000000E+00  0.30309162937E+03  0.30309162938E+03  0.25500000920E-02 0.  1.
       -2   -1    0    0    0  501  0.00000000000E+00  0.00000000000E+00 -0.53680197562E+03  0.53680197562E+03  0.25500000920E-02 0. -1.
    10030    2    1    2    0    0  0.00000000000E+00  0.00000000000E+00 -0.23371034625E+03  0.83989360500E+03  0.80672222095E+03 0.  0.
        3    1    3    3  502    0  0.17963958784E+03  0.32665508406E+02  0.25760435736E+03  0.31574900172E+03  0.10100000352E+00 0.  1.
       -3    1    3    3    0  502 -0.17963958784E+03 -0.32665508406E+02 -0.49131470361E+03  0.52414460328E+03  0.10100000352E+00 0. -1.
</event>
<event>
 5   0  0.2769394E-02  0.7989113E+03  0.7818609E-02  0.9561594E-01
        1   -1    0    0  501    0  0.00000000000E+00  0.00000000000E+00  0.86305744758E+03  0.86305744760E+03  0.50400001928E-02 0.  1.
       -1   -1    0    0    0  501  0.00000000000E+00  0.00000000000E+00 -0.18488317262E+03  0.18488317269E+03  0.50400001928E-02 0. -1.
    10030    2    1    2    0    0  0.00000000000E+00  0.00000000000E+00  0.67817427496E+03  0.10479406203E+04  0.79891125692E+03 0.  0.
        2    1    3    3  502    0 -0.46998186619E+02 -0.37487214848E+03  0.50924007093E+03  0.63408470025E+03  0.25500000920E-02 0.  1.
       -2    1    3    3    0  502  0.46998186619E+02  0.37487214848E+03  0.16893420403E+03  0.41385592003E+03  0.25500000920E-02 0. -1.
</event>
<event>
 5   0  0.4663634E-02  0.7943084E+03  0.7818609E-02  0.9568292E-01
       -2   -1    0    0    0  501  0.00000000000E+00  0.00000000000E+00  0.57412229613E+03  0.57412229613E+03  0.25500000920E-02 0. -1.
        2   -1    0    0  501    0  0.00000000000E+00  0.00000000000E+00 -0.27473493396E+03  0.27473493397E+03  0.25500000920E-02 0.  1.
    10030    2    1    2    0    0  0.00000000000E+00  0.00000000000E+00  0.29938736216E+03  0.84885723010E+03  0.79430838122E+03 0.  0.
        5    1    3    3  502    0 -0.54498646088E+02  0.31784973715E+03 -0.97977987958E+02  0.33707615454E+03  0.46999998093E+01 0.  1.
       -5    1    3    3    0  502  0.54498646088E+02 -0.31784973715E+03  0.39736535012E+03  0.51178107557E+03  0.46999998093E+01 0. -1.
</event>
<event>
 5   0  0.2606520E-02  0.7766255E+03  0.7818609E-02  0.9594481E-01
        1   -1    0    0  501    0  0.00000000000E+00  0.00000000000E+00  0.29767380269E+03  0.29767380274E+03  0.50400001928E-02 0.  1.
       -1   -1    0    0    0  501  0.00000000000E+00  0.00000000000E+00 -0.50655040663E+03  0.50655040665E+03  0.50400001928E-02 0. -1.
    10030    2    1    2    0    0  0.00000000000E+00  0.00000000000E+00 -0.20887660393E+03  0.80422420939E+03  0.77662548458E+03 0.  0.
        5    1    3    3  502    0  0.36436642449E+03  0.13230093700E+03 -0.81323169257E+02  0.39610854205E+03  0.46999998093E+01 0. -1.
       -5    1    3    3    0  502 -0.36436642449E+03 -0.13230093700E+03 -0.12755343467E+03  0.40811566734E+03  0.46999998093E+01 0.  1.
</event>
<event>
 5   0  0.2606520E-02  0.7984504E+03  0.7818609E-02  0.9562263E-01
        1   -1    0    0  501    0  0.00000000000E+00  0.00000000000E+00  0.27016906351E+03  0.27016906356E+03  0.50400001928E-02 0.  1.
       -1   -1    0    0    0  501  0.00000000000E+00  0.00000000000E+00 -0.58992968961E+03  0.58992968963E+03  0.50400001928E-02 0. -1.
    10030    2    1    2    0    0  0.00000000000E+00  0.00000000000E+00 -0.31976062610E+03  0.86009875319E+03  0.79845037870E+03 0.  0.
        5    1    3    3  502    0 -0.28104918271E+02 -0.37349428756E+03 -0.30863982944E+03  0.48535399821E+03  0.46999998093E+01 0.  1.
       -5    1    3    3    0  502  0.28104918271E+02  0.37349428756E+03 -0.11120796660E+02  0.37474475498E+03  0.46999998093E+01 0. -1.
</event>
<event>
 5   0  0.2606520E-02  0.7934370E+03  0.7818609E-02  0.9569566E-01
       -1   -1    0    0    0  501  0.00000000000E+00  0.00000000000E+00  0.49318602316E+03  0.49318602319E+03  0.50400001928E-02 0. -1.
        1   -1    0    0  501    0  0.00000000000E+00  0.00000000000E+00 -0.31912008896E+03  0.31912008900E+03  0.50400001928E-02 0.  1.
    10030    2    1    2    0    0  0.00000000000E+00  0.00000000000E+00  0.17406593420E+03  0.81230611219E+03  0.79343699841E+03 0.  0.
        5    1    3    3  502    0 -0.21290518016E+03  0.22613324856E+03  0.33967812765E+03  0.46029141013E+03  0.46999998093E+01 0. -1.
       -5    1    3    3    0  502  0.21290518016E+03 -0.22613324856E+03 -0.16561219345E+03  0.35201470205E+03  0.46999998093E+01 0.  1.
</event>
<event>
 5   0  0.2689372E-02  0.7529913E+03  0.7818609E-02  0.9630669E-01
        1   -1    0    0  501    0  0.00000000000E+00  0.00000000000E+00  0.32655751908E+03  0.32655751911E+03  0.50400001928E-02 0. -1.
       -1   -1    0    0    0  501  0.00000000000E+00  0.00000000000E+00 -0.43407046276E+03  0.43407046279E+03  0.50400001928E-02 0.  1.
    10030    2    1    2    0    0  0.00000000000E+00  0.00000000000E+00 -0.10751294369E+03  0.76062798191E+03  0.75299129729E+03 0.  0.
        4    1    3    3  502    0 -0.35623909789E+03 -0.99201901462E+02 -0.12518462919E+03  0.39041018994E+03  0.12699999809E+01 0. -1.
       -4    1    3    3    0  502  0.35623909789E+03  0.99201901462E+02  0.17671685501E+02  0.37021779197E+03  0.12699999809E+01 0.  1.
</event>
<event>
 5   0  0.4590462E-02  0.8021899E+03  0.7818609E-02  0.9556853E-01
       -2   -1    0    0    0  501  0.00000000000E+00  0.00000000000E+00  0.22079321967E+03  0.22079321968E+03  0.25500000920E-02 0. -1.
        2   -1    0    0  501    0  0.00000000000E+00  0.00000000000E+00 -0.72863265784E+03  0.72863265784E+03  0.25500000920E-02 0.  1.
    10030    2    1    2    0    0  0.00000000000E+00  0.00000000000E+00 -0.50783943817E+03  0.94942587752E+03  0.80218987899E+03 0.  0.
        3    1    3    3  502    0 -0.38625049119E+03  0.64403335733E+02 -0.15114958346E+03  0.41974210937E+03  0.10100000352E+00 0. -1.
       -3    1    3    3    0  502  0.38625049119E+03 -0.64403335733E+02 -0.35668985471E+03  0.52968376816E+03  0.10100000352E+00 0.  1.
</event>
<event>
 5   0  0.1786500E-02  0.7986426E+03  0.7818609E-02  0.9561984E-01
       -4   -1    0    0    0  501  0.00000000000E+00  0.00000000000E+00  0.74966527282E+03  0.74966634857E+03  0.12699999809E+01 0. -1.
        4   -1    0    0  501    0  0.00000000000E+00  0.00000000000E+00 -0.21270180547E+03  0.21270559689E+03  0.12699999809E+01 0.  1.
    10030    2    1    2    0    0  0.00000000000E+00  0.00000000000E+00  0.53696346736E+03  0.96237194546E+03  0.79864259599E+03 0.  0.
        4    1    3    3  502    0 -0.35692504497E+03  0.14168974982E+03  0.13656530915E+03  0.40758210154E+03  0.12699999809E+01 0.  1.
       -4    1    3    3    0  502  0.35692504497E+03 -0.14168974982E+03  0.40039815821E+03  0.55478984393E+03  0.12699999809E+01 0. -1.
</event>
<event>
 5   0  0.2689372E-02  0.8061283E+03  0.7818609E-02  0.9551189E-01
       -1   -1    0    0    0  501  0.00000000000E+00  0.00000000000E+00  0.15670596723E+03  0.15670596731E+03  0.50400001928E-02 0.  1.
        1   -1    0    0  501    0  0.00000000000E+00  0.00000000000E+00 -0.10367232244E+04  0.10367232244E+04  0.50400001928E-02 0. -1.
    10030    2    1    2    0    0  0.00000000000E+00  0.00000000000E+00 -0.88001725714E+03  0.11934291917E+04  0.80612831654E+03 0.  0.
        4    1    3    3  502    0 -0.38194617026E+03 -0.12853950694E+03 -0.45086958820E+03  0.60472330887E+03  0.12699999809E+01 0. -1.
       -4    1    3    3    0  502  0.38194617026E+03  0.12853950694E+03 -0.42914766894E+03  0.58870588283E+03  0.12699999809E+01 0.  1.
</event>
<event>
 5   0  0.4377843E-02  0.7949228E+03  0.7818609E-02  0.9567395E-01
       -2   -1    0    0    0  501  0.00000000000E+00  0.00000000000E+00  0.91406594953E+02  0.91406594989E+02  0.25500000920E-02 0. -1.
        2   -1    0    0  501    0  0.00000000000E+00  0.00000000000E+00 -0.17282733063E+04  0.17282733063E+04  0.25500000920E-02 0.  1.
    10030    2    1    2    0    0  0.00000000000E+00  0.00000000000E+00 -0.16368667114E+04  0.18196799013E+04  0.79492283428E+03 0.  0.
        2    1    3    3  502    0 -0.19663710835E+03  0.29082471915E+03 -0.12450374030E+04  0.12935854454E+04  0.25500000920E-02 0.  1.
       -2    1    3    3    0  502  0.19663710835E+03 -0.29082471915E+03 -0.39182930835E+03  0.52609445591E+03  0.25500000920E-02 0. -1.
</event>
<event>
 5   0  0.4377843E-02  0.6453050E+03  0.7818609E-02  0.9815629E-01
        2   -1    0    0  501    0  0.00000000000E+00  0.00000000000E+00  0.98670011841E+03  0.98670011842E+03  0.25500000920E-02 0.  1.
       -2   -1    0    0    0  501  0.00000000000E+00  0.00000000000E+00 -0.10550786611E+03  0.10550786614E+03  0.25500000920E-02 0. -1.
    10030    2    1    2    0    0  0.00000000000E+00  0.00000000000E+00  0.88119225230E+03  0.10922079846E+04  0.64530496357E+03 0.  0.
        2    1    3    3  502    0  0.15772892698E+03  0.23541399558E+03  0.17944749456E+03  0.33540955119E+03  0.25500000920E-02 0. -1.
       -2    1    3    3    0  502 -0.15772892698E+03 -0.23541399558E+03  0.70174475774E+03  0.75679843336E+03  0.25500000920E-02 0.  1.
</event>
<event>
 5   0  0.2689372E-02  0.7826486E+03  0.7818609E-02  0.9585478E-01
       -1   -1    0    0    0  501  0.00000000000E+00  0.00000000000E+00  0.99388192922E+02  0.99388193049E+02  0.50400001928E-02 0. -1.
        1   -1    0    0  501    0  0.00000000000E+00  0.00000000000E+00 -0.15407736692E+04  0.15407736692E+04  0.50400001928E-02 0.  1.
    10030    2    1    2    0    0  0.00000000000E+00  0.00000000000E+00 -0.14413854763E+04  0.16401618622E+04  0.78264860772E+03 0.  0.
        4    1    3    3  502    0  0.25733152694E+03 -0.13939812554E+03 -0.17629909311E+03  0.34166406790E+03  0.12699999809E+01 0. -1.
       -4    1    3    3    0  502 -0.25733152694E+03  0.13939812554E+03 -0.12650863832E+04  0.12984977943E+04  0.12699999809E+01 0.  1.
</event>
<event>
 5   0  0.4663634E-02  0.7868505E+03  0.7818609E-02  0.9579248E-01
        2   -1    0    0  501    0  0.00000000000E+00  0.00000000000E+00  0.27380323042E+03  0.27380323043E+03  0.25500000920E-02 0. -1.
       -2   -1    0    0    0  501  0.00000000000E+00  0.00000000000E+00 -0.56530899923E+03  0.56530899923E+03  0.25500000920E-02 0.  1.
    10030    2    1    2    0    0  0.00000000000E+00  0.00000000000E+00 -0.29150576881E+03  0.83911222966E+03  0.78685050722E+03 0.  0.
        5    1    3    3  502    0  0.12938928645E+03 -0.23368064726E+03  0.16224304231E+03  0.31255899784E+03  0.46999998093E+01 0. -1.
       -5    1    3    3    0  502 -0.12938928645E+03  0.23368064726E+03 -0.45374881112E+03  0.52655323182E+03  0.46999998093E+01 0.  1.
</event>
<event>
 5   0  0.2759559E-02  0.6147750E+03  0.7818609E-02  0.9875218E-01
        1   -1    0    0  501    0  0.00000000000E+00  0.00000000000E+00  0.11073662051E+04  0.11073662051E+04  0.50400001928E-02 0.  1.
       -1   -1    0    0    0  501  0.00000000000E+00  0.00000000000E+00 -0.85325958324E+02  0.85325958472E+02  0.50400001928E-02 0. -1.
    10030    2    1    2    0    0  0.00000000000E+00  0.00000000000E+00  0.10220402468E+04  0.11926921636E+04  0.61477502474E+03 0.  0.
        3    1    3    3  502    0 -0.24700393080E+03  0.18137193044E+03  0.46428337629E+03  0.55629648811E+03  0.10100000352E+00 0. -1.
       -3    1    3    3    0  502  0.24700393080E+03 -0.18137193044E+03  0.55775687048E+03  0.63639567547E+03  0.10100000352E+00 0.  1.
</event>
<event>
 5   0  0.4700220E-02  0.8128630E+03  0.7818609E-02  0.9541583E-01
       -2   -1    0    0    0  501  0.00000000000E+00  0.00000000000E+00  0.23112015370E+03  0.23112015371E+03  0.25500000920E-02 0.  1.
        2   -1    0    0  501    0  0.00000000000E+00  0.00000000000E+00 -0.71472166046E+03  0.71472166046E+03  0.25500000920E-02 0. -1.
    10030    2    1    2    0    0  0.00000000000E+00  0.00000000000E+00 -0.48360150676E+03  0.94584181418E+03  0.81286303896E+03 0.  0.
        4    1    3    3  502    0 -0.31065921523E+03  0.19262311885E+03 -0.44855442649E+03  0.57863243976E+03  0.12699999809E+01 0. -1.
       -4    1    3    3    0  502  0.31065921523E+03 -0.19262311885E+03 -0.35047080270E+02  0.36720937441E+03  0.12699999809E+01 0.  1.
</event>
<event>
 5   0  0.1786500E-02  0.8392195E+03  0.7818609E-02  0.9504922E-01
        3   -1    0    0  501    0  0.00000000000E+00  0.00000000000E+00  0.39351559940E+03  0.39351561236E+03  0.10100000352E+00 0. -1.
       -3   -1    0    0    0  501  0.00000000000E+00  0.00000000000E+00 -0.44743413503E+03  0.44743414643E+03  0.10100000352E+00 0.  1.
    10030    2    1    2    0    0  0.00000000000E+00  0.00000000000E+00 -0.53918535630E+02  0.84094975879E+03  0.83921945183E+03 0.  0.
        4    1    3    3  502    0 -0.19239290336E+03  0.11498896698E+03  0.32850189667E+03  0.39768404646E+03  0.12699999809E+01 0. -1.
       -4    1    3    3    0  502  0.19239290336E+03 -0.11498896698E+03 -0.38242043230E+03  0.44326571234E+03  0.12699999809E+01 0.  1.
</event>
<event>
 5   0  0.1786500E-02  0.7880759E+03  0.7818609E-02  0.9577439E-01
       -4   -1    0    0    0  501  0.00000000000E+00  0.00000000000E+00  0.24566017764E+03  0.24566346041E+03  0.12699999809E+01 0. -1.
        4   -1    0    0  501    0  0.00000000000E+00  0.00000000000E+00 -0.63202719053E+03  0.63202846651E+03  0.12699999809E+01 0.  1.
    10030    2    1    2    0    0  0.00000000000E+00  0.00000000000E+00 -0.38636701289E+03  0.87769192691E+03  0.78807591634E+03 0.  0.
        4    1    3    3  502    0  0.10764204793E+03  0.17306835665E+03 -0.56876285298E+03  0.60417899863E+03  0.12699999809E+01 0.  1.
       -4    1    3    3    0  502 -0.10764204793E+03 -0.17306835665E+03  0.18239584009E+03  0.27351292828E+03  0.12699999809E+01 0. -1.
</event>
<event>
 5   0  0.2635243E-02  0.1086695E+04  0.7818609E-02  0.9218258E-01
       -1   -1    0    0    0  501  0.00000000000E+00  0.00000000000E+00  0.19101669748E+04  0.19101669748E+04  0.50400001928E-02 0. -1.
        1   -1    0    0  501    0  0.00000000000E+00  0.00000000000E+00 -0.15455533028E+03  0.15455533036E+03  0.50400001928E-02 0.  1.
    10030    2    1    2    0    0  0.00000000000E+00  0.00000000000E+00  0.17556116445E+04  0.20647223051E+04  0.10866949669E+04 0.  0.
        1    1    3    3  502    0 -0.39413839097E+03 -0.37167388555E+03  0.79855184900E+03  0.96497233328E+03  0.50400001928E-02 0.  1.
       -1    1    3    3    0  502  0.39413839097E+03  0.37167388555E+03  0.95705979550E+03  0.10997499719E+04  0.50400001928E-02 0. -1.
</event>
<event>
 5   0  0.2635243E-02  0.8127397E+03  0.7818609E-02  0.9541758E-01
        1   -1    0    0  501    0  0.00000000000E+00  0.00000000000E+00  0.29163142177E+03  0.29163142181E+03  0.50400001928E-02 0.  1.
       -1   -1    0    0    0  501  0.00000000000E+00  0.00000000000E+00 -0.56625052536E+03  0.56625052538E+03  0.50400001928E-02 0. -1.
    10030    2    1    2    0    0  0.00000000000E+00  0.00000000000E+00 -0.27461910359E+03  0.85788194719E+03  0.81273967743E+03 0.  0.
        1    1    3    3  502    0 -0.32765635690E+03  0.55388714725E+02  0.10958347282E+03  0.34990732413E+03  0.50400001928E-02 0.  1.
       -1    1    3    3    0  502  0.32765635690E+03 -0.55388714725E+02 -0.38420257641E+03  0.50797462307E+03  0.50400001928E-02 0. -1.
</event>
<event>
 5   0  0.2759559E-02  0.7890070E+03  0.7818609E-02  0.9576067E-01
        1   -1    0    0  501    0  0.00000000000E+00  0.00000000000E+00  0.59593077283E+03  0.59593077285E+03  0.50400001928E-02 0. -1.
       -1   -1    0    0    0  501  0.00000000000E+00  0.00000000000E+00 -0.26115953523E+03  0.26115953528E+03  0.50400001928E-02 0.  1.
    10030    2    1    2    0    0  0.00000000000E+00  0.00000000000E+00  0.33477123760E+03  0.85709030813E+03  0.78900698018E+03 0.  0.
        3    1    3    3  502    0  0.19618487458E+02  0.35498613253E+03 -0.18344395248E+02  0.35600079547E+03  0.10100000352E+00 0.  1.
       -3    1    3    3    0  502 -0.19618487458E+02 -0.35498613253E+03  0.35311563285E+03  0.50108951266E+03  0.10100000352E+00 0. -1.
</event>
<event>
 5   0  0.4700220E-02  0.8062816E+03  0.7818609E-02  0.9550969E-01
       -2   -1    0    0    0  501  0.00000000000E+00  0.00000000000E+00  0.45632327329E+03  0.45632327330E+03  0.25500000920E-02 0.  1.
        2   -1    0    0  501    0  0.00000000000E+00  0.00000000000E+00 -0.35615648527E+03  0.35615648528E+03  0.25500000920E-02 0. -1.
    10030    2    1    2    0    0  0.00000000000E+00  0.00000000000E+00  0.10016678802E+03  0.81247975858E+03  0.80628157158E+03 0.  0.
        4    1    3    3  502    0 -0.34070748828E+03 -0.20431753098E+03 -0.18953371843E+02  0.39772866283E+03  0.12699999809E+01 0. -1.
       -4    1    3    3    0  502  0.34070748828E+03  0.20431753098E+03  0.11912015987E+03  0.41475109575E+03  0.12699999809E+01 0.  1.
</event>
<event>
 5   0  0.4684283E-02  0.7229813E+03  0.7818609E-02  0.9678719E-01
        2   -1    0    0  501    0  0.00000000000E+00  0.00000000000E+00  0.18092722031E+04  0.18092722031E+04  0.25500000920E-02 0. -1.
       -2   -1    0    0    0  501  0.00000000000E+00  0.00000000000E+00 -0.72225451641E+02  0.72225451686E+02  0.25500000920E-02 0.  1.
    10030    2    1    2    0    0  0.00000000000E+00  0.00000000000E+00  0.17370467515E+04  0.18814976548E+04  0.72298133325E+03 0.  0.
        1    1    3    3  502    0  0.11936997369E+03 -0.76251406998E+02  0.17340447292E+04  0.17398202754E+04  0.50400001928E-02 0. -1.
       -1    1    3    3    0  502 -0.11936997369E+03  0.76251406998E+02  0.30020223027E+01  0.14167737946E+03  0.50400001928E-02 0.  1.
</event>
<event>
 5   0  0.1786500E-02  0.7612121E+03  0.7818609E-02  0.9617923E-01
        4   -1    0    0  501    0  0.00000000000E+00  0.00000000000E+00  0.17349379918E+03  0.17349844741E+03  0.12699999809E+01 0. -1.
       -4   -1    0    0    0  501  0.00000000000E+00  0.00000000000E+00 -0.83494704200E+03  0.83494800787E+03  0.12699999809E+01 0.  1.
    10030    2    1    2    0    0  0.00000000000E+00  0.00000000000E+00 -0.66145324282E+03  0.10084464553E+04  0.76121209969E+03 0.  0.
        1    1    3    3  502    0  0.29099099920E+03 -0.24532672447E+03 -0.33067038630E+03  0.50418634229E+03  0.50400001928E-02 0. -1.
       -1    1    3    3    0  502 -0.29099099920E+03  0.24532672447E+03 -0.33078285652E+03  0.50426011298E+03  0.50400001928E-02 0.  1.
</event>
<event>
 5   0  0.2769394E-02  0.8016556E+03  0.7818609E-02  0.9557624E-01
        1   -1    0    0  501    0  0.00000000000E+00  0.00000000000E+00  0.23530068313E+03  0.23530068319E+03  0.50400001928E-02 0.  1.
       -1   -1    0    0    0  501  0.00000000000E+00  0.00000000000E+00 -0.68279843407E+03  0.68279843408E+03  0.50400001928E-02 0. -1.
    10030    2    1    2    0    0  0.00000000000E+00  0.00000000000E+00 -0.44749775093E+03  0.91809911727E+03  0.80165563183E+03 0.  0.
        2    1    3    3  502    0 -0.28572082570E+03 -0.21100949299E+03 -0.43647507068E+03  0.56273606931E+03  0.25500000920E-02 0. -1.
       -2    1    3    3    0  502  0.28572082570E+03  0.21100949299E+03 -0.11022680255E+02  0.35536304796E+03  0.25500000920E-02 0.  1.
</event>
<event>
 5   0  0.2606520E-02  0.7859514E+03  0.7818609E-02  0.9580578E-01
       -1   -1    0    0    0  501  0.00000000000E+00  0.00000000000E+00  0.57572492397E+03  0.57572492400E+03  0.50400001928E-02 0. -1.
        1   -1    0    0  501    0  0.00000000000E+00  0.00000000000E+00 -0.26823553726E+03  0.26823553731E+03  0.50400001928E-02 0.  1.
    10030    2    1    2    0    0  0.00000000000E+00  0.00000000000E+00  0.30748938671E+03  0.84396046131E+03  0.78595135810E+03 0.  0.
        5    1    3    3  502    0  0.14230267542E+03 -0.29666825716E+03 -0.76925773845E+02  0.33793752516E+03  0.46999998093E+01 0.  1.
       -5    1    3    3    0  502 -0.14230267542E+03  0.29666825716E+03  0.38441516056E+03  0.50602293614E+03  0.46999998093E+01 0. -1.
</event>
<event>
 5   0  0.4700220E-02  0.8318643E+03  0.7818609E-02  0.9515007E-01
        2   -1    0    0  501    0  0.00000000000E+00  0.00000000000E+00  0.13856198106E+04  0.13856198106E+04  0.25500000920E-02 0. -1.
       -2   -1    0    0    0  501  0.00000000000E+00  0.00000000000E+00 -0.12485355219E+03  0.12485355222E+03  0.25500000920E-02 0.  1.
    10030    2    1    2    0    0  0.00000000000E+00  0.00000000000E+00  0.12607662584E+04  0.15104733628E+04  0.83186430471E+03 0.  0.
        4    1    3    3  502    0  0.24980663086E+03  0.56319165312E+02  0.12255088180E+04  0.12519779060E+04  0.12699999809E+01 0. -1.
       -4    1    3    3    0  502 -0.24980663086E+03 -0.56319165312E+02  0.35257440417E+02  0.25849545684E+03  0.12699999809E+01 0.  1.
</event>
<event>
 5   0  0.2759559E-02  0.8099413E+03  0.7818609E-02  0.9545738E-01
        1   -1    0    0  501    0  0.00000000000E+00  0.00000000000E+00  0.56446854623E+03  0.56446854626E+03  0.50400001928E-02 0. -1.
       -1   -1    0    0    0  501  0.00000000000E+00  0.00000000000E+00 -0.29054095746E+03  0.29054095751E+03  0.50400001928E-02 0.  1.
    10030    2    1    2    0    0  0.00000000000E+00  0.00000000000E+00  0.27392758877E+03  0.85500950376E+03  0.80994131123E+03 0.  0.
        3    1    3    3  502    0  0.11863319898E+03  0.28085288494E+03  0.41834592064E+03  0.51765384032E+03  0.10100000352E+00 0. -1.
       -3    1    3    3    0  502 -0.11863319898E+03 -0.28085288494E+03 -0.14441833187E+03  0.33735566345E+03  0.10100000352E+00 0.  1.
</event>
<event>
 5   0  0.4700220E-02  0.8047583E+03  0.7818609E-02  0.9553155E-01
       -2   -1    0    0    0  501  0.00000000000E+00  0.00000000000E+00  0.53418074014E+02  0.53418074075E+02  0.25500000920E-02 0. -1.
        2   -1    0    0  501    0  0.00000000000E+00  0.00000000000E+00 -0.30309772581E+04  0.30309772581E+04  0.25500000920E-02 0.  1.
    10030    2    1    2    0    0  0.00000000000E+00  0.00000000000E+00 -0.29775591841E+04  0.30843953322E+04  0.80475826832E+03 0.  0.
        4    1    3    3  502    0  0.20969410552E+03 -0.31967817126E+03 -0.10079080501E+04  0.10779823753E+04  0.12699999809E+01 0. -1.
       -4    1    3    3    0  502 -0.20969410552E+03  0.31967817126E+03 -0.19696511340E+04  0.20064129569E+04  0.12699999809E+01 0.  1.
</event>
<event>
 5   0  0.2635243E-02  0.7926265E+03  0.7818609E-02  0.9570752E-01
        1   -1    0    0  501    0  0.00000000000E+00  0.00000000000E+00  0.26749663007E+03  0.26749663012E+03  0.50400001928E-02 0. -1.
       -1   -1    0    0    0  501  0.00000000000E+00  0.00000000000E+00 -0.58716325393E+03  0.58716325395E+03  0.50400001928E-02 0.  1.
    10030    2    1    2    0    0  0.00000000000E+00  0.00000000000E+00 -0.31966662385E+03  0.85465988407E+03  0.79262649907E+03 0.  0.
        1    1    3    3  502    0 -0.18645243949E+03 -0.99702424363E+01 -0.53676341349E+03  0.56831230852E+03  0.50400001928E-02 0.  1.
       -1    1    3    3    0  502  0.18645243949E+03  0.99702424363E+01  0.21709678964E+03  0.28634757555E+03  0.50400001928E-02 0. -1.
</event>
<event>
 5   0  0.2635243E-02  0.8054904E+03  0.7818609E-02  0.9552104E-01
        1   -1    0    0  501    0  0.00000000000E+00  0.00000000000E+00  0.54506112617E+03  0.54506112620E+03  0.50400001928E-02 0. -1.
       -1   -1    0    0    0  501  0.00000000000E+00  0.00000000000E+00 -0.29758805359E+03  0.29758805363E+03  0.50400001928E-02 0.  1.
    10030    2    1    2    0    0  0.00000000000E+00  0.00000000000E+00  0.24747307259E+03  0.84264917983E+03  0.80549035910E+03 0.  0.
        1    1    3    3  502    0 -0.21689295248E+03 -0.16010648897E+03 -0.18927732222E+03  0.32939724555E+03  0.50400001928E-02 0.  1.
       -1    1    3    3    0  502  0.21689295248E+03  0.16010648897E+03  0.43675039481E+03  0.51325193427E+03  0.50400001928E-02 0. -1.
</event>
<event>
 5   0  0.4700220E-02  0.7911416E+03  0.7818609E-02  0.9572928E-01
       -2   -1    0    0    0  501  0.00000000000E+00  0.00000000000E+00  0.66736398871E+03  0.66736398872E+03  0.25500000920E-02 0.  1.
        2   -1    0    0  501    0  0.00000000000E+00  0.00000000000E+00 -0.23446914536E+03  0.23446914538E+03  0.25500000920E-02 0. -1.
    10030    2    1    2    0    0  0.00000000000E+00  0.00000000000E+00  0.43289484335E+03  0.90183313409E+03  0.79114161586E+03 0.  0.
        4    1    3    3  502    0 -0.47685187816E+02 -0.16246969939E+03 -0.19106871546E+03  0.25530207066E+03  0.12699999809E+01 0. -1.
       -4    1    3    3    0  502  0.47685187816E+02  0.16246969939E+03  0.62396355881E+03  0.64653106343E+03  0.12699999809E+01 0.  1.
</event>
<event>
 5   0  0.4684283E-02  0.8228448E+03  0.7818609E-02  0.9527526E-01
       -2   -1    0    0    0  501  0.00000000000E+00  0.00000000000E+00  0.17958394070E+03  0.17958394071E+03  0.25500000920E-02 0.  1.
        2   -1    0    0  501    0  0.00000000000E+00  0.00000000000E+00 -0.94255871371E+03  0.94255871371E+03  0.25500000920E-02 0. -1.
    10030    2    1    2    0    0  0.00000000000E+00  0.00000000000E+00 -0.76297477301E+03  0.11221426544E+04  0.82284484116E+03 0.  0.
        1    1    3    3  502    0 -0.91031205719E+02  0.15362321978E+03 -0.88695630884E+03  0.90475315302E+03  0.50400001928E-02 0. -1.
       -1    1    3    3    0  502  0.91031205719E+02 -0.15362321978E+03  0.12398153583E+03  0.21738950141E+03  0.50400001928E-02 0.  1.
</event>
<event>
 5   0  0.4377843E-02  0.7998961E+03  0.7818609E-02  0.9560168E-01
       -2   -1    0    0    0  501  0.00000000000E+00  0.00000000000E+00  0.11970499767E+03  0.11970499769E+03  0.25500000920E-02 0. -1.
        2   -1    0    0  501    0  0.00000000000E+00  0.00000000000E+00 -0.13362720354E+04  0.13362720354E+04  0.25500000920E-02 0.  1.
    10030    2    1    2    0    0  0.00000000000E+00  0.00000000000E+00 -0.12165670377E+04  0.14559770331E+04  0.79989609551E+03 0.  0.
        2    1    3    3  502    0  0.32042297598E+03 -0.23661217108E+03 -0.67396850398E+03  0.78287275300E+03  0.25500000920E-02 0.  1.
       -2    1    3    3    0  502 -0.32042297598E+03  0.23661217108E+03 -0.54259853376E+03  0.67310428010E+03  0.25500000920E-02 0. -1.
</event>
<event>
 5   0  0.4700220E-02  0.8229780E+03  0.7818609E-02  0.9527340E-01
        2   -1    0    0  501    0  0.00000000000E+00  0.00000000000E+00  0.96316493600E+03  0.96316493601E+03  0.25500000920E-02 0. -1.
       -2   -1    0    0    0  501  0.00000000000E+00  0.00000000000E+00 -0.17579875202E+03  0.17579875203E+03  0.25500000920E-02 0.  1.
    10030    2    1    2    0    0  0.00000000000E+00  0.00000000000E+00  0.78736618399E+03  0.11389636880E+04  0.82297799180E+03 0.  0.
        4    1    3    3  502    0 -0.12165139350E+03  0.27317830926E+02 -0.14902500051E+03  0.19430746024E+03  0.12699999809E+01 0.  1.
       -4    1    3    3    0  502  0.12165139350E+03 -0.27317830926E+02  0.93639118450E+03  0.94465622780E+03  0.12699999809E+01 0. -1.
</event>
<event>
 5   0  0.2635243E-02  0.8026618E+03  0.7818609E-02  0.9556172E-01
        1   -1    0    0  501    0  0.00000000000E+00  0.00000000000E+00  0.48387221795E+03  0.48387221797E+03  0.50400001928E-02 0. -1.
       -1   -1    0    0    0  501  0.00000000000E+00  0.00000000000E+00 -0.33286990058E+03  0.33286990062E+03  0.50400001928E-02 0.  1.
    10030    2    1    2    0    0  0.00000000000E+00  0.00000000000E+00  0.15100231737E+03  0.81674211859E+03  0.80266181448E+03 0.  0.
        1    1    3    3  502    0  0.23000043805E+03 -0.26970293883E+03  0.26702251624E+03  0.44378023945E+03  0.50400001928E-02 0. -1.
       -1    1    3    3    0  502 -0.23000043805E+03  0.26970293883E+03 -0.11602019888E+03  0.37296187914E+03  0.50400001928E-02 0.  1.
</event>
<event>
 5   0  0.2759559E-02  0.7794611E+03  0.7818609E-02  0.9590232E-01
       -1   -1    0    0    0  501  0.00000000000E+00  0.00000000000E+00  0.13753010569E+03  0.13753010578E+03  0.50400001928E-02 0. -1.
        1   -1    0    0  501    0  0.00000000000E+00  0.00000000000E+00 -0.11044119676E+04  0.11044119677E+04  0.50400001928E-02 0.  1.
    10030    2    1    2    0    0  0.00000000000E+00  0.00000000000E+00 -0.96688186196E+03  0.12419420734E+04  0.77946108227E+03 0.  0.
        3    1    3    3  502    0  0.21130845158E+02 -0.67939436952E+02 -0.10939762054E+04  0.10962874750E+04  0.10100000352E+00 0.  1.
       -3    1    3    3    0  502 -0.21130845158E+02  0.67939436952E+02  0.12709434343E+03  0.14565459842E+03  0.10100000352E+00 0. -1.
</event>
<event>
 5   0  0.4377843E-02  0.7937765E+03  0.7818609E-02  0.9569069E-01
        2   -1    0    0  501    0  0.00000000000E+00  0.00000000000E+00  0.10828885058E+04  0.10828885058E+04  0.25500000920E-02 0.  1.
       -2   -1    0    0    0  501  0.00000000000E+00  0.00000000000E+00 -0.14546307716E+03  0.14546307719E+03  0.25500000920E-02 0. -1.
    10030    2    1    2    0    0  0.00000000000E+00  0.00000000000E+00  0.93742542864E+03  0.12283515830E+04  0.79377652849E+03 0.  0.
        2    1    3    3  502    0 -0.59728916229E+02 -0.28856806758E+03  0.88012424471E+03  0.92814748784E+03  0.25500000920E-02 0.  1.
       -2    1    3    3    0  502  0.59728916229E+02  0.28856806758E+03  0.57301183936E+02  0.30020409515E+03  0.25500000920E-02 0. -1.
</event>
<event>
 5   0  0.1786500E-02  0.7813487E+03  0.7818609E-02  0.9587414E-01
        3   -1    0    0  501    0  0.00000000000E+00  0.00000000000E+00  0.90097186632E+03  0.90097187198E+03  0.10100000352E+00 0. -1.
       -3   -1    0    0    0  501  0.00000000000E+00  0.00000000000E+00 -0.16940198620E+03  0.16940201631E+03  0.10100000352E+00 0.  1.
    10030    2    1    2    0    0  0.00000000000E+00  0.00000000000E+00  0.73156988012E+03  0.10703738883E+04  0.78134868735E+03 0.  0.
        3    1    3    3  502    0 -0.26362439667E+03 -0.28402418608E+03  0.29785541742E+03  0.48875906200E+03  0.10100000352E+00 0. -1.
       -3    1    3    3    0  502  0.26362439667E+03  0.28402418608E+03  0.43371446270E+03  0.58161482629E+03  0.10100000352E+00 0.  1.
</event>
<event>
 5   0  0.2769394E-02  0.8043900E+03  0.7818609E-02  0.9553684E-01
       -1   -1    0    0    0  501  0.00000000000E+00  0.00000000000E+00  0.15733683537E+03  0.15733683545E+03  0.50400001928E-02 0.  1.
        1   -1    0    0  501    0  0.00000000000E+00  0.00000000000E+00 -0.10281178063E+04  0.10281178063E+04  0.50400001928E-02 0. -1.
    10030    2    1    2    0    0  0.00000000000E+00  0.00000000000E+00 -0.87078097090E+03  0.11854546417E+04  0.80438996035E+03 0.  0.
        2    1    3    3  502    0  0.96574561805E+02  0.12308630916E+03  0.11065413186E+03  0.19162782260E+03  0.25500000920E-02 0.  1.
       -2    1    3    3    0  502 -0.96574561805E+02 -0.12308630916E+03 -0.98143510276E+03  0.99382681913E+03  0.25500000920E-02 0. -1.
</event>
<event>
 5   0  0.2689372E-02  0.7925032E+03  0.7818609E-02  0.9570932E-01
       -1   -1    0    0    0  501  0.00000000000E+00  0.00000000000E+00  0.46949184694E+03  0.46949184696E+03  0.50400001928E-02 0.  1.
        1   -1    0    0  501    0  0.00000000000E+00  0.00000000000E+00 -0.33443675309E+03  0.33443675313E+03  0.50400001928E-02 0. -1.
    10030    2    1    2    0    0  0.00000000000E+00  0.00000000000E+00  0.13505509384E+03  0.80392860010E+03  0.79250319601E+03 0.  0.
        4    1    3    3  502    0 -0.25685981914E+03  0.16146017872E+03  0.32608917071E+03  0.44540107336E+03  0.12699999809E+01 0.  1.
       -4    1    3    3    0  502  0.25685981914E+03 -0.16146017872E+03 -0.19103407686E+03  0.35852752673E+03  0.12699999809E+01 0. -1.
</event>
<event>
 5   0  0.2689372E-02  0.7990675E+03  0.7818609E-02  0.9561368E-01
        1   -1    0    0  501    0  0.00000000000E+00  0.00000000000E+00  0.10495328424E+04  0.10495328424E+04  0.50400001928E-02 0.  1.
       -1   -1    0    0    0  501  0.00000000000E+00  0.00000000000E+00 -0.15209357258E+03  0.15209357266E+03  0.50400001928E-02 0. -1.
    10030    2    1    2    0    0  0.00000000000E+00  0.00000000000E+00  0.89743926983E+03  0.12016264151E+04  0.79906745548E+03 0.  0.
        4    1    3    3  502    0 -0.54837006936E+02 -0.21247404381E+02 -0.14554612657E+03  0.15698355768E+03  0.12699999809E+01 0. -1.
       -4    1    3    3    0  502  0.54837006936E+02  0.21247404381E+02  0.10429853964E+04  0.10446428574E+04  0.12699999809E+01 0.  1.
</event>
<event>
 5   0  0.4377843E-02  0.7824228E+03  0.7818609E-02  0.9585814E-01
       -2   -1    0    0    0  501  0.00000000000E+00  0.00000000000E+00  0.19535763908E+03  0.19535763910E+03  0.25500000920E-02 0. -1.
        2   -1    0    0  501    0  0.00000000000E+00  0.00000000000E+00 -0.78341621125E+03  0.78341621125E+03  0.25500000920E-02 0.  1.
    10030    2    1    2    0    0  0.00000000000E+00  0.00000000000E+00 -0.58805857217E+03  0.97877385035E+03  0.78242275390E+03 0.  0.
        2    1    3    3  502    0 -0.15817120496E+03  0.36732006314E+00  0.15357423712E+03  0.22046158694E+03  0.25500000920E-02 0. -1.
       -2    1    3    3    0  502  0.15817120496E+03 -0.36732006314E+00 -0.74163280929E+03  0.75831226340E+03  0.25500000920E-02 0.  1.
</event>
<event>
 5   0  0.2635243E-02  0.8028148E+03  0.7818609E-02  0.9555952E-01
       -1   -1    0    0    0  501  0.00000000000E+00  0.00000000000E+00  0.64404965769E+03  0.64404965771E+03  0.50400001928E-02 0.  1.
        1   -1    0    0  501    0  0.00000000000E+00  0.00000000000E+00 -0.25017931905E+03  0.25017931910E+03  0.50400001928E-02 0. -1.
    10030    2    1    2    0    0  0.00000000000E+00  0.00000000000E+00  0.39387033864E+03  0.89422897681E+03  0.80281481009E+03 0.  0.
        1    1    3    3  502    0 -0.23773669338E+03 -0.31912596681E+03  0.25553544704E+03  0.47292545162E+03  0.50400001928E-02 0.  1.
       -1    1    3    3    0  502  0.23773669338E+03  0.31912596681E+03  0.13833489160E+03  0.42130352519E+03  0.50400001928E-02 0. -1.
</event>
<event>
 5   0  0.4377843E-02  0.8008440E+03  0.7818609E-02  0.9558796E-01
       -2   -1    0    0    0  501  0.00000000000E+00  0.00000000000E+00  0.17323375830E+03  0.17323375832E+03  0.25500000920E-02 0. -1.
        2   -1    0    0  501    0  0.00000000000E+00  0.00000000000E+00 -0.92555741706E+03  0.92555741706E+03  0.25500000920E-02 0.  1.
    10030    2    1    2    0    0  0.00000000000E+00  0.00000000000E+00 -0.75232365876E+03  0.10987911754E+04  0.80084402950E+03 0.  0.
        2    1    3    3  502    0  0.33881598548E+03  0.19404115045E+03 -0.49803085302E+03  0.63283723867E+03  0.25500000920E-02 0. -1.
       -2    1    3    3    0  502 -0.33881598548E+03 -0.19404115045E+03 -0.25429280574E+03  0.46595393671E+03  0.25500000920E-02 0.  1.
</event>
<event>
 5   0  0.4377843E-02  0.8081024E+03  0.7818609E-02  0.9548363E-01
        2   -1    0    0  501    0  0.00000000000E+00  0.00000000000E+00  0.45272736997E+03  0.45272736998E+03  0.25500000920E-02 0. -1.
       -2   -1    0    0    0  501  0.00000000000E+00  0.00000000000E+00 -0.36060854470E+03  0.36060854471E+03  0.25500000920E-02 0.  1.
    10030    2    1    2    0    0  0.00000000000E+00  0.00000000000E+00  0.92118825272E+02  0.81333591469E+03  0.80810236490E+03 0.  0.
        2    1    3    3  502    0 -0.24110134950E+03  0.38566879495E+02 -0.27795734327E+03  0.36996966039E+03  0.25500000920E-02 0.  1.
       -2    1    3    3    0  502  0.24110134950E+03 -0.38566879495E+02  0.37007616854E+03  0.44336625430E+03  0.25500000920E-02 0. -1.
</event>
<event>
 5   0  0.4377843E-02  0.7050142E+03  0.7818609E-02  0.9708695E-01
       -2   -1    0    0    0  501  0.00000000000E+00  0.00000000000E+00  0.21715924905E+03  0.21715924907E+03  0.25500000920E-02 0.  1.
        2   -1    0    0  501    0  0.00000000000E+00  0.00000000000E+00 -0.57221261428E+03  0.57221261428E+03  0.25500000920E-02 0. -1.
    10030    2    1    2    0    0  0.00000000000E+00  0.00000000000E+00 -0.35505336522E+03  0.78937186335E+03  0.70501421722E+03 0.  0.
        2    1    3    3  502    0  0.51852162324E+02 -0.32244782489E+03 -0.32606561133E+03  0.46149759416E+03  0.25500000920E-02 0. -1.
       -2    1    3    3    0  502 -0.51852162324E+02  0.32244782489E+03 -0.28987753896E+02  0.32787426919E+03  0.25500000920E-02 0.  1.
</event>
<event>
 5   0  0.4684283E-02  0.7981933E+03  0.7818609E-02  0.9562636E-01
       -2   -1    0    0    0  501  0.00000000000E+00  0.00000000000E+00  0.25971179678E+03  0.25971179679E+03  0.25500000920E-02 0. -1.
        2   -1    0    0  501    0  0.00000000000E+00  0.00000000000E+00 -0.61328802796E+03  0.61328802797E+03  0.25500000920E-02 0.  1.
    10030    2    1    2    0    0  0.00000000000E+00  0.00000000000E+00 -0.35357623119E+03  0.87299982476E+03  0.79819329912E+03 0.  0.
        1    1    3    3  502    0  0.41645617460E+02 -0.35068059026E+03 -0.38013443081E+03  0.51885780263E+03  0.50400001928E-02 0. -1.
       -1    1    3    3    0  502 -0.41645617460E+02  0.35068059026E+03  0.26558199622E+02  0.35414202212E+03  0.50400001928E-02 0.  1.
</event>
<event>
 5   0  0.2769394E-02  0.8355871E+03  0.7818609E-02  0.9509888E-01
       -1   -1    0    0    0  501  0.00000000000E+00  0.00000000000E+00  0.16188600613E+04  0.16188600613E+04  0.50400001928E-02 0. -1.
        1   -1    0    0  501    0  0.00000000000E+00  0.00000000000E+00 -0.10782368078E+03  0.10782368090E+03  0.50400001928E-02 0.  1.
    10030    2    1    2    0    0  0.00000000000E+00  0.00000000000E+00  0.15110363805E+04  0.17266837422E+04  0.83558710039E+03 0.  0.
        2    1    3    3  502    0  0.32760336498E+03  0.20157609274E+03  0.10925085800E+04  0.11582451741E+04  0.25500000920E-02 0. -1.
       -2    1    3    3    0  502 -0.32760336498E+03 -0.20157609274E+03  0.41852780054E+03  0.56843856813E+03  0.25500000920E-02 0.  1.
</event>
<event>
 5   0  0.4700220E-02  0.7624019E+03  0.7818609E-02  0.9616092E-01
       -2   -1    0    0    0  501  0.00000000000E+00  0.00000000000E+00  0.15103239764E+03  0.15103239766E+03  0.25500000920E-02 0. -1.
        2   -1    0    0  501    0  0.00000000000E+00  0.00000000000E+00 -0.96213913211E+03  0.96213913211E+03  0.25500000920E-02 0.  1.
    10030    2    1    2    0    0  0.00000000000E+00  0.00000000000E+00 -0.81110673447E+03  0.11131715298E+04  0.76240194122E+03 0.  0.
        4    1    3    3  502    0 -0.68868910169E+02  0.21307018043E+03 -0.85598596898E+03  0.88479117342E+03  0.12699999809E+01 0.  1.
       -4    1    3    3    0  502  0.68868910169E+02 -0.21307018043E+03  0.44879234504E+02  0.22838035635E+03  0.12699999809E+01 0. -1.
</event>
<event>
 5   0  0.4663634E-02  0.6556143E+03  0.7818609E-02  0.9796301E-01
        2   -1    0    0  501    0  0.00000000000E+00  0.00000000000E+00  0.13180189735E+03  0.13180189737E+03  0.25500000920E-02 0. -1.
       -2   -1    0    0    0  501  0.00000000000E+00  0.00000000000E+00 -0.81529578269E+03  0.81529578270E+03  0.25500000920E-02 0.  1.
    10030    2    1    2    0    0  0.00000000000E+00  0.00000000000E+00 -0.68349388534E+03  0.94709768007E+03  0.65561431062E+03 0.  0.
        5    1    3    3  502    0 -0.25833642047E+02  0.19149487703E+03  0.40724019166E+02  0.19753025268E+03  0.46999998093E+01 0. -1.
       -5    1    3    3    0  502  0.25833642047E+02 -0.19149487703E+03 -0.72421790451E+03  0.74956742739E+03  0.46999998093E+01 0.  1.
</event>
<event>
 5   0  0.2759559E-02  0.8082544E+03  0.7818609E-02  0.9548145E-01
       -1   -1    0    0    0  501  0.00000000000E+00  0.00000000000E+00  0.59187551916E+03  0.59187551918E+03  0.50400001928E-02 0. -1.
        1   -1    0    0  501    0  0.00000000000E+00  0.00000000000E+00 -0.27593437972E+03  0.27593437977E+03  0.50400001928E-02 0.  1.
    10030    2    1    2    0    0  0.00000000000E+00  0.00000000000E+00  0.31594113944E+03  0.86780989895E+03  0.80825442598E+03 0.  0.
        3    1    3    3  502    0 -0.41517134152E+02  0.22586831171E+03  0.51500664977E+03  0.56389008342E+03  0.10100000352E+00 0. -1.
       -3    1    3    3    0  502  0.41517134152E+02 -0.22586831171E+03 -0.19906551034E+03  0.30391981553E+03  0.10100000352E+00 0.  1.
</event>
<event>
 5   0  0.4663634E-02  0.7970136E+03  0.7818609E-02  0.9564350E-01
        2   -1    0    0  501    0  0.00000000000E+00  0.00000000000E+00  0.17177262993E+04  0.17177262993E+04  0.25500000920E-02 0.  1.
       -2   -1    0    0    0  501  0.00000000000E+00  0.00000000000E+00 -0.92452263374E+02  0.92452263409E+02  0.25500000920E-02 0. -1.
    10030    2    1    2    0    0  0.00000000000E+00  0.00000000000E+00  0.16252740359E+04  0.18101785627E+04  0.79701363667E+03 0.  0.
        5    1    3    3  502    0  0.21760829812E+03  0.11125722032E+02  0.54897886908E+02  0.22475102022E+03  0.46999998093E+01 0. -1.
       -5    1    3    3    0  502 -0.21760829812E+03 -0.11125722032E+02  0.15703761490E+04  0.15854275425E+04  0.46999998093E+01 0.  1.
</event>
<event>
 5   0  0.2606520E-02  0.7925948E+03  0.7818609E-02  0.9570798E-01
       -1   -1    0    0    0  501  0.00000000000E+00  0.00000000000E+00  0.93947910139E+02  0.93947910274E+02  0.50400001928E-02 0. -1.
        1   -1    0    0  501    0  0.00000000000E+00  0.00000000000E+00 -0.16716881764E+04  0.16716881764E+04  0.50400001928E-02 0.  1.
    10030    2    1    2    0    0  0.00000000000E+00  0.00000000000E+00 -0.15777402663E+04  0.17656360867E+04  0.79259475321E+03 0.  0.
        5    1    3    3  502    0  0.28227243952E+03 -0.63002921747E+02 -0.13923267110E+04  0.14220558562E+04  0.46999998093E+01 0.  1.
       -5    1    3    3    0  502 -0.28227243952E+03  0.63002921747E+02 -0.18541355533E+03  0.34358023045E+03  0.46999998093E+01 0. -1.
</event>
<event>
 5   0  0.4663634E-02  0.8083042E+03  0.7818609E-02  0.9548074E-01
        2   -1    0    0  501    0  0.00000000000E+00  0.00000000000E+00  0.76319812401E+03  0.76319812401E+03  0.25500000920E-02 0.  1.
       -2   -1    0    0    0  501  0.00000000000E+00  0.00000000000E+00 -0.21401901510E+03  0.21401901512E+03  0.25500000920E-02 0. -1.
    10030    2    1    2    0    0  0.00000000000E+00  0.00000000000E+00  0.54917910891E+03  0.97721713913E+03  0.80830417749E+03 0.  0.
        5    1    3    3  502    0 -0.24304088053E+03 -0.17140733975E+03  0.60538753183E+03  0.67451130415E+03  0.46999998093E+01 0.  1.
       -5    1    3    3    0  502  0.24304088053E+03  0.17140733975E+03 -0.56208422923E+02  0.30270583498E+03  0.46999998093E+01 0. -1.
</event>
<event>
 5   0  0.4377843E-02  0.7845264E+03  0.7818609E-02  0.9582689E-01
        2   -1    0    0  501    0  0.00000000000E+00  0.00000000000E+00  0.10577432835E+04  0.10577432835E+04  0.25500000920E-02 0. -1.
       -2   -1    0    0    0  501  0.00000000000E+00  0.00000000000E+00 -0.14547047414E+03  0.14547047416E+03  0.25500000920E-02 0.  1.
    10030    2    1    2    0    0  0.00000000000E+00  0.00000000000E+00  0.91227280940E+03  0.12032137577E+04  0.78452639723E+03 0.  0.
        2    1    3    3  502    0  0.31597656374E+03  0.14023734127E+03  0.74043778686E+03  0.81716327434E+03  0.25500000920E-02 0. -1.
       -2    1    3    3    0  502 -0.31597656374E+03 -0.14023734127E+03  0.17183502255E+03  0.38605048336E+03  0.25500000920E-02 0.  1.
</event>
<event>
 5   0  0.2635243E-02  0.8008137E+03  0.7818609E-02  0.9558840E-01
       -1   -1    0    0    0  501  0.00000000000E+00  0.00000000000E+00  0.58426224235E+03  0.58426224237E+03  0.50400001928E-02 0. -1.
        1   -1    0    0  501    0  0.00000000000E+00  0.00000000000E+00 -0.27440700189E+03  0.27440700194E+03  0.50400001928E-02 0.  1.
    10030    2    1    2    0    0  0.00000000000E+00  0.00000000000E+00  0.30985524046E+03  0.85866924431E+03  0.80081371185E+03 0.  0.
        1    1    3    3  502    0 -0.20111703846E+03  0.30023968209E+03 -0.29964768550E+02  0.36261524684E+03  0.50400001928E-02 0.  1.
       -1    1    3    3    0  502  0.20111703846E+03 -0.30023968209E+03  0.33982000901E+03  0.49605399747E+03  0.50400001928E-02 0. -1.
</event>
<event>
 5   0  0.2635243E-02  0.7701026E+03  0.7818609E-02  0.9604330E-01
       -1   -1    0    0    0  501  0.00000000000E+00  0.00000000000E+00  0.96797781084E+02  0.96797781215E+02  0.50400001928E-02 0. -1.
        1   -1    0    0  501    0  0.00000000000E+00  0.00000000000E+00 -0.15316933850E+04  0.15316933850E+04  0.50400001928E-02 0.  1.
    10030    2    1    2    0    0  0.00000000000E+00  0.00000000000E+00 -0.14348956039E+04  0.16284911662E+04  0.77010264533E+03 0.  0.
        1    1    3    3  502    0 -0.88039351704E+02  0.63537750497E+02  0.63758622521E+02  0.12590923381E+03  0.50400001928E-02 0. -1.
       -1    1    3    3    0  502  0.88039351704E+02 -0.63537750497E+02 -0.14986542264E+04  0.15025819324E+04  0.50400001928E-02 0.  1.
</event>
<event>
 5   0  0.4700220E-02  0.7977339E+03  0.7818609E-02  0.9563303E-01
        2   -1    0    0  501    0  0.00000000000E+00  0.00000000000E+00  0.20146452045E+03  0.20146452047E+03  0.25500000920E-02 0. -1.
       -2   -1    0    0    0  501  0.00000000000E+00  0.00000000000E+00 -0.78969163722E+03  0.78969163722E+03  0.25500000920E-02 0.  1.
    10030    2    1    2    0    0  0.00000000000E+00  0.00000000000E+00 -0.58822711677E+03  0.99115615769E+03  0.79773390803E+03 0.  0.
        4    1    3    3  502    0 -0.10509531221E+03 -0.12379708469E+03 -0.74675706400E+03  0.76421101036E+03  0.12699999809E+01 0.  1.
       -4    1    3    3    0  502  0.10509531221E+03  0.12379708469E+03  0.15852994723E+03  0.22694514733E+03  0.12699999809E+01 0. -1.
</event>
<event>
 5   0  0.4700220E-02  0.7903542E+03  0.7818609E-02  0.9574085E-01
       -2   -1    0    0    0  501  0.00000000000E+00  0.00000000000E+00  0.46341931474E+03  0.46341931474E+03  0.25500000920E-02 0. -1.
        2   -1    0    0  501    0  0.00000000000E+00  0.00000000000E+00 -0.33698409921E+03  0.33698409922E+03  0.25500000920E-02 0.  1.
    10030    2    1    2    0    0  0.00000000000E+00  0.00000000000E+00  0.12643521553E+03  0.80040341396E+03  0.79035419993E+03 0.  0.
        4    1    3    3  502    0 -0.21897180623E+03  0.57392226911E+02  0.39125094309E+03  0.45201928388E+03  0.12699999809E+01 0. -1.
       -4    1    3    3    0  502  0.21897180623E+03 -0.57392226911E+02 -0.26481572756E+03  0.34838413008E+03  0.12699999809E+01 0.  1.
</event>
<event>
 5   0  0.4684283E-02  0.7910204E+03  0.7818609E-02  0.9573106E-01
       -2   -1    0    0    0  501  0.00000000000E+00  0.00000000000E+00  0.60377699898E+03  0.60377699899E+03  0.25500000920E-02 0. -1.
        2   -1    0    0  501    0  0.00000000000E+00  0.00000000000E+00 -0.25908296212E+03  0.25908296213E+03  0.25500000920E-02 0.  1.
    10030    2    1    2    0    0  0.00000000000E+00  0.00000000000E+00  0.34469403686E+03  0.86285996112E+03  0.79102043808E+03 0.  0.
        1    1    3    3  502    0 -0.39122484837E+03  0.15010893168E+02  0.11116263881E+03  0.40698813396E+03  0.50400001928E-02 0. -1.
       -1    1    3    3    0  502  0.39122484837E+03 -0.15010893168E+02  0.23353139805E+03  0.45587182716E+03  0.50400001928E-02 0.  1.
</event>
<event>
 5   0  0.1786500E-02  0.5366187E+03  0.7818609E-02  0.1004640E+00
       -4   -1    0    0    0  501  0.00000000000E+00  0.00000000000E+00  0.19761477604E+03  0.19761885692E+03  0.12699999809E+01 0.  1.
        4   -1    0    0  501    0  0.00000000000E+00  0.00000000000E+00 -0.36428515786E+03  0.36428737164E+03  0.12699999809E+01 0. -1.
    10030    2    1    2    0    0  0.00000000000E+00  0.00000000000E+00 -0.16667038183E+03  0.56190622856E+03  0.53661866676E+03 0.  0.
        2    1    3    3  502    0 -0.15302922789E+03  0.21998756458E+03 -0.97282991727E+02  0.28509025526E+03  0.25500000920E-02 0. -1.
       -2    1    3    3    0  502  0.15302922789E+03 -0.21998756458E+03 -0.69387390098E+02  0.27681597330E+03  0.25500000920E-02 0.  1.
</event>
<event>
 5   0  0.2759559E-02  0.8157676E+03  0.7818609E-02  0.9537470E-01
       -1   -1    0    0    0  501  0.00000000000E+00  0.00000000000E+00  0.22847275859E+03  0.22847275865E+03  0.50400001928E-02 0. -1.
        1   -1    0    0  501    0  0.00000000000E+00  0.00000000000E+00 -0.72817961828E+03  0.72817961829E+03  0.50400001928E-02 0.  1.
    10030    2    1    2    0    0  0.00000000000E+00  0.00000000000E+00 -0.49970685969E+03  0.95665237694E+03  0.81576762910E+03 0.  0.
        3    1    3    3  502    0 -0.15540747767E+02  0.85046524122E+02 -0.71731131316E+03  0.72250256490E+03  0.10100000352E+00 0.  1.
       -3    1    3    3    0  502  0.15540747767E+02 -0.85046524122E+02  0.21760445347E+03  0.23414981204E+03  0.10100000352E+00 0. -1.
</event>
<event>
 5   0  0.2635243E-02  0.8044267E+03  0.7818609E-02  0.9553632E-01
       -1   -1    0    0    0  501  0.00000000000E+00  0.00000000000E+00  0.70188171830E+02  0.70188172011E+02  0.50400001928E-02 0. -1.
        1   -1    0    0  501    0  0.00000000000E+00  0.00000000000E+00 -0.23048838335E+04  0.23048838335E+04  0.50400001928E-02 0.  1.
    10030    2    1    2    0    0  0.00000000000E+00  0.00000000000E+00 -0.22346956616E+04  0.23750720055E+04  0.80442670958E+03 0.  0.
        1    1    3    3  502    0  0.26086054011E+03  0.29778164717E+03 -0.13272342652E+04  0.13850173015E+04  0.50400001928E-02 0.  1.
       -1    1    3    3    0  502 -0.26086054011E+03 -0.29778164717E+03 -0.90746139647E+03  0.99005470399E+03  0.50400001928E-02 0. -1.
</event>
<event>
 5   0  0.4377843E-02  0.7355085E+03  0.7818609E-02  0.9658364E-01
       -2   -1    0    0    0  501  0.00000000000E+00  0.00000000000E+00  0.94650794544E+02  0.94650794578E+02  0.25500000920E-02 0. -1.
        2   -1    0    0  501    0  0.00000000000E+00  0.00000000000E+00 -0.14288646138E+04  0.14288646138E+04  0.25500000920E-02 0.  1.
    10030    2    1    2    0    0  0.00000000000E+00  0.00000000000E+00 -0.13342138193E+04  0.15235154084E+04  0.73550845276E+03 0.  0.
        2    1    3    3  502    0 -0.21479316515E+03 -0.15509336818E+03 -0.11954222597E+04  0.12244282076E+04  0.25500000920E-02 0.  1.
       -2    1    3    3    0  502  0.21479316515E+03  0.15509336818E+03 -0.13879155957E+03  0.29908720077E+03  0.25500000920E-02 0. -1.
</event>
<event>
 5   0  0.2606520E-02  0.8198967E+03  0.7818609E-02  0.9531656E-01
       -1   -1    0    0    0  501  0.00000000000E+00  0.00000000000E+00  0.15077666100E+03  0.15077666109E+03  0.50400001928E-02 0. -1.
        1   -1    0    0  501    0  0.00000000000E+00  0.00000000000E+00 -0.11146132009E+04  0.11146132009E+04  0.50400001928E-02 0.  1.
    10030    2    1    2    0    0  0.00000000000E+00  0.00000000000E+00 -0.96383653993E+03  0.12653898620E+04  0.81989671741E+03 0.  0.
        5    1    3    3  502    0  0.20891882935E+03  0.31053284302E+03 -0.73997609555E+03  0.82925535020E+03  0.46999998093E+01 0.  1.
       -5    1    3    3    0  502 -0.20891882935E+03 -0.31053284302E+03 -0.22386044437E+03  0.43613451182E+03  0.46999998093E+01 0. -1.
</event>
<event>
 5   0  0.2635243E-02  0.7971349E+03  0.7818609E-02  0.9564174E-01
       -1   -1    0    0    0  501  0.00000000000E+00  0.00000000000E+00  0.19612492966E+03  0.19612492973E+03  0.50400001928E-02 0. -1.
        1   -1    0    0  501    0  0.00000000000E+00  0.00000000000E+00 -0.80997356777E+03  0.80997356779E+03  0.50400001928E-02 0.  1.
    10030    2    1    2    0    0  0.00000000000E+00  0.00000000000E+00 -0.61384863811E+03  0.10060984975E+04  0.79713489210E+03 0.  0.
        1    1    3    3  502    0  0.22642449336E+03  0.26873658693E+02  0.10567449856E+03  0.25131125004E+03  0.50400001928E-02 0. -1.
       -1    1    3    3    0  502 -0.22642449336E+03 -0.26873658693E+02 -0.71952313667E+03  0.75478724747E+03  0.50400001928E-02 0.  1.
</event>
<event>
 5   0  0.2769394E-02  0.8156762E+03  0.7818609E-02  0.9537600E-01
        1   -1    0    0  501    0  0.00000000000E+00  0.00000000000E+00  0.85422061157E+03  0.85422061159E+03  0.50400001928E-02 0. -1.
       -1   -1    0    0    0  501  0.00000000000E+00  0.00000000000E+00 -0.19471774180E+03  0.19471774186E+03  0.50400001928E-02 0.  1.
    10030    2    1    2    0    0  0.00000000000E+00  0.00000000000E+00  0.65950286978E+03  0.10489383534E+04  0.81567618213E+03 0.  0.
        2    1    3    3  502    0  0.67915007540E+02 -0.13449787263E+03 -0.15761367562E+03  0.21804631788E+03  0.25500000920E-02 0.  1.
       -2    1    3    3    0  502 -0.67915007540E+02  0.13449787263E+03  0.81711654540E+03  0.83089203557E+03  0.25500000920E-02 0. -1.
</event>
<event>
 5   0  0.4377843E-02  0.8199751E+03  0.7818609E-02  0.9531546E-01
       -2   -1    0    0    0  501  0.00000000000E+00  0.00000000000E+00  0.79533727800E+02  0.79533727841E+02  0.25500000920E-02 0. -1.
        2   -1    0    0  501    0  0.00000000000E+00  0.00000000000E+00 -0.21134402589E+04  0.21134402589E+04  0.25500000920E-02 0.  1.
    10030    2    1    2    0    0  0.00000000000E+00  0.00000000000E+00 -0.20339065311E+04  0.21929739867E+04  0.81997507844E+03 0.  0.
        2    1    3    3  502    0  0.49232049505E+02  0.39664195455E+03 -0.12612095394E+04  0.13230261287E+04  0.25500000920E-02 0.  1.
       -2    1    3    3    0  502 -0.49232049505E+02 -0.39664195455E+03 -0.77269699164E+03  0.86994785803E+03  0.25500000920E-02 0. -1.
</event>
<event>
 5   0  0.4590462E-02  0.7879459E+03  0.7818609E-02  0.9577631E-01
        2   -1    0    0  501    0  0.00000000000E+00  0.00000000000E+00  0.54257532730E+03  0.54257532731E+03  0.25500000920E-02 0. -1.
       -2   -1    0    0    0  501  0.00000000000E+00  0.00000000000E+00 -0.28607027378E+03  0.28607027380E+03  0.25500000920E-02 0.  1.
    10030    2    1    2    0    0  0.00000000000E+00  0.00000000000E+00  0.25650505352E+03  0.82864560110E+03  0.78794586727E+03 0.  0.
        3    1    3    3  502    0  0.18180043337E+02 -0.40005624362E+02 -0.28348498180E+03  0.28687054409E+03  0.10100000352E+00 0.  1.
       -3    1    3    3    0  502 -0.18180043337E+02  0.40005624362E+02  0.53999003532E+03  0.54177505702E+03  0.10100000352E+00 0. -1.
</event>
<event>
 5   0  0.2606520E-02  0.8012125E+03  0.7818609E-02  0.9558264E-01
        1   -1    0    0  501    0  0.00000000000E+00  0.00000000000E+00  0.22312761712E+03  0.22312761717E+03  0.50400001928E-02 0. -1.
       -1   -1    0    0    0  501  0.00000000000E+00  0.00000000000E+00 -0.71925378269E+03  0.71925378271E+03  0.50400001928E-02 0.  1.
    10030    2    1    2    0    0  0.00000000000E+00  0.00000000000E+00 -0.49612616557E+03  0.94238139988E+03  0.80121253776E+03 0.  0.
        5    1    3    3  502    0  0.18875830249E+03 -0.69756106679E+02 -0.65545377455E+03  0.68566562678E+03  0.46999998093E+01 0.  1.
       -5    1    3    3    0  502 -0.18875830249E+03  0.69756106679E+02  0.15932760898E+03  0.25671577310E+03  0.46999998093E+01 0. -1.
</event>
<event>
 5   0  0.2635243E-02  0.8179132E+03  0.7818609E-02  0.9534444E-01
        1   -1    0    0  501    0  0.00000000000E+00  0.00000000000E+00  0.45162931848E+03  0.45162931851E+03  0.50400001928E-02 0. -1.
       -1   -1    0    0    0  501  0.00000000000E+00  0.00000000000E+00 -0.37031586818E+03  0.37031586822E+03  0.50400001928E-02 0.  1.
    10030    2    1    2    0    0  0.00000000000E+00  0.00000000000E+00  0.81313450296E+02  0.82194518672E+03  0.81791320614E+03 0.  0.
        1    1    3    3  502    0 -0.22611934222E+03  0.14604021703E+03  0.35005070628E+03  0.44158034253E+03  0.50400001928E-02 0. -1.
       -1    1    3    3    0  502  0.22611934222E+03 -0.14604021703E+03 -0.26873725599E+03  0.38036484419E+03  0.50400001928E-02 0.  1.
</event>
<event>
 5   0  0.2759559E-02  0.7892774E+03  0.7818609E-02  0.9575669E-01
       -1   -1    0    0    0  501  0.00000000000E+00  0.00000000000E+00  0.77094878751E+03  0.77094878753E+03  0.50400001928E-02 0. -1.
        1   -1    0    0  501    0  0.00000000000E+00  0.00000000000E+00 -0.20201046217E+03  0.20201046223E+03  0.50400001928E-02 0.  1.
    10030    2    1    2    0    0  0.00000000000E+00  0.00000000000E+00  0.56893832534E+03  0.97295924976E+03  0.78927744402E+03 0.  0.
        3    1    3    3  502    0 -0.27361615187E+03  0.12518637751E+03 -0.30303031071E+02  0.30241645387E+03  0.10100000352E+00 0.  1.
       -3    1    3    3    0  502  0.27361615187E+03 -0.12518637751E+03  0.59924135642E+03  0.67054279589E+03  0.10100000352E+00 0. -1.
</event>
<event>
 5   0  0.4663634E-02  0.6990871E+03  0.7818609E-02  0.9718795E-01
        2   -1    0    0  501    0  0.00000000000E+00  0.00000000000E+00  0.18941903154E+04  0.18941903154E+04  0.25500000920E-02 0.  1.
       -2   -1    0    0    0  501  0.00000000000E+00  0.00000000000E+00 -0.64502859652E+02  0.64502859702E+02  0.25500000920E-02 0. -1.
    10030    2    1    2    0    0  0.00000000000E+00  0.00000000000E+00  0.18296874558E+04  0.19586931751E+04  0.69908709650E+03 0.  0.
        5    1    3    3  502    0 -0.31848972646E+03  0.81497918087E+02  0.58237434963E+03  0.66877469272E+03  0.46999998093E+01 0. -1.
       -5    1    3    3    0  502  0.31848972646E+03 -0.81497918087E+02  0.12473131062E+04  0.12899184824E+04  0.46999998093E+01 0.  1.
</event>
<event>
 5   0  0.1786500E-02  0.7699904E+03  0.7818609E-02  0.9604500E-01
       -3   -1    0    0    0  501  0.00000000000E+00  0.00000000000E+00  0.98675631904E+03  0.98675632420E+03  0.10100000352E+00 0.  1.
        3   -1    0    0  501    0  0.00000000000E+00  0.00000000000E+00 -0.15021060757E+03  0.15021064152E+03  0.10100000352E+00 0. -1.
    10030    2    1    2    0    0  0.00000000000E+00  0.00000000000E+00  0.83654571147E+03  0.11369669657E+04  0.76999035954E+03 0.  0.
        2    1    3    3  502    0  0.18953899105E+03 -0.25580417619E+03  0.98629311153E+02  0.33329948502E+03  0.25500000920E-02 0. -1.
       -2    1    3    3    0  502 -0.18953899105E+03  0.25580417619E+03  0.73791640032E+03  0.80366748071E+03  0.25500000920E-02 0.  1.
</event>
<event>
 5   0  0.4377843E-02  0.8082219E+03  0.7818609E-02  0.9548192E-01
       -2   -1    0    0    0  501  0.00000000000E+00  0.00000000000E+00  0.77832906405E+03  0.77832906405E+03  0.25500000920E-02 0. -1.
        2   -1    0    0  501    0  0.00000000000E+00  0.00000000000E+00 -0.20981568173E+03  0.20981568174E+03  0.25500000920E-02 0.  1.
    10030    2    1    2    0    0  0.00000000000E+00  0.00000000000E+00  0.56851338232E+03  0.98814474579E+03  0.80822185863E+03 0.  0.
        2    1    3    3  502    0 -0.34168853895E+03 -0.14746104352E+03  0.91680836217E+02  0.38327691392E+03  0.25500000920E-02 0.  1.
       -2    1    3    3    0  502  0.34168853895E+03  0.14746104352E+03  0.47683254610E+03  0.60486783187E+03  0.25500000920E-02 0. -1.
</event>
<event>
 5   0  0.4377843E-02  0.8072055E+03  0.7818609E-02  0.9549646E-01
       -2   -1    0    0    0  501  0.00000000000E+00  0.00000000000E+00  0.27427625313E+03  0.27427625314E+03  0.25500000920E-02 0.  1.
        2   -1    0    0  501    0  0.00000000000E+00  0.00000000000E+00 -0.59390920413E+03  0.59390920413E+03  0.25500000920E-02 0. -1.
    10030    2    1    2    0    0  0.00000000000E+00  0.00000000000E+00 -0.31963295100E+03  0.86818545728E+03  0.80720552827E+03 0.  0.
        2    1    3    3  502    0  0.25865751688E+03  0.28591506727E+03 -0.31451898984E+02  0.38683376104E+03  0.25500000920E-02 0.  1.
       -2    1    3    3    0  502 -0.25865751688E+03 -0.28591506727E+03 -0.28818105201E+03  0.48135169624E+03  0.25500000920E-02 0. -1.
</event>
<event>
 5   0  0.4663634E-02  0.7897576E+03  0.7818609E-02  0.9574962E-01
       -2   -1    0    0    0  501  0.00000000000E+00  0.00000000000E+00  0.15683976089E+03  0.15683976091E+03  0.25500000920E-02 0.  1.
        2   -1    0    0  501    0  0.00000000000E+00  0.00000000000E+00 -0.99419464427E+03  0.99419464427E+03  0.25500000920E-02 0. -1.
    10030    2    1    2    0    0  0.00000000000E+00  0.00000000000E+00 -0.83735488338E+03  0.11510344052E+04  0.78975755850E+03 0.  0.
        5    1    3    3  502    0 -0.24314529202E+03  0.28415238578E+03 -0.60329103846E+03  0.70981996200E+03  0.46999998093E+01 0. -1.
       -5    1    3    3    0  502  0.24314529202E+03 -0.28415238578E+03 -0.23406384492E+03  0.44121444318E+03  0.46999998093E+01 0.  1.
</event>
<event>
 5   0  0.4684283E-02  0.8132437E+03  0.7818609E-02  0.9541043E-01
       -2   -1    0    0    0  501  0.00000000000E+00  0.00000000000E+00  0.20729951021E+03  0.20729951022E+03  0.25500000920E-02 0. -1.
        2   -1    0    0  501    0  0.00000000000E+00  0.00000000000E+00 -0.79759629643E+03  0.79759629643E+03  0.25500000920E-02 0.  1.
    10030    2    1    2    0    0  0.00000000000E+00  0.00000000000E+00 -0.59029678622E+03  0.10048958067E+04  0.81324368206E+03 0.  0.
        1    1    3    3  502    0  0.18121306984E+03 -0.26765763004E+03 -0.59999078826E+03  0.68151869352E+03  0.50400001928E-02 0.  1.
       -1    1    3    3    0  502 -0.18121306984E+03  0.26765763004E+03  0.96940020376E+01  0.32337711314E+03  0.50400001928E-02 0. -1.
</event>
<event>
 5   0  0.4377843E-02  0.7808584E+03  0.7818609E-02  0.9588145E-01
        2   -1    0    0  501    0  0.00000000000E+00  0.00000000000E+00  0.66404895096E+03  0.66404895096E+03  0.25500000920E-02 0.  1.
       -2   -1    0    0    0  501  0.00000000000E+00  0.00000000000E+00 -0.22955382334E+03  0.22955382336E+03  0.25500000920E-02 0. -1.
    10030    2    1    2    0    0  0.00000000000E+00  0.00000000000E+00  0.43449512761E+03  0.89360277432E+03  0.78085843938E+03 0.  0.
        2    1    3    3  502    0  0.31043099251E+03 -0.92422979703E+02 -0.32232504786E+02  0.32549707013E+03  0.25500000920E-02 0. -1.
       -2    1    3    3    0  502 -0.31043099251E+03  0.92422979703E+02  0.46672763240E+03  0.56810570419E+03  0.25500000920E-02 0.  1.
</event>
<event>
 5   0  0.4684283E-02  0.8223689E+03  0.7818609E-02  0.9528192E-01
        2   -1    0    0  501    0  0.00000000000E+00  0.00000000000E+00  0.11449378978E+03  0.11449378981E+03  0.25500000920E-02 0. -1.
       -2   -1    0    0    0  501  0.00000000000E+00  0.00000000000E+00 -0.14766972315E+04  0.14766972315E+04  0.25500000920E-02 0.  1.
    10030    2    1    2    0    0  0.00000000000E+00  0.00000000000E+00 -0.13622034418E+04  0.15911910214E+04  0.82236892555E+03 0.  0.
        1    1    3    3  502    0  0.40110645288E+03 -0.59367224768E+02 -0.81321085374E+03  0.90869287803E+03  0.50400001928E-02 0.  1.
       -1    1    3    3    0  502 -0.40110645288E+03  0.59367224768E+02 -0.54899258801E+03  0.68249814332E+03  0.50400001928E-02 0. -1.
</event>
<event>
 5   0  0.2689372E-02  0.7927526E+03  0.7818609E-02  0.9570567E-01
        1   -1    0    0  501    0  0.00000000000E+00  0.00000000000E+00  0.14121937397E+03  0.14121937406E+03  0.50400001928E-02 0. -1.
       -1   -1    0    0    0  501  0.00000000000E+00  0.00000000000E+00 -0.11125540730E+04  0.11125540730E+04  0.50400001928E-02 0.  1.
    10030    2    1    2    0    0  0.00000000000E+00  0.00000000000E+00 -0.97133469903E+03  0.12537734471E+04  0.79275264681E+03 0.  0.
        4    1    3    3  502    0  0.88764795551E+02  0.15659118645E+03  0.72849800828E+02  0.19418726782E+03  0.12699999809E+01 0. -1.
       -4    1    3    3    0  502 -0.88764795551E+02 -0.15659118645E+03 -0.10441844999E+04  0.10595861792E+04  0.12699999809E+01 0.  1.
</event>
<event>
 5   0  0.2689372E-02  0.8293412E+03  0.7818609E-02  0.9518492E-01
        1   -1    0    0  501    0  0.00000000000E+00  0.00000000000E+00  0.13301912013E+04  0.13301912013E+04  0.50400001928E-02 0.  1.
       -1   -1    0    0    0  501  0.00000000000E+00  0.00000000000E+00 -0.12926842634E+03  0.12926842644E+03  0.50400001928E-02 0. -1.
    10030    2    1    2    0    0  0.00000000000E+00  0.00000000000E+00  0.12009227749E+04  0.14594596277E+04  0.82934124074E+03 0.  0.
        4    1    3    3  502    0  0.27090539917E+03 -0.22564059338E+03  0.98458873481E+03  0.10458106914E+04  0.12699999809E+01 0.  1.
       -4    1    3    3    0  502 -0.27090539917E+03  0.22564059338E+03  0.21633404011E+03  0.41364893628E+03  0.12699999809E+01 0. -1.
</event>
<event>
 5   0  0.2689372E-02  0.7923712E+03  0.7818609E-02  0.9571126E-01
        1   -1    0    0  501    0  0.00000000000E+00  0.00000000000E+00  0.11926754172E+04  0.11926754172E+04  0.50400001928E-02 0. -1.
       -1   -1    0    0    0  501  0.00000000000E+00  0.00000000000E+00 -0.13160581242E+03  0.13160581252E+03  0.50400001928E-02 0.  1.
    10030    2    1    2    0    0  0.00000000000E+00  0.00000000000E+00  0.10610696047E+04  0.13242812297E+04  0.79237116883E+03 0.  0.
        4    1    3    3  502    0  0.29530024885E+02  0.25787232752E+03  0.30287974139E+02  0.26132189718E+03  0.12699999809E+01 0.  1.
       -4    1    3    3    0  502 -0.29530024885E+02 -0.25787232752E+03  0.10307816306E+04  0.10629593325E+04  0.12699999809E+01 0. -1.
</event>
<event>
 5   0  0.4700220E-02  0.8031539E+03  0.7818609E-02  0.9555463E-01
        2   -1    0    0  501    0  0.00000000000E+00  0.00000000000E+00  0.47719519480E+03  0.47719519481E+03  0.25500000920E-02 0.  1.
       -2   -1    0    0    0  501  0.00000000000E+00  0.00000000000E+00 -0.33794144296E+03  0.33794144297E+03  0.25500000920E-02 0. -1.
    10030    2    1    2    0    0  0.00000000000E+00  0.00000000000E+00  0.13925375184E+03  0.81513663777E+03  0.80315386498E+03 0.  0.
        4    1    3    3  502    0 -0.18507417048E+03 -0.11047977458E+03  0.41350973644E+03  0.46631549856E+03  0.12699999809E+01 0.  1.
       -4    1    3    3    0  502  0.18507417048E+03  0.11047977458E+03 -0.27425598460E+03  0.34882113921E+03  0.12699999809E+01 0. -1.
</event>
<event>
 5   0  0.2606520E-02  0.8608880E+03  0.7818609E-02  0.9475839E-01
       -1   -1    0    0    0  501  0.00000000000E+00  0.00000000000E+00  0.34917113183E+03  0.34917113187E+03  0.50400001928E-02 0.  1.
        1   -1    0    0  501    0  0.00000000000E+00  0.00000000000E+00 -0.53063394349E+03  0.53063394351E+03  0.50400001928E-02 0. -1.
    10030    2    1    2    0    0  0.00000000000E+00  0.00000000000E+00 -0.18146281166E+03  0.87980507538E+03  0.86088804071E+03 0.  0.
        5    1    3    3  502    0  0.56805288292E+02  0.41622636575E+03 -0.18653967760E+03  0.45966332205E+03  0.46999998093E+01 0.  1.
       -5    1    3    3    0  502 -0.56805288292E+02 -0.41622636575E+03  0.50768659442E+01  0.42014175332E+03  0.46999998093E+01 0. -1.
</event>
<event>
 5   0  0.2769394E-02  0.8220090E+03  0.7818609E-02  0.9528695E-01
        1   -1    0    0  501    0  0.00000000000E+00  0.00000000000E+00  0.33120628241E+03  0.33120628244E+03  0.50400001928E-02 0.  1.
       -1   -1    0    0    0  501  0.00000000000E+00  0.00000000000E+00 -0.51002872551E+03  0.51002872553E+03  0.50400001928E-02 0. -1.
    10030    2    1    2    0    0  0.00000000000E+00  0.00000000000E+00 -0.17882244310E+03  0.84123500798E+03  0.82200904648E+03 0.  0.
        2    1    3    3  502    0  0.36782087043E+03  0.62929065029E+02 -0.26569709165E+03  0.45809082557E+03  0.25500000920E-02 0. -1.
       -2    1    3    3    0  502 -0.36782087043E+03 -0.62929065029E+02  0.86874648542E+02  0.38314418241E+03  0.25500000920E-02 0.  1.
</event>
<event>
 5   0  0.2689372E-02  0.7796730E+03  0.7818609E-02  0.9589915E-01
        1   -1    0    0  501    0  0.00000000000E+00  0.00000000000E+00  0.10978709806E+04  0.10978709806E+04  0.50400001928E-02 0. -1.
       -1   -1    0    0    0  501  0.00000000000E+00  0.00000000000E+00 -0.13842473371E+03  0.13842473380E+03  0.50400001928E-02 0.  1.
    10030    2    1    2    0    0  0.00000000000E+00  0.00000000000E+00  0.95944624685E+03  0.12362957144E+04  0.77967300376E+03 0.  0.
        4    1    3    3  502    0  0.37144479947E+03 -0.31969779885E+01  0.66726998795E+03  0.76369647730E+03  0.12699999809E+01 0. -1.
       -4    1    3    3    0  502 -0.37144479947E+03  0.31969779885E+01  0.29217625890E+03  0.47259923708E+03  0.12699999809E+01 0.  1.
</event>
<event>
 5   0  0.2689372E-02  0.8197810E+03  0.7818609E-02  0.9531818E-01
       -1   -1    0    0    0  501  0.00000000000E+00  0.00000000000E+00  0.97151714673E+03  0.97151714674E+03  0.50400001928E-02 0.  1.
        1   -1    0    0  501    0  0.00000000000E+00  0.00000000000E+00 -0.17293591090E+03  0.17293591097E+03  0.50400001928E-02 0. -1.
    10030    2    1    2    0    0  0.00000000000E+00  0.00000000000E+00  0.79858123583E+03  0.11444530577E+04  0.81978095311E+03 0.  0.
        4    1    3    3  502    0 -0.33878065510E+03 -0.19658325170E+03  0.23065593638E+03  0.45455591626E+03  0.12699999809E+01 0. -1.
       -4    1    3    3    0  502  0.33878065510E+03  0.19658325170E+03  0.56792529945E+03  0.68989714145E+03  0.12699999809E+01 0.  1.
</event>
<event>
 5   0  0.4590462E-02  0.6415557E+03  0.7818609E-02  0.9822755E-01
       -2   -1    0    0    0  501  0.00000000000E+00  0.00000000000E+00  0.96740932719E+02  0.96740932752E+02  0.25500000920E-02 0.  1.
        2   -1    0    0  501    0  0.00000000000E+00  0.00000000000E+00 -0.10636493232E+04  0.10636493232E+04  0.25500000920E-02 0. -1.
    10030    2    1    2    0    0  0.00000000000E+00  0.00000000000E+00 -0.96690839052E+03  0.11603902560E+04  0.64155569559E+03 0.  0.
        3    1    3    3  502    0 -0.10127986740E+03  0.26400740220E+03 -0.20950192081E+03  0.35192127668E+03  0.10100000352E+00 0.  1.
       -3    1    3    3    0  502  0.10127986740E+03 -0.26400740220E+03 -0.75740646971E+03  0.80846897932E+03  0.10100000352E+00 0. -1.
</event>
<event>
 5   0  0.2769394E-02  0.8216447E+03  0.7818609E-02  0.9529205E-01
        1   -1    0    0  501    0  0.00000000000E+00  0.00000000000E+00  0.40835623461E+03  0.40835623465E+03  0.50400001928E-02 0.  1.
       -1   -1    0    0    0  501  0.00000000000E+00  0.00000000000E+00 -0.41330334699E+03  0.41330334702E+03  0.50400001928E-02 0. -1.
    10030    2    1    2    0    0  0.00000000000E+00  0.00000000000E+00 -0.49471123793E+01  0.82165958167E+03  0.82164468855E+03 0.  0.
        2    1    3    3  502    0 -0.45021953309E+02 -0.27510576354E+03  0.29930143027E+03  0.40901284036E+03  0.25500000920E-02 0.  1.
       -2    1    3    3    0  502  0.45021953309E+02  0.27510576354E+03 -0.30424854265E+03  0.41264674132E+03  0.25500000920E-02 0. -1.
</event>
<event>
 5   0  0.4590462E-02  0.8022018E+03  0.7818609E-02  0.9556836E-01
       -2   -1    0    0    0  501  0.00000000000E+00  0.00000000000E+00  0.10199429518E+03  0.10199429521E+03  0.25500000920E-02 0. -1.
        2   -1    0    0  501    0  0.00000000000E+00  0.00000000000E+00 -0.15773620189E+04  0.15773620189E+04  0.25500000920E-02 0.  1.
    10030    2    1    2    0    0  0.00000000000E+00  0.00000000000E+00 -0.14753677237E+04  0.16793563141E+04  0.80220178853E+03 0.  0.
        3    1    3    3  502    0 -0.18706278167E+03  0.33790060016E+03 -0.51112231441E+03  0.64063666018E+03  0.10100000352E+00 0. -1.
       -3    1    3    3    0  502  0.18706278167E+03 -0.33790060016E+03 -0.96424540927E+03  0.10387196539E+04  0.10100000352E+00 0.  1.
</event>
<event>
 5   0  0.2606520E-02  0.8061082E+03  0.7818609E-02  0.9551218E-01
        1   -1    0    0  501    0  0.00000000000E+00  0.00000000000E+00  0.14064597760E+04  0.14064597760E+04  0.50400001928E-02 0. -1.
       -1   -1    0    0    0  501  0.00000000000E+00  0.00000000000E+00 -0.11550461326E+03  0.11550461337E+03  0.50400001928E-02 0.  1.
    10030    2    1    2    0    0  0.00000000000E+00  0.00000000000E+00  0.12909551627E+04  0.15219643894E+04  0.80610816292E+03 0.  0.
        5    1    3    3  502    0  0.26285464242E+03  0.15846108052E+03  0.15231221059E+03  0.34267123687E+03  0.46999998093E+01 0.  1.
       -5    1    3    3    0  502 -0.26285464242E+03 -0.15846108052E+03  0.11386429521E+04  0.11792931525E+04  0.46999998093E+01 0. -1.
</event>
<event>
 5   0  0.4590462E-02  0.7564551E+03  0.7818609E-02  0.9625277E-01
        2   -1    0    0  501    0  0.00000000000E+00  0.00000000000E+00  0.10624478541E+04  0.10624478541E+04  0.25500000920E-02 0. -1.
       -2   -1    0    0    0  501  0.00000000000E+00  0.00000000000E+00 -0.13464764161E+03  0.13464764164E+03  0.25500000920E-02 0.  1.
    10030    2    1    2    0    0  0.00000000000E+00  0.00000000000E+00  0.92780021252E+03  0.11970954958E+04  0.75645514847E+03 0.  0.
        3    1    3    3  502    0 -0.10018686188E+03  0.33600259354E+03  0.23942420689E+03  0.42456932438E+03  0.10100000352E+00 0.  1.
       -3    1    3    3    0  502  0.10018686188E+03 -0.33600259354E+03  0.68837600563E+03  0.77252617139E+03  0.10100000352E+00 0. -1.
</event>
<event>
 5   0  0.2759559E-02  0.8228264E+03  0.7818609E-02  0.9527552E-01
        1   -1    0    0  501    0  0.00000000000E+00  0.00000000000E+00  0.83179718049E+03  0.83179718050E+03  0.50400001928E-02 0. -1.
       -1   -1    0    0    0  501  0.00000000000E+00  0.00000000000E+00 -0.20348810113E+03  0.20348810119E+03  0.50400001928E-02 0.  1.
    10030    2    1    2    0    0  0.00000000000E+00  0.00000000000E+00  0.62830907936E+03  0.10352852817E+04  0.82282641868E+03 0.  0.
        3    1    3    3  502    0  0.10799098784E+03 -0.29147587853E+03  0.65326521084E+03  0.72344708660E+03  0.10100000352E+00 0. -1.
       -3    1    3    3    0  502 -0.10799098784E+03  0.29147587853E+03 -0.24956131476E+02  0.31183819509E+03  0.10100000352E+00 0.  1.
</event>
<event>
 5   0  0.2606520E-02  0.8020729E+03  0.7818609E-02  0.9557022E-01
        1   -1    0    0  501    0  0.00000000000E+00  0.00000000000E+00  0.72418262870E+03  0.72418262871E+03  0.50400001928E-02 0.  1.
       -1   -1    0    0    0  501  0.00000000000E+00  0.00000000000E+00 -0.22208518221E+03  0.22208518227E+03  0.50400001928E-02 0. -1.
    10030    2    1    2    0    0  0.00000000000E+00  0.00000000000E+00  0.50209744648E+03  0.94626781098E+03  0.80207289216E+03 0.  0.
        5    1    3    3  502    0  0.10802952122E+03  0.34667407189E+03  0.45180119418E+03  0.57965480989E+03  0.46999998093E+01 0.  1.
       -5    1    3    3    0  502 -0.10802952122E+03 -0.34667407189E+03  0.50296252305E+02  0.36661300109E+03  0.46999998093E+01 0. -1.
</event>
<event>
 5   0  0.4663634E-02  0.8176908E+03  0.7818609E-02  0.9534758E-01
        2   -1    0    0  501    0  0.00000000000E+00  0.00000000000E+00  0.75318641708E+03  0.75318641708E+03  0.25500000920E-02 0.  1.
       -2   -1    0    0    0  501  0.00000000000E+00  0.00000000000E+00 -0.22192984418E+03  0.22192984419E+03  0.25500000920E-02 0. -1.
    10030    2    1    2    0    0  0.00000000000E+00  0.00000000000E+00  0.53125657290E+03  0.97511626128E+03  0.81769075863E+03 0.  0.
        5    1    3    3  502    0 -0.29421211827E+03  0.28074132327E+03  0.21565605912E+03  0.46033258299E+03  0.46999998093E+01 0. -1.
       -5    1    3    3    0  502  0.29421211827E+03 -0.28074132327E+03  0.31560051379E+03  0.51478367829E+03  0.46999998093E+01 0.  1.
</event>
<event>
 5   0  0.2635243E-02  0.7988317E+03  0.7818609E-02  0.9561710E-01
        1   -1    0    0  501    0  0.00000000000E+00  0.00000000000E+00  0.10719408354E+04  0.10719408354E+04  0.50400001928E-02 0. -1.
       -1   -1    0    0    0  501  0.00000000000E+00  0.00000000000E+00 -0.14882633837E+03  0.14882633845E+03  0.50400001928E-02 0.  1.
    10030    2    1    2    0    0  0.00000000000E+00  0.00000000000E+00  0.92311449699E+03  0.12207671738E+04  0.79883172079E+03 0.  0.
        1    1    3    3  502    0  0.35316436484E+03 -0.35351698240E+01  0.74661893727E+03  0.82594031475E+03  0.50400001928E-02 0. -1.
       -1    1    3    3    0  502 -0.35316436484E+03  0.35351698240E+01  0.17649555972E+03  0.39482685908E+03  0.50400001928E-02 0.  1.
</event>
<event>
 5   0  0.2769394E-02  0.8269008E+03  0.7818609E-02  0.9521875E-01
       -1   -1    0    0    0  501  0.00000000000E+00  0.00000000000E+00  0.16922101085E+03  0.16922101093E+03  0.50400001928E-02 0.  1.
        1   -1    0    0  501    0  0.00000000000E+00  0.00000000000E+00 -0.10101656453E+04  0.10101656453E+04  0.50400001928E-02 0. -1.
    10030    2    1    2    0    0  0.00000000000E+00  0.00000000000E+00 -0.84094463444E+03  0.11793866562E+04  0.82690084455E+03 0.  0.
        2    1    3    3  502    0  0.13837623897E+03  0.28088775788E+03 -0.35390826601E+02  0.31511652869E+03  0.25500000920E-02 0.  1.
       -2    1    3    3    0  502 -0.13837623897E+03 -0.28088775788E+03 -0.80555380784E+03  0.86427012755E+03  0.25500000920E-02 0. -1.
</event>
<event>
 5   0  0.4377843E-02  0.7893974E+03  0.7818609E-02  0.9575492E-01
        2   -1    0    0  501    0  0.00000000000E+00  0.00000000000E+00  0.80323328608E+03  0.80323328609E+03  0.25500000920E-02 0.  1.
       -2   -1    0    0    0  501  0.00000000000E+00  0.00000000000E+00 -0.19394994418E+03  0.19394994419E+03  0.25500000920E-02 0. -1.
    10030    2    1    2    0    0  0.00000000000E+00  0.00000000000E+00  0.60928334191E+03  0.99718323028E+03  0.78939736764E+03 0.  0.
        2    1    3    3  502    0  0.50262691582E+02  0.27007705270E+03  0.66264635178E+03  0.71733405056E+03  0.25500000920E-02 0.  1.
       -2    1    3    3    0  502 -0.50262691582E+02 -0.27007705270E+03 -0.53363009872E+02  0.27984917972E+03  0.25500000920E-02 0. -1.
</event>
<event>
 5   0  0.4377843E-02  0.8165212E+03  0.7818609E-02  0.9536407E-01
       -2   -1    0    0    0  501  0.00000000000E+00  0.00000000000E+00  0.59159482745E+03  0.59159482746E+03  0.25500000920E-02 0. -1.
        2   -1    0    0  501    0  0.00000000000E+00  0.00000000000E+00 -0.28174130931E+03  0.28174130932E+03  0.25500000920E-02 0.  1.
    10030    2    1    2    0    0  0.00000000000E+00  0.00000000000E+00  0.30985351815E+03  0.87333613677E+03  0.81652116022E+03 0.  0.
        2    1    3    3  502    0  0.15917676560E+03  0.14453317736E+03 -0.21628070682E+03  0.30496627062E+03  0.25500000920E-02 0.  1.
       -2    1    3    3    0  502 -0.15917676560E+03 -0.14453317736E+03  0.52613422497E+03  0.56836986615E+03  0.25500000920E-02 0. -1.
</event>
<event>
 5   0  0.4700220E-02  0.7632378E+03  0.7818609E-02  0.9614808E-01
        2   -1    0    0  501    0  0.00000000000E+00  0.00000000000E+00  0.13827679064E+04  0.13827679064E+04  0.25500000920E-02 0.  1.
       -2   -1    0    0    0  501  0.00000000000E+00  0.00000000000E+00 -0.10531990666E+03  0.10531990669E+03  0.25500000920E-02 0. -1.
    10030    2    1    2    0    0  0.00000000000E+00  0.00000000000E+00  0.12774479997E+04  0.14880878131E+04  0.76323780529E+03 0.  0.
        4    1    3    3  502    0  0.38979108999E+02 -0.21787156241E+03  0.12448404922E+04  0.12643642089E+04  0.12699999809E+01 0.  1.
       -4    1    3    3    0  502 -0.38979108999E+02  0.21787156241E+03  0.32607507518E+02  0.22372360424E+03  0.12699999809E+01 0. -1.
</event>
<event>
 5   0  0.4684283E-02  0.7903752E+03  0.7818609E-02  0.9574054E-01
        2   -1    0    0  501    0  0.00000000000E+00  0.00000000000E+00  0.54444695735E+03  0.54444695736E+03  0.25500000920E-02 0.  1.
       -2   -1    0    0    0  501  0.00000000000E+00  0.00000000000E+00 -0.28684747288E+03  0.28684747289E+03  0.25500000920E-02 0. -1.
    10030    2    1    2    0    0  0.00000000000E+00  0.00000000000E+00  0.25759948447E+03  0.83129443025E+03  0.79037518646E+03 0.  0.
        1    1    3    3  502    0  0.27895836621E+03  0.12311167056E+03 -0.13560948629E+03  0.33371273021E+03  0.50400001928E-02 0. -1.
       -1    1    3    3    0  502 -0.27895836621E+03 -0.12311167056E+03  0.39320897076E+03  0.49758170004E+03  0.50400001928E-02 0.  1.
</event>
<event>
 5   0  0.1786500E-02  0.7654110E+03  0.7818609E-02  0.9611478E-01
        4   -1    0    0  501    0  0.00000000000E+00  0.00000000000E+00  0.38503051689E+03  0.38503261140E+03  0.12699999809E+01 0. -1.
       -4   -1    0    0    0  501  0.00000000000E+00  0.00000000000E+00 -0.38039034053E+03  0.38039246058E+03  0.12699999809E+01 0.  1.
    10030    2    1    2    0    0  0.00000000000E+00  0.00000000000E+00  0.46401763645E+01  0.76542507198E+03  0.76541100696E+03 0.  0.
        1    1    3    3  502    0  0.12237594346E+03  0.30930777520E+03  0.19157559628E+03  0.38385984481E+03  0.50400001928E-02 0. -1.
       -1    1    3    3    0  502 -0.12237594346E+03 -0.30930777520E+03 -0.18693541992E+03  0.38156522717E+03  0.50400001928E-02 0.  1.
</event>
<event>
 5   0  0.4377843E-02  0.8159673E+03  0.7818609E-02  0.9537188E-01
       -2   -1    0    0    0  501  0.00000000000E+00  0.00000000000E+00  0.69446116560E+03  0.69446116561E+03  0.25500000920E-02 0.  1.
        2   -1    0    0  501    0  0.00000000000E+00  0.00000000000E+00 -0.23968319081E+03  0.23968319082E+03  0.25500000920E-02 0. -1.
    10030    2    1    2    0    0  0.00000000000E+00  0.00000000000E+00  0.45477797480E+03  0.93414435643E+03  0.81596732306E+03 0.  0.
        2    1    3    3  502    0 -0.19755830726E+03 -0.47619418373E+02  0.63239661556E+03  0.66424571745E+03  0.25500000920E-02 0.  1.
       -2    1    3    3    0  502  0.19755830726E+03  0.47619418373E+02 -0.17761864076E+03  0.26989863898E+03  0.25500000920E-02 0. -1.
</event>
<event>
 5   0  0.4590462E-02  0.9004719E+03  0.7818609E-02  0.9424992E-01
       -2   -1    0    0    0  501  0.00000000000E+00  0.00000000000E+00  0.31486276093E+03  0.31486276094E+03  0.25500000920E-02 0.  1.
        2   -1    0    0  501    0  0.00000000000E+00  0.00000000000E+00 -0.64381200500E+03  0.64381200500E+03  0.25500000920E-02 0. -1.
    10030    2    1    2    0    0  0.00000000000E+00  0.00000000000E+00 -0.32894924406E+03  0.95867476595E+03  0.90047193276E+03 0.  0.
        3    1    3    3  502    0 -0.25340694750E+03  0.24001586658E+03  0.13831973418E+03  0.37543981717E+03  0.10100000352E+00 0.  1.
       -3    1    3    3    0  502  0.25340694750E+03 -0.24001586658E+03 -0.46726897824E+03  0.58323494878E+03  0.10100000352E+00 0. -1.
</event>
<event>
 5   0  0.1786500E-02  0.7966826E+03  0.7818609E-02  0.9564831E-01
        3   -1    0    0  501    0  0.00000000000E+00  0.00000000000E+00  0.42528075989E+03  0.42528077188E+03  0.10100000352E+00 0. -1.
       -3   -1    0    0    0  501  0.00000000000E+00  0.00000000000E+00 -0.37310831961E+03  0.37310833328E+03  0.10100000352E+00 0.  1.
    10030    2    1    2    0    0  0.00000000000E+00  0.00000000000E+00  0.52172440285E+02  0.79838910516E+03  0.79668262170E+03 0.  0.
        2    1    3    3  502    0  0.66943693348E+01  0.39266634551E+03 -0.40720855450E+02  0.39482890162E+03  0.25500000920E-02 0.  1.
       -2    1    3    3    0  502 -0.66943693348E+01 -0.39266634551E+03  0.92893295735E+02  0.40356020354E+03  0.25500000920E-02 0. -1.
</event>
<event>
 5   0  0.1786500E-02  0.7970184E+03  0.7818609E-02  0.9564343E-01
       -3   -1    0    0    0  501  0.00000000000E+00  0.00000000000E+00  0.15136674175E+03  0.15136677544E+03  0.10100000352E+00 0.  1.
        3   -1    0    0  501    0  0.00000000000E+00  0.00000000000E+00 -0.10491707189E+04  0.10491707237E+04  0.10100000352E+00 0. -1.
    10030    2    1    2    0    0  0.00000000000E+00  0.00000000000E+00 -0.89780397714E+03  0.12005374992E+04  0.79701838473E+03 0.  0.
        2    1    3    3  502    0 -0.24537745151E+03 -0.31085920385E+03 -0.51569074407E+03  0.65021571948E+03  0.25500000920E-02 0. -1.
       -2    1    3    3    0  502  0.24537745151E+03  0.31085920385E+03 -0.38211323307E+03  0.55032177971E+03  0.25500000920E-02 0.  1.
</event>
<event>
 5   0  0.2759559E-02  0.8125803E+03  0.7818609E-02  0.9541984E-01
        1   -1    0    0  501    0  0.00000000000E+00  0.00000000000E+00  0.54694415435E+03  0.54694415437E+03  0.50400001928E-02 0.  1.
       -1   -1    0    0    0  501  0.00000000000E+00  0.00000000000E+00 -0.30180721141E+03  0.30180721145E+03  0.50400001928E-02 0. -1.
    10030    2    1    2    0    0  0.00000000000E+00  0.00000000000E+00  0.24513694294E+03  0.84875136582E+03  0.81258030999E+03 0.  0.
        3    1    3    3  502    0 -0.32864364835E+03 -0.23877464820E+03  0.11505816118E+03  0.42220655002E+03  0.10100000352E+00 0.  1.
       -3    1    3    3    0  502  0.32864364835E+03  0.23877464820E+03  0.13007878176E+03  0.42654481580E+03  0.10100000352E+00 0. -1.
</event>
<event>
 5   0  0.4663634E-02  0.8154339E+03  0.7818609E-02  0.9537942E-01
       -2   -1    0    0    0  501  0.00000000000E+00  0.00000000000E+00  0.11151527128E+03  0.11151527130E+03  0.25500000920E-02 0.  1.
        2   -1    0    0  501    0  0.00000000000E+00  0.00000000000E+00 -0.14906758591E+04  0.14906758591E+04  0.25500000920E-02 0. -1.
    10030    2    1    2    0    0  0.00000000000E+00  0.00000000000E+00 -0.13791605878E+04  0.16021911304E+04  0.81543392824E+03 0.  0.
        5    1    3    3  502    0 -0.20010371678E+03 -0.35048110644E+03 -0.57615431402E+03  0.70345887371E+03  0.46999998093E+01 0.  1.
       -5    1    3    3    0  502  0.20010371678E+03  0.35048110644E+03 -0.80300627376E+03  0.89873225665E+03  0.46999998093E+01 0. -1.
</event>
<event>
 5   0  0.2689372E-02  0.8057881E+03  0.7818609E-02  0.9551677E-01
       -1   -1    0    0    0  501  0.00000000000E+00  0.00000000000E+00  0.16635931855E+03  0.16635931863E+03  0.50400001928E-02 0.  1.
        1   -1    0    0  501    0  0.00000000000E+00  0.00000000000E+00 -0.97574109105E+03  0.97574109106E+03  0.50400001928E-02 0. -1.
    10030    2    1    2    0    0  0.00000000000E+00  0.00000000000E+00 -0.80938177250E+03  0.11421004097E+04  0.80578811865E+03 0.  0.
        4    1    3    3  502    0 -0.32913522812E+03 -0.13771609904E+03 -0.66995621147E+03  0.75903798358E+03  0.12699999809E+01 0. -1.
       -4    1    3    3    0  502  0.32913522812E+03  0.13771609904E+03 -0.13942556103E+03  0.38306242611E+03  0.12699999809E+01 0.  1.
</event>
<event>
 5   0  0.4684283E-02  0.8213840E+03  0.7818609E-02  0.9529570E-01
       -2   -1    0    0    0  501  0.00000000000E+00  0.00000000000E+00  0.28231160090E+03  0.28231160092E+03  0.25500000920E-02 0. -1.
        2   -1    0    0  501    0  0.00000000000E+00  0.00000000000E+00 -0.59745301173E+03  0.59745301173E+03  0.25500000920E-02 0.  1.
    10030    2    1    2    0    0  0.00000000000E+00  0.00000000000E+00 -0.31514141082E+03  0.87976461265E+03  0.82138399354E+03 0.  0.
        1    1    3    3  502    0  0.37471922042E+01 -0.16174019400E+03 -0.56188446250E+03  0.58471196416E+03  0.50400001928E-02 0.  1.
       -1    1    3    3    0  502 -0.37471922042E+01  0.16174019400E+03  0.24674305168E+03  0.29505264849E+03  0.50400001928E-02 0. -1.
</event>
<event>
 5   0  0.1786500E-02  0.7936281E+03  0.7818609E-02  0.9569286E-01
       -3   -1    0    0    0  501  0.00000000000E+00  0.00000000000E+00  0.21369525422E+04  0.21369525446E+04  0.10100000352E+00 0.  1.
        3   -1    0    0  501    0  0.00000000000E+00  0.00000000000E+00 -0.73684986089E+02  0.73685055309E+02  0.10100000352E+00 0. -1.
    10030    2    1    2    0    0  0.00000000000E+00  0.00000000000E+00  0.20632675561E+04  0.22106375999E+04  0.79362811819E+03 0.  0.
        1    1    3    3  502    0 -0.14739458408E+03 -0.99966938665E+02  0.43894901444E+02  0.18342659196E+03  0.50400001928E-02 0. -1.
       -1    1    3    3    0  502  0.14739458408E+03  0.99966938665E+02  0.20193726547E+04  0.20272110080E+04  0.50400001928E-02 0.  1.
</event>
<event>
 5   0  0.4377843E-02  0.7532996E+03  0.7818609E-02  0.9630188E-01
       -2   -1    0    0    0  501  0.00000000000E+00  0.00000000000E+00  0.59758844499E+03  0.59758844499E+03  0.25500000920E-02 0. -1.
        2   -1    0    0  501    0  0.00000000000E+00  0.00000000000E+00 -0.23739596500E+03  0.23739596502E+03  0.25500000920E-02 0.  1.
    10030    2    1    2    0    0  0.00000000000E+00  0.00000000000E+00  0.36019247999E+03  0.83498441001E+03  0.75329963648E+03 0.  0.
        2    1    3    3  502    0 -0.17203216684E+03  0.83524051897E+02  0.53977261250E+03  0.57264806546E+03  0.25500000920E-02 0. -1.
       -2    1    3    3    0  502  0.17203216684E+03 -0.83524051897E+02 -0.17958013251E+03  0.26233634455E+03  0.25500000920E-02 0.  1.
</event>
<event>
 5   0  0.2606520E-02  0.8394156E+03  0.7818609E-02  0.9504654E-01
       -1   -1    0    0    0  501  0.00000000000E+00  0.00000000000E+00  0.26907212892E+03  0.26907212897E+03  0.50400001928E-02 0. -1.
        1   -1    0    0  501    0  0.00000000000E+00  0.00000000000E+00 -0.65467447939E+03  0.65467447941E+03  0.50400001928E-02 0.  1.
    10030    2    1    2    0    0  0.00000000000E+00  0.00000000000E+00 -0.38560235047E+03  0.92374660837E+03  0.83941564424E+03 0.  0.
        5    1    3    3  502    0  0.12438886184E+03  0.12488438888E+03 -0.61193761707E+03  0.63683470126E+03  0.46999998093E+01 0.  1.
       -5    1    3    3    0  502 -0.12438886184E+03 -0.12488438888E+03  0.22633526661E+03  0.28691190711E+03  0.46999998093E+01 0. -1.
</event>
<event>
 5   0  0.4700220E-02  0.7975712E+03  0.7818609E-02  0.9563539E-01
        2   -1    0    0  501    0  0.00000000000E+00  0.00000000000E+00  0.11924387909E+04  0.11924387909E+04  0.25500000920E-02 0.  1.
       -2   -1    0    0    0  501  0.00000000000E+00  0.00000000000E+00 -0.13336528480E+03  0.13336528483E+03  0.25500000920E-02 0. -1.
    10030    2    1    2    0    0  0.00000000000E+00  0.00000000000E+00  0.10590735061E+04  0.13258040757E+04  0.79757116040E+03 0.  0.
        4    1    3    3  502    0  0.21691486639E+03  0.71043409728E+02  0.10731097388E+04  0.10971168350E+04  0.12699999809E+01 0.  1.
       -4    1    3    3    0  502 -0.21691486639E+03 -0.71043409728E+02 -0.14036232693E+02  0.22868724069E+03  0.12699999809E+01 0. -1.
</event>
<event>
 5   0  0.4663634E-02  0.8193001E+03  0.7818609E-02  0.9532494E-01
       -2   -1    0    0    0  501  0.00000000000E+00  0.00000000000E+00  0.15127183037E+03  0.15127183039E+03  0.25500000920E-02 0.  1.
        2   -1    0    0  501    0  0.00000000000E+00  0.00000000000E+00 -0.11093484777E+04  0.11093484777E+04  0.25500000920E-02 0. -1.
    10030    2    1    2    0    0  0.00000000000E+00  0.00000000000E+00 -0.95807664729E+03  0.12606203081E+04  0.81930012756E+03 0.  0.
        5    1    3    3  502    0  0.23662125282E+03 -0.11335022452E+03 -0.96305038619E+03  0.99816132315E+03  0.46999998093E+01 0. -1.
       -5    1    3    3    0  502 -0.23662125282E+03  0.11335022452E+03  0.49737389017E+01  0.26245898491E+03  0.46999998093E+01 0.  1.
</event>
<event>
 5   0  0.2689372E-02  0.7995166E+03  0.7818609E-02  0.9560717E-01
       -1   -1    0    0    0  501  0.00000000000E+00  0.00000000000E+00  0.68792276492E+02  0.68792276677E+02  0.50400001928E-02 0.  1.
        1   -1    0    0  501    0  0.00000000000E+00  0.00000000000E+00 -0.23230324401E+04  0.23230324401E+04  0.50400001928E-02 0. -1.
    10030    2    1    2    0    0  0.00000000000E+00  0.00000000000E+00 -0.22542401636E+04  0.23918247168E+04  0.79951657931E+03 0.  0.
        4    1    3    3  502    0 -0.10412064330E+03  0.31734373854E+03 -0.46994410772E+03  0.57653901345E+03  0.12699999809E+01 0.  1.
       -4    1    3    3    0  502  0.10412064330E+03 -0.31734373854E+03 -0.17842960559E+04  0.18152857033E+04  0.12699999809E+01 0. -1.
</event>
<event>
 5   0  0.4590462E-02  0.8069988E+03  0.7818609E-02  0.9549942E-01
        2   -1    0    0  501    0  0.00000000000E+00  0.00000000000E+00  0.54685576089E+03  0.54685576089E+03  0.25500000920E-02 0.  1.
       -2   -1    0    0    0  501  0.00000000000E+00  0.00000000000E+00 -0.29772341196E+03  0.29772341197E+03  0.25500000920E-02 0. -1.
    10030    2    1    2    0    0  0.00000000000E+00  0.00000000000E+00  0.24913234892E+03  0.84457917287E+03  0.80699879303E+03 0.  0.
        3    1    3    3  502    0 -0.26439615099E+03 -0.10425504208E+03 -0.17519349391E+03  0.33386705283E+03  0.10100000352E+00 0. -1.
       -3    1    3    3    0  502  0.26439615099E+03  0.10425504208E+03  0.42432584283E+03  0.51071212004E+03  0.10100000352E+00 0.  1.
</event>
<event>
 5   0  0.2606520E-02  0.8180662E+03  0.7818609E-02  0.9534229E-01
       -1   -1    0    0    0  501  0.00000000000E+00  0.00000000000E+00  0.83696769115E+02  0.83696769267E+02  0.50400001928E-02 0.  1.
        1   -1    0    0  501    0  0.00000000000E+00  0.00000000000E+00 -0.19989790069E+04  0.19989790069E+04  0.50400001928E-02 0. -1.
    10030    2    1    2    0    0  0.00000000000E+00  0.00000000000E+00 -0.19152822377E+04  0.20826757761E+04  0.81806621876E+03 0.  0.
        5    1    3    3  502    0 -0.26992529637E+02 -0.25338979241E+03 -0.17721189631E+04  0.17903526728E+04  0.46999998093E+01 0. -1.
       -5    1    3    3    0  502  0.26992529637E+02  0.25338979241E+03 -0.14316327466E+03  0.29232310336E+03  0.46999998093E+01 0.  1.
</event>
<event>
 5   0  0.2759559E-02  0.7971339E+03  0.7818609E-02  0.9564175E-01
       -1   -1    0    0    0  501  0.00000000000E+00  0.00000000000E+00  0.89430218073E+02  0.89430218215E+02  0.50400001928E-02 0.  1.
        1   -1    0    0  501    0  0.00000000000E+00  0.00000000000E+00 -0.17763079411E+04  0.17763079411E+04  0.50400001928E-02 0. -1.
    10030    2    1    2    0    0  0.00000000000E+00  0.00000000000E+00 -0.16868777230E+04  0.18657381593E+04  0.79713388254E+03 0.  0.
        3    1    3    3  502    0 -0.69170582774E+02  0.90114401711E+02  0.50735269991E+02  0.12441564507E+03  0.10100000352E+00 0.  1.
       -3    1    3    3    0  502  0.69170582774E+02 -0.90114401711E+02 -0.17376129930E+04  0.17413225142E+04  0.10100000352E+00 0. -1.
</event>
<event>
 5   0  0.2759559E-02  0.8097342E+03  0.7818609E-02  0.9546033E-01
        1   -1    0    0  501    0  0.00000000000E+00  0.00000000000E+00  0.79087482803E+03  0.79087482805E+03  0.50400001928E-02 0.  1.
       -1   -1    0    0    0  501  0.00000000000E+00  0.00000000000E+00 -0.20726083801E+03  0.20726083807E+03  0.50400001928E-02 0. -1.
    10030    2    1    2    0    0  0.00000000000E+00  0.00000000000E+00  0.58361399002E+03  0.99813566612E+03  0.80973422715E+03 0.  0.
        3    1    3    3  502    0  0.28915995135E+03 -0.97661386129E+02 -0.36106921452E+02  0.30733523030E+03  0.10100000352E+00 0. -1.
       -3    1    3    3    0  502 -0.28915995135E+03  0.97661386129E+02  0.61972091148E+03  0.69080043582E+03  0.10100000352E+00 0.  1.
</event>
<event>
 5   0  0.2689372E-02  0.7897645E+03  0.7818609E-02  0.9574952E-01
       -1   -1    0    0    0  501  0.00000000000E+00  0.00000000000E+00  0.65600685109E+03  0.65600685111E+03  0.50400001928E-02 0.  1.
        1   -1    0    0  501    0  0.00000000000E+00  0.00000000000E+00 -0.23769873010E+03  0.23769873015E+03  0.50400001928E-02 0. -1.
    10030    2    1    2    0    0  0.00000000000E+00  0.00000000000E+00  0.41830812099E+03  0.89370558127E+03  0.78976451041E+03 0.  0.
        4    1    3    3  502    0  0.34892742396E+03  0.14383057608E+03  0.77707898481E+02  0.38532805788E+03  0.12699999809E+01 0. -1.
       -4    1    3    3    0  502 -0.34892742396E+03 -0.14383057608E+03  0.34060022251E+03  0.50837752338E+03  0.12699999809E+01 0.  1.
</event>
<event>
 5   0  0.4590462E-02  0.5758741E+03  0.7818609E-02  0.9956764E-01
        2   -1    0    0  501    0  0.00000000000E+00  0.00000000000E+00  0.38904188516E+03  0.38904188517E+03  0.25500000920E-02 0. -1.
       -2   -1    0    0    0  501  0.00000000000E+00  0.00000000000E+00 -0.21310752889E+03  0.21310752890E+03  0.25500000920E-02 0.  1.
    10030    2    1    2    0    0  0.00000000000E+00  0.00000000000E+00  0.17593435627E+03  0.60214941407E+03  0.57587413481E+03 0.  0.
        3    1    3    3  502    0  0.21026315522E+03 -0.14466429491E+03 -0.51416839447E+02  0.26034986892E+03  0.10100000352E+00 0.  1.
       -3    1    3    3    0  502 -0.21026315522E+03  0.14466429491E+03  0.22735119572E+03  0.34179954515E+03  0.10100000352E+00 0. -1.
</event>
<event>
 5   0  0.2606520E-02  0.8171946E+03  0.7818609E-02  0.9535457E-01
       -1   -1    0    0    0  501  0.00000000000E+00  0.00000000000E+00  0.26651794183E+03  0.26651794188E+03  0.50400001928E-02 0. -1.
        1   -1    0    0  501    0  0.00000000000E+00  0.00000000000E+00 -0.62641846961E+03  0.62641846963E+03  0.50400001928E-02 0.  1.
    10030    2    1    2    0    0  0.00000000000E+00  0.00000000000E+00 -0.35990052777E+03  0.89293641151E+03  0.81719461886E+03 0.  0.
        5    1    3    3  502    0  0.39635905835E+03 -0.96612323706E+02 -0.15563397949E+03  0.43666745905E+03  0.46999998093E+01 0. -1.
       -5    1    3    3    0  502 -0.39635905835E+03  0.96612323706E+02 -0.20426654829E+03  0.45626895245E+03  0.46999998093E+01 0.  1.
</event>
<event>
 5   0  0.4590462E-02  0.7647068E+03  0.7818609E-02  0.9612556E-01
        2   -1    0    0  501    0  0.00000000000E+00  0.00000000000E+00  0.54763120377E+03  0.54763120377E+03  0.25500000920E-02 0.  1.
       -2   -1    0    0    0  501  0.00000000000E+00  0.00000000000E+00 -0.26695723381E+03  0.26695723382E+03  0.25500000920E-02 0. -1.
    10030    2    1    2    0    0  0.00000000000E+00  0.00000000000E+00  0.28067396996E+03  0.81458843760E+03  0.76470677077E+03 0.  0.
        3    1    3    3  502    0  0.84498485991E+02 -0.35800934915E+03  0.25146558898E+03  0.44558460572E+03  0.10100000352E+00 0.  1.
       -3    1    3    3    0  502 -0.84498485991E+02  0.35800934915E+03  0.29208380978E+02  0.36900383187E+03  0.10100000352E+00 0. -1.
</event>
<event>
 5   0  0.4663634E-02  0.6933288E+03  0.7818609E-02  0.9728709E-01
        2   -1    0    0  501    0  0.00000000000E+00  0.00000000000E+00  0.12781847932E+04  0.12781847932E+04  0.25500000920E-02 0. -1.
       -2   -1    0    0    0  501  0.00000000000E+00  0.00000000000E+00 -0.94020997491E+02  0.94020997526E+02  0.25500000920E-02 0.  1.
    10030    2    1    2    0    0  0.00000000000E+00  0.00000000000E+00  0.11841637957E+04  0.13722057907E+04  0.69332880875E+03 0.  0.
        5    1    3    3  502    0 -0.69238467964E+02 -0.29829738339E+03  0.91352767442E+03  0.96349893426E+03  0.46999998093E+01 0. -1.
       -5    1    3    3    0  502  0.69238467964E+02  0.29829738339E+03  0.27063612130E+03  0.40870685648E+03  0.46999998093E+01 0.  1.
</event>
<event>
 5   0  0.2769394E-02  0.7901334E+03  0.7818609E-02  0.9574409E-01
        1   -1    0    0  501    0  0.00000000000E+00  0.00000000000E+00  0.21559982798E+04  0.21559982798E+04  0.50400001928E-02 0. -1.
       -1   -1    0    0    0  501  0.00000000000E+00  0.00000000000E+00 -0.72392309671E+02  0.72392309846E+02  0.50400001928E-02 0.  1.
    10030    2    1    2    0    0  0.00000000000E+00  0.00000000000E+00  0.20836059702E+04  0.22283905897E+04  0.79013339462E+03 0.  0.
        2    1    3    3  502    0 -0.20350710019E+03 -0.32812266523E+03  0.80587464986E+03  0.89359586758E+03  0.25500000920E-02 0.  1.
       -2    1    3    3    0  502  0.20350710019E+03  0.32812266523E+03  0.12777313203E+04  0.13347947221E+04  0.25500000920E-02 0. -1.
</event>
<event>
 5   0  0.2689372E-02  0.8099853E+03  0.7818609E-02  0.9545675E-01
       -1   -1    0    0    0  501  0.00000000000E+00  0.00000000000E+00  0.16655375888E+03  0.16655375896E+03  0.50400001928E-02 0.  1.
        1   -1    0    0  501    0  0.00000000000E+00  0.00000000000E+00 -0.98478135400E+03  0.98478135401E+03  0.50400001928E-02 0. -1.
    10030    2    1    2    0    0  0.00000000000E+00  0.00000000000E+00 -0.81822759512E+03  0.11513351130E+04  0.80998527452E+03 0.  0.
        4    1    3    3  502    0  0.32630647174E+03 -0.22627263685E+03 -0.52231335212E+03  0.65611589707E+03  0.12699999809E+01 0. -1.
       -4    1    3    3    0  502 -0.32630647174E+03  0.22627263685E+03 -0.29591424299E+03  0.49521921589E+03  0.12699999809E+01 0.  1.
</event>
<event>
 5   0  0.4377843E-02  0.7999286E+03  0.7818609E-02  0.9560120E-01
        2   -1    0    0  501    0  0.00000000000E+00  0.00000000000E+00  0.77043727456E+03  0.77043727457E+03  0.25500000920E-02 0. -1.
       -2   -1    0    0    0  501  0.00000000000E+00  0.00000000000E+00 -0.20763720757E+03  0.20763720759E+03  0.25500000920E-02 0.  1.
    10030    2    1    2    0    0  0.00000000000E+00  0.00000000000E+00  0.56280006699E+03  0.97807448216E+03  0.79992860759E+03 0.  0.
        2    1    3    3  502    0  0.51538403938E+02  0.25363784592E+03 -0.91440108284E+02  0.27449892053E+03  0.25500000920E-02 0.  1.
       -2    1    3    3    0  502 -0.51538403938E+02 -0.25363784592E+03  0.65424017527E+03  0.70357556162E+03  0.25500000920E-02 0. -1.
</event>
<event>
 5   0  0.4590462E-02  0.8147042E+03  0.7818609E-02  0.9538974E-01
       -2   -1    0    0    0  501  0.00000000000E+00  0.00000000000E+00  0.11109328770E+03  0.11109328773E+03  0.25500000920E-02 0.  1.
        2   -1    0    0  501    0  0.00000000000E+00  0.00000000000E+00 -0.14936612889E+04  0.14936612889E+04  0.25500000920E-02 0. -1.
    10030    2    1    2    0    0  0.00000000000E+00  0.00000000000E+00 -0.13825680012E+04  0.16047545766E+04  0.81470422441E+03 0.  0.
        3    1    3    3  502    0 -0.25807520628E+03 -0.28016099095E+02 -0.13096314938E+04  0.13351113712E+04  0.10100000352E+00 0. -1.
       -3    1    3    3    0  502  0.25807520628E+03  0.28016099095E+02 -0.72936507435E+02  0.26964320541E+03  0.10100000352E+00 0.  1.
</event>
<event>
 5   0  0.2635243E-02  0.8154141E+03  0.7818609E-02  0.9537970E-01
       -1   -1    0    0    0  501  0.00000000000E+00  0.00000000000E+00  0.97223672612E+02  0.97223672743E+02  0.50400001928E-02 0. -1.
        1   -1    0    0  501    0  0.00000000000E+00  0.00000000000E+00 -0.17097176376E+04  0.17097176376E+04  0.50400001928E-02 0.  1.
    10030    2    1    2    0    0  0.00000000000E+00  0.00000000000E+00 -0.16124939650E+04  0.18069413104E+04  0.81541407391E+03 0.  0.
        1    1    3    3  502    0  0.13575041836E+03  0.22291115466E+03 -0.11215523674E+03  0.28407104060E+03  0.50400001928E-02 0. -1.
       -1    1    3    3    0  502 -0.13575041836E+03 -0.22291115466E+03 -0.15003387283E+04  0.15228702698E+04  0.50400001928E-02 0.  1.
</event>
<event>
 5   0  0.4663634E-02  0.7919961E+03  0.7818609E-02  0.9571675E-01
        2   -1    0    0  501    0  0.00000000000E+00  0.00000000000E+00  0.16498451412E+04  0.16498451412E+04  0.25500000920E-02 0. -1.
       -2   -1    0    0    0  501  0.00000000000E+00  0.00000000000E+00 -0.95047978820E+02  0.95047978854E+02  0.25500000920E-02 0.  1.
    10030    2    1    2    0    0  0.00000000000E+00  0.00000000000E+00  0.15547971624E+04  0.17448931201E+04  0.79199607592E+03 0.  0.
        5    1    3    3  502    0  0.25335551465E+03 -0.30391909705E+03  0.81128153858E+03  0.90263816627E+03  0.46999998093E+01 0.  1.
       -5    1    3    3    0  502 -0.25335551465E+03  0.30391909705E+03  0.74351562379E+03  0.84225495379E+03  0.46999998093E+01 0. -1.
</event>
<event>
 5   0  0.2689372E-02  0.8140594E+03  0.7818609E-02  0.9539887E-01
        1   -1    0    0  501    0  0.00000000000E+00  0.00000000000E+00  0.42678835296E+03  0.42678835299E+03  0.50400001928E-02 0.  1.
       -1   -1    0    0    0  501  0.00000000000E+00  0.00000000000E+00 -0.38818584392E+03  0.38818584395E+03  0.50400001928E-02 0. -1.
    10030    2    1    2    0    0  0.00000000000E+00  0.00000000000E+00  0.38602509040E+02  0.81497419694E+03  0.81405944991E+03 0.  0.
        4    1    3    3  502    0  0.14831810887E+03  0.28686088177E+03 -0.22873541153E+03  0.39573845946E+03  0.12699999809E+01 0. -1.
       -4    1    3    3    0  502 -0.14831810887E+03 -0.28686088177E+03  0.26733792057E+03  0.41923573748E+03  0.12699999809E+01 0.  1.
</event>
<event>
 5   0  0.2606520E-02  0.8080526E+03  0.7818609E-02  0.9548434E-01
       -1   -1    0    0    0  501  0.00000000000E+00  0.00000000000E+00  0.72166202969E+03  0.72166202971E+03  0.50400001928E-02 0. -1.
        1   -1    0    0  501    0  0.00000000000E+00  0.00000000000E+00 -0.22619624517E+03  0.22619624523E+03  0.50400001928E-02 0.  1.
    10030    2    1    2    0    0  0.00000000000E+00  0.00000000000E+00  0.49546578452E+03  0.94785827493E+03  0.80805257609E+03 0.  0.
        5    1    3    3  502    0  0.24035658217E+03 -0.13721587498E+03 -0.97491932264E+02  0.29347274115E+03  0.46999998093E+01 0.  1.
       -5    1    3    3    0  502 -0.24035658217E+03  0.13721587498E+03  0.59295771678E+03  0.65438553379E+03  0.46999998093E+01 0. -1.
</event>
<event>
 5   0  0.4377843E-02  0.8065693E+03  0.7818609E-02  0.9550557E-01
        2   -1    0    0  501    0  0.00000000000E+00  0.00000000000E+00  0.24509211759E+04  0.24509211759E+04  0.25500000920E-02 0.  1.
       -2   -1    0    0    0  501  0.00000000000E+00  0.00000000000E+00 -0.66358108440E+02  0.66358108489E+02  0.25500000920E-02 0. -1.
    10030    2    1    2    0    0  0.00000000000E+00  0.00000000000E+00  0.23845630675E+04  0.25172792844E+04  0.80656926109E+03 0.  0.
        2    1    3    3  502    0  0.15514777233E+02  0.31968706420E+03  0.42654275124E+03  0.53327220626E+03  0.25500000920E-02 0. -1.
       -2    1    3    3    0  502 -0.15514777233E+02 -0.31968706420E+03  0.19580203163E+04  0.19840070782E+04  0.25500000920E-02 0.  1.
</event>
<event>
 5   0  0.2635243E-02  0.7791805E+03  0.7818609E-02  0.9590651E-01
       -1   -1    0    0    0  501  0.00000000000E+00  0.00000000000E+00  0.18958115333E+03  0.18958115340E+03  0.50400001928E-02 0.  1.
        1   -1    0    0  501    0  0.00000000000E+00  0.00000000000E+00 -0.80060991582E+03  0.80060991583E+03  0.50400001928E-02 0. -1.
    10030    2    1    2    0    0  0.00000000000E+00  0.00000000000E+00 -0.61102876248E+03  0.99019106923E+03  0.77918047011E+03 0.  0.
        1    1    3    3  502    0 -0.22398584318E+03  0.19700715121E+03  0.12947584935E+02  0.29857849145E+03  0.50400001928E-02 0.  1.
       -1    1    3    3    0  502  0.22398584318E+03 -0.19700715121E+03 -0.62397634742E+03  0.69161257778E+03  0.50400001928E-02 0. -1.
</event>
<event>
 5   0  0.2769394E-02  0.7879378E+03  0.7818609E-02  0.9577643E-01
        1   -1    0    0  501    0  0.00000000000E+00  0.00000000000E+00  0.38970867603E+03  0.38970867607E+03  0.50400001928E-02 0.  1.
       -1   -1    0    0    0  501  0.00000000000E+00  0.00000000000E+00 -0.39827568096E+03  0.39827568099E+03  0.50400001928E-02 0. -1.
    10030    2    1    2    0    0  0.00000000000E+00  0.00000000000E+00 -0.85670049268E+01  0.78798435706E+03  0.78793778523E+03 0.  0.
        2    1    3    3  502    0  0.15127963776E+03  0.26430263348E+03 -0.25423842321E+03  0.39670970080E+03  0.25500000920E-02 0. -1.
       -2    1    3    3    0  502 -0.15127963776E+03 -0.26430263348E+03  0.24567141828E+03  0.39127465626E+03  0.25500000920E-02 0.  1.
</event>
<event>
 5   0  0.4663634E-02  0.7592015E+03  0.7818609E-02  0.9621024E-01
       -2   -1    0    0    0  501  0.00000000000E+00  0.00000000000E+00  0.55449118656E+03  0.55449118657E+03  0.25500000920E-02 0.  1.
        2   -1    0    0  501    0  0.00000000000E+00  0.00000000000E+00 -0.25987195847E+03  0.25987195848E+03  0.25500000920E-02 0. -1.
    10030    2    1    2    0    0  0.00000000000E+00  0.00000000000E+00  0.29461922810E+03  0.81436314505E+03  0.75920145051E+03 0.  0.
        5    1    3    3  502    0 -0.46111251465E+02 -0.32583470020E+03  0.35020958541E+03  0.48058645744E+03  0.46999998093E+01 0.  1.
       -5    1    3    3    0  502  0.46111251465E+02  0.32583470020E+03 -0.55590357313E+02  0.33377668761E+03  0.46999998093E+01 0. -1.
</event>
<event>
 5   0  0.4700220E-02  0.7984582E+03  0.7818609E-02  0.9562252E-01
       -2   -1    0    0    0  501  0.00000000000E+00  0.00000000000E+00  0.19912329135E+03  0.19912329136E+03  0.25500000920E-02 0.  1.
        2   -1    0    0  501    0  0.00000000000E+00  0.00000000000E+00 -0.80042805658E+03  0.80042805659E+03  0.25500000920E-02 0. -1.
    10030    2    1    2    0    0  0.00000000000E+00  0.00000000000E+00 -0.60130476524E+03  0.99955134795E+03  0.79845818707E+03 0.  0.
        4    1    3    3  502    0 -0.11633094053E+03 -0.37789164800E+03 -0.23154754341E+03  0.45820395362E+03  0.12699999809E+01 0. -1.
       -4    1    3    3    0  502  0.11633094053E+03  0.37789164800E+03 -0.36975722183E+03  0.54134739433E+03  0.12699999809E+01 0.  1.
</event>
<event>
 5   0  0.2769394E-02  0.7977070E+03  0.7818609E-02  0.9563342E-01
        1   -1    0    0  501    0  0.00000000000E+00  0.00000000000E+00  0.24091075002E+03  0.24091075008E+03  0.50400001928E-02 0.  1.
       -1   -1    0    0    0  501  0.00000000000E+00  0.00000000000E+00 -0.66034452802E+03  0.66034452804E+03  0.50400001928E-02 0. -1.
    10030    2    1    2    0    0  0.00000000000E+00  0.00000000000E+00 -0.41943377800E+03  0.90125527812E+03  0.79770695259E+03 0.  0.
        2    1    3    3  502    0 -0.50425002602E+02 -0.37684004627E+03 -0.34591842139E+03  0.51401425625E+03  0.25500000920E-02 0. -1.
       -2    1    3    3    0  502  0.50425002602E+02  0.37684004627E+03 -0.73515356606E+02  0.38724102187E+03  0.25500000920E-02 0.  1.
</event>
<event>
 5   0  0.2759559E-02  0.8158693E+03  0.7818609E-02  0.9537327E-01
        1   -1    0    0  501    0  0.00000000000E+00  0.00000000000E+00  0.40291504296E+03  0.40291504300E+03  0.50400001928E-02 0. -1.
       -1   -1    0    0    0  501  0.00000000000E+00  0.00000000000E+00 -0.41301680840E+03  0.41301680843E+03  0.50400001928E-02 0.  1.
    10030    2    1    2    0    0  0.00000000000E+00  0.00000000000E+00 -0.10101765437E+02  0.81593185143E+03  0.81586931583E+03 0.  0.
        3    1    3    3  502    0  0.17152979563E+03 -0.35423259111E+03 -0.11233200723E+03  0.40929413561E+03  0.10100000352E+00 0.  1.
       -3    1    3    3    0  502 -0.17152979563E+03  0.35423259111E+03  0.10223024180E+03  0.40663771582E+03  0.10100000352E+00 0. -1.
</event>
<event>
 5   0  0.2769394E-02  0.8261407E+03  0.7818609E-02  0.9522932E-01
       -1   -1    0    0    0  501  0.00000000000E+00  0.00000000000E+00  0.27914179617E+03  0.27914179621E+03  0.50400001928E-02 0.  1.
        1   -1    0    0  501    0  0.00000000000E+00  0.00000000000E+00 -0.61125612815E+03  0.61125612817E+03  0.50400001928E-02 0. -1.
    10030    2    1    2    0    0  0.00000000000E+00  0.00000000000E+00 -0.33211433198E+03  0.89039792438E+03  0.82614074723E+03 0.  0.
        2    1    3    3  502    0 -0.29876828541E+03  0.28375015166E+03 -0.13462557304E+03  0.43347512254E+03  0.25500000920E-02 0. -1.
       -2    1    3    3    0  502  0.29876828541E+03 -0.28375015166E+03 -0.19748875893E+03  0.45692280185E+03  0.25500000920E-02 0.  1.
</event>
<event>
 5   0  0.4590462E-02  0.7908937E+03  0.7818609E-02  0.9573292E-01
       -2   -1    0    0    0  501  0.00000000000E+00  0.00000000000E+00  0.90196027394E+02  0.90196027430E+02  0.25500000920E-02 0.  1.
        2   -1    0    0  501    0  0.00000000000E+00  0.00000000000E+00 -0.17337594176E+04  0.17337594176E+04  0.25500000920E-02 0. -1.
    10030    2    1    2    0    0  0.00000000000E+00  0.00000000000E+00 -0.16435633902E+04  0.18239554451E+04  0.79089370199E+03 0.  0.
        3    1    3    3  502    0 -0.27965691761E+03 -0.15859439321E+03 -0.29076534194E+03  0.43347971970E+03  0.10100000352E+00 0.  1.
       -3    1    3    3    0  502  0.27965691761E+03  0.15859439321E+03 -0.13527980483E+04  0.13904757253E+04  0.10100000352E+00 0. -1.
</event>
<event>
 5   0  0.2606520E-02  0.7870848E+03  0.7818609E-02  0.9578902E-01
        1   -1    0    0  501    0  0.00000000000E+00  0.00000000000E+00  0.33867913983E+03  0.33867913987E+03  0.50400001928E-02 0. -1.
       -1   -1    0    0    0  501  0.00000000000E+00  0.00000000000E+00 -0.45729300723E+03  0.45729300726E+03  0.50400001928E-02 0.  1.
    10030    2    1    2    0    0  0.00000000000E+00  0.00000000000E+00 -0.11861386740E+03  0.79597214713E+03  0.78708475368E+03 0.  0.
        5    1    3    3  502    0 -0.19172150186E+03  0.11158400779E+03  0.26939453223E+03  0.34900376654E+03  0.46999998093E+01 0. -1.
       -5    1    3    3    0  502  0.19172150186E+03 -0.11158400779E+03 -0.38800839962E+03  0.44696838059E+03  0.46999998093E+01 0.  1.
</event>
<event>
 5   0  0.2689372E-02  0.8088808E+03  0.7818609E-02  0.9547251E-01
        1   -1    0    0  501    0  0.00000000000E+00  0.00000000000E+00  0.11235354314E+04  0.11235354314E+04  0.50400001928E-02 0. -1.
       -1   -1    0    0    0  501  0.00000000000E+00  0.00000000000E+00 -0.14558690872E+03  0.14558690881E+03  0.50400001928E-02 0.  1.
    10030    2    1    2    0    0  0.00000000000E+00  0.00000000000E+00  0.97794852265E+03  0.12691223402E+04  0.80888083264E+03 0.  0.
        4    1    3    3  502    0 -0.23692880084E+02  0.96708890867E+02 -0.12605301628E+03  0.16063915448E+03  0.12699999809E+01 0.  1.
       -4    1    3    3    0  502  0.23692880084E+02 -0.96708890867E+02  0.11040015389E+04  0.11084831857E+04  0.12699999809E+01 0. -1.
</event>
<event>
 5   0  0.2759559E-02  0.8053928E+03  0.7818609E-02  0.9552244E-01
        1   -1    0    0  501    0  0.00000000000E+00  0.00000000000E+00  0.88345074531E+03  0.88345074533E+03  0.50400001928E-02 0.  1.
       -1   -1    0    0    0  501  0.00000000000E+00  0.00000000000E+00 -0.18355794646E+03  0.18355794653E+03  0.50400001928E-02 0. -1.
    10030    2    1    2    0    0  0.00000000000E+00  0.00000000000E+00  0.69989279885E+03  0.10670086919E+04  0.80539283496E+03 0.  0.
        3    1    3    3  502    0  0.53174057993E+02  0.32058324395E+03  0.66503127442E+03  0.74018085823E+03  0.10100000352E+00 0.  1.
       -3    1    3    3    0  502 -0.53174057993E+02 -0.32058324395E+03  0.34861524438E+02  0.32682783362E+03  0.10100000352E+00 0. -1.
</event>
<event>
 5   0  0.4684283E-02  0.7826604E+03  0.7818609E-02  0.9585460E-01
        2   -1    0    0  501    0  0.00000000000E+00  0.00000000000E+00  0.37202768692E+03  0.37202768693E+03  0.25500000920E-02 0. -1.
       -2   -1    0    0    0  501  0.00000000000E+00  0.00000000000E+00 -0.41163420750E+03  0.41163420751E+03  0.25500000920E-02 0.  1.
    10030    2    1    2    0    0  0.00000000000E+00  0.00000000000E+00 -0.39606520581E+02  0.78366189444E+03  0.78266039143E+03 0.  0.
        1    1    3    3  502    0  0.19965753842E+03  0.33654246092E+03 -0.15878882399E+02  0.39163260792E+03  0.50400001928E-02 0.  1.
       -1    1    3    3    0  502 -0.19965753842E+03 -0.33654246092E+03 -0.23727638181E+02  0.39202928652E+03  0.50400001928E-02 0. -1.
</event>
<event>
 5   0  0.2635243E-02  0.8138754E+03  0.7818609E-02  0.9540147E-01
       -1   -1    0    0    0  501  0.00000000000E+00  0.00000000000E+00  0.80895206948E+03  0.80895206950E+03  0.50400001928E-02 0. -1.
        1   -1    0    0  501    0  0.00000000000E+00  0.00000000000E+00 -0.20470715253E+03  0.20470715259E+03  0.50400001928E-02 0.  1.
    10030    2    1    2    0    0  0.00000000000E+00  0.00000000000E+00  0.60424491696E+03  0.10136592221E+04  0.81387535830E+03 0.  0.
        1    1    3    3  502    0 -0.22794609559E+03 -0.31851218196E+03  0.16461846783E+03  0.42486312211E+03  0.50400001928E-02 0. -1.
       -1    1    3    3    0  502  0.22794609559E+03  0.31851218196E+03  0.43962644913E+03  0.58879609998E+03  0.50400001928E-02 0.  1.
</event>
<event>
 5   0  0.4590462E-02  0.7577169E+03  0.7818609E-02  0.9623321E-01
       -2   -1    0    0    0  501  0.00000000000E+00  0.00000000000E+00  0.13697648896E+03  0.13697648899E+03  0.25500000920E-02 0. -1.
        2   -1    0    0  501    0  0.00000000000E+00  0.00000000000E+00 -0.10478712609E+04  0.10478712609E+04  0.25500000920E-02 0.  1.
    10030    2    1    2    0    0  0.00000000000E+00  0.00000000000E+00 -0.91089477195E+03  0.11848477499E+04  0.75771690287E+03 0.  0.
        3    1    3    3  502    0  0.22480616320E+02  0.23615515775E+03 -0.91736113145E+03  0.94753685540E+03  0.10100000352E+00 0.  1.
       -3    1    3    3    0  502 -0.22480616320E+02 -0.23615515775E+03  0.64663595036E+01  0.23731089450E+03  0.10100000352E+00 0. -1.
</event>
<event>
 5   0  0.4590462E-02  0.8043268E+03  0.7818609E-02  0.9553775E-01
        2   -1    0    0  501    0  0.00000000000E+00  0.00000000000E+00  0.71603136119E+03  0.71603136120E+03  0.25500000920E-02 0. -1.
       -2   -1    0    0    0  501  0.00000000000E+00  0.00000000000E+00 -0.22587752076E+03  0.22587752077E+03  0.25500000920E-02 0.  1.
    10030    2    1    2    0    0  0.00000000000E+00  0.00000000000E+00  0.49015384043E+03  0.94190888197E+03  0.80432677106E+03 0.  0.
        3    1    3    3  502    0 -0.48682556869E+02 -0.33513084858E+03  0.49909735184E+03  0.60314248220E+03  0.10100000352E+00 0. -1.
       -3    1    3    3    0  502  0.48682556869E+02  0.33513084858E+03 -0.89435114097E+01  0.33876639977E+03  0.10100000352E+00 0.  1.
</event>
<event>
 5   0  0.4700220E-02  0.7984329E+03  0.7818609E-02  0.9562288E-01
        2   -1    0    0  501    0  0.00000000000E+00  0.00000000000E+00  0.66756396242E+03  0.66756396242E+03  0.25500000920E-02 0.  1.
       -2   -1    0    0    0  501  0.00000000000E+00  0.00000000000E+00 -0.23873931710E+03  0.23873931712E+03  0.25500000920E-02 0. -1.
    10030    2    1    2    0    0  0.00000000000E+00  0.00000000000E+00  0.42882464532E+03  0.90630327954E+03  0.79843287637E+03 0.  0.
        4    1    3    3  502    0  0.42370203598E+02  0.22122868611E+00 -0.23617749473E+03  0.23995146386E+03  0.12699999809E+01 0. -1.
       -4    1    3    3    0  502 -0.42370203598E+02 -0.22122868611E+00  0.66500214004E+03  0.66635181568E+03  0.12699999809E+01 0.  1.
</event>
<event>
 5   0  0.2759559E-02  0.8019576E+03  0.7818609E-02  0.9557188E-01
        1   -1    0    0  501    0  0.00000000000E+00  0.00000000000E+00  0.62178905603E+03  0.62178905605E+03  0.50400001928E-02 0. -1.
       -1   -1    0    0    0  501  0.00000000000E+00  0.00000000000E+00 -0.25858288549E+03  0.25858288554E+03  0.50400001928E-02 0.  1.
    10030    2    1    2    0    0  0.00000000000E+00  0.00000000000E+00  0.36320617054E+03  0.88037194160E+03  0.80195762558E+03 0.  0.
        3    1    3    3  502    0  0.79218464841E+01  0.37891634149E+02 -0.25652676914E+03  0.25943115672E+03  0.10100000352E+00 0.  1.
       -3    1    3    3    0  502 -0.79218464841E+01 -0.37891634149E+02  0.61973293968E+03  0.62094078487E+03  0.10100000352E+00 0. -1.
</event>
<event>
 5   0  0.4700220E-02  0.6377586E+03  0.7818609E-02  0.9830024E-01
       -2   -1    0    0    0  501  0.00000000000E+00  0.00000000000E+00  0.18378271234E+03  0.18378271236E+03  0.25500000920E-02 0. -1.
        2   -1    0    0  501    0  0.00000000000E+00  0.00000000000E+00 -0.55328383380E+03  0.55328383380E+03  0.25500000920E-02 0.  1.
    10030    2    1    2    0    0  0.00000000000E+00  0.00000000000E+00 -0.36950112145E+03  0.73706654616E+03  0.63775858655E+03 0.  0.
        4    1    3    3  502    0 -0.12560852947E+02 -0.31831916987E+03 -0.20099325072E+03  0.37667594649E+03  0.12699999809E+01 0.  1.
       -4    1    3    3    0  502  0.12560852947E+02  0.31831916987E+03 -0.16850787073E+03  0.36039059967E+03  0.12699999809E+01 0. -1.
</event>
<event>
 5   0  0.2606520E-02  0.8035858E+03  0.7818609E-02  0.9554841E-01
        1   -1    0    0  501    0  0.00000000000E+00  0.00000000000E+00  0.14000989192E+04  0.14000989192E+04  0.50400001928E-02 0.  1.
       -1   -1    0    0    0  501  0.00000000000E+00  0.00000000000E+00 -0.11530438532E+03  0.11530438543E+03  0.50400001928E-02 0. -1.
    10030    2    1    2    0    0  0.00000000000E+00  0.00000000000E+00  0.12847945339E+04  0.15154033046E+04  0.80358582705E+03 0.  0.
        5    1    3    3  502    0  0.14566229031E+03 -0.23301932871E+03  0.11951010083E+04  0.12262968729E+04  0.46999998093E+01 0.  1.
       -5    1    3    3    0  502 -0.14566229031E+03  0.23301932871E+03  0.89693525589E+02  0.28910643179E+03  0.46999998093E+01 0. -1.
</event>
<event>
 5   0  0.4684283E-02  0.8105995E+03  0.7818609E-02  0.9544800E-01
        2   -1    0    0  501    0  0.00000000000E+00  0.00000000000E+00  0.84294322084E+03  0.84294322084E+03  0.25500000920E-02 0.  1.
       -2   -1    0    0    0  501  0.00000000000E+00  0.00000000000E+00 -0.19487419613E+03  0.19487419615E+03  0.25500000920E-02 0. -1.
    10030    2    1    2    0    0  0.00000000000E+00  0.00000000000E+00  0.64806902471E+03  0.10378174170E+04  0.81059948818E+03 0.  0.
        1    1    3    3  502    0 -0.32335100656E+03 -0.24156927036E+03  0.37118562916E+03  0.54835240233E+03  0.50400001928E-02 0.  1.
       -1    1    3    3    0  502  0.32335100656E+03  0.24156927036E+03  0.27688339555E+03  0.48946501466E+03  0.50400001928E-02 0. -1.
</event>
<event>
 5   0  0.2769394E-02  0.7882690E+03  0.7818609E-02  0.9577154E-01
        1   -1    0    0  501    0  0.00000000000E+00  0.00000000000E+00  0.10969495161E+04  0.10969495161E+04  0.50400001928E-02 0.  1.
       -1   -1    0    0    0  501  0.00000000000E+00  0.00000000000E+00 -0.14161273014E+03  0.14161273023E+03  0.50400001928E-02 0. -1.
    10030    2    1    2    0    0  0.00000000000E+00  0.00000000000E+00  0.95533678599E+03  0.12385622464E+04  0.78826902988E+03 0.  0.
        2    1    3    3  502    0 -0.33090364883E+03  0.16607518615E+03  0.26532476867E+03  0.45549470374E+03  0.25500000920E-02 0. -1.
       -2    1    3    3    0  502  0.33090364883E+03 -0.16607518615E+03  0.69001201733E+03  0.78306754263E+03  0.25500000920E-02 0.  1.
</event>
<event>
 5   0  0.4663634E-02  0.7671493E+03  0.7818609E-02  0.9608823E-01
        2   -1    0    0  501    0  0.00000000000E+00  0.00000000000E+00  0.65196722468E+03  0.65196722468E+03  0.25500000920E-02 0.  1.
       -2   -1    0    0    0  501  0.00000000000E+00  0.00000000000E+00 -0.22567012883E+03  0.22567012884E+03  0.25500000920E-02 0. -1.
    10030    2    1    2    0    0  0.00000000000E+00  0.00000000000E+00  0.42629709585E+03  0.87763735352E+03  0.76714934033E+03 0.  0.
        5    1    3    3  502    0 -0.17512992519E+02 -0.31179328623E+03 -0.41600938459E+02  0.31507853993E+03  0.46999998093E+01 0. -1.
       -5    1    3    3    0  502  0.17512992519E+02  0.31179328623E+03  0.46789803431E+03  0.56255881360E+03  0.46999998093E+01 0.  1.
</event>
<event>
 5   0  0.2759559E-02  0.6826886E+03  0.7818609E-02  0.9747304E-01
       -1   -1    0    0    0  501  0.00000000000E+00  0.00000000000E+00  0.29850995532E+03  0.29850995536E+03  0.50400001928E-02 0.  1.
        1   -1    0    0  501    0  0.00000000000E+00  0.00000000000E+00 -0.39032510856E+03  0.39032510859E+03  0.50400001928E-02 0. -1.
    10030    2    1    2    0    0  0.00000000000E+00  0.00000000000E+00 -0.91815153239E+02  0.68883506395E+03  0.68268859882E+03 0.  0.
        3    1    3    3  502    0  0.80473821277E+02  0.22044458229E+03 -0.29601845781E+03  0.37775493027E+03  0.10100000352E+00 0. -1.
       -3    1    3    3    0  502 -0.80473821277E+02 -0.22044458229E+03  0.20420330458E+03  0.31108013368E+03  0.10100000352E+00 0.  1.
</event>
<event>
 5   0  0.2759559E-02  0.7884630E+03  0.7818609E-02  0.9576868E-01
       -1   -1    0    0    0  501  0.00000000000E+00  0.00000000000E+00  0.15911681178E+03  0.15911681186E+03  0.50400001928E-02 0.  1.
        1   -1    0    0  501    0  0.00000000000E+00  0.00000000000E+00 -0.97675700329E+03  0.97675700331E+03  0.50400001928E-02 0. -1.
    10030    2    1    2    0    0  0.00000000000E+00  0.00000000000E+00 -0.81764019151E+03  0.11358738152E+04  0.78846296122E+03 0.  0.
        3    1    3    3  502    0 -0.28865593711E+03  0.26787085947E+03 -0.43543851630E+03  0.58709774234E+03  0.10100000352E+00 0. -1.
       -3    1    3    3    0  502  0.28865593711E+03 -0.26787085947E+03 -0.38220167521E+03  0.54877607284E+03  0.10100000352E+00 0.  1.
</event>
<event>
 5   0  0.1786500E-02  0.7871140E+03  0.7818609E-02  0.9578859E-01
        3   -1    0    0  501    0  0.00000000000E+00  0.00000000000E+00  0.31216234453E+03  0.31216236087E+03  0.10100000352E+00 0.  1.
       -3   -1    0    0    0  501  0.00000000000E+00  0.00000000000E+00 -0.49617487394E+03  0.49617488422E+03  0.10100000352E+00 0. -1.
    10030    2    1    2    0    0  0.00000000000E+00  0.00000000000E+00 -0.18401252941E+03  0.80833724509E+03  0.78711402657E+03 0.  0.
        2    1    3    3  502    0 -0.23870057720E+03  0.26360238842E+02  0.22819275913E+03  0.33127747143E+03  0.25500000920E-02 0.  1.
       -2    1    3    3    0  502  0.23870057720E+03 -0.26360238842E+02 -0.41220528854E+03  0.47705977367E+03  0.25500000920E-02 0. -1.
</event>
<event>
 5   0  0.2635243E-02  0.7928022E+03  0.7818609E-02  0.9570494E-01
       -1   -1    0    0    0  501  0.00000000000E+00  0.00000000000E+00  0.20921282756E+03  0.20921282762E+03  0.50400001928E-02 0.  1.
        1   -1    0    0  501    0  0.00000000000E+00  0.00000000000E+00 -0.75107175115E+03  0.75107175117E+03  0.50400001928E-02 0. -1.
    10030    2    1    2    0    0  0.00000000000E+00  0.00000000000E+00 -0.54185892359E+03  0.96028457878E+03  0.79280223207E+03 0.  0.
        1    1    3    3  502    0 -0.59322679607E+02 -0.57559091329E+01 -0.74561345908E+03  0.74799180556E+03  0.50400001928E-02 0. -1.
       -1    1    3    3    0  502  0.59322679607E+02  0.57559091329E+01  0.20375453549E+03  0.21229277322E+03  0.50400001928E-02 0.  1.
</event>
<event>
 5   0  0.2769394E-02  0.7879919E+03  0.7818609E-02  0.9577563E-01
        1   -1    0    0  501    0  0.00000000000E+00  0.00000000000E+00  0.11864839387E+04  0.11864839387E+04  0.50400001928E-02 0. -1.
       -1   -1    0    0    0  501  0.00000000000E+00  0.00000000000E+00 -0.13083431793E+03  0.13083431803E+03  0.50400001928E-02 0.  1.
    10030    2    1    2    0    0  0.00000000000E+00  0.00000000000E+00  0.10556496208E+04  0.13173182568E+04  0.78799192110E+03 0.  0.
        2    1    3    3  502    0  0.68670488329E+02  0.36456997783E+03  0.74964353915E+03  0.83641636790E+03  0.25500000920E-02 0. -1.
       -2    1    3    3    0  502 -0.68670488329E+02 -0.36456997783E+03  0.30600608165E+03  0.48090188886E+03  0.25500000920E-02 0.  1.
</event>
<event>
 5   0  0.2606520E-02  0.7990775E+03  0.7818609E-02  0.9561353E-01
       -1   -1    0    0    0  501  0.00000000000E+00  0.00000000000E+00  0.28260667246E+03  0.28260667250E+03  0.50400001928E-02 0. -1.
        1   -1    0    0  501    0  0.00000000000E+00  0.00000000000E+00 -0.56485298331E+03  0.56485298333E+03  0.50400001928E-02 0.  1.
    10030    2    1    2    0    0  0.00000000000E+00  0.00000000000E+00 -0.28224631085E+03  0.84745965584E+03  0.79907752332E+03 0.  0.
        5    1    3    3  502    0 -0.29915607905E+03 -0.25377476908E+03 -0.60961345687E+02  0.39703194925E+03  0.46999998093E+01 0.  1.
       -5    1    3    3    0  502  0.29915607905E+03  0.25377476908E+03 -0.22128496516E+03  0.45042770659E+03  0.46999998093E+01 0. -1.
</event>
<event>
 5   0  0.4663634E-02  0.7961693E+03  0.7818609E-02  0.9565578E-01
        2   -1    0    0  501    0  0.00000000000E+00  0.00000000000E+00  0.41903209890E+03  0.41903209890E+03  0.25500000920E-02 0.  1.
       -2   -1    0    0    0  501  0.00000000000E+00  0.00000000000E+00 -0.37818437843E+03  0.37818437844E+03  0.25500000920E-02 0. -1.
    10030    2    1    2    0    0  0.00000000000E+00  0.00000000000E+00  0.40847720465E+02  0.79721647734E+03  0.79616931333E+03 0.  0.
        5    1    3    3  502    0  0.91946090051E+02  0.12059600087E+01  0.40822353147E+03  0.41847829030E+03  0.46999998093E+01 0.  1.
       -5    1    3    3    0  502 -0.91946090051E+02 -0.12059600087E+01 -0.36737581100E+03  0.37873818704E+03  0.46999998093E+01 0. -1.
</event>
<event>
 5   0  0.2606520E-02  0.8129222E+03  0.7818609E-02  0.9541499E-01
       -1   -1    0    0    0  501  0.00000000000E+00  0.00000000000E+00  0.19504134572E+03  0.19504134578E+03  0.50400001928E-02 0. -1.
        1   -1    0    0  501    0  0.00000000000E+00  0.00000000000E+00 -0.84705431316E+03  0.84705431318E+03  0.50400001928E-02 0.  1.
    10030    2    1    2    0    0  0.00000000000E+00  0.00000000000E+00 -0.65201296745E+03  0.10420956590E+04  0.81292216891E+03 0.  0.
        5    1    3    3  502    0 -0.27854219439E+03  0.27590245852E+02  0.51759106390E+02  0.28468942870E+03  0.46999998093E+01 0. -1.
       -5    1    3    3    0  502  0.27854219439E+03 -0.27590245852E+02 -0.70377207384E+03  0.75740623026E+03  0.46999998093E+01 0.  1.
</event>
<event>
 5   0  0.4684283E-02  0.8149264E+03  0.7818609E-02  0.9538660E-01
       -2   -1    0    0    0  501  0.00000000000E+00  0.00000000000E+00  0.21858496701E+03  0.21858496702E+03  0.25500000920E-02 0. -1.
        2   -1    0    0  501    0  0.00000000000E+00  0.00000000000E+00 -0.75955027676E+03  0.75955027677E+03  0.25500000920E-02 0.  1.
    10030    2    1    2    0    0  0.00000000000E+00  0.00000000000E+00 -0.54096530976E+03  0.97813524379E+03  0.81492643152E+03 0.  0.
        1    1    3    3  502    0 -0.18546045359E+03  0.62224374403E+02 -0.69950108434E+03  0.72633960351E+03  0.50400001928E-02 0.  1.
       -1    1    3    3    0  502  0.18546045359E+03 -0.62224374403E+02  0.15853577458E+03  0.25179564028E+03  0.50400001928E-02 0. -1.
</event>
<event>
 5   0  0.2635243E-02  0.4661580E+03  0.7818609E-02  0.1023010E+00
        1   -1    0    0  501    0  0.00000000000E+00  0.00000000000E+00  0.18151156456E+04  0.18151156456E+04  0.50400001928E-02 0. -1.
       -1   -1    0    0    0  501  0.00000000000E+00  0.00000000000E+00 -0.29929678771E+02  0.29929679196E+02  0.50400001928E-02 0.  1.
    10030    2    1    2    0    0  0.00000000000E+00  0.00000000000E+00  0.17851859668E+04  0.18450453248E+04  0.46615803588E+03 0.  0.
        1    1    3    3  502    0 -0.40549440116E+02  0.17046787936E+03  0.15009166485E+04  0.15111103006E+04  0.50400001928E-02 0. -1.
       -1    1    3    3    0  502  0.40549440116E+02 -0.17046787936E+03  0.28426931838E+03  0.33393502419E+03  0.50400001928E-02 0.  1.
</event>
<event>
 5   0  0.4700220E-02  0.8163866E+03  0.7818609E-02  0.9536596E-01
       -2   -1    0    0    0  501  0.00000000000E+00  0.00000000000E+00  0.46817715586E+03  0.46817715586E+03  0.25500000920E-02 0.  1.
        2   -1    0    0  501    0  0.00000000000E+00  0.00000000000E+00 -0.35589473877E+03  0.35589473878E+03  0.25500000920E-02 0. -1.
    10030    2    1    2    0    0  0.00000000000E+00  0.00000000000E+00  0.11228241709E+03  0.82407189464E+03  0.81638664023E+03 0.  0.
        4    1    3    3  502    0 -0.16874087566E+03 -0.37165666794E+03  0.60425185847E+02  0.41261965286E+03  0.12699999809E+01 0. -1.
       -4    1    3    3    0  502  0.16874087566E+03  0.37165666794E+03  0.51857231243E+02  0.41145224179E+03  0.12699999809E+01 0.  1.
</event>
<event>
 5   0  0.4590462E-02  0.8439549E+03  0.7818609E-02  0.9498487E-01
       -2   -1    0    0    0  501  0.00000000000E+00  0.00000000000E+00  0.27352301869E+03  0.27352301871E+03  0.25500000920E-02 0.  1.
        2   -1    0    0  501    0  0.00000000000E+00  0.00000000000E+00 -0.65100538204E+03  0.65100538204E+03  0.25500000920E-02 0. -1.
    10030    2    1    2    0    0  0.00000000000E+00  0.00000000000E+00 -0.37748236334E+03  0.92452840075E+03  0.84395487388E+03 0.  0.
        3    1    3    3  502    0  0.36947565645E+03 -0.43155411297E+02 -0.40698562992E+03  0.55137279892E+03  0.10100000352E+00 0. -1.
       -3    1    3    3    0  502 -0.36947565645E+03  0.43155411297E+02  0.29503266574E+02  0.37315560182E+03  0.10100000352E+00 0.  1.
</event>
<event>
 5   0  0.2759559E-02  0.8030728E+03  0.7818609E-02  0.9555580E-01
       -1   -1    0    0    0  501  0.00000000000E+00  0.00000000000E+00  0.25075186298E+03  0.25075186303E+03  0.50400001928E-02 0. -1.
        1   -1    0    0  501    0  0.00000000000E+00  0.00000000000E+00 -0.64299215518E+03  0.64299215520E+03  0.50400001928E-02 0.  1.
    10030    2    1    2    0    0  0.00000000000E+00  0.00000000000E+00 -0.39224029221E+03  0.89374401823E+03  0.80307280075E+03 0.  0.
        3    1    3    3  502    0  0.35740233199E+03  0.16986045736E+03 -0.27194869146E+03  0.48015112504E+03  0.10100000352E+00 0. -1.
       -3    1    3    3    0  502 -0.35740233199E+03 -0.16986045736E+03 -0.12029160074E+03  0.41359289319E+03  0.10100000352E+00 0.  1.
</event>
<event>
 5   0  0.2606520E-02  0.8131611E+03  0.7818609E-02  0.9541160E-01
       -1   -1    0    0    0  501  0.00000000000E+00  0.00000000000E+00  0.35466801502E+03  0.35466801506E+03  0.50400001928E-02 0. -1.
        1   -1    0    0  501    0  0.00000000000E+00  0.00000000000E+00 -0.46609153896E+03  0.46609153898E+03  0.50400001928E-02 0.  1.
    10030    2    1    2    0    0  0.00000000000E+00  0.00000000000E+00 -0.11142352394E+03  0.82075955404E+03  0.81316114262E+03 0.  0.
        5    1    3    3  502    0  0.11560062192E+03 -0.37418241086E+03  0.54439523202E+02  0.39542601340E+03  0.46999998093E+01 0.  1.
       -5    1    3    3    0  502 -0.11560062192E+03  0.37418241086E+03 -0.16586304714E+03  0.42533354064E+03  0.46999998093E+01 0. -1.
</event>
<event>
 5   0  0.1786500E-02  0.4724289E+03  0.7818609E-02  0.1021237E+00
       -3   -1    0    0    0  501  0.00000000000E+00  0.00000000000E+00  0.62838177330E+03  0.62838178142E+03  0.10100000352E+00 0.  1.
        3   -1    0    0  501    0  0.00000000000E+00  0.00000000000E+00 -0.88795123230E+02  0.88795180671E+02  0.10100000352E+00 0. -1.
    10030    2    1    2    0    0  0.00000000000E+00  0.00000000000E+00  0.53958665007E+03  0.71717696209E+03  0.47242887509E+03 0.  0.
        4    1    3    3  502    0 -0.70756834070E+02 -0.15823942284E+03  0.51339119091E+03  0.54186564046E+03  0.12699999809E+01 0.  1.
       -4    1    3    3    0  502  0.70756834070E+02  0.15823942284E+03  0.26195459160E+02  0.17531132163E+03  0.12699999809E+01 0. -1.
</event>
<event>
 5   0  0.2769394E-02  0.6872351E+03  0.7818609E-02  0.9739314E-01
       -1   -1    0    0    0  501  0.00000000000E+00  0.00000000000E+00  0.11926273334E+03  0.11926273345E+03  0.50400001928E-02 0.  1.
        1   -1    0    0  501    0  0.00000000000E+00  0.00000000000E+00 -0.99002453634E+03  0.99002453636E+03  0.50400001928E-02 0. -1.
    10030    2    1    2    0    0  0.00000000000E+00  0.00000000000E+00 -0.87076180300E+03  0.11092872698E+04  0.68723513398E+03 0.  0.
        2    1    3    3  502    0  0.18636696050E+03 -0.61543723406E+02 -0.89064803249E+03  0.91201655229E+03  0.25500000920E-02 0. -1.
       -2    1    3    3    0  502 -0.18636696050E+03  0.61543723406E+02  0.19886229491E+02  0.19727071751E+03  0.25500000920E-02 0.  1.
</event>
<event>
 5   0  0.4663634E-02  0.7990295E+03  0.7818609E-02  0.9561423E-01
        2   -1    0    0  501    0  0.00000000000E+00  0.00000000000E+00  0.17097325207E+03  0.17097325209E+03  0.25500000920E-02 0. -1.
       -2   -1    0    0    0  501  0.00000000000E+00  0.00000000000E+00 -0.93354972295E+03  0.93354972295E+03  0.25500000920E-02 0.  1.
    10030    2    1    2    0    0  0.00000000000E+00  0.00000000000E+00 -0.76257647087E+03  0.11045229750E+04  0.79902949162E+03 0.  0.
        5    1    3    3  502    0  0.10702360916E+03 -0.38152023937E+03 -0.31109909519E+03  0.50380202758E+03  0.46999998093E+01 0. -1.
       -5    1    3    3    0  502 -0.10702360916E+03  0.38152023937E+03 -0.45147737568E+03  0.60072094746E+03  0.46999998093E+01 0.  1.
</event>
<event>
 5   0  0.4377843E-02  0.7340038E+03  0.7818609E-02  0.9660786E-01
       -2   -1    0    0    0  501  0.00000000000E+00  0.00000000000E+00  0.73765489259E+02  0.73765489303E+02  0.25500000920E-02 0. -1.
        2   -1    0    0  501    0  0.00000000000E+00  0.00000000000E+00 -0.18259269509E+04  0.18259269509E+04  0.25500000920E-02 0.  1.
    10030    2    1    2    0    0  0.00000000000E+00  0.00000000000E+00 -0.17521614616E+04  0.18996924402E+04  0.73400380088E+03 0.  0.
        2    1    3    3  502    0  0.19626971105E+03 -0.29640275894E+03 -0.11120687712E+04  0.11675073220E+04  0.25500000920E-02 0.  1.
       -2    1    3    3    0  502 -0.19626971105E+03  0.29640275894E+03 -0.64009269036E+03  0.73218511815E+03  0.25500000920E-02 0. -1.
</event>
<event>
 5   0  0.4590462E-02  0.8290397E+03  0.7818609E-02  0.9518909E-01
        2   -1    0    0  501    0  0.00000000000E+00  0.00000000000E+00  0.51717257385E+03  0.51717257386E+03  0.25500000920E-02 0. -1.
       -2   -1    0    0    0  501  0.00000000000E+00  0.00000000000E+00 -0.33224251966E+03  0.33224251967E+03  0.25500000920E-02 0.  1.
    10030    2    1    2    0    0  0.00000000000E+00  0.00000000000E+00  0.18493005420E+03  0.84941509353E+03  0.82903973136E+03 0.  0.
        3    1    3    3  502    0  0.10717073298E+03  0.26244212775E+03  0.40233018486E+03  0.49216971085E+03  0.10100000352E+00 0. -1.
       -3    1    3    3    0  502 -0.10717073298E+03 -0.26244212775E+03 -0.21740013067E+03  0.35724538267E+03  0.10100000352E+00 0.  1.
</event>
<event>
 5   0  0.4377843E-02  0.1089024E+04  0.7818609E-02  0.9215956E-01
        2   -1    0    0  501    0  0.00000000000E+00  0.00000000000E+00  0.43638602347E+03  0.43638602348E+03  0.25500000920E-02 0.  1.
       -2   -1    0    0    0  501  0.00000000000E+00  0.00000000000E+00 -0.67942950200E+03  0.67942950200E+03  0.25500000920E-02 0. -1.
    10030    2    1    2    0    0  0.00000000000E+00  0.00000000000E+00 -0.24304347853E+03  0.11158155255E+04  0.10890244049E+04 0.  0.
        2    1    3    3  502    0  0.16651546167E+03  0.19041301077E+03 -0.61557605233E+03  0.66552114155E+03  0.25500000920E-02 0. -1.
       -2    1    3    3    0  502 -0.16651546167E+03 -0.19041301077E+03  0.37253257380E+03  0.45029438393E+03  0.25500000920E-02 0.  1.
</event>
<event>
 5   0  0.4590462E-02  0.7759468E+03  0.7818609E-02  0.9595501E-01
       -2   -1    0    0    0  501  0.00000000000E+00  0.00000000000E+00  0.19196802192E+03  0.19196802193E+03  0.25500000920E-02 0.  1.
        2   -1    0    0  501    0  0.00000000000E+00  0.00000000000E+00 -0.78410647024E+03  0.78410647025E+03  0.25500000920E-02 0. -1.
    10030    2    1    2    0    0  0.00000000000E+00  0.00000000000E+00 -0.59213844833E+03  0.97607449218E+03  0.77594682311E+03 0.  0.
        3    1    3    3  502    0  0.74359021974E+02 -0.13305222312E+03  0.15272803278E+03  0.21577307623E+03  0.10100000352E+00 0.  1.
       -3    1    3    3    0  502 -0.74359021974E+02  0.13305222312E+03 -0.74486648111E+03  0.76030141595E+03  0.10100000352E+00 0. -1.
</event>
<event>
 5   0  0.4663634E-02  0.8118251E+03  0.7818609E-02  0.9543057E-01
        2   -1    0    0  501    0  0.00000000000E+00  0.00000000000E+00  0.38531906499E+03  0.38531906500E+03  0.25500000920E-02 0. -1.
       -2   -1    0    0    0  501  0.00000000000E+00  0.00000000000E+00 -0.42760670199E+03  0.42760670200E+03  0.25500000920E-02 0.  1.
    10030    2    1    2    0    0  0.00000000000E+00  0.00000000000E+00 -0.42287637001E+02  0.81292576700E+03  0.81182514029E+03 0.  0.
        5    1    3    3  502    0 -0.10709162849E+03  0.27857738499E+03  0.25430901366E+03  0.39213408516E+03  0.46999998093E+01 0. -1.
       -5    1    3    3    0  502  0.10709162849E+03 -0.27857738499E+03 -0.29659665066E+03  0.42079168184E+03  0.46999998093E+01 0.  1.
</event>
<event>
 5   0  0.4700220E-02  0.7463901E+03  0.7818609E-02  0.9641031E-01
       -2   -1    0    0    0  501  0.00000000000E+00  0.00000000000E+00  0.50919446696E+03  0.50919446697E+03  0.25500000920E-02 0. -1.
        2   -1    0    0  501    0  0.00000000000E+00  0.00000000000E+00 -0.27351936463E+03  0.27351936464E+03  0.25500000920E-02 0.  1.
    10030    2    1    2    0    0  0.00000000000E+00  0.00000000000E+00  0.23567510233E+03  0.78271383161E+03  0.74639010466E+03 0.  0.
        4    1    3    3  502    0 -0.20138116240E+03  0.15330661939E+03  0.40543909895E+03  0.47795372995E+03  0.12699999809E+01 0. -1.
       -4    1    3    3    0  502  0.20138116240E+03 -0.15330661939E+03 -0.16976399662E+03  0.30476010166E+03  0.12699999809E+01 0.  1.
</event>
<event>
 5   0  0.4700220E-02  0.8597361E+03  0.7818609E-02  0.9477362E-01
       -2   -1    0    0    0  501  0.00000000000E+00  0.00000000000E+00  0.12704936227E+03  0.12704936230E+03  0.25500000920E-02 0. -1.
        2   -1    0    0  501    0  0.00000000000E+00  0.00000000000E+00 -0.14544467008E+04  0.14544467008E+04  0.25500000920E-02 0.  1.
    10030    2    1    2    0    0  0.00000000000E+00  0.00000000000E+00 -0.13273973385E+04  0.15814960631E+04  0.85973606606E+03 0.  0.
        4    1    3    3  502    0 -0.13767012499E+03  0.28712597963E+03 -0.11949026416E+04  0.12366035449E+04  0.12699999809E+01 0.  1.
       -4    1    3    3    0  502  0.13767012499E+03 -0.28712597963E+03 -0.13249469695E+03  0.34489251821E+03  0.12699999809E+01 0. -1.
</event>
<event>
 5   0  0.2635243E-02  0.7968430E+03  0.7818609E-02  0.9564598E-01
        1   -1    0    0  501    0  0.00000000000E+00  0.00000000000E+00  0.12244381882E+04  0.12244381882E+04  0.50400001928E-02 0. -1.
       -1   -1    0    0    0  501  0.00000000000E+00  0.00000000000E+00 -0.12964289203E+03  0.12964289212E+03  0.50400001928E-02 0.  1.
    10030    2    1    2    0    0  0.00000000000E+00  0.00000000000E+00  0.10947952961E+04  0.13540810803E+04  0.79684304074E+03 0.  0.
        1    1    3    3  502    0  0.35232993991E+03 -0.10842738615E+03  0.29054455683E+03  0.46937088123E+03  0.50400001928E-02 0. -1.
       -1    1    3    3    0  502 -0.35232993991E+03  0.10842738615E+03  0.80425073930E+03  0.88471019905E+03  0.50400001928E-02 0.  1.
</event>
<event>
 5   0  0.4377843E-02  0.7526445E+03  0.7818609E-02  0.9631211E-01
        2   -1    0    0  501    0  0.00000000000E+00  0.00000000000E+00  0.21063984852E+04  0.21063984852E+04  0.25500000920E-02 0. -1.
       -2   -1    0    0    0  501  0.00000000000E+00  0.00000000000E+00 -0.67232500744E+02  0.67232500792E+02  0.25500000920E-02 0.  1.
    10030    2    1    2    0    0  0.00000000000E+00  0.00000000000E+00  0.20391659844E+04  0.21736309860E+04  0.75264450513E+03 0.  0.
        2    1    3    3  502    0  0.34033280211E+03  0.16004393779E+03  0.98105675718E+03  0.10506725651E+04  0.25500000920E-02 0. -1.
       -2    1    3    3    0  502 -0.34033280211E+03 -0.16004393779E+03  0.10581092272E+04  0.11229584209E+04  0.25500000920E-02 0.  1.
</event>
<event>
 5   0  0.2606520E-02  0.8368598E+03  0.7818609E-02  0.9508145E-01
        1   -1    0    0  501    0  0.00000000000E+00  0.00000000000E+00  0.34206174298E+03  0.34206174302E+03  0.50400001928E-02 0. -1.
       -1   -1    0    0    0  501  0.00000000000E+00  0.00000000000E+00 -0.51184784860E+03  0.51184784862E+03  0.50400001928E-02 0.  1.
    10030    2    1    2    0    0  0.00000000000E+00  0.00000000000E+00 -0.16978610562E+03  0.85390959164E+03  0.83685976665E+03 0.  0.
        5    1    3    3  502    0  0.24474712661E+03 -0.11560228302E+03 -0.41044888803E+03  0.49168630600E+03  0.46999998093E+01 0.  1.
       -5    1    3    3    0  502 -0.24474712661E+03  0.11560228302E+03  0.24066278242E+03  0.36222328564E+03  0.46999998093E+01 0. -1.
</event>
<event>
 5   0  0.2689372E-02  0.7801646E+03  0.7818609E-02  0.9589180E-01
        1   -1    0    0  501    0  0.00000000000E+00  0.00000000000E+00  0.79739117227E+03  0.79739117228E+03  0.50400001928E-02 0. -1.
       -1   -1    0    0    0  501  0.00000000000E+00  0.00000000000E+00 -0.19082754587E+03  0.19082754594E+03  0.50400001928E-02 0.  1.
    10030    2    1    2    0    0  0.00000000000E+00  0.00000000000E+00  0.60656362640E+03  0.98821871822E+03  0.78016459941E+03 0.  0.
        4    1    3    3  502    0  0.32658563092E+03 -0.19047399628E+03  0.42493630034E+03  0.56878026498E+03  0.12699999809E+01 0.  1.
       -4    1    3    3    0  502 -0.32658563092E+03  0.19047399628E+03  0.18162732605E+03  0.41943845324E+03  0.12699999809E+01 0. -1.
</event>
<event>
 5   0  0.2606520E-02  0.7242283E+03  0.7818609E-02  0.9676673E-01
        1   -1    0    0  501    0  0.00000000000E+00  0.00000000000E+00  0.16505228621E+03  0.16505228629E+03  0.50400001928E-02 0. -1.
       -1   -1    0    0    0  501  0.00000000000E+00  0.00000000000E+00 -0.79445520535E+03  0.79445520537E+03  0.50400001928E-02 0.  1.
    10030    2    1    2    0    0  0.00000000000E+00  0.00000000000E+00 -0.62940291914E+03  0.95950749165E+03  0.72422827335E+03 0.  0.
        5    1    3    3  502    0  0.25293653373E+03  0.13976106551E+03 -0.60373705855E+03  0.66935085821E+03  0.46999998093E+01 0. -1.
       -5    1    3    3    0  502 -0.25293653373E+03 -0.13976106551E+03 -0.25665860593E+02  0.29015663344E+03  0.46999998093E+01 0.  1.
</event>
<event>
 5   0  0.4684283E-02  0.7921156E+03  0.7818609E-02  0.9571500E-01
       -2   -1    0    0    0  501  0.00000000000E+00  0.00000000000E+00  0.10131315915E+03  0.10131315919E+03  0.25500000920E-02 0.  1.
        2   -1    0    0  501    0  0.00000000000E+00  0.00000000000E+00 -0.15482862533E+04  0.15482862533E+04  0.25500000920E-02 0. -1.
    10030    2    1    2    0    0  0.00000000000E+00  0.00000000000E+00 -0.14469730942E+04  0.16495994125E+04  0.79211557648E+03 0.  0.
        1    1    3    3  502    0 -0.19177096328E+03 -0.22729035072E+03 -0.12682357448E+04  0.13026353712E+04  0.50400001928E-02 0.  1.
       -1    1    3    3    0  502  0.19177096328E+03  0.22729035072E+03 -0.17873734940E+03  0.34696404134E+03  0.50400001928E-02 0. -1.
</event>
<event>
 5   0  0.4590462E-02  0.8036447E+03  0.7818609E-02  0.9554756E-01
       -2   -1    0    0    0  501  0.00000000000E+00  0.00000000000E+00  0.12202025802E+03  0.12202025805E+03  0.25500000920E-02 0.  1.
        2   -1    0    0  501    0  0.00000000000E+00  0.00000000000E+00 -0.13232328965E+04  0.13232328965E+04  0.25500000920E-02 0. -1.
    10030    2    1    2    0    0  0.00000000000E+00  0.00000000000E+00 -0.12012126385E+04  0.14452531545E+04  0.80364474607E+03 0.  0.
        3    1    3    3  502    0 -0.17481791714E+03 -0.52128536742E+02  0.43257794695E+02  0.18748316057E+03  0.10100000352E+00 0.  1.
       -3    1    3    3    0  502  0.17481791714E+03  0.52128536742E+02 -0.12444704332E+04  0.12577699940E+04  0.10100000352E+00 0. -1.
</event>
<event>
 5   0  0.4663634E-02  0.7938008E+03  0.7818609E-02  0.9569034E-01
       -2   -1    0    0    0  501  0.00000000000E+00  0.00000000000E+00  0.44475832316E+03  0.44475832317E+03  0.25500000920E-02 0. -1.
        2   -1    0    0  501    0  0.00000000000E+00  0.00000000000E+00 -0.35419223553E+03  0.35419223554E+03  0.25500000920E-02 0.  1.
    10030    2    1    2    0    0  0.00000000000E+00  0.00000000000E+00  0.90566087634E+02  0.79895055871E+03  0.79380084343E+03 0.  0.
        5    1    3    3  502    0  0.26791670380E+03  0.14080961435E+03 -0.21309454188E+03  0.37018654952E+03  0.46999998093E+01 0.  1.
       -5    1    3    3    0  502 -0.26791670380E+03 -0.14080961435E+03  0.30366062951E+03  0.42876400919E+03  0.46999998093E+01 0. -1.
</event>
<event>
 5   0  0.2606520E-02  0.8104295E+03  0.7818609E-02  0.9545042E-01
        1   -1    0    0  501    0  0.00000000000E+00  0.00000000000E+00  0.50725774503E+03  0.50725774506E+03  0.50400001928E-02 0. -1.
       -1   -1    0    0    0  501  0.00000000000E+00  0.00000000000E+00 -0.32369933252E+03  0.32369933256E+03  0.50400001928E-02 0.  1.
    10030    2    1    2    0    0  0.00000000000E+00  0.00000000000E+00  0.18355841251E+03  0.83095707762E+03  0.81042949974E+03 0.  0.
        5    1    3    3  502    0 -0.37128993599E+03  0.26074236824E+02 -0.72404220085E+02  0.37921042111E+03  0.46999998093E+01 0.  1.
       -5    1    3    3    0  502  0.37128993599E+03 -0.26074236824E+02  0.25596263259E+03  0.45174665652E+03  0.46999998093E+01 0. -1.
</event>
<event>
 5   0  0.4590462E-02  0.7459094E+03  0.7818609E-02  0.9641790E-01
        2   -1    0    0  501    0  0.00000000000E+00  0.00000000000E+00  0.15731227244E+03  0.15731227246E+03  0.25500000920E-02 0. -1.
       -2   -1    0    0    0  501  0.00000000000E+00  0.00000000000E+00 -0.88419805711E+03  0.88419805711E+03  0.25500000920E-02 0.  1.
    10030    2    1    2    0    0  0.00000000000E+00  0.00000000000E+00 -0.72688578467E+03  0.10415103296E+04  0.74590939305E+03 0.  0.
        3    1    3    3  502    0 -0.20885370749E+03 -0.88623691203E+02 -0.77675870297E+03  0.80921450964E+03  0.10100000352E+00 0.  1.
       -3    1    3    3    0  502  0.20885370749E+03  0.88623691203E+02  0.49872918302E+02  0.23229581992E+03  0.10100000352E+00 0. -1.
</event>
<event>
 5   0  0.4700220E-02  0.8112955E+03  0.7818609E-02  0.9543810E-01
        2   -1    0    0  501    0  0.00000000000E+00  0.00000000000E+00  0.40357693091E+03  0.40357693092E+03  0.25500000920E-02 0.  1.
       -2   -1    0    0    0  501  0.00000000000E+00  0.00000000000E+00 -0.40772923676E+03  0.40772923677E+03  0.25500000920E-02 0. -1.
    10030    2    1    2    0    0  0.00000000000E+00  0.00000000000E+00 -0.41523058507E+01  0.81130616769E+03  0.81129554177E+03 0.  0.
        4    1    3    3  502    0  0.33707038996E+03 -0.16528227558E+03  0.15159375720E+03  0.40486659350E+03  0.12699999809E+01 0. -1.
       -4    1    3    3    0  502 -0.33707038996E+03  0.16528227558E+03 -0.15574606305E+03  0.40643957419E+03  0.12699999809E+01 0.  1.
</event>
<event>
 5   0  0.4663634E-02  0.8216299E+03  0.7818609E-02  0.9529226E-01
       -2   -1    0    0    0  501  0.00000000000E+00  0.00000000000E+00  0.14577828057E+03  0.14577828059E+03  0.25500000920E-02 0.  1.
        2   -1    0    0  501    0  0.00000000000E+00  0.00000000000E+00 -0.11577097826E+04  0.11577097826E+04  0.25500000920E-02 0. -1.
    10030    2    1    2    0    0  0.00000000000E+00  0.00000000000E+00 -0.10119315020E+04  0.13034880632E+04  0.82162994474E+03 0.  0.
        5    1    3    3  502    0  0.26577208728E+02 -0.66393853018E+01  0.14428492990E+03  0.14693760735E+03  0.46999998093E+01 0.  1.
       -5    1    3    3    0  502 -0.26577208728E+02  0.66393853018E+01 -0.11562164319E+04  0.11565504558E+04  0.46999998093E+01 0. -1.
</event>
<event>
 5   0  0.2606520E-02  0.7851454E+03  0.7818609E-02  0.9581771E-01
       -1   -1    0    0    0  501  0.00000000000E+00  0.00000000000E+00  0.22458779729E+03  0.22458779734E+03  0.50400001928E-02 0. -1.
        1   -1    0    0  501    0  0.00000000000E+00  0.00000000000E+00 -0.68620526920E+03  0.68620526921E+03  0.50400001928E-02 0.  1.
    10030    2    1    2    0    0  0.00000000000E+00  0.00000000000E+00 -0.46161747191E+03  0.91079306656E+03  0.78514541311E+03 0.  0.
        5    1    3    3  502    0 -0.37572051745E+03 -0.10977893635E+03 -0.19651578018E+03  0.43801582615E+03  0.46999998093E+01 0. -1.
       -5    1    3    3    0  502  0.37572051745E+03  0.10977893635E+03 -0.26510169173E+03  0.47277724041E+03  0.46999998093E+01 0.  1.
</event>
<event>
 5   0  0.4590462E-02  0.8035478E+03  0.7818609E-02  0.9554896E-01
       -2   -1    0    0    0  501  0.00000000000E+00  0.00000000000E+00  0.35392224183E+03  0.35392224184E+03  0.25500000920E-02 0.  1.
        2   -1    0    0  501    0  0.00000000000E+00  0.00000000000E+00 -0.45609533821E+03  0.45609533822E+03  0.25500000920E-02 0. -1.
    10030    2    1    2    0    0  0.00000000000E+00  0.00000000000E+00 -0.10217309638E+03  0.81001758006E+03  0.80354784448E+03 0.  0.
        3    1    3    3  502    0  0.11814530728E+03 -0.37131852129E+03  0.47612534511E+02  0.39255919494E+03  0.10100000352E+00 0.  1.
       -3    1    3    3    0  502 -0.11814530728E+03  0.37131852129E+03 -0.14978563089E+03  0.41745838512E+03  0.10100000352E+00 0. -1.
</event>
<event>
 5   0  0.4684283E-02  0.7611755E+03  0.7818609E-02  0.9617979E-01
        2   -1    0    0  501    0  0.00000000000E+00  0.00000000000E+00  0.22785161454E+03  0.22785161456E+03  0.25500000920E-02 0.  1.
       -2   -1    0    0    0  501  0.00000000000E+00  0.00000000000E+00 -0.63570775097E+03  0.63570775097E+03  0.25500000920E-02 0. -1.
    10030    2    1    2    0    0  0.00000000000E+00  0.00000000000E+00 -0.40785613642E+03  0.86355936553E+03  0.76117550524E+03 0.  0.
        1    1    3    3  502    0  0.17020745728E+03  0.31561088689E+03 -0.59233972986E+02  0.36344115620E+03  0.50400001928E-02 0.  1.
       -1    1    3    3    0  502 -0.17020745728E+03 -0.31561088689E+03 -0.34862216344E+03  0.50011820933E+03  0.50400001928E-02 0. -1.
</event>
<event>
 5   0  0.4700220E-02  0.8036827E+03  0.7818609E-02  0.9554702E-01
        2   -1    0    0  501    0  0.00000000000E+00  0.00000000000E+00  0.56357150323E+03  0.56357150324E+03  0.25500000920E-02 0. -1.
       -2   -1    0    0    0  501  0.00000000000E+00  0.00000000000E+00 -0.28652346347E+03  0.28652346349E+03  0.25500000920E-02 0.  1.
    10030    2    1    2    0    0  0.00000000000E+00  0.00000000000E+00  0.27704803976E+03  0.85009496673E+03  0.80368267128E+03 0.  0.
        4    1    3    3  502    0  0.29476313413E+03  0.14323097991E+03 -0.10744409046E+03  0.34488587145E+03  0.12699999809E+01 0.  1.
       -4    1    3    3    0  502 -0.29476313413E+03 -0.14323097991E+03  0.38449213022E+03  0.50520909528E+03  0.12699999809E+01 0. -1.
</event>
<event>
 5   0  0.4684283E-02  0.7894563E+03  0.7818609E-02  0.9575405E-01
        2   -1    0    0  501    0  0.00000000000E+00  0.00000000000E+00  0.50130742927E+03  0.50130742927E+03  0.25500000920E-02 0. -1.
       -2   -1    0    0    0  501  0.00000000000E+00  0.00000000000E+00 -0.31080792733E+03  0.31080792734E+03  0.25500000920E-02 0.  1.
    10030    2    1    2    0    0  0.00000000000E+00  0.00000000000E+00  0.19049950194E+03  0.81211535661E+03  0.78945632698E+03 0.  0.
        1    1    3    3  502    0  0.34973646136E+03 -0.85275498128E+02 -0.71332724053E+02  0.36698209838E+03  0.50400001928E-02 0.  1.
       -1    1    3    3    0  502 -0.34973646136E+03  0.85275498128E+02  0.26183222599E+03  0.44513325823E+03  0.50400001928E-02 0. -1.
</event>
<event>
 5   0  0.4590462E-02  0.8043360E+03  0.7818609E-02  0.9553762E-01
       -2   -1    0    0    0  501  0.00000000000E+00  0.00000000000E+00  0.19596014105E+03  0.19596014107E+03  0.25500000920E-02 0. -1.
        2   -1    0    0  501    0  0.00000000000E+00  0.00000000000E+00 -0.82536738064E+03  0.82536738064E+03  0.25500000920E-02 0.  1.
    10030    2    1    2    0    0  0.00000000000E+00  0.00000000000E+00 -0.62940723959E+03  0.10213275217E+04  0.80433602018E+03 0.  0.
        3    1    3    3  502    0  0.34001836878E+03 -0.21342677312E+03 -0.28423903367E+03  0.49188953745E+03  0.10100000352E+00 0.  1.
       -3    1    3    3    0  502 -0.34001836878E+03  0.21342677312E+03 -0.34516820592E+03  0.52943798426E+03  0.10100000352E+00 0. -1.
</event>
<event>
 5   0  0.4377843E-02  0.7841652E+03  0.7818609E-02  0.9583224E-01
       -2   -1    0    0    0  501  0.00000000000E+00  0.00000000000E+00  0.10345140034E+03  0.10345140037E+03  0.25500000920E-02 0. -1.
        2   -1    0    0  501    0  0.00000000000E+00  0.00000000000E+00 -0.14859999308E+04  0.14859999308E+04  0.25500000920E-02 0.  1.
    10030    2    1    2    0    0  0.00000000000E+00  0.00000000000E+00 -0.13825485304E+04  0.15894513312E+04  0.78416522181E+03 0.  0.
        2    1    3    3  502    0 -0.28639719359E+03 -0.13655568221E+03 -0.22438384876E+03  0.38861152637E+03  0.25500000920E-02 0. -1.
       -2    1    3    3    0  502  0.28639719359E+03  0.13655568221E+03 -0.11581646817E+04  0.12008398048E+04  0.25500000920E-02 0.  1.
</event>
<event>
 5   0  0.4684283E-02  0.7485164E+03  0.7818609E-02  0.9637681E-01
        2   -1    0    0  501    0  0.00000000000E+00  0.00000000000E+00  0.32434093524E+03  0.32434093525E+03  0.25500000920E-02 0.  1.
       -2   -1    0    0    0  501  0.00000000000E+00  0.00000000000E+00 -0.43185790829E+03  0.43185790830E+03  0.25500000920E-02 0. -1.
    10030    2    1    2    0    0  0.00000000000E+00  0.00000000000E+00 -0.10751697305E+03  0.75619884354E+03  0.74851639359E+03 0.  0.
        1    1    3    3  502    0 -0.22610266674E+03 -0.25622924260E+03 -0.20794654342E+03  0.40002200642E+03  0.50400001928E-02 0. -1.
       -1    1    3    3    0  502  0.22610266674E+03  0.25622924260E+03  0.10042957037E+03  0.35617683712E+03  0.50400001928E-02 0.  1.
</event>
<event>
 5   0  0.4377843E-02  0.7904481E+03  0.7818609E-02  0.9573947E-01
        2   -1    0    0  501    0  0.00000000000E+00  0.00000000000E+00  0.14688777895E+03  0.14688777897E+03  0.25500000920E-02 0. -1.
       -2   -1    0    0    0  501  0.00000000000E+00  0.00000000000E+00 -0.10634107786E+04  0.10634107786E+04  0.25500000920E-02 0.  1.
    10030    2    1    2    0    0  0.00000000000E+00  0.00000000000E+00 -0.91652299963E+03  0.12102985576E+04  0.79044809416E+03 0.  0.
        2    1    3    3  502    0  0.16342681831E+03 -0.28598921629E+03 -0.12383856083E+03  0.35190076148E+03  0.25500000920E-02 0. -1.
       -2    1    3    3    0  502 -0.16342681831E+03  0.28598921629E+03 -0.79268443880E+03  0.85839779607E+03  0.25500000920E-02 0.  1.
</event>
<event>
 5   0  0.2635243E-02  0.8158772E+03  0.7818609E-02  0.9537316E-01
        1   -1    0    0  501    0  0.00000000000E+00  0.00000000000E+00  0.10622591978E+04  0.10622591978E+04  0.50400001928E-02 0. -1.
       -1   -1    0    0    0  501  0.00000000000E+00  0.00000000000E+00 -0.15666037145E+03  0.15666037153E+03  0.50400001928E-02 0.  1.
    10030    2    1    2    0    0  0.00000000000E+00  0.00000000000E+00  0.90559882632E+03  0.12189195693E+04  0.81587724703E+03 0.  0.
        1    1    3    3  502    0 -0.13468242307E+03 -0.36848785155E+03  0.28582362460E+03  0.48540477565E+03  0.50400001928E-02 0.  1.
       -1    1    3    3    0  502  0.13468242307E+03  0.36848785155E+03  0.61977520172E+03  0.73351479366E+03  0.50400001928E-02 0. -1.
</event>
<event>
 5   0  0.2769394E-02  0.5509924E+03  0.7818609E-02  0.1001264E+00
        1   -1    0    0  501    0  0.00000000000E+00  0.00000000000E+00  0.89103729663E+02  0.89103729806E+02  0.50400001928E-02 0.  1.
       -1   -1    0    0    0  501  0.00000000000E+00  0.00000000000E+00 -0.85179555972E+03  0.85179555973E+03  0.50400001928E-02 0. -1.
    10030    2    1    2    0    0  0.00000000000E+00  0.00000000000E+00 -0.76269183006E+03  0.94089928954E+03  0.55099241866E+03 0.  0.
        2    1    3    3  502    0 -0.19572184489E+03 -0.37121778257E+01 -0.50321110718E+02  0.20212133737E+03  0.25500000920E-02 0.  1.
       -2    1    3    3    0  502  0.19572184489E+03  0.37121778257E+01 -0.71237071934E+03  0.73877795217E+03  0.25500000920E-02 0. -1.
</event>
<event>
 5   0  0.2689372E-02  0.8206842E+03  0.7818609E-02  0.9530551E-01
       -1   -1    0    0    0  501  0.00000000000E+00  0.00000000000E+00  0.56570557949E+03  0.56570557951E+03  0.50400001928E-02 0.  1.
        1   -1    0    0  501    0  0.00000000000E+00  0.00000000000E+00 -0.29764714888E+03  0.29764714892E+03  0.50400001928E-02 0. -1.
    10030    2    1    2    0    0  0.00000000000E+00  0.00000000000E+00  0.26805843061E+03  0.86335272844E+03  0.82068423372E+03 0.  0.
        4    1    3    3  502    0 -0.27404625379E+03 -0.84576499984E+02 -0.17469844993E+03  0.33582092680E+03  0.12699999809E+01 0. -1.
       -4    1    3    3    0  502  0.27404625379E+03  0.84576499984E+02  0.44275688054E+03  0.52753180163E+03  0.12699999809E+01 0.  1.
</event>
<event>
 5   0  0.2606520E-02  0.7903281E+03  0.7818609E-02  0.9574123E-01
        1   -1    0    0  501    0  0.00000000000E+00  0.00000000000E+00  0.25487448152E+03  0.25487448157E+03  0.50400001928E-02 0. -1.
       -1   -1    0    0    0  501  0.00000000000E+00  0.00000000000E+00 -0.61267263164E+03  0.61267263166E+03  0.50400001928E-02 0.  1.
    10030    2    1    2    0    0  0.00000000000E+00  0.00000000000E+00 -0.35779815011E+03  0.86754711323E+03  0.79032808216E+03 0.  0.
        5    1    3    3  502    0  0.13782317383E+03  0.19925319698E+03  0.16374575841E+03  0.29245824856E+03  0.46999998093E+01 0. -1.
       -5    1    3    3    0  502 -0.13782317383E+03 -0.19925319698E+03 -0.52154390853E+03  0.57508886467E+03  0.46999998093E+01 0.  1.
</event>
<event>
 5   0  0.4590462E-02  0.7775363E+03  0.7818609E-02  0.9593114E-01
        2   -1    0    0  501    0  0.00000000000E+00  0.00000000000E+00  0.26125641982E+04  0.26125641982E+04  0.25500000920E-02 0.  1.
       -2   -1    0    0    0  501  0.00000000000E+00  0.00000000000E+00 -0.57851461842E+02  0.57851461898E+02  0.25500000920E-02 0. -1.
    10030    2    1    2    0    0  0.00000000000E+00  0.00000000000E+00  0.25547127364E+04  0.26704156601E+04  0.77753625793E+03 0.  0.
        3    1    3    3  502    0 -0.15602130330E+03  0.15153092150E+03  0.17064852708E+03  0.27645107569E+03  0.10100000352E+00 0. -1.
       -3    1    3    3    0  502  0.15602130330E+03 -0.15153092150E+03  0.23840642093E+04  0.23939645844E+04  0.10100000352E+00 0.  1.
</event>
<event>
 5   0  0.1786500E-02  0.7843082E+03  0.7818609E-02  0.9583012E-01
       -3   -1    0    0    0  501  0.00000000000E+00  0.00000000000E+00  0.24409270398E+03  0.24409272487E+03  0.10100000352E+00 0. -1.
        3   -1    0    0  501    0  0.00000000000E+00  0.00000000000E+00 -0.63002631247E+03  0.63002632056E+03  0.10100000352E+00 0.  1.
    10030    2    1    2    0    0  0.00000000000E+00  0.00000000000E+00 -0.38593360849E+03  0.87411904544E+03  0.78430820182E+03 0.  0.
        4    1    3    3  502    0  0.89776036450E+01 -0.38329282288E+03 -0.10113472375E+03  0.39651460337E+03  0.12699999809E+01 0. -1.
       -4    1    3    3    0  502 -0.89776036450E+01  0.38329282288E+03 -0.28479888474E+03  0.47760444207E+03  0.12699999809E+01 0.  1.
</event>
<event>
 5   0  0.4590462E-02  0.8028569E+03  0.7818609E-02  0.9555891E-01
        2   -1    0    0  501    0  0.00000000000E+00  0.00000000000E+00  0.20742738799E+04  0.20742738799E+04  0.25500000920E-02 0. -1.
       -2   -1    0    0    0  501  0.00000000000E+00  0.00000000000E+00 -0.77687332318E+02  0.77687332360E+02  0.25500000920E-02 0.  1.
    10030    2    1    2    0    0  0.00000000000E+00  0.00000000000E+00  0.19965865476E+04  0.21519612123E+04  0.80285690948E+03 0.  0.
        3    1    3    3  502    0  0.30143664503E+03  0.12310931474E+03  0.16276109927E+04  0.16598606894E+04  0.10100000352E+00 0. -1.
       -3    1    3    3    0  502 -0.30143664503E+03 -0.12310931474E+03  0.36897555492E+03  0.49210052293E+03  0.10100000352E+00 0.  1.
</event>
<event>
 5   0  0.2759559E-02  0.6987393E+03  0.7818609E-02  0.9719391E-01
        1   -1    0    0  501    0  0.00000000000E+00  0.00000000000E+00  0.76407925780E+03  0.76407925782E+03  0.50400001928E-02 0.  1.
       -1   -1    0    0    0  501  0.00000000000E+00  0.00000000000E+00 -0.15974671056E+03  0.15974671064E+03  0.50400001928E-02 0. -1.
    10030    2    1    2    0    0  0.00000000000E+00  0.00000000000E+00  0.60433254724E+03  0.92382596846E+03  0.69873928782E+03 0.  0.
        3    1    3    3  502    0 -0.81716138357E+02 -0.27716483167E+03  0.56179374817E+03  0.63175161010E+03  0.10100000352E+00 0.  1.
       -3    1    3    3    0  502  0.81716138357E+02  0.27716483167E+03  0.42538799076E+02  0.29207435836E+03  0.10100000352E+00 0. -1.
</event>
<event>
 5   0  0.2689372E-02  0.7947742E+03  0.7818609E-02  0.9567612E-01
        1   -1    0    0  501    0  0.00000000000E+00  0.00000000000E+00  0.19005126900E+03  0.19005126907E+03  0.50400001928E-02 0. -1.
       -1   -1    0    0    0  501  0.00000000000E+00  0.00000000000E+00 -0.83091540380E+03  0.83091540382E+03  0.50400001928E-02 0.  1.
    10030    2    1    2    0    0  0.00000000000E+00  0.00000000000E+00 -0.64086413480E+03  0.10209666729E+04  0.79477424963E+03 0.  0.
        4    1    3    3  502    0  0.13161034268E+03 -0.35398582664E+03 -0.47926420299E+03  0.61018278977E+03  0.12699999809E+01 0.  1.
       -4    1    3    3    0  502 -0.13161034268E+03  0.35398582664E+03 -0.16159993181E+03  0.41078388312E+03  0.12699999809E+01 0. -1.
</event>
<event>
 5   0  0.2606520E-02  0.7619196E+03  0.7818609E-02  0.9616834E-01
        1   -1    0    0  501    0  0.00000000000E+00  0.00000000000E+00  0.73793314364E+03  0.73793314366E+03  0.50400001928E-02 0.  1.
       -1   -1    0    0    0  501  0.00000000000E+00  0.00000000000E+00 -0.19667141084E+03  0.19667141091E+03  0.50400001928E-02 0. -1.
    10030    2    1    2    0    0  0.00000000000E+00  0.00000000000E+00  0.54126173280E+03  0.93460455457E+03  0.76191955614E+03 0.  0.
        5    1    3    3  502    0  0.16918796915E+03  0.26752015877E+03  0.10661311086E+02  0.31674494125E+03  0.46999998093E+01 0. -1.
       -5    1    3    3    0  502 -0.16918796915E+03 -0.26752015877E+03  0.53060042171E+03  0.61785961332E+03  0.46999998093E+01 0.  1.
</event>
<event>
 5   0  0.4700220E-02  0.8090822E+03  0.7818609E-02  0.9546963E-01
       -2   -1    0    0    0  501  0.00000000000E+00  0.00000000000E+00  0.28636692167E+03  0.28636692168E+03  0.25500000920E-02 0. -1.
        2   -1    0    0  501    0  0.00000000000E+00  0.00000000000E+00 -0.57148189288E+03  0.57148189288E+03  0.25500000920E-02 0.  1.
    10030    2    1    2    0    0  0.00000000000E+00  0.00000000000E+00 -0.28511497121E+03  0.85784881456E+03  0.80908222193E+03 0.  0.
        4    1    3    3  502    0  0.27785090426E+03 -0.21847202475E+03  0.66078856721E+02  0.35958195005E+03  0.12699999809E+01 0. -1.
       -4    1    3    3    0  502 -0.27785090426E+03  0.21847202475E+03 -0.35119382793E+03  0.49826686451E+03  0.12699999809E+01 0.  1.
</event>
<event>
 5   0  0.4700220E-02  0.8061179E+03  0.7818609E-02  0.9551204E-01
       -2   -1    0    0    0  501  0.00000000000E+00  0.00000000000E+00  0.20826257309E+03  0.20826257311E+03  0.25500000920E-02 0.  1.
        2   -1    0    0  501    0  0.00000000000E+00  0.00000000000E+00 -0.78005630406E+03  0.78005630406E+03  0.25500000920E-02 0. -1.
    10030    2    1    2    0    0  0.00000000000E+00  0.00000000000E+00 -0.57179373097E+03  0.98831887717E+03  0.80611793939E+03 0.  0.
        4    1    3    3  502    0  0.21957414490E+03 -0.16974291608E+03 -0.64424267377E+03  0.70148107478E+03  0.12699999809E+01 0. -1.
       -4    1    3    3    0  502 -0.21957414490E+03  0.16974291608E+03  0.72448942803E+02  0.28683780239E+03  0.12699999809E+01 0.  1.
</event>
<event>
 5   0  0.4590462E-02  0.7980560E+03  0.7818609E-02  0.9562835E-01
        2   -1    0    0  501    0  0.00000000000E+00  0.00000000000E+00  0.14123606135E+04  0.14123606135E+04  0.25500000920E-02 0.  1.
       -2   -1    0    0    0  501  0.00000000000E+00  0.00000000000E+00 -0.11273560640E+03  0.11273560643E+03  0.25500000920E-02 0. -1.
    10030    2    1    2    0    0  0.00000000000E+00  0.00000000000E+00  0.12996250071E+04  0.15250962200E+04  0.79805596357E+03 0.  0.
        3    1    3    3  502    0  0.17724085434E+03 -0.50395290628E+02 -0.26560472599E+02  0.18617055264E+03  0.10100000352E+00 0. -1.
       -3    1    3    3    0  502 -0.17724085434E+03  0.50395290628E+02  0.13261854797E+04  0.13389256673E+04  0.10100000352E+00 0.  1.
</event>
<event>
 5   0  0.2635243E-02  0.8067653E+03  0.7818609E-02  0.9550276E-01
       -1   -1    0    0    0  501  0.00000000000E+00  0.00000000000E+00  0.56466298960E+03  0.56466298963E+03  0.50400001928E-02 0.  1.
        1   -1    0    0  501    0  0.00000000000E+00  0.00000000000E+00 -0.28816758045E+03  0.28816758050E+03  0.50400001928E-02 0. -1.
    10030    2    1    2    0    0  0.00000000000E+00  0.00000000000E+00  0.27649540915E+03  0.85283057012E+03  0.80676531287E+03 0.  0.
        1    1    3    3  502    0 -0.31662430566E+03 -0.22704315259E+03  0.27792151935E+02  0.39060459266E+03  0.50400001928E-02 0. -1.
       -1    1    3    3    0  502  0.31662430566E+03  0.22704315259E+03  0.24870325722E+03  0.46222597747E+03  0.50400001928E-02 0.  1.
</event>
<event>
 5   0  0.4700220E-02  0.8017566E+03  0.7818609E-02  0.9557478E-01
        2   -1    0    0  501    0  0.00000000000E+00  0.00000000000E+00  0.99116029919E+03  0.99116029919E+03  0.25500000920E-02 0.  1.
       -2   -1    0    0    0  501  0.00000000000E+00  0.00000000000E+00 -0.16213666025E+03  0.16213666027E+03  0.25500000920E-02 0. -1.
    10030    2    1    2    0    0  0.00000000000E+00  0.00000000000E+00  0.82902363894E+03  0.11532969595E+04  0.80175662317E+03 0.  0.
        4    1    3    3  502    0 -0.15047501931E+03 -0.29465604849E+03  0.74011599748E+03  0.81070230108E+03  0.12699999809E+01 0.  1.
       -4    1    3    3    0  502  0.15047501931E+03  0.29465604849E+03  0.88907641461E+02  0.34259465839E+03  0.12699999809E+01 0. -1.
</event>
<event>
 5   0  0.2689372E-02  0.8329682E+03  0.7818609E-02  0.9513486E-01
       -1   -1    0    0    0  501  0.00000000000E+00  0.00000000000E+00  0.32839852674E+03  0.32839852678E+03  0.50400001928E-02 0.  1.
        1   -1    0    0  501    0  0.00000000000E+00  0.00000000000E+00 -0.52819668519E+03  0.52819668522E+03  0.50400001928E-02 0. -1.
    10030    2    1    2    0    0  0.00000000000E+00  0.00000000000E+00 -0.19979815845E+03  0.85659521200E+03  0.83296821854E+03 0.  0.
        4    1    3    3  502    0 -0.26822369008E+03 -0.31517485376E+03 -0.51903363828E+02  0.41710275525E+03  0.12699999809E+01 0. -1.
       -4    1    3    3    0  502  0.26822369008E+03  0.31517485376E+03 -0.14789479462E+03  0.43949245675E+03  0.12699999809E+01 0.  1.
</event>
<event>
 5   0  0.4684283E-02  0.7600940E+03  0.7818609E-02  0.9619646E-01
        2   -1    0    0  501    0  0.00000000000E+00  0.00000000000E+00  0.31819116668E+03  0.31819116669E+03  0.25500000920E-02 0.  1.
       -2   -1    0    0    0  501  0.00000000000E+00  0.00000000000E+00 -0.45392750462E+03  0.45392750462E+03  0.25500000920E-02 0. -1.
    10030    2    1    2    0    0  0.00000000000E+00  0.00000000000E+00 -0.13573633794E+03  0.77211867131E+03  0.76009400020E+03 0.  0.
        1    1    3    3  502    0  0.15131178748E+03 -0.31829462782E+03 -0.21234689553E+03  0.41145829825E+03  0.50400001928E-02 0. -1.
       -1    1    3    3    0  502 -0.15131178748E+03  0.31829462782E+03  0.76610557591E+02  0.36066037306E+03  0.50400001928E-02 0.  1.
</event>
<event>
 5   0  0.4663634E-02  0.6203982E+03  0.7818609E-02  0.9863967E-01
       -2   -1    0    0    0  501  0.00000000000E+00  0.00000000000E+00  0.60802521993E+02  0.60802522047E+02  0.25500000920E-02 0.  1.
        2   -1    0    0  501    0  0.00000000000E+00  0.00000000000E+00 -0.15825572506E+04  0.15825572506E+04  0.25500000920E-02 0. -1.
    10030    2    1    2    0    0  0.00000000000E+00  0.00000000000E+00 -0.15217547286E+04  0.16433597727E+04  0.62039816918E+03 0.  0.
        5    1    3    3  502    0  0.50506619036E+02  0.18373672635E+03 -0.11262525618E+03  0.22139702235E+03  0.46999998093E+01 0.  1.
       -5    1    3    3    0  502 -0.50506619036E+02 -0.18373672635E+03 -0.14091294724E+04  0.14219627503E+04  0.46999998093E+01 0. -1.
</event>
<event>
 5   0  0.2689372E-02  0.8046405E+03  0.7818609E-02  0.9553324E-01
       -1   -1    0    0    0  501  0.00000000000E+00  0.00000000000E+00  0.25326831973E+03  0.25326831978E+03  0.50400001928E-02 0.  1.
        1   -1    0    0  501    0  0.00000000000E+00  0.00000000000E+00 -0.63909134459E+03  0.63909134461E+03  0.50400001928E-02 0. -1.
    10030    2    1    2    0    0  0.00000000000E+00  0.00000000000E+00 -0.38582302486E+03  0.89235966439E+03  0.80464051857E+03 0.  0.
        4    1    3    3  502    0 -0.21538567810E+03  0.21423685354E+03  0.99607365660E+02  0.31970558322E+03  0.12699999809E+01 0.  1.
       -4    1    3    3    0  502  0.21538567810E+03 -0.21423685354E+03 -0.48543039052E+03  0.57265408117E+03  0.12699999809E+01 0. -1.
</event>
<event>
 5   0  0.2635243E-02  0.7997737E+03  0.7818609E-02  0.9560345E-01
        1   -1    0    0  501    0  0.00000000000E+00  0.00000000000E+00  0.12300216464E+04  0.12300216464E+04  0.50400001928E-02 0.  1.
       -1   -1    0    0    0  501  0.00000000000E+00  0.00000000000E+00 -0.13000544166E+03  0.13000544175E+03  0.50400001928E-02 0. -1.
    10030    2    1    2    0    0  0.00000000000E+00  0.00000000000E+00  0.11000162047E+04  0.13600270881E+04  0.79977373664E+03 0.  0.
        1    1    3    3  502    0 -0.17106778606E+03 -0.70202442572E+02  0.11529525715E+04  0.11676866885E+04  0.50400001928E-02 0.  1.
       -1    1    3    3    0  502  0.17106778606E+03  0.70202442572E+02 -0.52936366793E+02  0.19234039962E+03  0.50400001928E-02 0. -1.
</event>
<event>
 5   0  0.2689372E-02  0.8075609E+03  0.7818609E-02  0.9549137E-01
        1   -1    0    0  501    0  0.00000000000E+00  0.00000000000E+00  0.10642651417E+04  0.10642651417E+04  0.50400001928E-02 0.  1.
       -1   -1    0    0    0  501  0.00000000000E+00  0.00000000000E+00 -0.15319364959E+03  0.15319364967E+03  0.50400001928E-02 0. -1.
    10030    2    1    2    0    0  0.00000000000E+00  0.00000000000E+00  0.91107149210E+03  0.12174587914E+04  0.80756092339E+03 0.  0.
        4    1    3    3  502    0  0.20786961423E+03 -0.34206357866E+03  0.53559040025E+03  0.66863738910E+03  0.12699999809E+01 0.  1.
       -4    1    3    3    0  502 -0.20786961423E+03  0.34206357866E+03  0.37548109186E+03  0.54882140228E+03  0.12699999809E+01 0. -1.
</event>
<event>
 5   0  0.4700220E-02  0.7823353E+03  0.7818609E-02  0.9585944E-01
       -2   -1    0    0    0  501  0.00000000000E+00  0.00000000000E+00  0.35568401717E+03  0.35568401718E+03  0.25500000920E-02 0.  1.
        2   -1    0    0  501    0  0.00000000000E+00  0.00000000000E+00 -0.43019120431E+03  0.43019120432E+03  0.25500000920E-02 0. -1.
    10030    2    1    2    0    0  0.00000000000E+00  0.00000000000E+00 -0.74507187136E+02  0.78587522150E+03  0.78233531355E+03 0.  0.
        4    1    3    3  502    0  0.15335521975E+03  0.10486233710E+03 -0.38304451534E+03  0.42572132528E+03  0.12699999809E+01 0. -1.
       -4    1    3    3    0  502 -0.15335521975E+03 -0.10486233710E+03  0.30853732820E+03  0.36015389622E+03  0.12699999809E+01 0.  1.
</event>
<event>
 5   0  0.2635243E-02  0.7348342E+03  0.7818609E-02  0.9659448E-01
       -1   -1    0    0    0  501  0.00000000000E+00  0.00000000000E+00  0.84613878889E+02  0.84613879039E+02  0.50400001928E-02 0.  1.
        1   -1    0    0  501    0  0.00000000000E+00  0.00000000000E+00 -0.15954277538E+04  0.15954277538E+04  0.50400001928E-02 0. -1.
    10030    2    1    2    0    0  0.00000000000E+00  0.00000000000E+00 -0.15108138749E+04  0.16800416328E+04  0.73483421496E+03 0.  0.
        1    1    3    3  502    0  0.12416755340E+03 -0.33160223038E+03 -0.53119097851E+03  0.63838975257E+03  0.50400001928E-02 0.  1.
       -1    1    3    3    0  502 -0.12416755340E+03  0.33160223038E+03 -0.97962289638E+03  0.10416518803E+04  0.50400001928E-02 0. -1.
</event>
<event>
 5   0  0.4684283E-02  0.7859772E+03  0.7818609E-02  0.9580539E-01
       -2   -1    0    0    0  501  0.00000000000E+00  0.00000000000E+00  0.26977802185E+03  0.26977802186E+03  0.25500000920E-02 0. -1.
        2   -1    0    0  501    0  0.00000000000E+00  0.00000000000E+00 -0.57247072772E+03  0.57247072772E+03  0.25500000920E-02 0.  1.
    10030    2    1    2    0    0  0.00000000000E+00  0.00000000000E+00 -0.30269270587E+03  0.84224874958E+03  0.78597715106E+03 0.  0.
        1    1    3    3  502    0  0.30774360542E+03  0.12727581575E+03  0.72241669011E+02  0.34076989116E+03  0.50400001928E-02 0. -1.
       -1    1    3    3    0  502 -0.30774360542E+03 -0.12727581575E+03 -0.37493437488E+03  0.50147885843E+03  0.50400001928E-02 0.  1.
</event>
<event>
 5   0  0.1786500E-02  0.6921628E+03  0.7818609E-02  0.9730729E-01
       -3   -1    0    0    0  501  0.00000000000E+00  0.00000000000E+00  0.31759770692E+03  0.31759772298E+03  0.10100000352E+00 0.  1.
        3   -1    0    0  501    0  0.00000000000E+00  0.00000000000E+00 -0.37711963556E+03  0.37711964909E+03  0.10100000352E+00 0. -1.
    10030    2    1    2    0    0  0.00000000000E+00  0.00000000000E+00 -0.59521928644E+02  0.69471737207E+03  0.69216281832E+03 0.  0.
        2    1    3    3  502    0  0.97683203640E+02  0.20699022102E+02  0.30282566733E+03  0.31886336038E+03  0.25500000920E-02 0.  1.
       -2    1    3    3    0  502 -0.97683203640E+02 -0.20699022102E+02 -0.36234759598E+03  0.37585401169E+03  0.25500000920E-02 0. -1.
</event>
<event>
 5   0  0.2606520E-02  0.7901178E+03  0.7818609E-02  0.9574432E-01
        1   -1    0    0  501    0  0.00000000000E+00  0.00000000000E+00  0.26311416348E+03  0.26311416353E+03  0.50400001928E-02 0.  1.
       -1   -1    0    0    0  501  0.00000000000E+00  0.00000000000E+00 -0.59317040185E+03  0.59317040187E+03  0.50400001928E-02 0. -1.
    10030    2    1    2    0    0  0.00000000000E+00  0.00000000000E+00 -0.33005623837E+03  0.85628456540E+03  0.79011779910E+03 0.  0.
        5    1    3    3  502    0  0.23849245469E+03 -0.61218266774E+02 -0.49980315863E+03  0.55718185048E+03  0.46999998093E+01 0. -1.
       -5    1    3    3    0  502 -0.23849245469E+03  0.61218266774E+02  0.16974692026E+03  0.29910271491E+03  0.46999998093E+01 0.  1.
</event>
<event>
 5   0  0.4590462E-02  0.7911825E+03  0.7818609E-02  0.9572869E-01
       -2   -1    0    0    0  501  0.00000000000E+00  0.00000000000E+00  0.98370963566E+03  0.98370963566E+03  0.25500000920E-02 0. -1.
        2   -1    0    0  501    0  0.00000000000E+00  0.00000000000E+00 -0.15908396371E+03  0.15908396373E+03  0.25500000920E-02 0.  1.
    10030    2    1    2    0    0  0.00000000000E+00  0.00000000000E+00  0.82462567195E+03  0.11427935994E+04  0.79118247703E+03 0.  0.
        3    1    3    3  502    0  0.32986931430E+03 -0.20699973940E+03  0.31193126997E+03  0.49896270804E+03  0.10100000352E+00 0. -1.
       -3    1    3    3    0  502 -0.32986931430E+03  0.20699973940E+03  0.51269440198E+03  0.64383089135E+03  0.10100000352E+00 0.  1.
</event>
<event>
 5   0  0.2635243E-02  0.8000535E+03  0.7818609E-02  0.9559940E-01
        1   -1    0    0  501    0  0.00000000000E+00  0.00000000000E+00  0.43132223362E+03  0.43132223365E+03  0.50400001928E-02 0.  1.
       -1   -1    0    0    0  501  0.00000000000E+00  0.00000000000E+00 -0.37100200627E+03  0.37100200631E+03  0.50400001928E-02 0. -1.
    10030    2    1    2    0    0  0.00000000000E+00  0.00000000000E+00  0.60320227344E+02  0.80232423995E+03  0.80005353333E+03 0.  0.
        1    1    3    3  502    0  0.28861694999E+03 -0.21087513328E+03  0.21026200333E+03  0.41470251473E+03  0.50400001928E-02 0. -1.
       -1    1    3    3    0  502 -0.28861694999E+03  0.21087513328E+03 -0.14994177599E+03  0.38762172522E+03  0.50400001928E-02 0.  1.
</event>
<event>
 5   0  0.2606520E-02  0.8223348E+03  0.7818609E-02  0.9528239E-01
       -1   -1    0    0    0  501  0.00000000000E+00  0.00000000000E+00  0.10605548629E+03  0.10605548641E+03  0.50400001928E-02 0. -1.
        1   -1    0    0  501    0  0.00000000000E+00  0.00000000000E+00 -0.15940584915E+04  0.15940584915E+04  0.50400001928E-02 0.  1.
    10030    2    1    2    0    0  0.00000000000E+00  0.00000000000E+00 -0.14880030052E+04  0.17001139780E+04  0.82233484326E+03 0.  0.
        5    1    3    3  502    0  0.13330082092E+03 -0.26249483718E+03 -0.13373335743E+04  0.13693632926E+04  0.46999998093E+01 0.  1.
       -5    1    3    3    0  502 -0.13330082092E+03  0.26249483718E+03 -0.15066943098E+03  0.33075068531E+03  0.46999998093E+01 0. -1.
</event>
<event>
 5   0  0.1786500E-02  0.8943301E+03  0.7818609E-02  0.9432697E-01
        3   -1    0    0  501    0  0.00000000000E+00  0.00000000000E+00  0.27718673233E+03  0.27718675073E+03  0.10100000352E+00 0.  1.
       -3   -1    0    0    0  501  0.00000000000E+00  0.00000000000E+00 -0.72137864658E+03  0.72137865365E+03  0.10100000352E+00 0. -1.
    10030    2    1    2    0    0  0.00000000000E+00  0.00000000000E+00 -0.44419191425E+03  0.99856540438E+03  0.89433014605E+03 0.  0.
        1    1    3    3  502    0  0.80042081163E+01 -0.11045381838E+03  0.26163300720E+03  0.28410551530E+03  0.50400001928E-02 0.  1.
       -1    1    3    3    0  502 -0.80042081163E+01  0.11045381838E+03 -0.70582492145E+03  0.71445988908E+03  0.50400001928E-02 0. -1.
</event>
<event>
 5   0  0.4663634E-02  0.8050516E+03  0.7818609E-02  0.9552734E-01
        2   -1    0    0  501    0  0.00000000000E+00  0.00000000000E+00  0.14964898140E+04  0.14964898140E+04  0.25500000920E-02 0.  1.
       -2   -1    0    0    0  501  0.00000000000E+00  0.00000000000E+00 -0.10827138864E+03  0.10827138867E+03  0.25500000920E-02 0. -1.
    10030    2    1    2    0    0  0.00000000000E+00  0.00000000000E+00  0.13882184254E+04  0.16047612027E+04  0.80505162636E+03 0.  0.
        5    1    3    3  502    0 -0.22970223587E+03  0.75972473108E+02  0.13353098163E+04  0.13570590736E+04  0.46999998093E+01 0.  1.
       -5    1    3    3    0  502  0.22970223587E+03 -0.75972473108E+02  0.52908609095E+02  0.24770212907E+03  0.46999998093E+01 0. -1.
</event>
<event>
 5   0  0.2635243E-02  0.8014865E+03  0.7818609E-02  0.9557868E-01
       -1   -1    0    0    0  501  0.00000000000E+00  0.00000000000E+00  0.36978793425E+03  0.36978793429E+03  0.50400001928E-02 0. -1.
        1   -1    0    0  501    0  0.00000000000E+00  0.00000000000E+00 -0.43428990655E+03  0.43428990658E+03  0.50400001928E-02 0.  1.
    10030    2    1    2    0    0  0.00000000000E+00  0.00000000000E+00 -0.64501972294E+02  0.80407784087E+03  0.80148653747E+03 0.  0.
        1    1    3    3  502    0  0.20618407462E+03  0.33958412868E+03  0.20511010803E+02  0.39780642864E+03  0.50400001928E-02 0.  1.
       -1    1    3    3    0  502 -0.20618407462E+03 -0.33958412868E+03 -0.85012983098E+02  0.40627141223E+03  0.50400001928E-02 0. -1.
</event>
<event>
 5   0  0.2606520E-02  0.8124525E+03  0.7818609E-02  0.9542166E-01
        1   -1    0    0  501    0  0.00000000000E+00  0.00000000000E+00  0.59991457094E+03  0.59991457096E+03  0.50400001928E-02 0. -1.
       -1   -1    0    0    0  501  0.00000000000E+00  0.00000000000E+00 -0.27507209203E+03  0.27507209208E+03  0.50400001928E-02 0.  1.
    10030    2    1    2    0    0  0.00000000000E+00  0.00000000000E+00  0.32484247890E+03  0.87498666304E+03  0.81245247516E+03 0.  0.
        5    1    3    3  502    0 -0.79016481431E+02  0.22918964050E+03  0.51343102965E+03  0.56780719250E+03  0.46999998093E+01 0. -1.
       -5    1    3    3    0  502  0.79016481431E+02 -0.22918964050E+03 -0.18858855074E+03  0.30717947054E+03  0.46999998093E+01 0.  1.
</event>
<event>
 5   0  0.2759559E-02  0.8151158E+03  0.7818609E-02  0.9538392E-01
       -1   -1    0    0    0  501  0.00000000000E+00  0.00000000000E+00  0.16756789530E+03  0.16756789538E+03  0.50400001928E-02 0.  1.
        1   -1    0    0  501    0  0.00000000000E+00  0.00000000000E+00 -0.99126052452E+03  0.99126052453E+03  0.50400001928E-02 0. -1.
    10030    2    1    2    0    0  0.00000000000E+00  0.00000000000E+00 -0.82369262922E+03  0.11588284199E+04  0.81511579507E+03 0.  0.
        3    1    3    3  502    0  0.33680040050E+03  0.46123813384E+02 -0.92233671123E+02  0.35223426328E+03  0.10100000352E+00 0.  1.
       -3    1    3    3    0  502 -0.33680040050E+03 -0.46123813384E+02 -0.73145895809E+03  0.80659415663E+03  0.10100000352E+00 0. -1.
</event>
<event>
 5   0  0.4700220E-02  0.7867903E+03  0.7818609E-02  0.9579337E-01
       -2   -1    0    0    0  501  0.00000000000E+00  0.00000000000E+00  0.37392481093E+03  0.37392481094E+03  0.25500000920E-02 0.  1.
        2   -1    0    0  501    0  0.00000000000E+00  0.00000000000E+00 -0.41387929024E+03  0.41387929024E+03  0.25500000920E-02 0. -1.
    10030    2    1    2    0    0  0.00000000000E+00  0.00000000000E+00 -0.39954479303E+02  0.78780410118E+03  0.78679027792E+03 0.  0.
        4    1    3    3  502    0  0.61346526227E+02  0.34704054300E+03  0.15505529660E+03  0.38502505460E+03  0.12699999809E+01 0.  1.
       -4    1    3    3    0  502 -0.61346526227E+02 -0.34704054300E+03 -0.19500977591E+03  0.40277904658E+03  0.12699999809E+01 0. -1.
</event>
<event>
 5   0  0.2769394E-02  0.8138818E+03  0.7818609E-02  0.9540138E-01
       -1   -1    0    0    0  501  0.00000000000E+00  0.00000000000E+00  0.21691983362E+03  0.21691983367E+03  0.50400001928E-02 0. -1.
        1   -1    0    0  501    0  0.00000000000E+00  0.00000000000E+00 -0.76341983089E+03  0.76341983090E+03  0.50400001928E-02 0.  1.
    10030    2    1    2    0    0  0.00000000000E+00  0.00000000000E+00 -0.54649999727E+03  0.98033966458E+03  0.81388181631E+03 0.  0.
        2    1    3    3  502    0  0.87436299012E+02  0.28346356489E+02 -0.75075241390E+03  0.75635825460E+03  0.25500000920E-02 0.  1.
       -2    1    3    3    0  502 -0.87436299012E+02 -0.28346356489E+02  0.20425241663E+03  0.22398140998E+03  0.25500000920E-02 0. -1.
</event>
<event>
 5   0  0.1786500E-02  0.7822494E+03  0.7818609E-02  0.9586072E-01
        3   -1    0    0  501    0  0.00000000000E+00  0.00000000000E+00  0.98988684918E+03  0.98988685433E+03  0.10100000352E+00 0.  1.
       -3   -1    0    0    0  501  0.00000000000E+00  0.00000000000E+00 -0.15454140165E+03  0.15454143465E+03  0.10100000352E+00 0. -1.
    10030    2    1    2    0    0  0.00000000000E+00  0.00000000000E+00  0.83534544753E+03  0.11444282890E+04  0.78224937962E+03 0.  0.
        2    1    3    3  502    0  0.18911698714E+03  0.27184799990E+03  0.72214464048E+03  0.79445544347E+03  0.25500000920E-02 0.  1.
       -2    1    3    3    0  502 -0.18911698714E+03 -0.27184799990E+03  0.11320080705E+03  0.34997284552E+03  0.25500000920E-02 0. -1.
</event>
<event>
 5   0  0.4684283E-02  0.7973498E+03  0.7818609E-02  0.9563861E-01
       -2   -1    0    0    0  501  0.00000000000E+00  0.00000000000E+00  0.85984465839E+02  0.85984465876E+02  0.25500000920E-02 0. -1.
        2   -1    0    0  501    0  0.00000000000E+00  0.00000000000E+00 -0.18484929426E+04  0.18484929426E+04  0.25500000920E-02 0.  1.
    10030    2    1    2    0    0  0.00000000000E+00  0.00000000000E+00 -0.17625084768E+04  0.19344774085E+04  0.79734980608E+03 0.  0.
        1    1    3    3  502    0  0.31029002272E+03 -0.24813349799E+03 -0.80109823726E+03  0.89420831845E+03  0.50400001928E-02 0. -1.
       -1    1    3    3    0  502 -0.31029002272E+03  0.24813349799E+03 -0.96141023951E+03  0.10402690900E+04  0.50400001928E-02 0.  1.
</event>
<event>
 5   0  0.4700220E-02  0.8084042E+03  0.7818609E-02  0.9547931E-01
       -2   -1    0    0    0  501  0.00000000000E+00  0.00000000000E+00  0.26165328818E+03  0.26165328820E+03  0.25500000920E-02 0.  1.
        2   -1    0    0  501    0  0.00000000000E+00  0.00000000000E+00 -0.62441159233E+03  0.62441159233E+03  0.25500000920E-02 0. -1.
    10030    2    1    2    0    0  0.00000000000E+00  0.00000000000E+00 -0.36275830414E+03  0.88606488053E+03  0.80840422146E+03 0.  0.
        4    1    3    3  502    0  0.34302496911E+03 -0.15155261497E+03 -0.16082243885E+02  0.37535926259E+03  0.12699999809E+01 0.  1.
       -4    1    3    3    0  502 -0.34302496911E+03  0.15155261497E+03 -0.34667606026E+03  0.51070561794E+03  0.12699999809E+01 0. -1.
</event>
<event>
 5   0  0.4700220E-02  0.7934011E+03  0.7818609E-02  0.9569618E-01
        2   -1    0    0  501    0  0.00000000000E+00  0.00000000000E+00  0.16143624261E+03  0.16143624263E+03  0.25500000920E-02 0. -1.
       -2   -1    0    0    0  501  0.00000000000E+00  0.00000000000E+00 -0.97482030362E+03  0.97482030363E+03  0.25500000920E-02 0.  1.
    10030    2    1    2    0    0  0.00000000000E+00  0.00000000000E+00 -0.81338406101E+03  0.11362565463E+04  0.79340110172E+03 0.  0.
        4    1    3    3  502    0  0.22483965950E+02 -0.11640420198E+03  0.13546898048E+03  0.18002478867E+03  0.12699999809E+01 0. -1.
       -4    1    3    3    0  502 -0.22483965950E+02  0.11640420198E+03 -0.94885304149E+03  0.95623175758E+03  0.12699999809E+01 0.  1.
</event>
<event>
 5   0  0.4377843E-02  0.4235641E+03  0.7818609E-02  0.1035913E+00
        2   -1    0    0  501    0  0.00000000000E+00  0.00000000000E+00  0.36321652727E+03  0.36321652728E+03  0.25500000920E-02 0. -1.
       -2   -1    0    0    0  501  0.00000000000E+00  0.00000000000E+00 -0.12348459003E+03  0.12348459005E+03  0.25500000920E-02 0.  1.
    10030    2    1    2    0    0  0.00000000000E+00  0.00000000000E+00  0.23973193724E+03  0.48670111733E+03  0.42356413432E+03 0.  0.
        2    1    3    3  502    0 -0.11992253497E+03 -0.50369868289E+02  0.31191086880E+03  0.33794515547E+03  0.25500000920E-02 0. -1.
       -2    1    3    3    0  502  0.11992253497E+03  0.50369868289E+02 -0.72178931555E+02  0.14875596187E+03  0.25500000920E-02 0.  1.
</event>
<event>
 5   0  0.4590462E-02  0.8013267E+03  0.7818609E-02  0.9558099E-01
        2   -1    0    0  501    0  0.00000000000E+00  0.00000000000E+00  0.24090318461E+04  0.24090318461E+04  0.25500000920E-02 0.  1.
       -2   -1    0    0    0  501  0.00000000000E+00  0.00000000000E+00 -0.66637195914E+02  0.66637195963E+02  0.25500000920E-02 0. -1.
    10030    2    1    2    0    0  0.00000000000E+00  0.00000000000E+00  0.23423946502E+04  0.24756690421E+04  0.80132671777E+03 0.  0.
        3    1    3    3  502    0  0.36162612295E+03  0.17588936158E+02  0.17013647368E+04  0.17394610663E+04  0.10100000352E+00 0.  1.
       -3    1    3    3    0  502 -0.36162612295E+03 -0.17588936158E+02  0.64102991341E+03  0.73620797575E+03  0.10100000352E+00 0. -1.
</event>
<event>
 5   0  0.2759559E-02  0.8070337E+03  0.7818609E-02  0.9549892E-01
       -1   -1    0    0    0  501  0.00000000000E+00  0.00000000000E+00  0.33626427991E+03  0.33626427994E+03  0.50400001928E-02 0. -1.
        1   -1    0    0  501    0  0.00000000000E+00  0.00000000000E+00 -0.48421990402E+03  0.48421990404E+03  0.50400001928E-02 0.  1.
    10030    2    1    2    0    0  0.00000000000E+00  0.00000000000E+00 -0.14795562411E+03  0.82048418399E+03  0.80703372263E+03 0.  0.
        3    1    3    3  502    0 -0.44571008247E+02 -0.21678005327E+03  0.26905590618E+03  0.34838377850E+03  0.10100000352E+00 0. -1.
       -3    1    3    3    0  502  0.44571008247E+02  0.21678005327E+03 -0.41701153029E+03  0.47210040549E+03  0.10100000352E+00 0.  1.
</event>
<event>
 5   0  0.2689372E-02  0.8281233E+03  0.7818609E-02  0.9520179E-01
        1   -1    0    0  501    0  0.00000000000E+00  0.00000000000E+00  0.22321668941E+03  0.22321668947E+03  0.50400001928E-02 0. -1.
       -1   -1    0    0    0  501  0.00000000000E+00  0.00000000000E+00 -0.76807445483E+03  0.76807445485E+03  0.50400001928E-02 0.  1.
    10030    2    1    2    0    0  0.00000000000E+00  0.00000000000E+00 -0.54485776542E+03  0.99129114432E+03  0.82812326876E+03 0.  0.
        4    1    3    3  502    0 -0.24371301085E+03  0.33227138781E+03 -0.22387715595E+03  0.46895938062E+03  0.12699999809E+01 0. -1.
       -4    1    3    3    0  502  0.24371301085E+03 -0.33227138781E+03 -0.32098060947E+03  0.52233176370E+03  0.12699999809E+01 0.  1.
</event>
<event>
 5   0  0.4590462E-02  0.7922101E+03  0.7818609E-02  0.9571362E-01
        2   -1    0    0  501    0  0.00000000000E+00  0.00000000000E+00  0.28246737290E+04  0.28246737290E+04  0.25500000920E-02 0. -1.
       -2   -1    0    0    0  501  0.00000000000E+00  0.00000000000E+00 -0.55545959980E+02  0.55545960039E+02  0.25500000920E-02 0.  1.
    10030    2    1    2    0    0  0.00000000000E+00  0.00000000000E+00  0.27691277690E+04  0.28802196890E+04  0.79221010847E+03 0.  0.
        3    1    3    3  502    0 -0.10054482939E+03  0.33849434856E+03  0.73204839592E+03  0.81276229667E+03  0.10100000352E+00 0.  1.
       -3    1    3    3    0  502  0.10054482939E+03 -0.33849434856E+03  0.20370793731E+04  0.20674573923E+04  0.10100000352E+00 0. -1.
</event>
<event>
 5   0  0.4377843E-02  0.8062358E+03  0.7818609E-02  0.9551035E-01
        2   -1    0    0  501    0  0.00000000000E+00  0.00000000000E+00  0.88085749163E+03  0.88085749163E+03  0.25500000920E-02 0. -1.
       -2   -1    0    0    0  501  0.00000000000E+00  0.00000000000E+00 -0.18448389739E+03  0.18448389741E+03  0.25500000920E-02 0.  1.
    10030    2    1    2    0    0  0.00000000000E+00  0.00000000000E+00  0.69637359424E+03  0.10653413890E+04  0.80623575488E+03 0.  0.
        2    1    3    3  502    0  0.24144984539E+01 -0.40040451372E+03  0.28657011171E+03  0.49239418492E+03  0.25500000920E-02 0.  1.
       -2    1    3    3    0  502 -0.24144984539E+01  0.40040451372E+03  0.40980348253E+03  0.57294720412E+03  0.25500000920E-02 0. -1.
</event>
<event>
 5   0  0.2635243E-02  0.8068041E+03  0.7818609E-02  0.9550220E-01
        1   -1    0    0  501    0  0.00000000000E+00  0.00000000000E+00  0.49463211670E+03  0.49463211673E+03  0.50400001928E-02 0.  1.
       -1   -1    0    0    0  501  0.00000000000E+00  0.00000000000E+00 -0.32899846883E+03  0.32899846887E+03  0.50400001928E-02 0. -1.
    10030    2    1    2    0    0  0.00000000000E+00  0.00000000000E+00  0.16563364787E+03  0.82363058560E+03  0.80680408788E+03 0.  0.
        1    1    3    3  502    0 -0.37274962050E+03  0.11225138392E+03 -0.25174835115E+02  0.39009796862E+03  0.50400001928E-02 0. -1.
       -1    1    3    3    0  502  0.37274962050E+03 -0.11225138392E+03  0.19080848299E+03  0.43353261697E+03  0.50400001928E-02 0.  1.
</event>
<event>
 5   0  0.4684283E-02  0.9135703E+03  0.7818609E-02  0.9408775E-01
       -2   -1    0    0    0  501  0.00000000000E+00  0.00000000000E+00  0.34550936315E+03  0.34550936316E+03  0.25500000920E-02 0. -1.
        2   -1    0    0  501    0  0.00000000000E+00  0.00000000000E+00 -0.60389875502E+03  0.60389875503E+03  0.25500000920E-02 0.  1.
    10030    2    1    2    0    0  0.00000000000E+00  0.00000000000E+00 -0.25838939187E+03  0.94940811819E+03  0.91357030219E+03 0.  0.
        1    1    3    3  502    0 -0.25927299977E+03 -0.58719950568E+02  0.25683652159E+03  0.36964242161E+03  0.50400001928E-02 0. -1.
       -1    1    3    3    0  502  0.25927299977E+03  0.58719950568E+02 -0.51522591346E+03  0.57976569658E+03  0.50400001928E-02 0.  1.
</event>
<event>
 5   0  0.2769394E-02  0.7930539E+03  0.7818609E-02  0.9570126E-01
       -1   -1    0    0    0  501  0.00000000000E+00  0.00000000000E+00  0.33502701983E+03  0.33502701987E+03  0.50400001928E-02 0. -1.
        1   -1    0    0  501    0  0.00000000000E+00  0.00000000000E+00 -0.46931621374E+03  0.46931621377E+03  0.50400001928E-02 0.  1.
    10030    2    1    2    0    0  0.00000000000E+00  0.00000000000E+00 -0.13428919391E+03  0.80434323364E+03  0.79305387579E+03 0.  0.
        2    1    3    3  502    0  0.18537272662E+03 -0.75904895873E+02 -0.41422802513E+03  0.46011896049E+03  0.25500000920E-02 0.  1.
       -2    1    3    3    0  502 -0.18537272662E+03  0.75904895873E+02  0.27993883122E+03  0.34422427315E+03  0.25500000920E-02 0. -1.
</event>
<event>
 5   0  0.4663634E-02  0.7934826E+03  0.7818609E-02  0.9569499E-01
        2   -1    0    0  501    0  0.00000000000E+00  0.00000000000E+00  0.49613039672E+03  0.49613039673E+03  0.25500000920E-02 0. -1.
       -2   -1    0    0    0  501  0.00000000000E+00  0.00000000000E+00 -0.31726264834E+03  0.31726264835E+03  0.25500000920E-02 0.  1.
    10030    2    1    2    0    0  0.00000000000E+00  0.00000000000E+00  0.17886774839E+03  0.81339304508E+03  0.79348256085E+03 0.  0.
        5    1    3    3  502    0  0.12762647717E+03  0.28304753153E+03 -0.16369784055E+03  0.35103204380E+03  0.46999998093E+01 0.  1.
       -5    1    3    3    0  502 -0.12762647717E+03 -0.28304753153E+03  0.34256558893E+03  0.46236100127E+03  0.46999998093E+01 0. -1.
</event>
<event>
 5   0  0.2769394E-02  0.8159277E+03  0.7818609E-02  0.9537244E-01
        1   -1    0    0  501    0  0.00000000000E+00  0.00000000000E+00  0.41926123264E+03  0.41926123267E+03  0.50400001928E-02 0. -1.
       -1   -1    0    0    0  501  0.00000000000E+00  0.00000000000E+00 -0.39697088901E+03  0.39697088905E+03  0.50400001928E-02 0.  1.
    10030    2    1    2    0    0  0.00000000000E+00  0.00000000000E+00  0.22290343624E+02  0.81623212171E+03  0.81592770335E+03 0.  0.
        2    1    3    3  502    0 -0.14054654363E+03 -0.50286740961E+02 -0.36867057578E+03  0.39774373747E+03  0.25500000920E-02 0.  1.
       -2    1    3    3    0  502  0.14054654363E+03  0.50286740961E+02  0.39096091940E+03  0.41848838425E+03  0.25500000920E-02 0. -1.
</event>
<event>
 5   0  0.2759559E-02  0.8076411E+03  0.7818609E-02  0.9549022E-01
        1   -1    0    0  501    0  0.00000000000E+00  0.00000000000E+00  0.80342481532E+03  0.80342481534E+03  0.50400001928E-02 0.  1.
       -1   -1    0    0    0  501  0.00000000000E+00  0.00000000000E+00 -0.20296985510E+03  0.20296985516E+03  0.50400001928E-02 0. -1.
    10030    2    1    2    0    0  0.00000000000E+00  0.00000000000E+00  0.60045496022E+03  0.10063946705E+04  0.80764105490E+03 0.  0.
        3    1    3    3  502    0 -0.27982517519E+03 -0.64099487660E+02  0.65412654385E+03  0.71434754746E+03  0.10100000352E+00 0.  1.
       -3    1    3    3    0  502  0.27982517519E+03  0.64099487660E+02 -0.53671583627E+02  0.29204712305E+03  0.10100000352E+00 0. -1.
</event>
<event>
 5   0  0.2606520E-02  0.5610204E+03  0.7818609E-02  0.9989749E-01
       -1   -1    0    0    0  501  0.00000000000E+00  0.00000000000E+00  0.24662627071E+03  0.24662627076E+03  0.50400001928E-02 0. -1.
        1   -1    0    0  501    0  0.00000000000E+00  0.00000000000E+00 -0.31904939514E+03  0.31904939518E+03  0.50400001928E-02 0.  1.
    10030    2    1    2    0    0  0.00000000000E+00  0.00000000000E+00 -0.72423124436E+02  0.56567566594E+03  0.56102036512E+03 0.  0.
        5    1    3    3  502    0 -0.11531580469E+03 -0.79708897153E+02 -0.28115248704E+03  0.31419747622E+03  0.46999998093E+01 0.  1.
       -5    1    3    3    0  502  0.11531580469E+03  0.79708897153E+02  0.20872936260E+03  0.25147818972E+03  0.46999998093E+01 0. -1.
</event>
<event>
 5   0  0.4684283E-02  0.7045666E+03  0.7818609E-02  0.9709454E-01
       -2   -1    0    0    0  501  0.00000000000E+00  0.00000000000E+00  0.12706932515E+03  0.12706932517E+03  0.25500000920E-02 0.  1.
        2   -1    0    0  501    0  0.00000000000E+00  0.00000000000E+00 -0.97665999797E+03  0.97665999797E+03  0.25500000920E-02 0. -1.
    10030    2    1    2    0    0  0.00000000000E+00  0.00000000000E+00 -0.84959067282E+03  0.11037293231E+04  0.70456660964E+03 0.  0.
        1    1    3    3  502    0  0.73589237734E+02  0.28421511774E+03 -0.11978332350E+03  0.31708303909E+03  0.50400001928E-02 0.  1.
       -1    1    3    3    0  502 -0.73589237734E+02 -0.28421511774E+03 -0.72980734932E+03  0.78664628405E+03  0.50400001928E-02 0. -1.
</event>
<event>
 5   0  0.2759559E-02  0.7874286E+03  0.7818609E-02  0.9578394E-01
       -1   -1    0    0    0  501  0.00000000000E+00  0.00000000000E+00  0.27269426636E+03  0.27269426640E+03  0.50400001928E-02 0. -1.
        1   -1    0    0  501    0  0.00000000000E+00  0.00000000000E+00 -0.56844233241E+03  0.56844233243E+03  0.50400001928E-02 0.  1.
    10030    2    1    2    0    0  0.00000000000E+00  0.00000000000E+00 -0.29574806605E+03  0.84113659883E+03  0.78742863761E+03 0.  0.
        3    1    3    3  502    0  0.27808280584E+03 -0.17691823323E+03  0.82177250096E+02  0.33968105450E+03  0.10100000352E+00 0. -1.
       -3    1    3    3    0  502 -0.27808280584E+03  0.17691823323E+03 -0.37792531615E+03  0.50145554433E+03  0.10100000352E+00 0.  1.
</event>
<event>
 5   0  0.4377843E-02  0.7801025E+03  0.7818609E-02  0.9589273E-01
        2   -1    0    0  501    0  0.00000000000E+00  0.00000000000E+00  0.89600013258E+03  0.89600013258E+03  0.25500000920E-02 0. -1.
       -2   -1    0    0    0  501  0.00000000000E+00  0.00000000000E+00 -0.16979905422E+03  0.16979905424E+03  0.25500000920E-02 0.  1.
    10030    2    1    2    0    0  0.00000000000E+00  0.00000000000E+00  0.72620107836E+03  0.10657991868E+04  0.78010249353E+03 0.  0.
        2    1    3    3  502    0  0.61292808323E+02 -0.39606007136E+02 -0.16038927937E+03  0.17621057033E+03  0.25500000920E-02 0.  1.
       -2    1    3    3    0  502 -0.61292808323E+02  0.39606007136E+02  0.88659035773E+03  0.88958861649E+03  0.25500000920E-02 0. -1.
</event>
<event>
 5   0  0.2689372E-02  0.8515487E+03  0.7818609E-02  0.9488261E-01
        1   -1    0    0  501    0  0.00000000000E+00  0.00000000000E+00  0.48632102214E+03  0.48632102216E+03  0.50400001928E-02 0.  1.
       -1   -1    0    0    0  501  0.00000000000E+00  0.00000000000E+00 -0.37276572274E+03  0.37276572277E+03  0.50400001928E-02 0. -1.
    10030    2    1    2    0    0  0.00000000000E+00  0.00000000000E+00  0.11355529940E+03  0.85908674494E+03  0.85154872397E+03 0.  0.
        4    1    3    3  502    0  0.54445634569E+02 -0.80775434432E+02  0.47492610426E+03  0.48481482582E+03  0.12699999809E+01 0.  1.
       -4    1    3    3    0  502 -0.54445634569E+02  0.80775434432E+02 -0.36137080486E+03  0.37427191911E+03  0.12699999809E+01 0. -1.
</event>
<event>
 5   0  0.2606520E-02  0.8029260E+03  0.7818609E-02  0.9555791E-01
       -1   -1    0    0    0  501  0.00000000000E+00  0.00000000000E+00  0.28347948216E+03  0.28347948220E+03  0.50400001928E-02 0. -1.
        1   -1    0    0  501    0  0.00000000000E+00  0.00000000000E+00 -0.56855104172E+03  0.56855104174E+03  0.50400001928E-02 0.  1.
    10030    2    1    2    0    0  0.00000000000E+00  0.00000000000E+00 -0.28507155956E+03  0.85203052395E+03  0.80292603624E+03 0.  0.
        5    1    3    3  502    0  0.12562466401E+03 -0.15323573349E+03  0.22793980061E+03  0.30206189585E+03  0.46999998093E+01 0. -1.
       -5    1    3    3    0  502 -0.12562466401E+03  0.15323573349E+03 -0.51301136017E+03  0.54996862810E+03  0.46999998093E+01 0.  1.
</event>
<event>
 5   0  0.4663634E-02  0.7538082E+03  0.7818609E-02  0.9629395E-01
        2   -1    0    0  501    0  0.00000000000E+00  0.00000000000E+00  0.19451159055E+04  0.19451159055E+04  0.25500000920E-02 0.  1.
       -2   -1    0    0    0  501  0.00000000000E+00  0.00000000000E+00 -0.73032516782E+02  0.73032516827E+02  0.25500000920E-02 0. -1.
    10030    2    1    2    0    0  0.00000000000E+00  0.00000000000E+00  0.18720833887E+04  0.20181484223E+04  0.75380822511E+03 0.  0.
        5    1    3    3  502    0 -0.17209115761E+03  0.69597394442E+02  0.57931884085E+02  0.19451826915E+03  0.46999998093E+01 0. -1.
       -5    1    3    3    0  502  0.17209115761E+03 -0.69597394442E+02  0.18141515046E+04  0.18236301532E+04  0.46999998093E+01 0.  1.
</event>
<event>
 5   0  0.2606520E-02  0.8033604E+03  0.7818609E-02  0.9555166E-01
       -1   -1    0    0    0  501  0.00000000000E+00  0.00000000000E+00  0.23455513620E+03  0.23455513626E+03  0.50400001928E-02 0.  1.
        1   -1    0    0  501    0  0.00000000000E+00  0.00000000000E+00 -0.68788514569E+03  0.68788514570E+03  0.50400001928E-02 0. -1.
    10030    2    1    2    0    0  0.00000000000E+00  0.00000000000E+00 -0.45333000948E+03  0.92244028196E+03  0.80336042738E+03 0.  0.
        5    1    3    3  502    0 -0.24354826679E+03 -0.21363937978E+02  0.13924444200E+03  0.28139523935E+03  0.46999998093E+01 0.  1.
       -5    1    3    3    0  502  0.24354826679E+03  0.21363937978E+02 -0.59257445148E+03  0.64104504261E+03  0.46999998093E+01 0. -1.
</event>
<event>
 5   0  0.2769394E-02  0.8026677E+03  0.7818609E-02  0.9556164E-01
        1   -1    0    0  501    0  0.00000000000E+00  0.00000000000E+00  0.10009453447E+04  0.10009453447E+04  0.50400001928E-02 0.  1.
       -1   -1    0    0    0  501  0.00000000000E+00  0.00000000000E+00 -0.16091672650E+03  0.16091672658E+03  0.50400001928E-02 0. -1.
    10030    2    1    2    0    0  0.00000000000E+00  0.00000000000E+00  0.84002861819E+03  0.11618620713E+04  0.80266767301E+03 0.  0.
        2    1    3    3  502    0 -0.17493865742E+03  0.35728703014E+03  0.34326546865E+03  0.52544146938E+03  0.25500000920E-02 0. -1.
       -2    1    3    3    0  502  0.17493865742E+03 -0.35728703014E+03  0.49676314955E+03  0.63642060190E+03  0.25500000920E-02 0.  1.
</event>
<event>
 5   0  0.4684283E-02  0.7827765E+03  0.7818609E-02  0.9585287E-01
        2   -1    0    0  501    0  0.00000000000E+00  0.00000000000E+00  0.78143667013E+03  0.78143667013E+03  0.25500000920E-02 0.  1.
       -2   -1    0    0    0  501  0.00000000000E+00  0.00000000000E+00 -0.19602967087E+03  0.19602967088E+03  0.25500000920E-02 0. -1.
    10030    2    1    2    0    0  0.00000000000E+00  0.00000000000E+00  0.58540699926E+03  0.97746634102E+03  0.78277652816E+03 0.  0.
        1    1    3    3  502    0 -0.33913020313E+03  0.15276520441E+03  0.44481276341E+03  0.57983178325E+03  0.50400001928E-02 0.  1.
       -1    1    3    3    0  502  0.33913020313E+03 -0.15276520441E+03  0.14059423585E+03  0.39763455777E+03  0.50400001928E-02 0. -1.
</event>
<event>
 5   0  0.2689372E-02  0.6064385E+03  0.7818609E-02  0.9892138E-01
        1   -1    0    0  501    0  0.00000000000E+00  0.00000000000E+00  0.49271618276E+03  0.49271618279E+03  0.50400001928E-02 0.  1.
       -1   -1    0    0    0  501  0.00000000000E+00  0.00000000000E+00 -0.18660215777E+03  0.18660215784E+03  0.50400001928E-02 0. -1.
    10030    2    1    2    0    0  0.00000000000E+00  0.00000000000E+00  0.30611402499E+03  0.67931834063E+03  0.60643846482E+03 0.  0.
        4    1    3    3  502    0 -0.22881277767E+03  0.70258346740E+02 -0.55454719506E+02  0.24569973815E+03  0.12699999809E+01 0. -1.
       -4    1    3    3    0  502  0.22881277767E+03 -0.70258346740E+02  0.36156874450E+03  0.43361860247E+03  0.12699999809E+01 0.  1.
</event>
<event>
 5   0  0.4684283E-02  0.7396075E+03  0.7818609E-02  0.9651797E-01
       -2   -1    0    0    0  501  0.00000000000E+00  0.00000000000E+00  0.88089938826E+02  0.88089938863E+02  0.25500000920E-02 0.  1.
        2   -1    0    0  501    0  0.00000000000E+00  0.00000000000E+00 -0.15524454164E+04  0.15524454164E+04  0.25500000920E-02 0. -1.
    10030    2    1    2    0    0  0.00000000000E+00  0.00000000000E+00 -0.14643554776E+04  0.16405353553E+04  0.73960752239E+03 0.  0.
        1    1    3    3  502    0 -0.41936708856E+02 -0.14455490606E+03  0.17072900754E+02  0.15148033662E+03  0.50400001928E-02 0.  1.
       -1    1    3    3    0  502  0.41936708856E+02  0.14455490606E+03 -0.14814283783E+04  0.14890550187E+04  0.50400001928E-02 0. -1.
</event>
<event>
 5   0  0.4684283E-02  0.7772712E+03  0.7818609E-02  0.9593511E-01
        2   -1    0    0  501    0  0.00000000000E+00  0.00000000000E+00  0.83020696743E+03  0.83020696743E+03  0.25500000920E-02 0.  1.
       -2   -1    0    0    0  501  0.00000000000E+00  0.00000000000E+00 -0.18192770438E+03  0.18192770439E+03  0.25500000920E-02 0. -1.
    10030    2    1    2    0    0  0.00000000000E+00  0.00000000000E+00  0.64827926305E+03  0.10121346718E+04  0.77727124674E+03 0.  0.
        1    1    3    3  502    0  0.80327332252E+02  0.19895367215E+03  0.74609423977E+03  0.77633218316E+03  0.50400001928E-02 0.  1.
       -1    1    3    3    0  502 -0.80327332252E+02 -0.19895367215E+03 -0.97814976717E+02  0.23580248867E+03  0.50400001928E-02 0. -1.
</event>
<event>
 5   0  0.2689372E-02  0.8514708E+03  0.7818609E-02  0.9488365E-01
        1   -1    0    0  501    0  0.00000000000E+00  0.00000000000E+00  0.36729590589E+03  0.36729590592E+03  0.50400001928E-02 0. -1.
       -1   -1    0    0    0  501  0.00000000000E+00  0.00000000000E+00 -0.49347305132E+03  0.49347305134E+03  0.50400001928E-02 0.  1.
    10030    2    1    2    0    0  0.00000000000E+00  0.00000000000E+00 -0.12617714543E+03  0.86076895727E+03  0.85147080148E+03 0.  0.
        4    1    3    3  502    0  0.56103589831E+02  0.17424388092E+03 -0.45165617098E+03  0.48734325943E+03  0.12699999809E+01 0.  1.
       -4    1    3    3    0  502 -0.56103589831E+02 -0.17424388092E+03  0.32547902555E+03  0.37342569784E+03  0.12699999809E+01 0. -1.
</event>
<event>
 5   0  0.2759559E-02  0.7592787E+03  0.7818609E-02  0.9620905E-01
        1   -1    0    0  501    0  0.00000000000E+00  0.00000000000E+00  0.24617350012E+03  0.24617350018E+03  0.50400001928E-02 0. -1.
       -1   -1    0    0    0  501  0.00000000000E+00  0.00000000000E+00 -0.58546526254E+03  0.58546526257E+03  0.50400001928E-02 0.  1.
    10030    2    1    2    0    0  0.00000000000E+00  0.00000000000E+00 -0.33929176242E+03  0.83163876274E+03  0.75927869169E+03 0.  0.
        3    1    3    3  502    0  0.15313039028E+03 -0.22193125856E+03  0.12307550218E+03  0.29639498881E+03  0.10100000352E+00 0. -1.
       -3    1    3    3    0  502 -0.15313039028E+03  0.22193125856E+03 -0.46236726460E+03  0.53524377393E+03  0.10100000352E+00 0.  1.
</event>
<event>
 5   0  0.1786500E-02  0.7988724E+03  0.7818609E-02  0.9561651E-01
        3   -1    0    0  501    0  0.00000000000E+00  0.00000000000E+00  0.27865428922E+03  0.27865430753E+03  0.10100000352E+00 0.  1.
       -3   -1    0    0    0  501  0.00000000000E+00  0.00000000000E+00 -0.57257068903E+03  0.57257069794E+03  0.10100000352E+00 0. -1.
    10030    2    1    2    0    0  0.00000000000E+00  0.00000000000E+00 -0.29391639981E+03  0.85122500546E+03  0.79887243027E+03 0.  0.
        3    1    3    3  502    0 -0.22432912968E+03 -0.25932270714E+03 -0.36526888432E+03  0.50099220844E+03  0.10100000352E+00 0. -1.
       -3    1    3    3    0  502  0.22432912968E+03  0.25932270714E+03  0.71352484513E+02  0.35023279702E+03  0.10100000352E+00 0.  1.
</event>
<event>
 5   0  0.4700220E-02  0.7647649E+03  0.7818609E-02  0.9612467E-01
        2   -1    0    0  501    0  0.00000000000E+00  0.00000000000E+00  0.12118268459E+04  0.12118268459E+04  0.25500000920E-02 0.  1.
       -2   -1    0    0    0  501  0.00000000000E+00  0.00000000000E+00 -0.12065777960E+03  0.12065777963E+03  0.25500000920E-02 0. -1.
    10030    2    1    2    0    0  0.00000000000E+00  0.00000000000E+00  0.10911690663E+04  0.13324846255E+04  0.76476489591E+03 0.  0.
        4    1    3    3  502    0 -0.30354744423E+03 -0.10748103678E+03  0.90486908745E+03  0.96045973497E+03  0.12699999809E+01 0.  1.
       -4    1    3    3    0  502  0.30354744423E+03  0.10748103678E+03  0.18629997882E+03  0.37202489054E+03  0.12699999809E+01 0. -1.
</event>
<event>
 5   0  0.2689372E-02  0.8766043E+03  0.7818609E-02  0.9455309E-01
       -1   -1    0    0    0  501  0.00000000000E+00  0.00000000000E+00  0.23233120436E+03  0.23233120441E+03  0.50400001928E-02 0. -1.
        1   -1    0    0  501    0  0.00000000000E+00  0.00000000000E+00 -0.82687458414E+03  0.82687458416E+03  0.50400001928E-02 0.  1.
    10030    2    1    2    0    0  0.00000000000E+00  0.00000000000E+00 -0.59454337978E+03  0.10592057886E+04  0.87660428478E+03 0.  0.
        4    1    3    3  502    0  0.21504674114E+03 -0.36689312212E+03 -0.42544033658E+03  0.60154530737E+03  0.12699999809E+01 0.  1.
       -4    1    3    3    0  502 -0.21504674114E+03  0.36689312212E+03 -0.16910304320E+03  0.45766048120E+03  0.12699999809E+01 0. -1.
</event>
<event>
 5   0  0.2635243E-02  0.8087353E+03  0.7818609E-02  0.9547459E-01
       -1   -1    0    0    0  501  0.00000000000E+00  0.00000000000E+00  0.83158095958E+03  0.83158095960E+03  0.50400001928E-02 0.  1.
        1   -1    0    0  501    0  0.00000000000E+00  0.00000000000E+00 -0.19662930596E+03  0.19662930603E+03  0.50400001928E-02 0. -1.
    10030    2    1    2    0    0  0.00000000000E+00  0.00000000000E+00  0.63495165362E+03  0.10282102656E+04  0.80873527678E+03 0.  0.
        1    1    3    3  502    0 -0.29015403739E+02 -0.40328919453E+03  0.32433643840E+03  0.51834177275E+03  0.50400001928E-02 0.  1.
       -1    1    3    3    0  502  0.29015403739E+02  0.40328919453E+03  0.31061521522E+03  0.50986849288E+03  0.50400001928E-02 0. -1.
</event>
<event>
 5   0  0.2606520E-02  0.7761190E+03  0.7818609E-02  0.9595242E-01
        1   -1    0    0  501    0  0.00000000000E+00  0.00000000000E+00  0.11239104311E+04  0.11239104311E+04  0.50400001928E-02 0.  1.
       -1   -1    0    0    0  501  0.00000000000E+00  0.00000000000E+00 -0.13398770367E+03  0.13398770377E+03  0.50400001928E-02 0. -1.
    10030    2    1    2    0    0  0.00000000000E+00  0.00000000000E+00  0.98992272742E+03  0.12578981349E+04  0.77611900599E+03 0.  0.
        5    1    3    3  502    0  0.92226674083E+02  0.23492765871E+03  0.97266150944E+03  0.10048827126E+04  0.46999998093E+01 0.  1.
       -5    1    3    3    0  502 -0.92226674083E+02 -0.23492765871E+03  0.17261217985E+02  0.25301542223E+03  0.46999998093E+01 0. -1.
</event>
<event>
 5   0  0.4700220E-02  0.8405343E+03  0.7818609E-02  0.9503130E-01
       -2   -1    0    0    0  501  0.00000000000E+00  0.00000000000E+00  0.15261967329E+03  0.15261967331E+03  0.25500000920E-02 0.  1.
        2   -1    0    0  501    0  0.00000000000E+00  0.00000000000E+00 -0.11572850634E+04  0.11572850634E+04  0.25500000920E-02 0. -1.
    10030    2    1    2    0    0  0.00000000000E+00  0.00000000000E+00 -0.10046653901E+04  0.13099047367E+04  0.84053427842E+03 0.  0.
        4    1    3    3  502    0 -0.16181594909E+02 -0.36664642064E+03 -0.82145270372E+03  0.89970973049E+03  0.12699999809E+01 0. -1.
       -4    1    3    3    0  502  0.16181594909E+02  0.36664642064E+03 -0.18321268639E+03  0.41019500623E+03  0.12699999809E+01 0.  1.
</event>
<event>
 5   0  0.4377843E-02  0.8125606E+03  0.7818609E-02  0.9542012E-01
       -2   -1    0    0    0  501  0.00000000000E+00  0.00000000000E+00  0.10330263355E+03  0.10330263358E+03  0.25500000920E-02 0. -1.
        2   -1    0    0  501    0  0.00000000000E+00  0.00000000000E+00 -0.15978650299E+04  0.15978650299E+04  0.25500000920E-02 0.  1.
    10030    2    1    2    0    0  0.00000000000E+00  0.00000000000E+00 -0.14945623963E+04  0.17011676635E+04  0.81256055941E+03 0.  0.
        2    1    3    3  502    0  0.21470021127E+03 -0.41012656800E+02 -0.30290627817E+02  0.22067111473E+03  0.25500000920E-02 0. -1.
       -2    1    3    3    0  502 -0.21470021127E+03  0.41012656800E+02 -0.14642717685E+04  0.14804965487E+04  0.25500000920E-02 0.  1.
</event>
<event>
 5   0  0.2606520E-02  0.8063105E+03  0.7818609E-02  0.9550928E-01
        1   -1    0    0  501    0  0.00000000000E+00  0.00000000000E+00  0.46618977660E+03  0.46618977663E+03  0.50400001928E-02 0.  1.
       -1   -1    0    0    0  501  0.00000000000E+00  0.00000000000E+00 -0.34864373411E+03  0.34864373415E+03  0.50400001928E-02 0. -1.
    10030    2    1    2    0    0  0.00000000000E+00  0.00000000000E+00  0.11754604249E+03  0.81483351077E+03  0.80631047257E+03 0.  0.
        5    1    3    3  502    0 -0.14133455312E+03  0.22114042148E+03 -0.25045741914E+03  0.36280787025E+03  0.46999998093E+01 0. -1.
       -5    1    3    3    0  502  0.14133455312E+03 -0.22114042148E+03  0.36800346163E+03  0.45202564052E+03  0.46999998093E+01 0.  1.
</event>
<event>
 5   0  0.2635243E-02  0.7150384E+03  0.7818609E-02  0.9691855E-01
       -1   -1    0    0    0  501  0.00000000000E+00  0.00000000000E+00  0.13379272279E+03  0.13379272288E+03  0.50400001928E-02 0.  1.
        1   -1    0    0  501    0  0.00000000000E+00  0.00000000000E+00 -0.95535810650E+03  0.95535810651E+03  0.50400001928E-02 0. -1.
    10030    2    1    2    0    0  0.00000000000E+00  0.00000000000E+00 -0.82156538371E+03  0.10891508294E+04  0.71503835524E+03 0.  0.
        1    1    3    3  502    0 -0.23655987664E+03 -0.17631910226E+03 -0.10321963845E+03  0.31257526269E+03  0.50400001928E-02 0.  1.
       -1    1    3    3    0  502  0.23655987664E+03  0.17631910226E+03 -0.71834574526E+03  0.77657556671E+03  0.50400001928E-02 0. -1.
</event>
<event>
 5   0  0.4590462E-02  0.8665051E+03  0.7818609E-02  0.9468448E-01
        2   -1    0    0  501    0  0.00000000000E+00  0.00000000000E+00  0.11160563714E+04  0.11160563714E+04  0.25500000920E-02 0. -1.
       -2   -1    0    0    0  501  0.00000000000E+00  0.00000000000E+00 -0.16818845201E+03  0.16818845203E+03  0.25500000920E-02 0.  1.
    10030    2    1    2    0    0  0.00000000000E+00  0.00000000000E+00  0.94786791942E+03  0.12842448235E+04  0.86650514938E+03 0.  0.
        3    1    3    3  502    0 -0.13446654396E+02 -0.20920647678E+03 -0.88012753278E+02  0.22736406352E+03  0.10100000352E+00 0.  1.
       -3    1    3    3    0  502  0.13446654396E+02  0.20920647678E+03  0.10358806727E+04  0.10568807599E+04  0.10100000352E+00 0. -1.
</event>
<event>
 5   0  0.4700220E-02  0.7856906E+03  0.7818609E-02  0.9580963E-01
        2   -1    0    0  501    0  0.00000000000E+00  0.00000000000E+00  0.86853485421E+03  0.86853485422E+03  0.25500000920E-02 0.  1.
       -2   -1    0    0    0  501  0.00000000000E+00  0.00000000000E+00 -0.17768710773E+03  0.17768710775E+03  0.25500000920E-02 0. -1.
    10030    2    1    2    0    0  0.00000000000E+00  0.00000000000E+00  0.69084774649E+03  0.10462219620E+04  0.78569064196E+03 0.  0.
        4    1    3    3  502    0 -0.31043706020E+03  0.22882591378E+03  0.24583544525E+03  0.45735013524E+03  0.12699999809E+01 0. -1.
       -4    1    3    3    0  502  0.31043706020E+03 -0.22882591378E+03  0.44501230124E+03  0.58887182673E+03  0.12699999809E+01 0.  1.
</event>
<event>
 5   0  0.4700220E-02  0.7874125E+03  0.7818609E-02  0.9578418E-01
        2   -1    0    0  501    0  0.00000000000E+00  0.00000000000E+00  0.11311686282E+04  0.11311686282E+04  0.25500000920E-02 0.  1.
       -2   -1    0    0    0  501  0.00000000000E+00  0.00000000000E+00 -0.13703050773E+03  0.13703050776E+03  0.25500000920E-02 0. -1.
    10030    2    1    2    0    0  0.00000000000E+00  0.00000000000E+00  0.99413812045E+03  0.12681991359E+04  0.78741250046E+03 0.  0.
        4    1    3    3  502    0 -0.17531567931E+03  0.25429196215E+03  0.89027424973E+03  0.94233212938E+03  0.12699999809E+01 0.  1.
       -4    1    3    3    0  502  0.17531567931E+03 -0.25429196215E+03  0.10386387071E+03  0.32586700656E+03  0.12699999809E+01 0. -1.
</event>
<event>
 5   0  0.2759559E-02  0.9252807E+03  0.7818609E-02  0.9394520E-01
        1   -1    0    0  501    0  0.00000000000E+00  0.00000000000E+00  0.16672094607E+04  0.16672094607E+04  0.50400001928E-02 0. -1.
       -1   -1    0    0    0  501  0.00000000000E+00  0.00000000000E+00 -0.12837983206E+03  0.12837983216E+03  0.50400001928E-02 0.  1.
    10030    2    1    2    0    0  0.00000000000E+00  0.00000000000E+00  0.15388296287E+04  0.17955892929E+04  0.92528065078E+03 0.  0.
        3    1    3    3  502    0  0.41682109445E+03 -0.17325525877E+03  0.96616076930E+03  0.10664069823E+04  0.10100000352E+00 0. -1.
       -3    1    3    3    0  502 -0.41682109445E+03  0.17325525877E+03  0.57266885936E+03  0.72918231064E+03  0.10100000352E+00 0.  1.
</event>
<event>
 5   0  0.2759559E-02  0.8367409E+03  0.7818609E-02  0.9508308E-01
        1   -1    0    0  501    0  0.00000000000E+00  0.00000000000E+00  0.20358258522E+03  0.20358258528E+03  0.50400001928E-02 0. -1.
       -1   -1    0    0    0  501  0.00000000000E+00  0.00000000000E+00 -0.85976823151E+03  0.85976823152E+03  0.50400001928E-02 0.  1.
    10030    2    1    2    0    0  0.00000000000E+00  0.00000000000E+00 -0.65618564629E+03  0.10633508168E+04  0.83674091403E+03 0.  0.
        3    1    3    3  502    0  0.37550667375E+03 -0.63269902215E+02 -0.10788609171E+03  0.39578752070E+03  0.10100000352E+00 0. -1.
       -3    1    3    3    0  502 -0.37550667375E+03  0.63269902215E+02 -0.54829955458E+03  0.66756329611E+03  0.10100000352E+00 0.  1.
</event>
<event>
 5   0  0.2635243E-02  0.8034389E+03  0.7818609E-02  0.9555053E-01
        1   -1    0    0  501    0  0.00000000000E+00  0.00000000000E+00  0.14483168988E+03  0.14483168997E+03  0.50400001928E-02 0. -1.
       -1   -1    0    0    0  501  0.00000000000E+00  0.00000000000E+00 -0.11142487412E+04  0.11142487412E+04  0.50400001928E-02 0.  1.
    10030    2    1    2    0    0  0.00000000000E+00  0.00000000000E+00 -0.96941705130E+03  0.12590804312E+04  0.80343892910E+03 0.  0.
        1    1    3    3  502    0 -0.25136234608E+03 -0.19169018305E+03 -0.96233714257E+02  0.33043771439E+03  0.50400001928E-02 0. -1.
       -1    1    3    3    0  502  0.25136234608E+03  0.19169018305E+03 -0.87318333704E+03  0.92864271677E+03  0.50400001928E-02 0.  1.
</event>
<event>
 5   0  0.2769394E-02  0.7545812E+03  0.7818609E-02  0.9628190E-01
       -1   -1    0    0    0  501  0.00000000000E+00  0.00000000000E+00  0.56146918734E+03  0.56146918736E+03  0.50400001928E-02 0.  1.
        1   -1    0    0  501    0  0.00000000000E+00  0.00000000000E+00 -0.25352804913E+03  0.25352804918E+03  0.50400001928E-02 0. -1.
    10030    2    1    2    0    0  0.00000000000E+00  0.00000000000E+00  0.30794113821E+03  0.81499723654E+03  0.75458117587E+03 0.  0.
        2    1    3    3  502    0 -0.17316213046E+03  0.23115769448E+03  0.41616012333E+03  0.50656515020E+03  0.25500000920E-02 0.  1.
       -2    1    3    3    0  502  0.17316213046E+03 -0.23115769448E+03 -0.10821898512E+03  0.30843208634E+03  0.25500000920E-02 0. -1.
</event>
<event>
 5   0  0.4590462E-02  0.8002221E+03  0.7818609E-02  0.9559696E-01
       -2   -1    0    0    0  501  0.00000000000E+00  0.00000000000E+00  0.29918417811E+03  0.29918417812E+03  0.25500000920E-02 0.  1.
        2   -1    0    0  501    0  0.00000000000E+00  0.00000000000E+00 -0.53508460467E+03  0.53508460468E+03  0.25500000920E-02 0. -1.
    10030    2    1    2    0    0  0.00000000000E+00  0.00000000000E+00 -0.23590042657E+03  0.83426878279E+03  0.80022208835E+03 0.  0.
        3    1    3    3  502    0  0.24774536222E+03  0.48914106324E+02  0.20560639600E+03  0.32564452180E+03  0.10100000352E+00 0.  1.
       -3    1    3    3    0  502 -0.24774536222E+03 -0.48914106324E+02 -0.44150682257E+03  0.50862426100E+03  0.10100000352E+00 0. -1.
</event>
<event>
 5   0  0.4590462E-02  0.7843209E+03  0.7818609E-02  0.9582993E-01
        2   -1    0    0  501    0  0.00000000000E+00  0.00000000000E+00  0.67578562593E+03  0.67578562594E+03  0.25500000920E-02 0. -1.
       -2   -1    0    0    0  501  0.00000000000E+00  0.00000000000E+00 -0.22757190293E+03  0.22757190294E+03  0.25500000920E-02 0.  1.
    10030    2    1    2    0    0  0.00000000000E+00  0.00000000000E+00  0.44821372301E+03  0.90335752888E+03  0.78432090593E+03 0.  0.
        3    1    3    3  502    0  0.15032367026E+03 -0.45465708371E+02 -0.18977066219E+03  0.24632752771E+03  0.10100000352E+00 0.  1.
       -3    1    3    3    0  502 -0.15032367026E+03  0.45465708371E+02  0.63798438520E+03  0.65703000117E+03  0.10100000352E+00 0. -1.
</event>
<event>
 5   0  0.1786500E-02  0.7921148E+03  0.7818609E-02  0.9571501E-01
        3   -1    0    0  501    0  0.00000000000E+00  0.00000000000E+00  0.42805214302E+03  0.42805215493E+03  0.10100000352E+00 0. -1.
       -3   -1    0    0    0  501  0.00000000000E+00  0.00000000000E+00 -0.36645410060E+03  0.36645411452E+03  0.10100000352E+00 0.  1.
    10030    2    1    2    0    0  0.00000000000E+00  0.00000000000E+00  0.61598042418E+02  0.79450626945E+03  0.79211482334E+03 0.  0.
        5    1    3    3  502    0  0.27117532731E+03  0.66938974487E+02  0.31240008270E+03  0.41908565487E+03  0.46999998093E+01 0. -1.
       -5    1    3    3    0  502 -0.27117532731E+03 -0.66938974487E+02 -0.25080204028E+03  0.37542061458E+03  0.46999998093E+01 0.  1.
</event>
<event>
 5   0  0.2759559E-02  0.7945870E+03  0.7818609E-02  0.9567885E-01
       -1   -1    0    0    0  501  0.00000000000E+00  0.00000000000E+00  0.23057824287E+03  0.23057824292E+03  0.50400001928E-02 0. -1.
        1   -1    0    0  501    0  0.00000000000E+00  0.00000000000E+00 -0.68454902362E+03  0.68454902364E+03  0.50400001928E-02 0.  1.
    10030    2    1    2    0    0  0.00000000000E+00  0.00000000000E+00 -0.45397078075E+03  0.91512726656E+03  0.79458696455E+03 0.  0.
        3    1    3    3  502    0  0.79541187694E+02 -0.38729226530E+03 -0.27188701713E+03  0.47983815979E+03  0.10100000352E+00 0.  1.
       -3    1    3    3    0  502 -0.79541187694E+02  0.38729226530E+03 -0.18208376362E+03  0.43528910678E+03  0.10100000352E+00 0. -1.
</event>
<event>
 5   0  0.4377843E-02  0.7763748E+03  0.7818609E-02  0.9594857E-01
       -2   -1    0    0    0  501  0.00000000000E+00  0.00000000000E+00  0.12960241580E+03  0.12960241583E+03  0.25500000920E-02 0. -1.
        2   -1    0    0  501    0  0.00000000000E+00  0.00000000000E+00 -0.11627056861E+04  0.11627056861E+04  0.25500000920E-02 0.  1.
    10030    2    1    2    0    0  0.00000000000E+00  0.00000000000E+00 -0.10331032703E+04  0.12923081019E+04  0.77637482135E+03 0.  0.
        2    1    3    3  502    0  0.56624516366E+02 -0.31007643624E+03 -0.13940997264E+03  0.34465761654E+03  0.25500000920E-02 0. -1.
       -2    1    3    3    0  502 -0.56624516366E+02  0.31007643624E+03 -0.89369329766E+03  0.94765048539E+03  0.25500000920E-02 0.  1.
</event>
<event>
 5   0  0.4684283E-02  0.8472946E+03  0.7818609E-02  0.9493975E-01
        2   -1    0    0  501    0  0.00000000000E+00  0.00000000000E+00  0.11238490751E+04  0.11238490751E+04  0.25500000920E-02 0. -1.
       -2   -1    0    0    0  501  0.00000000000E+00  0.00000000000E+00 -0.15969852681E+03  0.15969852683E+03  0.25500000920E-02 0.  1.
    10030    2    1    2    0    0  0.00000000000E+00  0.00000000000E+00  0.96415054832E+03  0.12835476020E+04  0.84729461622E+03 0.  0.
        1    1    3    3  502    0  0.14715795950E+03  0.92419807712E+02  0.10673753394E+04  0.10814282228E+04  0.50400001928E-02 0. -1.
       -1    1    3    3    0  502 -0.14715795950E+03 -0.92419807712E+02 -0.10322479110E+03  0.20211937914E+03  0.50400001928E-02 0.  1.
</event>
<event>
 5   0  0.4700220E-02  0.7641177E+03  0.7818609E-02  0.9613459E-01
        2   -1    0    0  501    0  0.00000000000E+00  0.00000000000E+00  0.58122576344E+03  0.58122576344E+03  0.25500000920E-02 0. -1.
       -2   -1    0    0    0  501  0.00000000000E+00  0.00000000000E+00 -0.25113989123E+03  0.25113989124E+03  0.25500000920E-02 0.  1.
    10030    2    1    2    0    0  0.00000000000E+00  0.00000000000E+00  0.33008587221E+03  0.83236565468E+03  0.76411772658E+03 0.  0.
        4    1    3    3  502    0  0.12588328367E+03  0.34563168538E+03  0.52576670428E+02  0.37158280668E+03  0.12699999809E+01 0. -1.
       -4    1    3    3    0  502 -0.12588328367E+03 -0.34563168538E+03  0.27750920178E+03  0.46078284801E+03  0.12699999809E+01 0.  1.
</event>
<event>
 5   0  0.1786500E-02  0.7708352E+03  0.7818609E-02  0.9603219E-01
       -3   -1    0    0    0  501  0.00000000000E+00  0.00000000000E+00  0.12690296864E+03  0.12690300883E+03  0.10100000352E+00 0. -1.
        3   -1    0    0  501    0  0.00000000000E+00  0.00000000000E+00 -0.11705533648E+04  0.11705533692E+04  0.10100000352E+00 0.  1.
    10030    2    1    2    0    0  0.00000000000E+00  0.00000000000E+00 -0.10436503962E+04  0.12974563780E+04  0.77083519860E+03 0.  0.
        5    1    3    3  502    0  0.56828561917E+02 -0.15584099368E+03  0.63691908886E+02  0.17774883970E+03  0.46999998093E+01 0. -1.
       -5    1    3    3    0  502 -0.56828561917E+02  0.15584099368E+03 -0.11073423051E+04  0.11197075383E+04  0.46999998093E+01 0.  1.
</event>
<event>
 5   0  0.2606520E-02  0.7550312E+03  0.7818609E-02  0.9627490E-01
        1   -1    0    0  501    0  0.00000000000E+00  0.00000000000E+00  0.79889215038E+03  0.79889215040E+03  0.50400001928E-02 0.  1.
       -1   -1    0    0    0  501  0.00000000000E+00  0.00000000000E+00 -0.17839459041E+03  0.17839459049E+03  0.50400001928E-02 0. -1.
    10030    2    1    2    0    0  0.00000000000E+00  0.00000000000E+00  0.62049755997E+03  0.97728674088E+03  0.75503122583E+03 0.  0.
        5    1    3    3  502    0 -0.31982360564E+03  0.12940937814E+03  0.11198662906E+03  0.36276303693E+03  0.46999998093E+01 0. -1.
       -5    1    3    3    0  502  0.31982360564E+03 -0.12940937814E+03  0.50851093090E+03  0.61452370395E+03  0.46999998093E+01 0.  1.
</event>
<event>
 5   0  0.4684283E-02  0.8298846E+03  0.7818609E-02  0.9517740E-01
       -2   -1    0    0    0  501  0.00000000000E+00  0.00000000000E+00  0.98677106840E+02  0.98677106873E+02  0.25500000920E-02 0. -1.
        2   -1    0    0  501    0  0.00000000000E+00  0.00000000000E+00 -0.17448534653E+04  0.17448534653E+04  0.25500000920E-02 0.  1.
    10030    2    1    2    0    0  0.00000000000E+00  0.00000000000E+00 -0.16461763585E+04  0.18435305722E+04  0.82988455064E+03 0.  0.
        1    1    3    3  502    0  0.26764745140E+03 -0.29501177333E+03 -0.56488586361E+03  0.69120412584E+03  0.50400001928E-02 0.  1.
       -1    1    3    3    0  502 -0.26764745140E+03  0.29501177333E+03 -0.10812904949E+04  0.11523264463E+04  0.50400001928E-02 0. -1.
</event>
<event>
 5   0  0.4590462E-02  0.7899264E+03  0.7818609E-02  0.9574714E-01
        2   -1    0    0  501    0  0.00000000000E+00  0.00000000000E+00  0.29878027184E+03  0.29878027185E+03  0.25500000920E-02 0. -1.
       -2   -1    0    0    0  501  0.00000000000E+00  0.00000000000E+00 -0.52210917898E+03  0.52210917899E+03  0.25500000920E-02 0.  1.
    10030    2    1    2    0    0  0.00000000000E+00  0.00000000000E+00 -0.22332890714E+03  0.82088945084E+03  0.78992638247E+03 0.  0.
        3    1    3    3  502    0 -0.70927268041E+02 -0.13476822146E+03 -0.49036995001E+03  0.51347429239E+03  0.10100000352E+00 0.  1.
       -3    1    3    3    0  502  0.70927268041E+02  0.13476822146E+03  0.26704104287E+03  0.30741515845E+03  0.10100000352E+00 0. -1.
</event>
<event>
 5   0  0.2689372E-02  0.7907593E+03  0.7818609E-02  0.9573490E-01
        1   -1    0    0  501    0  0.00000000000E+00  0.00000000000E+00  0.15607950128E+03  0.15607950136E+03  0.50400001928E-02 0.  1.
       -1   -1    0    0    0  501  0.00000000000E+00  0.00000000000E+00 -0.10015732803E+04  0.10015732803E+04  0.50400001928E-02 0. -1.
    10030    2    1    2    0    0  0.00000000000E+00  0.00000000000E+00 -0.84549377903E+03  0.11576527817E+04  0.79075927599E+03 0.  0.
        4    1    3    3  502    0 -0.58415399724E+02 -0.67829954216E+02  0.14104589168E+03  0.16705932501E+03  0.12699999809E+01 0.  1.
       -4    1    3    3    0  502  0.58415399724E+02  0.67829954216E+02 -0.98653967071E+03  0.99059345667E+03  0.12699999809E+01 0. -1.
</event>
<event>
 5   0  0.4663634E-02  0.7580443E+03  0.7818609E-02  0.9622814E-01
       -2   -1    0    0    0  501  0.00000000000E+00  0.00000000000E+00  0.11170264214E+03  0.11170264217E+03  0.25500000920E-02 0.  1.
        2   -1    0    0  501    0  0.00000000000E+00  0.00000000000E+00 -0.12860732527E+04  0.12860732527E+04  0.25500000920E-02 0. -1.
    10030    2    1    2    0    0  0.00000000000E+00  0.00000000000E+00 -0.11743706106E+04  0.13977758949E+04  0.75804427400E+03 0.  0.
        5    1    3    3  502    0  0.22739625637E+03 -0.48963826598E+02 -0.35456993482E+02  0.23534188346E+03  0.46999998093E+01 0.  1.
       -5    1    3    3    0  502 -0.22739625637E+03  0.48963826598E+02 -0.11389136171E+04  0.11624340114E+04  0.46999998093E+01 0. -1.
</event>
<event>
 5   0  0.4377843E-02  0.7991216E+03  0.7818609E-02  0.9561289E-01
       -2   -1    0    0    0  501  0.00000000000E+00  0.00000000000E+00  0.61660399659E+03  0.61660399659E+03  0.25500000920E-02 0. -1.
        2   -1    0    0  501    0  0.00000000000E+00  0.00000000000E+00 -0.25891630970E+03  0.25891630971E+03  0.25500000920E-02 0.  1.
    10030    2    1    2    0    0  0.00000000000E+00  0.00000000000E+00  0.35768768689E+03  0.87552030630E+03  0.79912159613E+03 0.  0.
        2    1    3    3  502    0  0.37821333878E+03  0.35217111995E+02  0.43045335016E+02  0.38228062399E+03  0.25500000920E-02 0.  1.
       -2    1    3    3    0  502 -0.37821333878E+03 -0.35217111995E+02  0.31464235187E+03  0.49323968231E+03  0.25500000920E-02 0. -1.
</event>
<event>
 5   0  0.4377843E-02  0.8360269E+03  0.7818609E-02  0.9509285E-01
       -2   -1    0    0    0  501  0.00000000000E+00  0.00000000000E+00  0.22572880432E+03  0.22572880433E+03  0.25500000920E-02 0. -1.
        2   -1    0    0  501    0  0.00000000000E+00  0.00000000000E+00 -0.77409372576E+03  0.77409372576E+03  0.25500000920E-02 0.  1.
    10030    2    1    2    0    0  0.00000000000E+00  0.00000000000E+00 -0.54836492144E+03  0.99982253010E+03  0.83602691621E+03 0.  0.
        2    1    3    3  502    0 -0.17187221051E+03  0.32922461998E+03 -0.44745173304E+02  0.37407357256E+03  0.25500000920E-02 0. -1.
       -2    1    3    3    0  502  0.17187221051E+03 -0.32922461998E+03 -0.50361974814E+03  0.62574895754E+03  0.25500000920E-02 0.  1.
</event>
<event>
 5   0  0.2759559E-02  0.8370992E+03  0.7818609E-02  0.9507817E-01
       -1   -1    0    0    0  501  0.00000000000E+00  0.00000000000E+00  0.37930563485E+03  0.37930563489E+03  0.50400001928E-02 0.  1.
        1   -1    0    0  501    0  0.00000000000E+00  0.00000000000E+00 -0.46185381014E+03  0.46185381017E+03  0.50400001928E-02 0. -1.
    10030    2    1    2    0    0  0.00000000000E+00  0.00000000000E+00 -0.82548175287E+02  0.84115944505E+03  0.83709916423E+03 0.  0.
        3    1    3    3  502    0 -0.31275274941E+02  0.31371267783E+03 -0.31790916213E+03  0.44772763218E+03  0.10100000352E+00 0. -1.
       -3    1    3    3    0  502  0.31275274941E+02 -0.31371267783E+03  0.23536098684E+03  0.39343181287E+03  0.10100000352E+00 0.  1.
</event>
<event>
 5   0  0.2769394E-02  0.7998007E+03  0.7818609E-02  0.9560306E-01
       -1   -1    0    0    0  501  0.00000000000E+00  0.00000000000E+00  0.37479332373E+03  0.37479332376E+03  0.50400001928E-02 0. -1.
        1   -1    0    0  501    0  0.00000000000E+00  0.00000000000E+00 -0.42668931808E+03  0.42668931811E+03  0.50400001928E-02 0.  1.
    10030    2    1    2    0    0  0.00000000000E+00  0.00000000000E+00 -0.51895994354E+02  0.80148264188E+03  0.79980074456E+03 0.  0.
        2    1    3    3  502    0 -0.14657841225E+03 -0.35804064500E+03 -0.12736345075E+03  0.40730797071E+03  0.25500000920E-02 0.  1.
       -2    1    3    3    0  502  0.14657841225E+03  0.35804064500E+03  0.75467456391E+02  0.39417467117E+03  0.25500000920E-02 0. -1.
</event>
<event>
 5   0  0.4684283E-02  0.6046017E+03  0.7818609E-02  0.9895905E-01
        2   -1    0    0  501    0  0.00000000000E+00  0.00000000000E+00  0.16077378861E+04  0.16077378861E+04  0.25500000920E-02 0.  1.
       -2   -1    0    0    0  501  0.00000000000E+00  0.00000000000E+00 -0.56841235855E+02  0.56841235912E+02  0.25500000920E-02 0. -1.
    10030    2    1    2    0    0  0.00000000000E+00  0.00000000000E+00  0.15508966503E+04  0.16645791220E+04  0.60460171494E+03 0.  0.
        1    1    3    3  502    0  0.65966618822E+02 -0.29385155465E+03  0.70336552498E+03  0.76512965746E+03  0.50400001928E-02 0. -1.
       -1    1    3    3    0  502 -0.65966618822E+02  0.29385155465E+03  0.84753112529E+03  0.89944946457E+03  0.50400001928E-02 0.  1.
</event>
<event>
 5   0  0.1786500E-02  0.8027227E+03  0.7818609E-02  0.9556084E-01
        4   -1    0    0  501    0  0.00000000000E+00  0.00000000000E+00  0.43920162044E+03  0.43920345661E+03  0.12699999809E+01 0. -1.
       -4   -1    0    0    0  501  0.00000000000E+00  0.00000000000E+00 -0.36677760681E+03  0.36677980555E+03  0.12699999809E+01 0.  1.
    10030    2    1    2    0    0  0.00000000000E+00  0.00000000000E+00  0.72424013631E+02  0.80598326215E+03  0.80272272991E+03 0.  0.
        5    1    3    3  502    0 -0.10072985871E+03  0.20137830127E+03 -0.29735591028E+03  0.37301789774E+03  0.46999998093E+01 0.  1.
       -5    1    3    3    0  502  0.10072985871E+03 -0.20137830127E+03  0.36977992391E+03  0.43296536441E+03  0.46999998093E+01 0. -1.
</event>
<event>
 5   0  0.2606520E-02  0.7733549E+03  0.7818609E-02  0.9599406E-01
       -1   -1    0    0    0  501  0.00000000000E+00  0.00000000000E+00  0.31994649809E+03  0.31994649813E+03  0.50400001928E-02 0.  1.
        1   -1    0    0  501    0  0.00000000000E+00  0.00000000000E+00 -0.46732646205E+03  0.46732646208E+03  0.50400001928E-02 0. -1.
    10030    2    1    2    0    0  0.00000000000E+00  0.00000000000E+00 -0.14737996396E+03  0.78727296020E+03  0.77335493798E+03 0.  0.
        5    1    3    3  502    0 -0.16978801757E+02  0.38203983260E+03 -0.15613621310E+02  0.38276440348E+03  0.46999998093E+01 0.  1.
       -5    1    3    3    0  502  0.16978801757E+02 -0.38203983260E+03 -0.13176634265E+03  0.40450855672E+03  0.46999998093E+01 0. -1.
</event>
<event>
 5   0  0.4663634E-02  0.7902294E+03  0.7818609E-02  0.9574268E-01
        2   -1    0    0  501    0  0.00000000000E+00  0.00000000000E+00  0.17665003663E+04  0.17665003663E+04  0.25500000920E-02 0.  1.
       -2   -1    0    0    0  501  0.00000000000E+00  0.00000000000E+00 -0.88375645342E+02  0.88375645378E+02  0.25500000920E-02 0. -1.
    10030    2    1    2    0    0  0.00000000000E+00  0.00000000000E+00  0.16781247209E+04  0.18548760116E+04  0.79022935886E+03 0.  0.
        5    1    3    3  502    0  0.23579289561E+03 -0.29747810380E+03  0.58191108623E+03  0.69479069808E+03  0.46999998093E+01 0. -1.
       -5    1    3    3    0  502 -0.23579289561E+03  0.29747810380E+03  0.10962136347E+04  0.11600853136E+04  0.46999998093E+01 0.  1.
</event>
<event>
 5   0  0.2769394E-02  0.7784592E+03  0.7818609E-02  0.9591731E-01
        1   -1    0    0  501    0  0.00000000000E+00  0.00000000000E+00  0.39225315655E+03  0.39225315659E+03  0.50400001928E-02 0.  1.
       -1   -1    0    0    0  501  0.00000000000E+00  0.00000000000E+00 -0.38622937205E+03  0.38622937208E+03  0.50400001928E-02 0. -1.
    10030    2    1    2    0    0  0.00000000000E+00  0.00000000000E+00  0.60237845029E+01  0.77848252867E+03  0.77845922274E+03 0.  0.
        2    1    3    3  502    0  0.32476750365E+03  0.16401769839E+03  0.14130541579E+03  0.39031135949E+03  0.25500000920E-02 0.  1.
       -2    1    3    3    0  502 -0.32476750365E+03 -0.16401769839E+03 -0.13528163128E+03  0.38817116918E+03  0.25500000920E-02 0. -1.
</event>
<event>
 5   0  0.2759559E-02  0.7904179E+03  0.7818609E-02  0.9573991E-01
        1   -1    0    0  501    0  0.00000000000E+00  0.00000000000E+00  0.12309544019E+04  0.12309544019E+04  0.50400001928E-02 0.  1.
       -1   -1    0    0    0  501  0.00000000000E+00  0.00000000000E+00 -0.12688537572E+03  0.12688537582E+03  0.50400001928E-02 0. -1.
    10030    2    1    2    0    0  0.00000000000E+00  0.00000000000E+00  0.11040690262E+04  0.13578397777E+04  0.79041789416E+03 0.  0.
        3    1    3    3  502    0  0.90968625822E+02  0.33211557170E+03  0.21886377013E+03  0.40801642605E+03  0.10100000352E+00 0. -1.
       -3    1    3    3    0  502 -0.90968625822E+02 -0.33211557170E+03  0.88520525603E+03  0.94982335166E+03  0.10100000352E+00 0.  1.
</event>
<event>
 5   0  0.2759559E-02  0.7848814E+03  0.7818609E-02  0.9582162E-01
       -1   -1    0    0    0  501  0.00000000000E+00  0.00000000000E+00  0.46431620423E+03  0.46431620425E+03  0.50400001928E-02 0. -1.
        1   -1    0    0  501    0  0.00000000000E+00  0.00000000000E+00 -0.33169144317E+03  0.33169144321E+03  0.50400001928E-02 0.  1.
    10030    2    1    2    0    0  0.00000000000E+00  0.00000000000E+00  0.13262476106E+03  0.79600764746E+03  0.78488142261E+03 0.  0.
        3    1    3    3  502    0 -0.22736540809E+03 -0.29659780151E+03  0.18777835585E+03  0.41824156391E+03  0.10100000352E+00 0. -1.
       -3    1    3    3    0  502  0.22736540809E+03  0.29659780151E+03 -0.55153594787E+02  0.37776608355E+03  0.10100000352E+00 0.  1.
</event>
<event>
 5   0  0.4377843E-02  0.9016677E+03  0.7818609E-02  0.9423499E-01
        2   -1    0    0  501    0  0.00000000000E+00  0.00000000000E+00  0.20521362301E+03  0.20521362303E+03  0.25500000920E-02 0. -1.
       -2   -1    0    0    0  501  0.00000000000E+00  0.00000000000E+00 -0.99043687629E+03  0.99043687630E+03  0.25500000920E-02 0.  1.
    10030    2    1    2    0    0  0.00000000000E+00  0.00000000000E+00 -0.78522325328E+03  0.11956504993E+04  0.90166765442E+03 0.  0.
        2    1    3    3  502    0  0.42206614976E+03  0.15702042859E+03 -0.42092475019E+03  0.61641941493E+03  0.25500000920E-02 0. -1.
       -2    1    3    3    0  502 -0.42206614976E+03 -0.15702042859E+03 -0.36429850309E+03  0.57923108439E+03  0.25500000920E-02 0.  1.
</event>
<event>
 5   0  0.4590462E-02  0.8024447E+03  0.7818609E-02  0.9556485E-01
       -2   -1    0    0    0  501  0.00000000000E+00  0.00000000000E+00  0.10157556957E+03  0.10157556960E+03  0.25500000920E-02 0. -1.
        2   -1    0    0  501    0  0.00000000000E+00  0.00000000000E+00 -0.15848239064E+04  0.15848239064E+04  0.25500000920E-02 0.  1.
    10030    2    1    2    0    0  0.00000000000E+00  0.00000000000E+00 -0.14832483368E+04  0.16863994760E+04  0.80244474197E+03 0.  0.
        3    1    3    3  502    0  0.18539335231E+03  0.34986925377E+03 -0.87782502570E+03  0.96299323765E+03  0.10100000352E+00 0.  1.
       -3    1    3    3    0  502 -0.18539335231E+03 -0.34986925377E+03 -0.60542331110E+03  0.72340623831E+03  0.10100000352E+00 0. -1.
</event>
<event>
 5   0  0.2635243E-02  0.8120969E+03  0.7818609E-02  0.9542671E-01
       -1   -1    0    0    0  501  0.00000000000E+00  0.00000000000E+00  0.73474161462E+02  0.73474161634E+02  0.50400001928E-02 0.  1.
        1   -1    0    0  501    0  0.00000000000E+00  0.00000000000E+00 -0.22439905895E+04  0.22439905895E+04  0.50400001928E-02 0. -1.
    10030    2    1    2    0    0  0.00000000000E+00  0.00000000000E+00 -0.21705164280E+04  0.23174647511E+04  0.81209685899E+03 0.  0.
        1    1    3    3  502    0  0.78835089070E+02 -0.39786134329E+03 -0.10306113687E+04  0.11075506368E+04  0.50400001928E-02 0.  1.
       -1    1    3    3    0  502 -0.78835089070E+02  0.39786134329E+03 -0.11399050593E+04  0.12099141143E+04  0.50400001928E-02 0. -1.
</event>
<event>
 5   0  0.4684283E-02  0.7598505E+03  0.7818609E-02  0.9620022E-01
        2   -1    0    0  501    0  0.00000000000E+00  0.00000000000E+00  0.91747480047E+03  0.91747480047E+03  0.25500000920E-02 0.  1.
       -2   -1    0    0    0  501  0.00000000000E+00  0.00000000000E+00 -0.15732662520E+03  0.15732662522E+03  0.25500000920E-02 0. -1.
    10030    2    1    2    0    0  0.00000000000E+00  0.00000000000E+00  0.76014817527E+03  0.10748014257E+04  0.75985054867E+03 0.  0.
        1    1    3    3  502    0  0.22730349201E+03 -0.27543102565E+03  0.56348986612E+03  0.66712064622E+03  0.50400001928E-02 0. -1.
       -1    1    3    3    0  502 -0.22730349201E+03  0.27543102565E+03  0.19665830914E+03  0.40768077947E+03  0.50400001928E-02 0.  1.
</event>
<event>
 5   0  0.4684283E-02  0.8022830E+03  0.7818609E-02  0.9556718E-01
       -2   -1    0    0    0  501  0.00000000000E+00  0.00000000000E+00  0.51528751832E+03  0.51528751832E+03  0.25500000920E-02 0. -1.
        2   -1    0    0  501    0  0.00000000000E+00  0.00000000000E+00 -0.31228103783E+03  0.31228103784E+03  0.25500000920E-02 0.  1.
    10030    2    1    2    0    0  0.00000000000E+00  0.00000000000E+00  0.20300648049E+03  0.82756855617E+03  0.80228304484E+03 0.  0.
        1    1    3    3  502    0  0.18503032638E+02 -0.21817253877E+03  0.44821095834E+03  0.49883332095E+03  0.50400001928E-02 0. -1.
       -1    1    3    3    0  502 -0.18503032638E+02  0.21817253877E+03 -0.24520447785E+03  0.32873523522E+03  0.50400001928E-02 0.  1.
</event>
<event>
 5   0  0.4663634E-02  0.7762013E+03  0.7818609E-02  0.9595118E-01
        2   -1    0    0  501    0  0.00000000000E+00  0.00000000000E+00  0.20875635538E+04  0.20875635538E+04  0.25500000920E-02 0.  1.
       -2   -1    0    0    0  501  0.00000000000E+00  0.00000000000E+00 -0.72152114595E+02  0.72152114640E+02  0.25500000920E-02 0. -1.
    10030    2    1    2    0    0  0.00000000000E+00  0.00000000000E+00  0.20154114392E+04  0.21597156685E+04  0.77620132648E+03 0.  0.
        5    1    3    3  502    0  0.16122204849E+03  0.32254064707E+03  0.60859600538E+03  0.70741515795E+03  0.46999998093E+01 0.  1.
       -5    1    3    3    0  502 -0.16122204849E+03 -0.32254064707E+03  0.14068154338E+04  0.14523005105E+04  0.46999998093E+01 0. -1.
</event>
<event>
 5   0  0.4590462E-02  0.7966132E+03  0.7818609E-02  0.9564932E-01
       -2   -1    0    0    0  501  0.00000000000E+00  0.00000000000E+00  0.71539913089E+03  0.71539913089E+03  0.25500000920E-02 0.  1.
        2   -1    0    0  501    0  0.00000000000E+00  0.00000000000E+00 -0.22176173583E+03  0.22176173584E+03  0.25500000920E-02 0. -1.
    10030    2    1    2    0    0  0.00000000000E+00  0.00000000000E+00  0.49363739506E+03  0.93716086674E+03  0.79661321376E+03 0.  0.
        3    1    3    3  502    0 -0.22806052964E+03  0.24645884357E+03  0.49884584328E+03  0.60133248067E+03  0.10100000352E+00 0.  1.
       -3    1    3    3    0  502  0.22806052964E+03 -0.24645884357E+03 -0.52084482194E+01  0.33582838606E+03  0.10100000352E+00 0. -1.
</event>
<event>
 5   0  0.2635243E-02  0.8019916E+03  0.7818609E-02  0.9557139E-01
       -1   -1    0    0    0  501  0.00000000000E+00  0.00000000000E+00  0.76967751814E+03  0.76967751815E+03  0.50400001928E-02 0.  1.
        1   -1    0    0  501    0  0.00000000000E+00  0.00000000000E+00 -0.20891557058E+03  0.20891557064E+03  0.50400001928E-02 0. -1.
    10030    2    1    2    0    0  0.00000000000E+00  0.00000000000E+00  0.56076194756E+03  0.97859308879E+03  0.80199156579E+03 0.  0.
        1    1    3    3  502    0  0.14375877661E+02 -0.11890600540E+03  0.74734181444E+03  0.75687851840E+03  0.50400001928E-02 0.  1.
       -1    1    3    3    0  502 -0.14375877661E+02  0.11890600540E+03 -0.18657986688E+03  0.22171457040E+03  0.50400001928E-02 0. -1.
</event>
<event>
 5   0  0.2635243E-02  0.8039203E+03  0.7818609E-02  0.9554360E-01
       -1   -1    0    0    0  501  0.00000000000E+00  0.00000000000E+00  0.20762908420E+03  0.20762908426E+03  0.50400001928E-02 0. -1.
        1   -1    0    0  501    0  0.00000000000E+00  0.00000000000E+00 -0.77817587469E+03  0.77817587471E+03  0.50400001928E-02 0.  1.
    10030    2    1    2    0    0  0.00000000000E+00  0.00000000000E+00 -0.57054679049E+03  0.98580495897E+03  0.80392025536E+03 0.  0.
        1    1    3    3  502    0 -0.11984186753E+02 -0.12978089022E+03 -0.75154612205E+03  0.76276357660E+03  0.50400001928E-02 0.  1.
       -1    1    3    3    0  502  0.11984186753E+02  0.12978089022E+03  0.18099933156E+03  0.22304138237E+03  0.50400001928E-02 0. -1.
</event>
<event>
 5   0  0.2635243E-02  0.8019798E+03  0.7818609E-02  0.9557156E-01
        1   -1    0    0  501    0  0.00000000000E+00  0.00000000000E+00  0.34430338515E+03  0.34430338518E+03  0.50400001928E-02 0.  1.
       -1   -1    0    0    0  501  0.00000000000E+00  0.00000000000E+00 -0.46700929954E+03  0.46700929957E+03  0.50400001928E-02 0. -1.
    10030    2    1    2    0    0  0.00000000000E+00  0.00000000000E+00 -0.12270591439E+03  0.81131268475E+03  0.80197975723E+03 0.  0.
        1    1    3    3  502    0  0.18563580591E+03 -0.17942055912E+03  0.24904088333E+03  0.35871123633E+03  0.50400001928E-02 0.  1.
       -1    1    3    3    0  502 -0.18563580591E+03  0.17942055912E+03 -0.37174679772E+03  0.45260144842E+03  0.50400001928E-02 0. -1.
</event>
<event>
 5   0  0.4663634E-02  0.8122736E+03  0.7818609E-02  0.9542420E-01
        2   -1    0    0  501    0  0.00000000000E+00  0.00000000000E+00  0.42002522047E+03  0.42002522048E+03  0.25500000920E-02 0.  1.
       -2   -1    0    0    0  501  0.00000000000E+00  0.00000000000E+00 -0.39270763747E+03  0.39270763748E+03  0.25500000920E-02 0. -1.
    10030    2    1    2    0    0  0.00000000000E+00  0.00000000000E+00  0.27317583007E+02  0.81273285796E+03  0.81227362881E+03 0.  0.
        5    1    3    3  502    0  0.89759510861E+02  0.39555602610E+03  0.33762000888E+02  0.40704213821E+03  0.46999998093E+01 0.  1.
       -5    1    3    3    0  502 -0.89759510861E+02 -0.39555602610E+03 -0.64444178807E+01  0.40569071975E+03  0.46999998093E+01 0. -1.
</event>
<event>
 5   0  0.4684283E-02  0.8147794E+03  0.7818609E-02  0.9538868E-01
       -2   -1    0    0    0  501  0.00000000000E+00  0.00000000000E+00  0.14274406973E+03  0.14274406976E+03  0.25500000920E-02 0. -1.
        2   -1    0    0  501    0  0.00000000000E+00  0.00000000000E+00 -0.11626848513E+04  0.11626848513E+04  0.25500000920E-02 0.  1.
    10030    2    1    2    0    0  0.00000000000E+00  0.00000000000E+00 -0.10199407816E+04  0.13054289211E+04  0.81477939962E+03 0.  0.
        1    1    3    3  502    0 -0.10782900016E+03  0.26737141063E+03 -0.97114370817E+03  0.10130324114E+04  0.50400001928E-02 0.  1.
       -1    1    3    3    0  502  0.10782900016E+03 -0.26737141063E+03 -0.48797073407E+02  0.29239650972E+03  0.50400001928E-02 0. -1.
</event>
<event>
 5   0  0.2606520E-02  0.8999523E+03  0.7818609E-02  0.9425641E-01
        1   -1    0    0  501    0  0.00000000000E+00  0.00000000000E+00  0.61385441154E+03  0.61385441156E+03  0.50400001928E-02 0. -1.
       -1   -1    0    0    0  501  0.00000000000E+00  0.00000000000E+00 -0.32984778144E+03  0.32984778148E+03  0.50400001928E-02 0.  1.
    10030    2    1    2    0    0  0.00000000000E+00  0.00000000000E+00  0.28400663010E+03  0.94370219304E+03  0.89995225608E+03 0.  0.
        5    1    3    3  502    0 -0.43642423482E+03  0.20196372152E+02  0.25485684340E+03  0.50581430072E+03  0.46999998093E+01 0.  1.
       -5    1    3    3    0  502  0.43642423482E+03 -0.20196372152E+02  0.29149786698E+02  0.43788789233E+03  0.46999998093E+01 0. -1.
</event>
<event>
 5   0  0.2759559E-02  0.8031781E+03  0.7818609E-02  0.9555428E-01
       -1   -1    0    0    0  501  0.00000000000E+00  0.00000000000E+00  0.19152016325E+03  0.19152016331E+03  0.50400001928E-02 0. -1.
        1   -1    0    0  501    0  0.00000000000E+00  0.00000000000E+00 -0.84207190825E+03  0.84207190827E+03  0.50400001928E-02 0.  1.
    10030    2    1    2    0    0  0.00000000000E+00  0.00000000000E+00 -0.65055174501E+03  0.10335920716E+04  0.80317806089E+03 0.  0.
        3    1    3    3  502    0 -0.24991251297E+03 -0.19636390812E+03 -0.64117409159E+03  0.71562509352E+03  0.10100000352E+00 0.  1.
       -3    1    3    3    0  502  0.24991251297E+03  0.19636390812E+03 -0.93776534166E+01  0.31796697806E+03  0.10100000352E+00 0. -1.
</event>
<event>
 5   0  0.4684283E-02  0.8100209E+03  0.7818609E-02  0.9545625E-01
       -2   -1    0    0    0  501  0.00000000000E+00  0.00000000000E+00  0.12282458471E+03  0.12282458473E+03  0.25500000920E-02 0.  1.
        2   -1    0    0  501    0  0.00000000000E+00  0.00000000000E+00 -0.13355098724E+04  0.13355098724E+04  0.25500000920E-02 0. -1.
    10030    2    1    2    0    0  0.00000000000E+00  0.00000000000E+00 -0.12126852877E+04  0.14583344572E+04  0.81002085276E+03 0.  0.
        1    1    3    3  502    0 -0.15653404088E+02 -0.47055704607E+02 -0.13300232170E+04  0.13309474167E+04  0.50400001928E-02 0. -1.
       -1    1    3    3    0  502  0.15653404088E+02  0.47055704607E+02  0.11733792927E+03  0.12738704042E+03  0.50400001928E-02 0.  1.
</event>
<event>
 5   0  0.2635243E-02  0.4755729E+03  0.7818609E-02  0.1020359E+00
        1   -1    0    0  501    0  0.00000000000E+00  0.00000000000E+00  0.13160059847E+03  0.13160059857E+03  0.50400001928E-02 0. -1.
       -1   -1    0    0    0  501  0.00000000000E+00  0.00000000000E+00 -0.42965144942E+03  0.42965144945E+03  0.50400001928E-02 0.  1.
    10030    2    1    2    0    0  0.00000000000E+00  0.00000000000E+00 -0.29805085095E+03  0.56125204802E+03  0.47557286682E+03 0.  0.
        1    1    3    3  502    0  0.13812513233E+02  0.93170382535E+02  0.10864671472E+03  0.14379017473E+03  0.50400001928E-02 0. -1.
       -1    1    3    3    0  502 -0.13812513233E+02 -0.93170382535E+02 -0.40669756567E+03  0.41746187329E+03  0.50400001928E-02 0.  1.
</event>
<event>
 5   0  0.2769394E-02  0.8121469E+03  0.7818609E-02  0.9542600E-01
       -1   -1    0    0    0  501  0.00000000000E+00  0.00000000000E+00  0.35733504308E+03  0.35733504312E+03  0.50400001928E-02 0.  1.
        1   -1    0    0  501    0  0.00000000000E+00  0.00000000000E+00 -0.46145947355E+03  0.46145947357E+03  0.50400001928E-02 0. -1.
    10030    2    1    2    0    0  0.00000000000E+00  0.00000000000E+00 -0.10412443047E+03  0.81879451669E+03  0.81214688545E+03 0.  0.
        2    1    3    3  502    0  0.20872270208E+03 -0.18414886752E+03  0.24602607884E+03  0.37148997732E+03  0.25500000920E-02 0.  1.
       -2    1    3    3    0  502 -0.20872270208E+03  0.18414886752E+03 -0.35015050930E+03  0.44730453937E+03  0.25500000920E-02 0. -1.
</event>
<event>
 5   0  0.2689372E-02  0.7088450E+03  0.7818609E-02  0.9702225E-01
        1   -1    0    0  501    0  0.00000000000E+00  0.00000000000E+00  0.75456238336E+03  0.75456238338E+03  0.50400001928E-02 0.  1.
       -1   -1    0    0    0  501  0.00000000000E+00  0.00000000000E+00 -0.16647437459E+03  0.16647437467E+03  0.50400001928E-02 0. -1.
    10030    2    1    2    0    0  0.00000000000E+00  0.00000000000E+00  0.58808800877E+03  0.92103675805E+03  0.70884497855E+03 0.  0.
        4    1    3    3  502    0  0.34986084709E+02 -0.18355894250E+03 -0.97264446776E+02  0.21066536736E+03  0.12699999809E+01 0. -1.
       -4    1    3    3    0  502 -0.34986084709E+02  0.18355894250E+03  0.68535245555E+03  0.71037139070E+03  0.12699999809E+01 0.  1.
</event>
<event>
 5   0  0.2689372E-02  0.8031730E+03  0.7818609E-02  0.9555436E-01
        1   -1    0    0  501    0  0.00000000000E+00  0.00000000000E+00  0.36652544521E+03  0.36652544525E+03  0.50400001928E-02 0. -1.
       -1   -1    0    0    0  501  0.00000000000E+00  0.00000000000E+00 -0.44000141280E+03  0.44000141282E+03  0.50400001928E-02 0.  1.
    10030    2    1    2    0    0  0.00000000000E+00  0.00000000000E+00 -0.73475967583E+02  0.80652685807E+03  0.80317299194E+03 0.  0.
        4    1    3    3  502    0  0.25520898322E+03  0.16374795229E+03 -0.30113402000E+03  0.42735035731E+03  0.12699999809E+01 0.  1.
       -4    1    3    3    0  502 -0.25520898322E+03 -0.16374795229E+03  0.22765805242E+03  0.37917650076E+03  0.12699999809E+01 0. -1.
</event>
<event>
 5   0  0.2635243E-02  0.7826506E+03  0.7818609E-02  0.9585475E-01
       -1   -1    0    0    0  501  0.00000000000E+00  0.00000000000E+00  0.29385957603E+03  0.29385957607E+03  0.50400001928E-02 0.  1.
        1   -1    0    0  501    0  0.00000000000E+00  0.00000000000E+00 -0.52111787580E+03  0.52111787582E+03  0.50400001928E-02 0. -1.
    10030    2    1    2    0    0  0.00000000000E+00  0.00000000000E+00 -0.22725829976E+03  0.81497745189E+03  0.78265056844E+03 0.  0.
        1    1    3    3  502    0 -0.52873474951E+02  0.88113991307E+02 -0.50681745703E+03  0.51713017181E+03  0.50400001928E-02 0. -1.
       -1    1    3    3    0  502  0.52873474951E+02 -0.88113991307E+02  0.27955915727E+03  0.29784728009E+03  0.50400001928E-02 0.  1.
</event>
<event>
 5   0  0.2759559E-02  0.7881831E+03  0.7818609E-02  0.9577281E-01
        1   -1    0    0  501    0  0.00000000000E+00  0.00000000000E+00  0.95066237450E+03  0.95066237451E+03  0.50400001928E-02 0.  1.
       -1   -1    0    0    0  501  0.00000000000E+00  0.00000000000E+00 -0.16336836531E+03  0.16336836538E+03  0.50400001928E-02 0. -1.
    10030    2    1    2    0    0  0.00000000000E+00  0.00000000000E+00  0.78729400919E+03  0.11140307399E+04  0.78818312118E+03 0.  0.
        3    1    3    3  502    0  0.16385978571E+03 -0.35128968827E+03  0.49412561805E+03  0.62802437140E+03  0.10100000352E+00 0.  1.
       -3    1    3    3    0  502 -0.16385978571E+03  0.35128968827E+03  0.29316839114E+03  0.48600636850E+03  0.10100000352E+00 0. -1.
</event>
<event>
 5   0  0.2689372E-02  0.7994867E+03  0.7818609E-02  0.9560760E-01
        1   -1    0    0  501    0  0.00000000000E+00  0.00000000000E+00  0.25251754845E+03  0.25251754850E+03  0.50400001928E-02 0.  1.
       -1   -1    0    0    0  501  0.00000000000E+00  0.00000000000E+00 -0.63280649640E+03  0.63280649642E+03  0.50400001928E-02 0. -1.
    10030    2    1    2    0    0  0.00000000000E+00  0.00000000000E+00 -0.38028894795E+03  0.88532404492E+03  0.79948669818E+03 0.  0.
        4    1    3    3  502    0 -0.13255513241E+03  0.33464951993E+03  0.23969707889E+01  0.35995627885E+03  0.12699999809E+01 0.  1.
       -4    1    3    3    0  502  0.13255513241E+03 -0.33464951993E+03 -0.38268591874E+03  0.52536776606E+03  0.12699999809E+01 0. -1.
</event>
<event>
 5   0  0.4663634E-02  0.7983478E+03  0.7818609E-02  0.9562412E-01
       -2   -1    0    0    0  501  0.00000000000E+00  0.00000000000E+00  0.10915157097E+03  0.10915157100E+03  0.25500000920E-02 0.  1.
        2   -1    0    0  501    0  0.00000000000E+00  0.00000000000E+00 -0.14598029568E+04  0.14598029568E+04  0.25500000920E-02 0. -1.
    10030    2    1    2    0    0  0.00000000000E+00  0.00000000000E+00 -0.13506513858E+04  0.15689545278E+04  0.79834775898E+03 0.  0.
        5    1    3    3  502    0  0.13681372345E+03 -0.25725739413E+03 -0.12114410142E+04  0.12459979064E+04  0.46999998093E+01 0. -1.
       -5    1    3    3    0  502 -0.13681372345E+03  0.25725739413E+03 -0.13921037160E+03  0.32295662142E+03  0.46999998093E+01 0.  1.
</event>
<event>
 5   0  0.2769394E-02  0.5222699E+03  0.7818609E-02  0.1008124E+00
        1   -1    0    0  501    0  0.00000000000E+00  0.00000000000E+00  0.98572668787E+03  0.98572668789E+03  0.50400001928E-02 0.  1.
       -1   -1    0    0    0  501  0.00000000000E+00  0.00000000000E+00 -0.69178862755E+02  0.69178862939E+02  0.50400001928E-02 0. -1.
    10030    2    1    2    0    0  0.00000000000E+00  0.00000000000E+00  0.91654782512E+03  0.10549055508E+04  0.52226985882E+03 0.  0.
        2    1    3    3  502    0  0.86458921991E+02 -0.24635520416E+03  0.44809028514E+03  0.51860479698E+03  0.25500000920E-02 0.  1.
       -2    1    3    3    0  502 -0.86458921991E+02  0.24635520416E+03  0.46845753998E+03  0.53630075385E+03  0.25500000920E-02 0. -1.
</event>
<event>
 5   0  0.2759559E-02  0.7069612E+03  0.7818609E-02  0.9705401E-01
       -1   -1    0    0    0  501  0.00000000000E+00  0.00000000000E+00  0.25792727775E+03  0.25792727780E+03  0.50400001928E-02 0. -1.
        1   -1    0    0  501    0  0.00000000000E+00  0.00000000000E+00 -0.48443325506E+03  0.48443325508E+03  0.50400001928E-02 0.  1.
    10030    2    1    2    0    0  0.00000000000E+00  0.00000000000E+00 -0.22650597731E+03  0.74236053288E+03  0.70696124577E+03 0.  0.
        3    1    3    3  502    0  0.23548273343E+03 -0.14820821111E+03 -0.34218503824E+03  0.44103106714E+03  0.10100000352E+00 0.  1.
       -3    1    3    3    0  502 -0.23548273343E+03  0.14820821111E+03  0.11567906093E+03  0.30132946574E+03  0.10100000352E+00 0. -1.
</event>
<event>
 5   0  0.2769394E-02  0.6394485E+03  0.7818609E-02  0.9826782E-01
       -1   -1    0    0    0  501  0.00000000000E+00  0.00000000000E+00  0.10362677062E+03  0.10362677075E+03  0.50400001928E-02 0.  1.
        1   -1    0    0  501    0  0.00000000000E+00  0.00000000000E+00 -0.98645923063E+03  0.98645923065E+03  0.50400001928E-02 0. -1.
    10030    2    1    2    0    0  0.00000000000E+00  0.00000000000E+00 -0.88283246001E+03  0.10900860014E+04  0.63944846390E+03 0.  0.
        2    1    3    3  502    0  0.39495329851E+02  0.29479810974E+01 -0.98226135365E+03  0.98305947865E+03  0.25500000920E-02 0. -1.
       -2    1    3    3    0  502 -0.39495329851E+02 -0.29479810974E+01  0.99428893644E+02  0.10702652274E+03  0.25500000920E-02 0.  1.
</event>
<event>
 5   0  0.4684283E-02  0.8252892E+03  0.7818609E-02  0.9524117E-01
       -2   -1    0    0    0  501  0.00000000000E+00  0.00000000000E+00  0.21401463788E+03  0.21401463790E+03  0.25500000920E-02 0. -1.
        2   -1    0    0  501    0  0.00000000000E+00  0.00000000000E+00 -0.79562570799E+03  0.79562570800E+03  0.25500000920E-02 0.  1.
    10030    2    1    2    0    0  0.00000000000E+00  0.00000000000E+00 -0.58161107011E+03  0.10096403459E+04  0.82528915610E+03 0.  0.
        1    1    3    3  502    0 -0.19406292272E+03  0.35982445379E+03 -0.22223641845E+03  0.46532040706E+03  0.50400001928E-02 0. -1.
       -1    1    3    3    0  502  0.19406292272E+03 -0.35982445379E+03 -0.35937465167E+03  0.54431993883E+03  0.50400001928E-02 0.  1.
</event>
<event>
 5   0  0.1786500E-02  0.8130168E+03  0.7818609E-02  0.9541365E-01
       -3   -1    0    0    0  501  0.00000000000E+00  0.00000000000E+00  0.33375941008E+03  0.33375942536E+03  0.10100000352E+00 0. -1.
        3   -1    0    0  501    0  0.00000000000E+00  0.00000000000E+00 -0.49511434189E+03  0.49511435219E+03  0.10100000352E+00 0.  1.
    10030    2    1    2    0    0  0.00000000000E+00  0.00000000000E+00 -0.16135493181E+03  0.82887377755E+03  0.81301680492E+03 0.  0.
        3    1    3    3  502    0  0.26098353729E+03 -0.31043557641E+03 -0.52453274454E+02  0.40894255102E+03  0.10100000352E+00 0. -1.
       -3    1    3    3    0  502 -0.26098353729E+03  0.31043557641E+03 -0.10890165735E+03  0.41993122652E+03  0.10100000352E+00 0.  1.
</event>
<event>
 5   0  0.2635243E-02  0.7951747E+03  0.7818609E-02  0.9567028E-01
        1   -1    0    0  501    0  0.00000000000E+00  0.00000000000E+00  0.11098608796E+03  0.11098608808E+03  0.50400001928E-02 0.  1.
       -1   -1    0    0    0  501  0.00000000000E+00  0.00000000000E+00 -0.14242840059E+04  0.14242840059E+04  0.50400001928E-02 0. -1.
    10030    2    1    2    0    0  0.00000000000E+00  0.00000000000E+00 -0.13132979180E+04  0.15352700940E+04  0.79517472309E+03 0.  0.
        1    1    3    3  502    0 -0.29359718782E+03  0.97520487808E+02 -0.17448281599E+03  0.35518137246E+03  0.50400001928E-02 0.  1.
       -1    1    3    3    0  502  0.29359718782E+03 -0.97520487808E+02 -0.11388151020E+04  0.11800887216E+04  0.50400001928E-02 0. -1.
</event>
<event>
 5   0  0.4377843E-02  0.7732159E+03  0.7818609E-02  0.9599616E-01
        2   -1    0    0  501    0  0.00000000000E+00  0.00000000000E+00  0.61009380314E+03  0.61009380315E+03  0.25500000920E-02 0.  1.
       -2   -1    0    0    0  501  0.00000000000E+00  0.00000000000E+00 -0.24498808727E+03  0.24498808729E+03  0.25500000920E-02 0. -1.
    10030    2    1    2    0    0  0.00000000000E+00  0.00000000000E+00  0.36510571587E+03  0.85508189044E+03  0.77321591783E+03 0.  0.
        2    1    3    3  502    0 -0.37793312387E+03  0.78043870622E+02  0.20828493738E+03  0.43852811427E+03  0.25500000920E-02 0. -1.
       -2    1    3    3    0  502  0.37793312387E+03 -0.78043870622E+02  0.15682077850E+03  0.41655377616E+03  0.25500000920E-02 0.  1.
</event>
<event>
 5   0  0.2606520E-02  0.8239124E+03  0.7818609E-02  0.9526036E-01
        1   -1    0    0  501    0  0.00000000000E+00  0.00000000000E+00  0.43292505283E+03  0.43292505286E+03  0.50400001928E-02 0.  1.
       -1   -1    0    0    0  501  0.00000000000E+00  0.00000000000E+00 -0.39200295688E+03  0.39200295691E+03  0.50400001928E-02 0. -1.
    10030    2    1    2    0    0  0.00000000000E+00  0.00000000000E+00  0.40922095949E+02  0.82492800977E+03  0.82391237602E+03 0.  0.
        5    1    3    3  502    0 -0.40908830024E+03 -0.45479875221E+02  0.36733910186E+02  0.41327125063E+03  0.46999998093E+01 0.  1.
       -5    1    3    3    0  502  0.40908830024E+03  0.45479875221E+02  0.41881857624E+01  0.41165675914E+03  0.46999998093E+01 0. -1.
</event>
<event>
 5   0  0.2689372E-02  0.8063376E+03  0.7818609E-02  0.9550889E-01
        1   -1    0    0  501    0  0.00000000000E+00  0.00000000000E+00  0.98133930342E+03  0.98133930343E+03  0.50400001928E-02 0.  1.
       -1   -1    0    0    0  501  0.00000000000E+00  0.00000000000E+00 -0.16563594788E+03  0.16563594796E+03  0.50400001928E-02 0. -1.
    10030    2    1    2    0    0  0.00000000000E+00  0.00000000000E+00  0.81570335554E+03  0.11469752514E+04  0.80633756149E+03 0.  0.
        4    1    3    3  502    0  0.56285758490E+01 -0.14713784694E+03  0.94172034117E+03  0.95316317635E+03  0.12699999809E+01 0.  1.
       -4    1    3    3    0  502 -0.56285758490E+01  0.14713784694E+03 -0.12601698563E+03  0.19381207505E+03  0.12699999809E+01 0. -1.
</event>
<event>
 5   0  0.2759559E-02  0.7846854E+03  0.7818609E-02  0.9582453E-01
       -1   -1    0    0    0  501  0.00000000000E+00  0.00000000000E+00  0.23830428347E+03  0.23830428352E+03  0.50400001928E-02 0. -1.
        1   -1    0    0  501    0  0.00000000000E+00  0.00000000000E+00 -0.64595053133E+03  0.64595053135E+03  0.50400001928E-02 0.  1.
    10030    2    1    2    0    0  0.00000000000E+00  0.00000000000E+00 -0.40764624786E+03  0.88425481487E+03  0.78468536002E+03 0.  0.
        3    1    3    3  502    0  0.38916488201E+03 -0.47265899337E+02 -0.18602688893E+03  0.43392324694E+03  0.10100000352E+00 0.  1.
       -3    1    3    3    0  502 -0.38916488201E+03  0.47265899337E+02 -0.22161935892E+03  0.45033156793E+03  0.10100000352E+00 0. -1.
</event>
<event>
 5   0  0.1786500E-02  0.8174794E+03  0.7818609E-02  0.9535055E-01
        3   -1    0    0  501    0  0.00000000000E+00  0.00000000000E+00  0.59295308355E+03  0.59295309215E+03  0.10100000352E+00 0. -1.
       -3   -1    0    0    0  501  0.00000000000E+00  0.00000000000E+00 -0.28175606147E+03  0.28175607957E+03  0.10100000352E+00 0.  1.
    10030    2    1    2    0    0  0.00000000000E+00  0.00000000000E+00  0.31119702208E+03  0.87470917172E+03  0.81747938722E+03 0.  0.
        1    1    3    3  502    0  0.34687408258E+03 -0.30719372033E+02  0.38459721105E+03  0.51882590891E+03  0.50400001928E-02 0. -1.
       -1    1    3    3    0  502 -0.34687408258E+03  0.30719372033E+02 -0.73400188966E+02  0.35588326281E+03  0.50400001928E-02 0.  1.
</event>
<event>
 5   0  0.4590462E-02  0.8107842E+03  0.7818609E-02  0.9544537E-01
        2   -1    0    0  501    0  0.00000000000E+00  0.00000000000E+00  0.21756661613E+03  0.21756661615E+03  0.25500000920E-02 0.  1.
       -2   -1    0    0    0  501  0.00000000000E+00  0.00000000000E+00 -0.75536752551E+03  0.75536752552E+03  0.25500000920E-02 0. -1.
    10030    2    1    2    0    0  0.00000000000E+00  0.00000000000E+00 -0.53780090938E+03  0.97293414167E+03  0.81078420427E+03 0.  0.
        3    1    3    3  502    0  0.34030375122E+02 -0.37574751496E+03 -0.44688182628E+03  0.58484838915E+03  0.10100000352E+00 0. -1.
       -3    1    3    3    0  502 -0.34030375122E+02  0.37574751496E+03 -0.90919083099E+02  0.38808575251E+03  0.10100000352E+00 0.  1.
</event>
<event>
 5   0  0.4700220E-02  0.7902270E+03  0.7818609E-02  0.9574272E-01
        2   -1    0    0  501    0  0.00000000000E+00  0.00000000000E+00  0.11592155056E+04  0.11592155056E+04  0.25500000920E-02 0. -1.
       -2   -1    0    0    0  501  0.00000000000E+00  0.00000000000E+00 -0.13467271142E+03  0.13467271144E+03  0.25500000920E-02 0.  1.
    10030    2    1    2    0    0  0.00000000000E+00  0.00000000000E+00  0.10245427942E+04  0.12938882171E+04  0.79022704402E+03 0.  0.
        4    1    3    3  502    0  0.10701705777E+03 -0.19749347378E+03  0.10444942430E+04  0.10683754767E+04  0.12699999809E+01 0.  1.
       -4    1    3    3    0  502 -0.10701705777E+03  0.19749347378E+03 -0.19951448751E+02  0.22551274032E+03  0.12699999809E+01 0. -1.
</event>
<event>
 5   0  0.2689372E-02  0.7949308E+03  0.7818609E-02  0.9567384E-01
       -1   -1    0    0    0  501  0.00000000000E+00  0.00000000000E+00  0.12882540585E+03  0.12882540595E+03  0.50400001928E-02 0.  1.
        1   -1    0    0  501    0  0.00000000000E+00  0.00000000000E+00 -0.12263010026E+04  0.12263010026E+04  0.50400001928E-02 0. -1.
    10030    2    1    2    0    0  0.00000000000E+00  0.00000000000E+00 -0.10974755967E+04  0.13551264086E+04  0.79493075027E+03 0.  0.
        4    1    3    3  502    0  0.29092823097E+03 -0.25519032061E+03 -0.39422131601E+03  0.55242501229E+03  0.12699999809E+01 0.  1.
       -4    1    3    3    0  502 -0.29092823097E+03  0.25519032061E+03 -0.70325428073E+03  0.80270139627E+03  0.12699999809E+01 0. -1.
</event>
<event>
 5   0  0.2606520E-02  0.8031467E+03  0.7818609E-02  0.9555474E-01
       -1   -1    0    0    0  501  0.00000000000E+00  0.00000000000E+00  0.33845314098E+03  0.33845314102E+03  0.50400001928E-02 0. -1.
        1   -1    0    0  501    0  0.00000000000E+00  0.00000000000E+00 -0.47646525143E+03  0.47646525145E+03  0.50400001928E-02 0.  1.
    10030    2    1    2    0    0  0.00000000000E+00  0.00000000000E+00 -0.13801211044E+03  0.81491839247E+03  0.80314671372E+03 0.  0.
        5    1    3    3  502    0 -0.16721571934E+03  0.36103999549E+03 -0.14101057933E+02  0.39816065221E+03  0.46999998093E+01 0. -1.
       -5    1    3    3    0  502  0.16721571934E+03 -0.36103999549E+03 -0.12391105251E+03  0.41675774026E+03  0.46999998093E+01 0.  1.
</event>
<event>
 5   0  0.4590462E-02  0.7089954E+03  0.7818609E-02  0.9701971E-01
        2   -1    0    0  501    0  0.00000000000E+00  0.00000000000E+00  0.52861159301E+03  0.52861159302E+03  0.25500000920E-02 0.  1.
       -2   -1    0    0    0  501  0.00000000000E+00  0.00000000000E+00 -0.23773338749E+03  0.23773338750E+03  0.25500000920E-02 0. -1.
    10030    2    1    2    0    0  0.00000000000E+00  0.00000000000E+00  0.29087820553E+03  0.76634498052E+03  0.70899541516E+03 0.  0.
        3    1    3    3  502    0  0.21961034784E+03 -0.21945820362E+03 -0.39509749941E+02  0.31297226483E+03  0.10100000352E+00 0. -1.
       -3    1    3    3    0  502 -0.21961034784E+03  0.21945820362E+03  0.33038795547E+03  0.45337271569E+03  0.10100000352E+00 0.  1.
</event>
<event>
 5   0  0.2689372E-02  0.8315961E+03  0.7818609E-02  0.9515376E-01
       -1   -1    0    0    0  501  0.00000000000E+00  0.00000000000E+00  0.16821284453E+03  0.16821284461E+03  0.50400001928E-02 0.  1.
        1   -1    0    0  501    0  0.00000000000E+00  0.00000000000E+00 -0.10277931998E+04  0.10277931998E+04  0.50400001928E-02 0. -1.
    10030    2    1    2    0    0  0.00000000000E+00  0.00000000000E+00 -0.85958035529E+03  0.11960060444E+04  0.83159609856E+03 0.  0.
        4    1    3    3  502    0  0.11833196207E+03  0.30112583573E+03 -0.54181180127E+02  0.32804944043E+03  0.12699999809E+01 0.  1.
       -4    1    3    3    0  502 -0.11833196207E+03 -0.30112583573E+03 -0.80539917516E+03  0.86795660401E+03  0.12699999809E+01 0. -1.
</event>
<event>
 5   0  0.4590462E-02  0.7980944E+03  0.7818609E-02  0.9562780E-01
        2   -1    0    0  501    0  0.00000000000E+00  0.00000000000E+00  0.32269590582E+03  0.32269590583E+03  0.25500000920E-02 0.  1.
       -2   -1    0    0    0  501  0.00000000000E+00  0.00000000000E+00 -0.49346351564E+03  0.49346351565E+03  0.25500000920E-02 0. -1.
    10030    2    1    2    0    0  0.00000000000E+00  0.00000000000E+00 -0.17076760982E+03  0.81615942148E+03  0.79809437081E+03 0.  0.
        3    1    3    3  502    0  0.96647701046E+02  0.20638070667E+02 -0.48075095601E+03  0.49080362670E+03  0.10100000352E+00 0. -1.
       -3    1    3    3    0  502 -0.96647701046E+02 -0.20638070667E+02  0.30998334619E+03  0.32535579478E+03  0.10100000352E+00 0.  1.
</event>
<event>
 5   0  0.2606520E-02  0.7978037E+03  0.7818609E-02  0.9563202E-01
        1   -1    0    0  501    0  0.00000000000E+00  0.00000000000E+00  0.33749028157E+03  0.33749028161E+03  0.50400001928E-02 0.  1.
       -1   -1    0    0    0  501  0.00000000000E+00  0.00000000000E+00 -0.47148816943E+03  0.47148816946E+03  0.50400001928E-02 0. -1.
    10030    2    1    2    0    0  0.00000000000E+00  0.00000000000E+00 -0.13399788786E+03  0.80897845107E+03  0.79780367281E+03 0.  0.
        5    1    3    3  502    0  0.31567441260E+03 -0.66352242708E+02 -0.30490759564E+03  0.44389603148E+03  0.46999998093E+01 0. -1.
       -5    1    3    3    0  502 -0.31567441260E+03  0.66352242708E+02  0.17090970778E+03  0.36508241959E+03  0.46999998093E+01 0.  1.
</event>
<event>
 5   0  0.2769394E-02  0.8198450E+03  0.7818609E-02  0.9531728E-01
        1   -1    0    0  501    0  0.00000000000E+00  0.00000000000E+00  0.45704815778E+03  0.45704815781E+03  0.50400001928E-02 0. -1.
       -1   -1    0    0    0  501  0.00000000000E+00  0.00000000000E+00 -0.36765589589E+03  0.36765589593E+03  0.50400001928E-02 0.  1.
    10030    2    1    2    0    0  0.00000000000E+00  0.00000000000E+00  0.89392261894E+02  0.82470405374E+03  0.81984498520E+03 0.  0.
        2    1    3    3  502    0 -0.40170117981E+03  0.69503441783E+02  0.87867665093E+02  0.41703152501E+03  0.25500000920E-02 0. -1.
       -2    1    3    3    0  502  0.40170117981E+03 -0.69503441783E+02  0.15245968012E+01  0.40767252873E+03  0.25500000920E-02 0.  1.
</event>
<event>
 5   0  0.4663634E-02  0.8185785E+03  0.7818609E-02  0.9533508E-01
       -2   -1    0    0    0  501  0.00000000000E+00  0.00000000000E+00  0.94571022763E+02  0.94571022798E+02  0.25500000920E-02 0.  1.
        2   -1    0    0  501    0  0.00000000000E+00  0.00000000000E+00 -0.17713425189E+04  0.17713425189E+04  0.25500000920E-02 0. -1.
    10030    2    1    2    0    0  0.00000000000E+00  0.00000000000E+00 -0.16767714962E+04  0.18659135417E+04  0.81857845981E+03 0.  0.
        5    1    3    3  502    0  0.23275887762E+03 -0.33354517431E+03 -0.94200715062E+03  0.10260743834E+04  0.46999998093E+01 0. -1.
       -5    1    3    3    0  502 -0.23275887762E+03  0.33354517431E+03 -0.73476434556E+03  0.83983915836E+03  0.46999998093E+01 0.  1.
</event>
<event>
 5   0  0.2635243E-02  0.7674732E+03  0.7818609E-02  0.9608330E-01
        1   -1    0    0  501    0  0.00000000000E+00  0.00000000000E+00  0.18078792926E+04  0.18078792927E+04  0.50400001928E-02 0. -1.
       -1   -1    0    0    0  501  0.00000000000E+00  0.00000000000E+00 -0.81451113521E+02  0.81451113676E+02  0.50400001928E-02 0.  1.
    10030    2    1    2    0    0  0.00000000000E+00  0.00000000000E+00  0.17264281791E+04  0.18893304063E+04  0.76747320905E+03 0.  0.
        1    1    3    3  502    0  0.28279900971E+03 -0.66792597779E+02  0.14802126519E+04  0.15084647911E+04  0.50400001928E-02 0. -1.
       -1    1    3    3    0  502 -0.28279900971E+03  0.66792597779E+02  0.24621552719E+03  0.38086561523E+03  0.50400001928E-02 0.  1.
</event>
<event>
 5   0  0.2635243E-02  0.7494358E+03  0.7818609E-02  0.9636236E-01
        1   -1    0    0  501    0  0.00000000000E+00  0.00000000000E+00  0.18213978043E+04  0.18213978043E+04  0.50400001928E-02 0.  1.
       -1   -1    0    0    0  501  0.00000000000E+00  0.00000000000E+00 -0.77091077145E+02  0.77091077310E+02  0.50400001928E-02 0. -1.
    10030    2    1    2    0    0  0.00000000000E+00  0.00000000000E+00  0.17443067271E+04  0.18984888816E+04  0.74943583796E+03 0.  0.
        1    1    3    3  502    0 -0.32600776610E+03 -0.17661159356E+03  0.10095279392E+04  0.10754624022E+04  0.50400001928E-02 0.  1.
       -1    1    3    3    0  502  0.32600776610E+03  0.17661159356E+03  0.73477878795E+03  0.82302647939E+03  0.50400001928E-02 0. -1.
</event>
<event>
 5   0  0.4663634E-02  0.7347193E+03  0.7818609E-02  0.9659633E-01
       -2   -1    0    0    0  501  0.00000000000E+00  0.00000000000E+00  0.12150022997E+03  0.12150023000E+03  0.25500000920E-02 0. -1.
        2   -1    0    0  501    0  0.00000000000E+00  0.00000000000E+00 -0.11107230481E+04  0.11107230481E+04  0.25500000920E-02 0.  1.
    10030    2    1    2    0    0  0.00000000000E+00  0.00000000000E+00 -0.98922281812E+03  0.12322232781E+04  0.73471928190E+03 0.  0.
        5    1    3    3  502    0  0.72073106043E+02  0.43275095103E+02  0.10509914075E+03  0.13466694418E+03  0.46999998093E+01 0. -1.
       -5    1    3    3    0  502 -0.72073106043E+02 -0.43275095103E+02 -0.10943219589E+04  0.10975563339E+04  0.46999998093E+01 0.  1.
</event>
<event>
 5   0  0.2689372E-02  0.8735835E+03  0.7818609E-02  0.9459219E-01
       -1   -1    0    0    0  501  0.00000000000E+00  0.00000000000E+00  0.29424783164E+03  0.29424783168E+03  0.50400001928E-02 0.  1.
        1   -1    0    0  501    0  0.00000000000E+00  0.00000000000E+00 -0.64838893890E+03  0.64838893892E+03  0.50400001928E-02 0. -1.
    10030    2    1    2    0    0  0.00000000000E+00  0.00000000000E+00 -0.35414110726E+03  0.94263677060E+03  0.87358351486E+03 0.  0.
        4    1    3    3  502    0  0.23409676016E+02  0.32606027083E+03 -0.48966276488E+03  0.58875678285E+03  0.12699999809E+01 0. -1.
       -4    1    3    3    0  502 -0.23409676016E+02 -0.32606027083E+03  0.13552165762E+03  0.35387998775E+03  0.12699999809E+01 0.  1.
</event>
<event>
 5   0  0.2635243E-02  0.8074587E+03  0.7818609E-02  0.9549283E-01
       -1   -1    0    0    0  501  0.00000000000E+00  0.00000000000E+00  0.85893205935E+03  0.85893205937E+03  0.50400001928E-02 0. -1.
        1   -1    0    0  501    0  0.00000000000E+00  0.00000000000E+00 -0.18976750712E+03  0.18976750719E+03  0.50400001928E-02 0.  1.
    10030    2    1    2    0    0  0.00000000000E+00  0.00000000000E+00  0.66916455223E+03  0.10486995666E+04  0.80745871903E+03 0.  0.
        1    1    3    3  502    0 -0.11809005352E+03  0.17342046741E+02  0.83549408940E+03  0.84397652857E+03  0.50400001928E-02 0. -1.
       -1    1    3    3    0  502  0.11809005352E+03 -0.17342046741E+02 -0.16632953716E+03  0.20472303799E+03  0.50400001928E-02 0.  1.
</event>
<event>
 5   0  0.4663634E-02  0.8082239E+03  0.7818609E-02  0.9548189E-01
       -2   -1    0    0    0  501  0.00000000000E+00  0.00000000000E+00  0.12837525957E+03  0.12837525959E+03  0.25500000920E-02 0. -1.
        2   -1    0    0  501    0  0.00000000000E+00  0.00000000000E+00 -0.12721022191E+04  0.12721022191E+04  0.25500000920E-02 0.  1.
    10030    2    1    2    0    0  0.00000000000E+00  0.00000000000E+00 -0.11437269595E+04  0.14004774787E+04  0.80822386155E+03 0.  0.
        5    1    3    3  502    0 -0.17771397093E+03  0.19539405920E+03 -0.41950814105E+02  0.26747533463E+03  0.46999998093E+01 0. -1.
       -5    1    3    3    0  502  0.17771397093E+03 -0.19539405920E+03 -0.11017761454E+04  0.11330021441E+04  0.46999998093E+01 0.  1.
</event>
<event>
 5   0  0.2606520E-02  0.7827193E+03  0.7818609E-02  0.9585373E-01
        1   -1    0    0  501    0  0.00000000000E+00  0.00000000000E+00  0.11587280593E+03  0.11587280604E+03  0.50400001928E-02 0. -1.
       -1   -1    0    0    0  501  0.00000000000E+00  0.00000000000E+00 -0.13218145212E+04  0.13218145212E+04  0.50400001928E-02 0.  1.
    10030    2    1    2    0    0  0.00000000000E+00  0.00000000000E+00 -0.12059417152E+04  0.14376873272E+04  0.78271925383E+03 0.  0.
        5    1    3    3  502    0 -0.55166075912E+02 -0.15646649779E+03  0.48026965414E+02  0.17278234941E+03  0.46999998093E+01 0. -1.
       -5    1    3    3    0  502  0.55166075912E+02  0.15646649779E+03 -0.12539686807E+04  0.12649049778E+04  0.46999998093E+01 0.  1.
</event>
<event>
 5   0  0.4590462E-02  0.7847713E+03  0.7818609E-02  0.9582325E-01
       -2   -1    0    0    0  501  0.00000000000E+00  0.00000000000E+00  0.19802848261E+03  0.19802848263E+03  0.25500000920E-02 0. -1.
        2   -1    0    0  501    0  0.00000000000E+00  0.00000000000E+00 -0.77749666600E+03  0.77749666601E+03  0.25500000920E-02 0.  1.
    10030    2    1    2    0    0  0.00000000000E+00  0.00000000000E+00 -0.57946818339E+03  0.97552514863E+03  0.78477126607E+03 0.  0.
        3    1    3    3  502    0  0.16870246172E+03  0.20523784647E+03 -0.64868505727E+03  0.70098174579E+03  0.10100000352E+00 0.  1.
       -3    1    3    3    0  502 -0.16870246172E+03 -0.20523784647E+03  0.69216873875E+02  0.27454340284E+03  0.10100000352E+00 0. -1.
</event>
<event>
 5   0  0.2769394E-02  0.7887019E+03  0.7818609E-02  0.9576516E-01
       -1   -1    0    0    0  501  0.00000000000E+00  0.00000000000E+00  0.56755291694E+03  0.56755291696E+03  0.50400001928E-02 0.  1.
        1   -1    0    0  501    0  0.00000000000E+00  0.00000000000E+00 -0.27400555795E+03  0.27400555800E+03  0.50400001928E-02 0. -1.
    10030    2    1    2    0    0  0.00000000000E+00  0.00000000000E+00  0.29354735899E+03  0.84155847496E+03  0.78870185420E+03 0.  0.
        2    1    3    3  502    0  0.13378881582E+03 -0.49968930011E+02 -0.24544234036E+03  0.28396880754E+03  0.25500000920E-02 0. -1.
       -2    1    3    3    0  502 -0.13378881582E+03  0.49968930011E+02  0.53898969935E+03  0.55758966742E+03  0.25500000920E-02 0.  1.
</event>
<event>
 5   0  0.2689372E-02  0.8025024E+03  0.7818609E-02  0.9556402E-01
        1   -1    0    0  501    0  0.00000000000E+00  0.00000000000E+00  0.34343374275E+03  0.34343374278E+03  0.50400001928E-02 0. -1.
       -1   -1    0    0    0  501  0.00000000000E+00  0.00000000000E+00 -0.46880226947E+03  0.46880226949E+03  0.50400001928E-02 0.  1.
    10030    2    1    2    0    0  0.00000000000E+00  0.00000000000E+00 -0.12536852672E+03  0.81223601228E+03  0.80250238140E+03 0.  0.
        4    1    3    3  502    0 -0.27308868441E+03 -0.29176577738E+03 -0.26244709746E+02  0.40049356560E+03  0.12699999809E+01 0. -1.
       -4    1    3    3    0  502  0.27308868441E+03  0.29176577738E+03 -0.99123816973E+02  0.41174244667E+03  0.12699999809E+01 0.  1.
</event>
<event>
 5   0  0.2635243E-02  0.7798466E+03  0.7818609E-02  0.9589655E-01
        1   -1    0    0  501    0  0.00000000000E+00  0.00000000000E+00  0.13259268044E+04  0.13259268044E+04  0.50400001928E-02 0.  1.
       -1   -1    0    0    0  501  0.00000000000E+00  0.00000000000E+00 -0.11466708853E+03  0.11466708864E+03  0.50400001928E-02 0. -1.
    10030    2    1    2    0    0  0.00000000000E+00  0.00000000000E+00  0.12112597159E+04  0.14405938931E+04  0.77984656529E+03 0.  0.
        1    1    3    3  502    0  0.37278512290E+03 -0.10610494438E+03  0.52697050307E+03  0.65415970391E+03  0.50400001928E-02 0. -1.
       -1    1    3    3    0  502 -0.37278512290E+03  0.10610494438E+03  0.68428921281E+03  0.78643418916E+03  0.50400001928E-02 0.  1.
</event>
<event>
 5   0  0.2689372E-02  0.8089072E+03  0.7818609E-02  0.9547213E-01
        1   -1    0    0  501    0  0.00000000000E+00  0.00000000000E+00  0.14615383620E+04  0.14615383620E+04  0.50400001928E-02 0. -1.
       -1   -1    0    0    0  501  0.00000000000E+00  0.00000000000E+00 -0.11192501332E+03  0.11192501344E+03  0.50400001928E-02 0.  1.
    10030    2    1    2    0    0  0.00000000000E+00  0.00000000000E+00  0.13496133487E+04  0.15734633755E+04  0.80890716585E+03 0.  0.
        4    1    3    3  502    0 -0.20976633411E+03  0.32531838482E+03  0.90287440435E+03  0.98235317954E+03  0.12699999809E+01 0. -1.
       -4    1    3    3    0  502  0.20976633411E+03 -0.32531838482E+03  0.44673894436E+03  0.59111019593E+03  0.12699999809E+01 0.  1.
</event>
<event>
 5   0  0.4377843E-02  0.8091652E+03  0.7818609E-02  0.9546845E-01
       -2   -1    0    0    0  501  0.00000000000E+00  0.00000000000E+00  0.34702308568E+03  0.34702308569E+03  0.25500000920E-02 0.  1.
        2   -1    0    0  501    0  0.00000000000E+00  0.00000000000E+00 -0.47168934397E+03  0.47168934398E+03  0.25500000920E-02 0. -1.
    10030    2    1    2    0    0  0.00000000000E+00  0.00000000000E+00 -0.12466625829E+03  0.81871242967E+03  0.80916522820E+03 0.  0.
        2    1    3    3  502    0  0.35276629812E+03  0.89730364492E+01 -0.26256327331E+03  0.43984548306E+03  0.25500000920E-02 0. -1.
       -2    1    3    3    0  502 -0.35276629812E+03 -0.89730364492E+01  0.13789701502E+03  0.37886694660E+03  0.25500000920E-02 0.  1.
</event>
<event>
 5   0  0.4684283E-02  0.8008590E+03  0.7818609E-02  0.9558775E-01
        2   -1    0    0  501    0  0.00000000000E+00  0.00000000000E+00  0.49487709697E+03  0.49487709698E+03  0.25500000920E-02 0. -1.
       -2   -1    0    0    0  501  0.00000000000E+00  0.00000000000E+00 -0.32400728716E+03  0.32400728717E+03  0.25500000920E-02 0.  1.
    10030    2    1    2    0    0  0.00000000000E+00  0.00000000000E+00  0.17086980981E+03  0.81888438415E+03  0.80085900300E+03 0.  0.
        1    1    3    3  502    0  0.34953890808E+03  0.11994313938E+03  0.24311333095E+03  0.44234364091E+03  0.50400001928E-02 0. -1.
       -1    1    3    3    0  502 -0.34953890808E+03 -0.11994313938E+03 -0.72243521136E+02  0.37654074323E+03  0.50400001928E-02 0.  1.
</event>
<event>
 5   0  0.4590462E-02  0.8181168E+03  0.7818609E-02  0.9534158E-01
        2   -1    0    0  501    0  0.00000000000E+00  0.00000000000E+00  0.42973424264E+03  0.42973424264E+03  0.25500000920E-02 0. -1.
       -2   -1    0    0    0  501  0.00000000000E+00  0.00000000000E+00 -0.38937731821E+03  0.38937731821E+03  0.25500000920E-02 0.  1.
    10030    2    1    2    0    0  0.00000000000E+00  0.00000000000E+00  0.40356924432E+02  0.81911156086E+03  0.81811678126E+03 0.  0.
        3    1    3    3  502    0 -0.25312822829E+02 -0.16286399936E+03  0.39501763126E+03  0.42802378496E+03  0.10100000352E+00 0. -1.
       -3    1    3    3    0  502  0.25312822829E+02  0.16286399936E+03 -0.35466070683E+03  0.39108777590E+03  0.10100000352E+00 0.  1.
</event>
<event>
 5   0  0.4684283E-02  0.7610381E+03  0.7818609E-02  0.9618191E-01
        2   -1    0    0  501    0  0.00000000000E+00  0.00000000000E+00  0.17502840916E+04  0.17502840916E+04  0.25500000920E-02 0. -1.
       -2   -1    0    0    0  501  0.00000000000E+00  0.00000000000E+00 -0.82726426016E+02  0.82726426055E+02  0.25500000920E-02 0.  1.
    10030    2    1    2    0    0  0.00000000000E+00  0.00000000000E+00  0.16675576656E+04  0.18330105177E+04  0.76103810010E+03 0.  0.
        1    1    3    3  502    0  0.16890894125E+03 -0.19770467378E+03  0.16465951243E+03  0.30778259133E+03  0.50400001928E-02 0.  1.
       -1    1    3    3    0  502 -0.16890894125E+03  0.19770467378E+03  0.15028981532E+04  0.15252279263E+04  0.50400001928E-02 0. -1.
</event>
<event>
 5   0  0.4700220E-02  0.8155147E+03  0.7818609E-02  0.9537828E-01
        2   -1    0    0  501    0  0.00000000000E+00  0.00000000000E+00  0.25752947277E+03  0.25752947278E+03  0.25500000920E-02 0. -1.
       -2   -1    0    0    0  501  0.00000000000E+00  0.00000000000E+00 -0.64561958256E+03  0.64561958257E+03  0.25500000920E-02 0.  1.
    10030    2    1    2    0    0  0.00000000000E+00  0.00000000000E+00 -0.38809010979E+03  0.90314905535E+03  0.81551473491E+03 0.  0.
        4    1    3    3  502    0  0.28159357724E+02 -0.13062635010E+03  0.23259012459E+03  0.26824610290E+03  0.12699999809E+01 0. -1.
       -4    1    3    3    0  502 -0.28159357724E+02  0.13062635010E+03 -0.62068023438E+03  0.63490295244E+03  0.12699999809E+01 0.  1.
</event>
<event>
 5   0  0.2759559E-02  0.8043204E+03  0.7818609E-02  0.9553785E-01
        1   -1    0    0  501    0  0.00000000000E+00  0.00000000000E+00  0.22714840289E+03  0.22714840294E+03  0.50400001928E-02 0.  1.
       -1   -1    0    0    0  501  0.00000000000E+00  0.00000000000E+00 -0.71201384010E+03  0.71201384012E+03  0.50400001928E-02 0. -1.
    10030    2    1    2    0    0  0.00000000000E+00  0.00000000000E+00 -0.48486543722E+03  0.93916224307E+03  0.80432035073E+03 0.  0.
        3    1    3    3  502    0 -0.58406261132E+01 -0.60673817405E+02  0.22172329731E+03  0.22994924615E+03  0.10100000352E+00 0.  1.
       -3    1    3    3    0  502  0.58406261132E+01  0.60673817405E+02 -0.70658873453E+03  0.70921299692E+03  0.10100000352E+00 0. -1.
</event>
<event>
 5   0  0.2635243E-02  0.7972539E+03  0.7818609E-02  0.9564001E-01
        1   -1    0    0  501    0  0.00000000000E+00  0.00000000000E+00  0.79772483060E+03  0.79772483061E+03  0.50400001928E-02 0. -1.
       -1   -1    0    0    0  501  0.00000000000E+00  0.00000000000E+00 -0.19919581040E+03  0.19919581046E+03  0.50400001928E-02 0.  1.
    10030    2    1    2    0    0  0.00000000000E+00  0.00000000000E+00  0.59852902020E+03  0.99692064107E+03  0.79725389719E+03 0.  0.
        1    1    3    3  502    0 -0.28431415533E+03 -0.18916890774E+03  0.42134882392E+02  0.34408540061E+03  0.50400001928E-02 0.  1.
       -1    1    3    3    0  502  0.28431415533E+03  0.18916890774E+03  0.55639413781E+03  0.65283524046E+03  0.50400001928E-02 0. -1.
</event>
<event>
 5   0  0.2606520E-02  0.8035564E+03  0.7818609E-02  0.9554884E-01
        1   -1    0    0  501    0  0.00000000000E+00  0.00000000000E+00  0.76502503653E+03  0.76502503654E+03  0.50400001928E-02 0. -1.
       -1   -1    0    0    0  501  0.00000000000E+00  0.00000000000E+00 -0.21100712422E+03  0.21100712428E+03  0.50400001928E-02 0.  1.
    10030    2    1    2    0    0  0.00000000000E+00  0.00000000000E+00  0.55401791230E+03  0.97603216083E+03  0.80355642728E+03 0.  0.
        5    1    3    3  502    0 -0.33331616447E+03 -0.88892757099E+02  0.26893112844E+02  0.34604467526E+03  0.46999998093E+01 0.  1.
       -5    1    3    3    0  502  0.33331616447E+03  0.88892757099E+02  0.52712479946E+03  0.62998748556E+03  0.46999998093E+01 0. -1.
</event>
<event>
 5   0  0.2635243E-02  0.7927630E+03  0.7818609E-02  0.9570552E-01
        1   -1    0    0  501    0  0.00000000000E+00  0.00000000000E+00  0.10085798384E+04  0.10085798384E+04  0.50400001928E-02 0. -1.
       -1   -1    0    0    0  501  0.00000000000E+00  0.00000000000E+00 -0.15578171209E+03  0.15578171218E+03  0.50400001928E-02 0.  1.
    10030    2    1    2    0    0  0.00000000000E+00  0.00000000000E+00  0.85279812627E+03  0.11643615506E+04  0.79276300130E+03 0.  0.
        1    1    3    3  502    0  0.32336428761E+03 -0.19121197127E+03  0.61213388849E+03  0.71821610809E+03  0.50400001928E-02 0. -1.
       -1    1    3    3    0  502 -0.32336428761E+03  0.19121197127E+03  0.24066423778E+03  0.44614544246E+03  0.50400001928E-02 0.  1.
</event>
<event>
 5   0  0.2689372E-02  0.7809853E+03  0.7818609E-02  0.9587955E-01
       -1   -1    0    0    0  501  0.00000000000E+00  0.00000000000E+00  0.26912486186E+03  0.26912486191E+03  0.50400001928E-02 0.  1.
        1   -1    0    0  501    0  0.00000000000E+00  0.00000000000E+00 -0.56659398602E+03  0.56659398605E+03  0.50400001928E-02 0. -1.
    10030    2    1    2    0    0  0.00000000000E+00  0.00000000000E+00 -0.29746912416E+03  0.83571884796E+03  0.78098534750E+03 0.  0.
        4    1    3    3  502    0  0.21463250308E+02  0.32399978901E+03  0.83368260274E+02  0.33524381294E+03  0.12699999809E+01 0.  1.
       -4    1    3    3    0  502 -0.21463250308E+02 -0.32399978901E+03 -0.38083738443E+03  0.50047503502E+03  0.12699999809E+01 0. -1.
</event>
<event>
 5   0  0.2759559E-02  0.8919087E+03  0.7818609E-02  0.9435753E-01
       -1   -1    0    0    0  501  0.00000000000E+00  0.00000000000E+00  0.34062517864E+03  0.34062517867E+03  0.50400001928E-02 0. -1.
        1   -1    0    0  501    0  0.00000000000E+00  0.00000000000E+00 -0.58385376727E+03  0.58385376729E+03  0.50400001928E-02 0.  1.
    10030    2    1    2    0    0  0.00000000000E+00  0.00000000000E+00 -0.24322858864E+03  0.92447894597E+03  0.89190872583E+03 0.  0.
        3    1    3    3  502    0 -0.28993253808E+03  0.31137255443E+02  0.22811608650E+03  0.37022609907E+03  0.10100000352E+00 0. -1.
       -3    1    3    3    0  502  0.28993253808E+03 -0.31137255443E+02 -0.47134467513E+03  0.55425284689E+03  0.10100000352E+00 0.  1.
</event>
<event>
 5   0  0.4700220E-02  0.8110939E+03  0.7818609E-02  0.9544097E-01
       -2   -1    0    0    0  501  0.00000000000E+00  0.00000000000E+00  0.13177325760E+03  0.13177325762E+03  0.25500000920E-02 0. -1.
        2   -1    0    0  501    0  0.00000000000E+00  0.00000000000E+00 -0.12481161810E+04  0.12481161811E+04  0.25500000920E-02 0.  1.
    10030    2    1    2    0    0  0.00000000000E+00  0.00000000000E+00 -0.11163429235E+04  0.13798894387E+04  0.81109391578E+03 0.  0.
        4    1    3    3  502    0  0.16653811182E+03  0.26254988724E+03 -0.11518967768E+03  0.33156848572E+03  0.12699999809E+01 0. -1.
       -4    1    3    3    0  502 -0.16653811182E+03 -0.26254988724E+03 -0.10011532458E+04  0.10483209529E+04  0.12699999809E+01 0.  1.
</event>
<event>
 5   0  0.2769394E-02  0.8067794E+03  0.7818609E-02  0.9550256E-01
        1   -1    0    0  501    0  0.00000000000E+00  0.00000000000E+00  0.68069803439E+03  0.68069803441E+03  0.50400001928E-02 0. -1.
       -1   -1    0    0    0  501  0.00000000000E+00  0.00000000000E+00 -0.23905351067E+03  0.23905351072E+03  0.50400001928E-02 0.  1.
    10030    2    1    2    0    0  0.00000000000E+00  0.00000000000E+00  0.44164452372E+03  0.91975154514E+03  0.80677941189E+03 0.  0.
        2    1    3    3  502    0  0.28366683228E+03 -0.25268806821E+03  0.37548478281E+03  0.53414132370E+03  0.25500000920E-02 0.  1.
       -2    1    3    3    0  502 -0.28366683228E+03  0.25268806821E+03  0.66159740908E+02  0.38561022144E+03  0.25500000920E-02 0. -1.
</event>
<event>
 5   0  0.2759559E-02  0.9500328E+03  0.7818609E-02  0.9365112E-01
        1   -1    0    0  501    0  0.00000000000E+00  0.00000000000E+00  0.30630346489E+03  0.30630346493E+03  0.50400001928E-02 0.  1.
       -1   -1    0    0    0  501  0.00000000000E+00  0.00000000000E+00 -0.73665694635E+03  0.73665694637E+03  0.50400001928E-02 0. -1.
    10030    2    1    2    0    0  0.00000000000E+00  0.00000000000E+00 -0.43035348146E+03  0.10429604113E+04  0.95003278918E+03 0.  0.
        3    1    3    3  502    0 -0.65883652372E+02  0.20419181961E+03  0.25007625489E+03  0.32950432213E+03  0.10100000352E+00 0.  1.
       -3    1    3    3    0  502  0.65883652372E+02 -0.20419181961E+03 -0.68042973635E+03  0.71345608916E+03  0.10100000352E+00 0. -1.
</event>
<event>
 5   0  0.4663634E-02  0.7732705E+03  0.7818609E-02  0.9599534E-01
       -2   -1    0    0    0  501  0.00000000000E+00  0.00000000000E+00  0.57794879940E+03  0.57794879940E+03  0.25500000920E-02 0. -1.
        2   -1    0    0  501    0  0.00000000000E+00  0.00000000000E+00 -0.25865062200E+03  0.25865062201E+03  0.25500000920E-02 0.  1.
    10030    2    1    2    0    0  0.00000000000E+00  0.00000000000E+00  0.31929817740E+03  0.83659942141E+03  0.77327049978E+03 0.  0.
        5    1    3    3  502    0  0.34521496189E+03  0.16845307580E+03  0.11230549881E+03  0.40023046326E+03  0.46999998093E+01 0.  1.
       -5    1    3    3    0  502 -0.34521496189E+03 -0.16845307580E+03  0.20699267858E+03  0.43636895816E+03  0.46999998093E+01 0. -1.
</event>
<event>
 5   0  0.2769394E-02  0.7956250E+03  0.7818609E-02  0.9566371E-01
       -1   -1    0    0    0  501  0.00000000000E+00  0.00000000000E+00  0.99596522460E+02  0.99596522588E+02  0.50400001928E-02 0.  1.
        1   -1    0    0  501    0  0.00000000000E+00  0.00000000000E+00 -0.15889588383E+04  0.15889588383E+04  0.50400001928E-02 0. -1.
    10030    2    1    2    0    0  0.00000000000E+00  0.00000000000E+00 -0.14893623159E+04  0.16885553609E+04  0.79562497383E+03 0.  0.
        2    1    3    3  502    0  0.94491040547E+02 -0.24750706808E+03 -0.13744949832E+04  0.13997945436E+04  0.25500000920E-02 0. -1.
       -2    1    3    3    0  502 -0.94491040547E+02  0.24750706808E+03 -0.11486733268E+03  0.28876081732E+03  0.25500000920E-02 0.  1.
</event>
<event>
 5   0  0.2759559E-02  0.8097952E+03  0.7818609E-02  0.9545946E-01
        1   -1    0    0  501    0  0.00000000000E+00  0.00000000000E+00  0.13191624397E+03  0.13191624406E+03  0.50400001928E-02 0.  1.
       -1   -1    0    0    0  501  0.00000000000E+00  0.00000000000E+00 -0.12427739891E+04  0.12427739891E+04  0.50400001928E-02 0. -1.
    10030    2    1    2    0    0  0.00000000000E+00  0.00000000000E+00 -0.11108577451E+04  0.13746902332E+04  0.80979522551E+03 0.  0.
        3    1    3    3  502    0 -0.24599846364E+02  0.37341597219E+03 -0.29300387794E+03  0.47528509698E+03  0.10100000352E+00 0.  1.
       -3    1    3    3    0  502  0.24599846364E+02 -0.37341597219E+03 -0.81785386720E+03  0.89940513620E+03  0.10100000352E+00 0. -1.
</event>
<event>
 5   0  0.2606520E-02  0.8019628E+03  0.7818609E-02  0.9557180E-01
       -1   -1    0    0    0  501  0.00000000000E+00  0.00000000000E+00  0.78433901821E+03  0.78433901823E+03  0.50400001928E-02 0.  1.
        1   -1    0    0  501    0  0.00000000000E+00  0.00000000000E+00 -0.20499563041E+03  0.20499563048E+03  0.50400001928E-02 0. -1.
    10030    2    1    2    0    0  0.00000000000E+00  0.00000000000E+00  0.57934338780E+03  0.98933464870E+03  0.80196277104E+03 0.  0.
        5    1    3    3  502    0 -0.25204021001E+03 -0.13886575692E+03  0.63411189055E+03  0.69636767992E+03  0.46999998093E+01 0.  1.
       -5    1    3    3    0  502  0.25204021001E+03  0.13886575692E+03 -0.54768502754E+02  0.29296696878E+03  0.46999998093E+01 0. -1.
</event>
<event>
 5   0  0.4377843E-02  0.7860006E+03  0.7818609E-02  0.9580505E-01
       -2   -1    0    0    0  501  0.00000000000E+00  0.00000000000E+00  0.60551694353E+03  0.60551694353E+03  0.25500000920E-02 0.  1.
        2   -1    0    0  501    0  0.00000000000E+00  0.00000000000E+00 -0.25507001733E+03  0.25507001734E+03  0.25500000920E-02 0. -1.
    10030    2    1    2    0    0  0.00000000000E+00  0.00000000000E+00  0.35044692620E+03  0.86058696087E+03  0.78600055289E+03 0.  0.
        2    1    3    3  502    0 -0.25650896309E+03 -0.13402878370E+03 -0.11587959448E+03  0.31175093172E+03  0.25500000920E-02 0.  1.
       -2    1    3    3    0  502  0.25650896309E+03  0.13402878370E+03  0.46632652068E+03  0.54883602916E+03  0.25500000920E-02 0. -1.
</event>
<event>
 5   0  0.4377843E-02  0.8078923E+03  0.7818609E-02  0.9548663E-01
        2   -1    0    0  501    0  0.00000000000E+00  0.00000000000E+00  0.64361526834E+03  0.64361526834E+03  0.25500000920E-02 0. -1.
       -2   -1    0    0    0  501  0.00000000000E+00  0.00000000000E+00 -0.25352490844E+03  0.25352490845E+03  0.25500000920E-02 0.  1.
    10030    2    1    2    0    0  0.00000000000E+00  0.00000000000E+00  0.39009035989E+03  0.89714017680E+03  0.80789232447E+03 0.  0.
        2    1    3    3  502    0  0.19985419993E+03  0.32093851459E+03  0.37103433434E+02  0.37989458558E+03  0.25500000920E-02 0.  1.
       -2    1    3    3    0  502 -0.19985419993E+03 -0.32093851459E+03  0.35298692646E+03  0.51724559122E+03  0.25500000920E-02 0. -1.
</event>
<event>
 5   0  0.4663634E-02  0.8021570E+03  0.7818609E-02  0.9556900E-01
       -2   -1    0    0    0  501  0.00000000000E+00  0.00000000000E+00  0.36768746708E+03  0.36768746709E+03  0.25500000920E-02 0. -1.
        2   -1    0    0  501    0  0.00000000000E+00  0.00000000000E+00 -0.43750193092E+03  0.43750193093E+03  0.25500000920E-02 0.  1.
    10030    2    1    2    0    0  0.00000000000E+00  0.00000000000E+00 -0.69814463842E+02  0.80518939802E+03  0.80215703407E+03 0.  0.
        5    1    3    3  502    0 -0.33800932566E+03 -0.21447882224E+03 -0.59297592966E+02  0.40470948093E+03  0.46999998093E+01 0. -1.
       -5    1    3    3    0  502  0.33800932566E+03  0.21447882224E+03 -0.10516870876E+02  0.40047991709E+03  0.46999998093E+01 0.  1.
</event>
<event>
 5   0  0.4700220E-02  0.7955057E+03  0.7818609E-02  0.9566545E-01
        2   -1    0    0  501    0  0.00000000000E+00  0.00000000000E+00  0.38142662819E+03  0.38142662820E+03  0.25500000920E-02 0. -1.
       -2   -1    0    0    0  501  0.00000000000E+00  0.00000000000E+00 -0.41477785381E+03  0.41477785382E+03  0.25500000920E-02 0.  1.
    10030    2    1    2    0    0  0.00000000000E+00  0.00000000000E+00 -0.33351225619E+02  0.79620448202E+03  0.79550567122E+03 0.  0.
        4    1    3    3  502    0  0.36837667640E+03  0.14768153404E+03  0.97007935741E+01  0.39699739232E+03  0.12699999809E+01 0. -1.
       -4    1    3    3    0  502 -0.36837667640E+03 -0.14768153404E+03 -0.43052019193E+02  0.39920708970E+03  0.12699999809E+01 0.  1.
</event>
<event>
 5   0  0.2635243E-02  0.7563304E+03  0.7818609E-02  0.9625471E-01
       -1   -1    0    0    0  501  0.00000000000E+00  0.00000000000E+00  0.31078274757E+03  0.31078274762E+03  0.50400001928E-02 0. -1.
        1   -1    0    0  501    0  0.00000000000E+00  0.00000000000E+00 -0.46015721013E+03  0.46015721016E+03  0.50400001928E-02 0.  1.
    10030    2    1    2    0    0  0.00000000000E+00  0.00000000000E+00 -0.14937446256E+03  0.77093995777E+03  0.75633040956E+03 0.  0.
        1    1    3    3  502    0  0.28275439755E+03  0.85250524480E+02  0.16607697706E+03  0.33882040020E+03  0.50400001928E-02 0. -1.
       -1    1    3    3    0  502 -0.28275439755E+03 -0.85250524480E+02 -0.31545143961E+03  0.43211955757E+03  0.50400001928E-02 0.  1.
</event>
<event>
 5   0  0.4700220E-02  0.7988433E+03  0.7818609E-02  0.9561693E-01
        2   -1    0    0  501    0  0.00000000000E+00  0.00000000000E+00  0.39231336896E+03  0.39231336897E+03  0.25500000920E-02 0. -1.
       -2   -1    0    0    0  501  0.00000000000E+00  0.00000000000E+00 -0.40665874598E+03  0.40665874599E+03  0.25500000920E-02 0.  1.
    10030    2    1    2    0    0  0.00000000000E+00  0.00000000000E+00 -0.14345377013E+02  0.79897211496E+03  0.79884332046E+03 0.  0.
        4    1    3    3  502    0  0.24346464111E+03 -0.49983940753E+02 -0.31989325115E+03  0.40510088970E+03  0.12699999809E+01 0.  1.
       -4    1    3    3    0  502 -0.24346464111E+03  0.49983940753E+02  0.30554787413E+03  0.39387122526E+03  0.12699999809E+01 0. -1.
</event>
<event>
 5   0  0.2689372E-02  0.8041328E+03  0.7818609E-02  0.9554054E-01
       -1   -1    0    0    0  501  0.00000000000E+00  0.00000000000E+00  0.89656030592E+02  0.89656030734E+02  0.50400001928E-02 0. -1.
        1   -1    0    0  501    0  0.00000000000E+00  0.00000000000E+00 -0.18030842979E+04  0.18030842979E+04  0.50400001928E-02 0.  1.
    10030    2    1    2    0    0  0.00000000000E+00  0.00000000000E+00 -0.17134282673E+04  0.18927403286E+04  0.80413277787E+03 0.  0.
        4    1    3    3  502    0 -0.29736739132E+03 -0.94416733600E+01 -0.14932729603E+04  0.15226234785E+04  0.12699999809E+01 0.  1.
       -4    1    3    3    0  502  0.29736739132E+03  0.94416733600E+01 -0.22015530704E+03  0.37011685011E+03  0.12699999809E+01 0. -1.
</event>
<event>
 5   0  0.4684283E-02  0.7987521E+03  0.7818609E-02  0.9561825E-01
       -2   -1    0    0    0  501  0.00000000000E+00  0.00000000000E+00  0.21360151088E+03  0.21360151090E+03  0.25500000920E-02 0. -1.
        2   -1    0    0  501    0  0.00000000000E+00  0.00000000000E+00 -0.74672336046E+03  0.74672336047E+03  0.25500000920E-02 0.  1.
    10030    2    1    2    0    0  0.00000000000E+00  0.00000000000E+00 -0.53312184958E+03  0.96032487136E+03  0.79875212178E+03 0.  0.
        1    1    3    3  502    0  0.96518115815E+02 -0.21055168601E+03  0.12460293214E+03  0.26300883994E+03  0.50400001928E-02 0. -1.
       -1    1    3    3    0  502 -0.96518115815E+02  0.21055168601E+03 -0.65772478172E+03  0.69731603142E+03  0.50400001928E-02 0.  1.
</event>
<event>
 5   0  0.2759559E-02  0.7892822E+03  0.7818609E-02  0.9575662E-01
       -1   -1    0    0    0  501  0.00000000000E+00  0.00000000000E+00  0.18937510245E+03  0.18937510252E+03  0.50400001928E-02 0.  1.
        1   -1    0    0  501    0  0.00000000000E+00  0.00000000000E+00 -0.82239748295E+03  0.82239748297E+03  0.50400001928E-02 0. -1.
    10030    2    1    2    0    0  0.00000000000E+00  0.00000000000E+00 -0.63302238050E+03  0.10117725855E+04  0.78928222489E+03 0.  0.
        3    1    3    3  502    0 -0.24446235447E+03  0.39246968040E+02 -0.71044863581E+03  0.75235592745E+03  0.10100000352E+00 0. -1.
       -3    1    3    3    0  502  0.24446235447E+03 -0.39246968040E+02  0.77426255305E+02  0.25941665804E+03  0.10100000352E+00 0.  1.
</event>
<event>
 5   0  0.4590462E-02  0.8057488E+03  0.7818609E-02  0.9551733E-01
       -2   -1    0    0    0  501  0.00000000000E+00  0.00000000000E+00  0.11936190093E+03  0.11936190096E+03  0.25500000920E-02 0.  1.
        2   -1    0    0  501    0  0.00000000000E+00  0.00000000000E+00 -0.13597956658E+04  0.13597956658E+04  0.25500000920E-02 0. -1.
    10030    2    1    2    0    0  0.00000000000E+00  0.00000000000E+00 -0.12404337649E+04  0.14791575667E+04  0.80574883324E+03 0.  0.
        3    1    3    3  502    0 -0.17007032817E+03  0.34853135637E+03 -0.82055625260E+03  0.90758503557E+03  0.10100000352E+00 0. -1.
       -3    1    3    3    0  502  0.17007032817E+03 -0.34853135637E+03 -0.41987751226E+03  0.57157253118E+03  0.10100000352E+00 0.  1.
</event>
<event>
 5   0  0.2606520E-02  0.8087345E+03  0.7818609E-02  0.9547460E-01
       -1   -1    0    0    0  501  0.00000000000E+00  0.00000000000E+00  0.11520484880E+03  0.11520484891E+03  0.50400001928E-02 0.  1.
        1   -1    0    0  501    0  0.00000000000E+00  0.00000000000E+00 -0.14193228821E+04  0.14193228821E+04  0.50400001928E-02 0. -1.
    10030    2    1    2    0    0  0.00000000000E+00  0.00000000000E+00 -0.13041180333E+04  0.15345277310E+04  0.80873451297E+03 0.  0.
        5    1    3    3  502    0  0.36088956436E+03 -0.19642239298E+02 -0.30808396404E+03  0.47493674750E+03  0.46999998093E+01 0.  1.
       -5    1    3    3    0  502 -0.36088956436E+03  0.19642239298E+02 -0.99603406922E+03  0.10595909835E+04  0.46999998093E+01 0. -1.
</event>
<event>
 5   0  0.4684283E-02  0.7740346E+03  0.7818609E-02  0.9598381E-01
        2   -1    0    0  501    0  0.00000000000E+00  0.00000000000E+00  0.53250715726E+03  0.53250715727E+03  0.25500000920E-02 0.  1.
       -2   -1    0    0    0  501  0.00000000000E+00  0.00000000000E+00 -0.28127771609E+03  0.28127771610E+03  0.25500000920E-02 0. -1.
    10030    2    1    2    0    0  0.00000000000E+00  0.00000000000E+00  0.25122944117E+03  0.81378487337E+03  0.77403461681E+03 0.  0.
        1    1    3    3  502    0 -0.21347537047E+03 -0.65970401389E+02 -0.20661761467E+03  0.30432657849E+03  0.50400001928E-02 0. -1.
       -1    1    3    3    0  502  0.21347537047E+03  0.65970401389E+02  0.45784705585E+03  0.50945829489E+03  0.50400001928E-02 0.  1.
</event>
<event>
 5   0  0.4590462E-02  0.7879180E+03  0.7818609E-02  0.9577672E-01
       -2   -1    0    0    0  501  0.00000000000E+00  0.00000000000E+00  0.34112088809E+03  0.34112088810E+03  0.25500000920E-02 0. -1.
        2   -1    0    0  501    0  0.00000000000E+00  0.00000000000E+00 -0.45498145578E+03  0.45498145579E+03  0.25500000920E-02 0.  1.
    10030    2    1    2    0    0  0.00000000000E+00  0.00000000000E+00 -0.11386056769E+03  0.79610234389E+03  0.78791796087E+03 0.  0.
        3    1    3    3  502    0 -0.98259384562E+01  0.29328966248E+03 -0.32250708340E+03  0.43603463650E+03  0.10100000352E+00 0.  1.
       -3    1    3    3    0  502  0.98259384562E+01 -0.29328966248E+03  0.20864651571E+03  0.36006770739E+03  0.10100000352E+00 0. -1.
</event>
<event>
 5   0  0.2606520E-02  0.7910931E+03  0.7818609E-02  0.9573000E-01
        1   -1    0    0  501    0  0.00000000000E+00  0.00000000000E+00  0.56131892668E+03  0.56131892670E+03  0.50400001928E-02 0.  1.
       -1   -1    0    0    0  501  0.00000000000E+00  0.00000000000E+00 -0.27873117415E+03  0.27873117419E+03  0.50400001928E-02 0. -1.
    10030    2    1    2    0    0  0.00000000000E+00  0.00000000000E+00  0.28258775253E+03  0.84005010089E+03  0.79109312608E+03 0.  0.
        5    1    3    3  502    0 -0.32170918249E+02 -0.18674712443E+03  0.50994631833E+03  0.54403749323E+03  0.46999998093E+01 0.  1.
       -5    1    3    3    0  502  0.32170918249E+02  0.18674712443E+03 -0.22735856579E+03  0.29601260767E+03  0.46999998093E+01 0. -1.
</event>
<event>
 5   0  0.2689372E-02  0.7978686E+03  0.7818609E-02  0.9563107E-01
        1   -1    0    0  501    0  0.00000000000E+00  0.00000000000E+00  0.38563780047E+03  0.38563780050E+03  0.50400001928E-02 0.  1.
       -1   -1    0    0    0  501  0.00000000000E+00  0.00000000000E+00 -0.41268926267E+03  0.41268926270E+03  0.50400001928E-02 0. -1.
    10030    2    1    2    0    0  0.00000000000E+00  0.00000000000E+00 -0.27051462202E+02  0.79832706320E+03  0.79786860963E+03 0.  0.
        4    1    3    3  502    0 -0.13590089129E+03 -0.28375106334E+03 -0.25894864704E+03  0.40747973312E+03  0.12699999809E+01 0.  1.
       -4    1    3    3    0  502  0.13590089129E+03  0.28375106334E+03  0.23189718484E+03  0.39084733009E+03  0.12699999809E+01 0. -1.
</event>
<event>
 5   0  0.2769394E-02  0.7910456E+03  0.7818609E-02  0.9573069E-01
        1   -1    0    0  501    0  0.00000000000E+00  0.00000000000E+00  0.37086800820E+03  0.37086800823E+03  0.50400001928E-02 0. -1.
       -1   -1    0    0    0  501  0.00000000000E+00  0.00000000000E+00 -0.42181665168E+03  0.42181665171E+03  0.50400001928E-02 0.  1.
    10030    2    1    2    0    0  0.00000000000E+00  0.00000000000E+00 -0.50948643483E+02  0.79268465995E+03  0.79104564081E+03 0.  0.
        2    1    3    3  502    0  0.98375317075E+02 -0.32896890537E+03 -0.22219730089E+03  0.40898641082E+03  0.25500000920E-02 0.  1.
       -2    1    3    3    0  502 -0.98375317075E+02  0.32896890537E+03  0.17124865740E+03  0.38369824912E+03  0.25500000920E-02 0. -1.
</event>
<event>
 5   0  0.4700220E-02  0.4176587E+03  0.7818609E-02  0.1037831E+00
        2   -1    0    0  501    0  0.00000000000E+00  0.00000000000E+00  0.11806057587E+04  0.11806057587E+04  0.25500000920E-02 0. -1.
       -2   -1    0    0    0  501  0.00000000000E+00  0.00000000000E+00 -0.36938404188E+02  0.36938404276E+02  0.25500000920E-02 0.  1.
    10030    2    1    2    0    0  0.00000000000E+00  0.00000000000E+00  0.11436673545E+04  0.12175441629E+04  0.41765867765E+03 0.  0.
        4    1    3    3  502    0 -0.54166356642E+02  0.51623880621E+02  0.34955629937E+01  0.74918963573E+02  0.12699999809E+01 0.  1.
       -4    1    3    3    0  502  0.54166356642E+02 -0.51623880621E+02  0.11401717915E+04  0.11426251994E+04  0.12699999809E+01 0. -1.
</event>
<event>
 5   0  0.4684283E-02  0.8464212E+03  0.7818609E-02  0.9495153E-01
        2   -1    0    0  501    0  0.00000000000E+00  0.00000000000E+00  0.24008072466E+04  0.24008072466E+04  0.25500000920E-02 0.  1.
       -2   -1    0    0    0  501  0.00000000000E+00  0.00000000000E+00 -0.74602913539E+02  0.74602913583E+02  0.25500000920E-02 0. -1.
    10030    2    1    2    0    0  0.00000000000E+00  0.00000000000E+00  0.23262043331E+04  0.24754101602E+04  0.84642120838E+03 0.  0.
        1    1    3    3  502    0 -0.26036371990E+03 -0.71072507063E+02  0.20973734576E+03  0.34180450865E+03  0.50400001928E-02 0. -1.
       -1    1    3    3    0  502  0.26036371990E+03  0.71072507063E+02  0.21164669873E+04  0.21336056516E+04  0.50400001928E-02 0.  1.
</event>
<event>
 5   0  0.2635243E-02  0.8214096E+03  0.7818609E-02  0.9529534E-01
       -1   -1    0    0    0  501  0.00000000000E+00  0.00000000000E+00  0.17536912155E+03  0.17536912163E+03  0.50400001928E-02 0.  1.
        1   -1    0    0  501    0  0.00000000000E+00  0.00000000000E+00 -0.96184801155E+03  0.96184801157E+03  0.50400001928E-02 0. -1.
    10030    2    1    2    0    0  0.00000000000E+00  0.00000000000E+00 -0.78647889000E+03  0.11372171332E+04  0.82140961987E+03 0.  0.
        1    1    3    3  502    0  0.18504287965E+03  0.26412923894E+03 -0.74532335861E+03  0.81210346082E+03  0.50400001928E-02 0. -1.
       -1    1    3    3    0  502 -0.18504287965E+03 -0.26412923894E+03 -0.41155531392E+02  0.32511367237E+03  0.50400001928E-02 0.  1.
</event>
<event>
 5   0  0.4663634E-02  0.8025201E+03  0.7818609E-02  0.9556376E-01
       -2   -1    0    0    0  501  0.00000000000E+00  0.00000000000E+00  0.36358079956E+03  0.36358079957E+03  0.25500000920E-02 0.  1.
        2   -1    0    0  501    0  0.00000000000E+00  0.00000000000E+00 -0.44284418837E+03  0.44284418837E+03  0.25500000920E-02 0. -1.
    10030    2    1    2    0    0  0.00000000000E+00  0.00000000000E+00 -0.79263388810E+02  0.80642498794E+03  0.80252014079E+03 0.  0.
        5    1    3    3  502    0 -0.14138911390E+01 -0.77524712918E+02  0.35595303853E+03  0.36433053103E+03  0.46999998093E+01 0.  1.
       -5    1    3    3    0  502  0.14138911390E+01  0.77524712918E+02 -0.43521642734E+03  0.44209445691E+03  0.46999998093E+01 0. -1.
</event>
<event>
 5   0  0.2689372E-02  0.8040115E+03  0.7818609E-02  0.9554229E-01
       -1   -1    0    0    0  501  0.00000000000E+00  0.00000000000E+00  0.26424782397E+03  0.26424782402E+03  0.50400001928E-02 0.  1.
        1   -1    0    0  501    0  0.00000000000E+00  0.00000000000E+00 -0.61157981532E+03  0.61157981534E+03  0.50400001928E-02 0. -1.
    10030    2    1    2    0    0  0.00000000000E+00  0.00000000000E+00 -0.34733199134E+03  0.87582763936E+03  0.80401153079E+03 0.  0.
        4    1    3    3  502    0  0.32178843791E+03 -0.75698164179E+01  0.88681885085E+02  0.33387301558E+03  0.12699999809E+01 0.  1.
       -4    1    3    3    0  502 -0.32178843791E+03  0.75698164179E+01 -0.43601387643E+03  0.54195462377E+03  0.12699999809E+01 0. -1.
</event>
<event>
 5   0  0.2759559E-02  0.8332464E+03  0.7818609E-02  0.9513103E-01
       -1   -1    0    0    0  501  0.00000000000E+00  0.00000000000E+00  0.32310325319E+03  0.32310325323E+03  0.50400001928E-02 0. -1.
        1   -1    0    0  501    0  0.00000000000E+00  0.00000000000E+00 -0.53721187266E+03  0.53721187269E+03  0.50400001928E-02 0.  1.
    10030    2    1    2    0    0  0.00000000000E+00  0.00000000000E+00 -0.21410861948E+03  0.86031512591E+03  0.83324643110E+03 0.  0.
        3    1    3    3  502    0  0.21850485792E+03  0.65687106556E+02 -0.46696963301E+03  0.51973052369E+03  0.10100000352E+00 0.  1.
       -3    1    3    3    0  502 -0.21850485792E+03 -0.65687106556E+02  0.25286101353E+03  0.34058460222E+03  0.10100000352E+00 0. -1.
</event>
<event>
 5   0  0.1786500E-02  0.4975728E+03  0.7818609E-02  0.1014414E+00
        3   -1    0    0  501    0  0.00000000000E+00  0.00000000000E+00  0.86673058022E+02  0.86673116870E+02  0.10100000352E+00 0. -1.
       -3   -1    0    0    0  501  0.00000000000E+00  0.00000000000E+00 -0.71411634937E+03  0.71411635651E+03  0.10100000352E+00 0.  1.
    10030    2    1    2    0    0  0.00000000000E+00  0.00000000000E+00 -0.62744329135E+03  0.80078947338E+03  0.49757280555E+03 0.  0.
        1    1    3    3  502    0  0.24521786921E+03  0.32840595688E+01 -0.38108743428E+03  0.45317791321E+03  0.50400001928E-02 0. -1.
       -1    1    3    3    0  502 -0.24521786921E+03 -0.32840595688E+01 -0.24635585707E+03  0.34761156017E+03  0.50400001928E-02 0.  1.
</event>
<event>
 5   0  0.2769394E-02  0.8331085E+03  0.7818609E-02  0.9513293E-01
        1   -1    0    0  501    0  0.00000000000E+00  0.00000000000E+00  0.23595108617E+04  0.23595108617E+04  0.50400001928E-02 0.  1.
       -1   -1    0    0    0  501  0.00000000000E+00  0.00000000000E+00 -0.73539580288E+02  0.73539580460E+02  0.50400001928E-02 0. -1.
    10030    2    1    2    0    0  0.00000000000E+00  0.00000000000E+00  0.22859712814E+04  0.24330504421E+04  0.83310848913E+03 0.  0.
        2    1    3    3  502    0  0.93003155301E+02  0.34723048005E+03  0.17576609337E+04  0.17940430739E+04  0.25500000920E-02 0.  1.
       -2    1    3    3    0  502 -0.93003155301E+02 -0.34723048005E+03  0.52831034764E+03  0.63900736819E+03  0.25500000920E-02 0. -1.
</event>
<event>
 5   0  0.1786500E-02  0.7908659E+03  0.7818609E-02  0.9573333E-01
       -3   -1    0    0    0  501  0.00000000000E+00  0.00000000000E+00  0.92193608672E+03  0.92193609226E+03  0.10100000352E+00 0.  1.
        3   -1    0    0  501    0  0.00000000000E+00  0.00000000000E+00 -0.16960741051E+03  0.16960744058E+03  0.10100000352E+00 0. -1.
    10030    2    1    2    0    0  0.00000000000E+00  0.00000000000E+00  0.75232867621E+03  0.10915435328E+04  0.79086588435E+03 0.  0.
        3    1    3    3  502    0 -0.22011904507E+03  0.16533103667E+03 -0.15625420313E+02  0.27573702988E+03  0.10100000352E+00 0. -1.
       -3    1    3    3    0  502  0.22011904507E+03 -0.16533103667E+03  0.76795409653E+03  0.81580650295E+03  0.10100000352E+00 0.  1.
</event>
<event>
 5   0  0.4700220E-02  0.7881125E+03  0.7818609E-02  0.9577385E-01
       -2   -1    0    0    0  501  0.00000000000E+00  0.00000000000E+00  0.20906314022E+03  0.20906314023E+03  0.25500000920E-02 0. -1.
        2   -1    0    0  501    0  0.00000000000E+00  0.00000000000E+00 -0.74274369802E+03  0.74274369802E+03  0.25500000920E-02 0.  1.
    10030    2    1    2    0    0  0.00000000000E+00  0.00000000000E+00 -0.53368055780E+03  0.95180683826E+03  0.78811250439E+03 0.  0.
        4    1    3    3  502    0 -0.86274233764E+02  0.54706790468E+01 -0.73114806489E+03  0.73624199651E+03  0.12699999809E+01 0.  1.
       -4    1    3    3    0  502  0.86274233764E+02 -0.54706790468E+01  0.19746750709E+03  0.21556484174E+03  0.12699999809E+01 0. -1.
</event>
<event>
 5   0  0.2635243E-02  0.4674378E+03  0.7818609E-02  0.1022646E+00
       -1   -1    0    0    0  501  0.00000000000E+00  0.00000000000E+00  0.51141972040E+02  0.51141972288E+02  0.50400001928E-02 0. -1.
        1   -1    0    0  501    0  0.00000000000E+00  0.00000000000E+00 -0.10680955825E+04  0.10680955826E+04  0.50400001928E-02 0.  1.
    10030    2    1    2    0    0  0.00000000000E+00  0.00000000000E+00 -0.10169536105E+04  0.11192375548E+04  0.46743775870E+03 0.  0.
        1    1    3    3  502    0  0.11202057498E+03 -0.40829798675E+02 -0.27153781343E+02  0.12228249893E+03  0.50400001928E-02 0. -1.
       -1    1    3    3    0  502 -0.11202057498E+03  0.40829798675E+02 -0.98979982916E+03  0.99695505591E+03  0.50400001928E-02 0.  1.
</event>
<event>
 5   0  0.2759559E-02  0.7968844E+03  0.7818609E-02  0.9564538E-01
        1   -1    0    0  501    0  0.00000000000E+00  0.00000000000E+00  0.55790779937E+03  0.55790779939E+03  0.50400001928E-02 0. -1.
       -1   -1    0    0    0  501  0.00000000000E+00  0.00000000000E+00 -0.28455633190E+03  0.28455633194E+03  0.50400001928E-02 0.  1.
    10030    2    1    2    0    0  0.00000000000E+00  0.00000000000E+00  0.27335146747E+03  0.84246413133E+03  0.79688442563E+03 0.  0.
        3    1    3    3  502    0 -0.35887435853E+03 -0.17310315118E+03  0.13754790019E+03  0.42151505454E+03  0.10100000352E+00 0. -1.
       -3    1    3    3    0  502  0.35887435853E+03  0.17310315118E+03  0.13580356729E+03  0.42094907679E+03  0.10100000352E+00 0.  1.
</event>
<event>
 5   0  0.4377843E-02  0.7874621E+03  0.7818609E-02  0.9578345E-01
        2   -1    0    0  501    0  0.00000000000E+00  0.00000000000E+00  0.99224953547E+03  0.99224953547E+03  0.25500000920E-02 0. -1.
       -2   -1    0    0    0  501  0.00000000000E+00  0.00000000000E+00 -0.15623503195E+03  0.15623503197E+03  0.25500000920E-02 0.  1.
    10030    2    1    2    0    0  0.00000000000E+00  0.00000000000E+00  0.83601450352E+03  0.11484845674E+04  0.78746209531E+03 0.  0.
        2    1    3    3  502    0  0.28025650505E+03  0.26576625912E+03  0.52954608525E+03  0.65543456540E+03  0.25500000920E-02 0.  1.
       -2    1    3    3    0  502 -0.28025650505E+03 -0.26576625912E+03  0.30646841827E+03  0.49305000204E+03  0.25500000920E-02 0. -1.
</event>
<event>
 5   0  0.4700220E-02  0.8094446E+03  0.7818609E-02  0.9546446E-01
        2   -1    0    0  501    0  0.00000000000E+00  0.00000000000E+00  0.56251146284E+03  0.56251146284E+03  0.25500000920E-02 0. -1.
       -2   -1    0    0    0  501  0.00000000000E+00  0.00000000000E+00 -0.29119430441E+03  0.29119430442E+03  0.25500000920E-02 0.  1.
    10030    2    1    2    0    0  0.00000000000E+00  0.00000000000E+00  0.27131715843E+03  0.85370576726E+03  0.80944458525E+03 0.  0.
        4    1    3    3  502    0  0.11948669321E+03  0.38650085713E+03  0.14807243973E+03  0.43079814614E+03  0.12699999809E+01 0. -1.
       -4    1    3    3    0  502 -0.11948669321E+03 -0.38650085713E+03  0.12324471870E+03  0.42290762112E+03  0.12699999809E+01 0.  1.
</event>
<event>
 5   0  0.2606520E-02  0.7906690E+03  0.7818609E-02  0.9573622E-01
        1   -1    0    0  501    0  0.00000000000E+00  0.00000000000E+00  0.85651581696E+03  0.85651581697E+03  0.50400001928E-02 0.  1.
       -1   -1    0    0    0  501  0.00000000000E+00  0.00000000000E+00 -0.18247106337E+03  0.18247106344E+03  0.50400001928E-02 0. -1.
    10030    2    1    2    0    0  0.00000000000E+00  0.00000000000E+00  0.67404475359E+03  0.10389868804E+04  0.79066896222E+03 0.  0.
        5    1    3    3  502    0 -0.28650507768E+03 -0.24528303236E+02 -0.19425995686E+02  0.28824686729E+03  0.46999998093E+01 0. -1.
       -5    1    3    3    0  502  0.28650507768E+03  0.24528303236E+02  0.69347074927E+03  0.75074001312E+03  0.46999998093E+01 0.  1.
</event>
<event>
 5   0  0.4700220E-02  0.8215919E+03  0.7818609E-02  0.9529279E-01
        2   -1    0    0  501    0  0.00000000000E+00  0.00000000000E+00  0.83928683951E+03  0.83928683952E+03  0.25500000920E-02 0. -1.
       -2   -1    0    0    0  501  0.00000000000E+00  0.00000000000E+00 -0.20106750790E+03  0.20106750792E+03  0.25500000920E-02 0.  1.
    10030    2    1    2    0    0  0.00000000000E+00  0.00000000000E+00  0.63821933161E+03  0.10403543474E+04  0.82159190172E+03 0.  0.
        4    1    3    3  502    0  0.21392971709E+03  0.18256263612E+03  0.69826434095E+03  0.75277469585E+03  0.12699999809E+01 0. -1.
       -4    1    3    3    0  502 -0.21392971709E+03 -0.18256263612E+03 -0.60045009343E+02  0.28757965158E+03  0.12699999809E+01 0.  1.
</event>
<event>
 5   0  0.2769394E-02  0.7990566E+03  0.7818609E-02  0.9561384E-01
        1   -1    0    0  501    0  0.00000000000E+00  0.00000000000E+00  0.29247190149E+03  0.29247190153E+03  0.50400001928E-02 0. -1.
       -1   -1    0    0    0  501  0.00000000000E+00  0.00000000000E+00 -0.54577165809E+03  0.54577165811E+03  0.50400001928E-02 0.  1.
    10030    2    1    2    0    0  0.00000000000E+00  0.00000000000E+00 -0.25329975661E+03  0.83824355964E+03  0.79905663040E+03 0.  0.
        2    1    3    3  502    0 -0.16235383680E+03  0.13070019812E+03 -0.48422004426E+03  0.52717204154E+03  0.25500000920E-02 0.  1.
       -2    1    3    3    0  502  0.16235383680E+03 -0.13070019812E+03  0.23092028766E+03  0.31107151810E+03  0.25500000920E-02 0. -1.
</event>
<event>
 5   0  0.4663634E-02  0.9037827E+03  0.7818609E-02  0.9420865E-01
       -2   -1    0    0    0  501  0.00000000000E+00  0.00000000000E+00  0.12596680818E+03  0.12596680821E+03  0.25500000920E-02 0. -1.
        2   -1    0    0  501    0  0.00000000000E+00  0.00000000000E+00 -0.16211079423E+04  0.16211079423E+04  0.25500000920E-02 0.  1.
    10030    2    1    2    0    0  0.00000000000E+00  0.00000000000E+00 -0.14951411341E+04  0.17470747505E+04  0.90378270227E+03 0.  0.
        5    1    3    3  502    0 -0.57019149038E+02 -0.31034420907E+03 -0.13728191661E+04  0.14086231803E+04  0.46999998093E+01 0.  1.
       -5    1    3    3    0  502  0.57019149038E+02  0.31034420907E+03 -0.12232196800E+03  0.33845157012E+03  0.46999998093E+01 0. -1.
</event>
<event>
 5   0  0.2769394E-02  0.8106922E+03  0.7818609E-02  0.9544668E-01
       -1   -1    0    0    0  501  0.00000000000E+00  0.00000000000E+00  0.33387671090E+03  0.33387671093E+03  0.50400001928E-02 0. -1.
        1   -1    0    0  501    0  0.00000000000E+00  0.00000000000E+00 -0.49211420590E+03  0.49211420592E+03  0.50400001928E-02 0.  1.
    10030    2    1    2    0    0  0.00000000000E+00  0.00000000000E+00 -0.15823749500E+03  0.82599091686E+03  0.81069222884E+03 0.  0.
        2    1    3    3  502    0  0.38749105286E+03 -0.89326147732E+02  0.95827437860E+00  0.39765486922E+03  0.25500000920E-02 0. -1.
       -2    1    3    3    0  502 -0.38749105286E+03  0.89326147732E+02 -0.15919576938E+03  0.42833604764E+03  0.25500000920E-02 0.  1.
</event>
<event>
 5   0  0.4590462E-02  0.7680988E+03  0.7818609E-02  0.9607376E-01
        2   -1    0    0  501    0  0.00000000000E+00  0.00000000000E+00  0.67355442640E+03  0.67355442640E+03  0.25500000920E-02 0.  1.
       -2   -1    0    0    0  501  0.00000000000E+00  0.00000000000E+00 -0.21897852613E+03  0.21897852615E+03  0.25500000920E-02 0. -1.
    10030    2    1    2    0    0  0.00000000000E+00  0.00000000000E+00  0.45457590027E+03  0.89253295255E+03  0.76809883627E+03 0.  0.
        3    1    3    3  502    0  0.22107770865E+03 -0.27359926911E+03  0.40640995472E+03  0.53749509283E+03  0.10100000352E+00 0.  1.
       -3    1    3    3    0  502 -0.22107770865E+03  0.27359926911E+03  0.48165945543E+02  0.35503785971E+03  0.10100000352E+00 0. -1.
</event>
<event>
 5   0  0.1786500E-02  0.7933924E+03  0.7818609E-02  0.9569631E-01
       -4   -1    0    0    0  501  0.00000000000E+00  0.00000000000E+00  0.46826583633E+03  0.46826755853E+03  0.12699999809E+01 0.  1.
        4   -1    0    0  501    0  0.00000000000E+00  0.00000000000E+00 -0.33606169270E+03  0.33606409240E+03  0.12699999809E+01 0. -1.
    10030    2    1    2    0    0  0.00000000000E+00  0.00000000000E+00  0.13220414363E+03  0.80433165093E+03  0.79339238028E+03 0.  0.
        1    1    3    3  502    0  0.16073725503E+03 -0.35123004148E+03  0.15772999890E+03  0.41722626927E+03  0.50400001928E-02 0.  1.
       -1    1    3    3    0  502 -0.16073725503E+03  0.35123004148E+03 -0.25525855268E+02  0.38710538166E+03  0.50400001928E-02 0. -1.
</event>
<event>
 5   0  0.4377843E-02  0.9139760E+03  0.7818609E-02  0.9408277E-01
        2   -1    0    0  501    0  0.00000000000E+00  0.00000000000E+00  0.12524589326E+04  0.12524589326E+04  0.25500000920E-02 0. -1.
       -2   -1    0    0    0  501  0.00000000000E+00  0.00000000000E+00 -0.16674243724E+03  0.16674243726E+03  0.25500000920E-02 0.  1.
    10030    2    1    2    0    0  0.00000000000E+00  0.00000000000E+00  0.10857164954E+04  0.14192013699E+04  0.91397604999E+03 0.  0.
        2    1    3    3  502    0  0.17207042850E+03 -0.29866954905E+03  0.10087595909E+04  0.10660242231E+04  0.25500000920E-02 0. -1.
       -2    1    3    3    0  502 -0.17207042850E+03  0.29866954905E+03  0.76956904479E+02  0.35317714683E+03  0.25500000920E-02 0.  1.
</event>
<event>
 5   0  0.1786500E-02  0.7782549E+03  0.7818609E-02  0.9592037E-01
       -3   -1    0    0    0  501  0.00000000000E+00  0.00000000000E+00  0.69006715476E+03  0.69006716215E+03  0.10100000352E+00 0.  1.
        3   -1    0    0  501    0  0.00000000000E+00  0.00000000000E+00 -0.21942813516E+03  0.21942815841E+03  0.10100000352E+00 0. -1.
    10030    2    1    2    0    0  0.00000000000E+00  0.00000000000E+00  0.47063901960E+03  0.90949532056E+03  0.77825487557E+03 0.  0.
        2    1    3    3  502    0  0.21985935219E+03 -0.23346942034E+03 -0.22241910712E+02  0.32146665080E+03  0.25500000920E-02 0. -1.
       -2    1    3    3    0  502 -0.21985935219E+03  0.23346942034E+03  0.49288093031E+03  0.58802866975E+03  0.25500000920E-02 0.  1.
</event>
<event>
 5   0  0.4700220E-02  0.7903339E+03  0.7818609E-02  0.9574115E-01
       -2   -1    0    0    0  501  0.00000000000E+00  0.00000000000E+00  0.15843915595E+03  0.15843915597E+03  0.25500000920E-02 0.  1.
        2   -1    0    0  501    0  0.00000000000E+00  0.00000000000E+00 -0.98559543318E+03  0.98559543318E+03  0.25500000920E-02 0. -1.
    10030    2    1    2    0    0  0.00000000000E+00  0.00000000000E+00 -0.82715627723E+03  0.11440345891E+04  0.79033387514E+03 0.  0.
        4    1    3    3  502    0 -0.19905238576E+03  0.38570913993E+02 -0.90455814424E+03  0.92700410834E+03  0.12699999809E+01 0. -1.
       -4    1    3    3    0  502  0.19905238576E+03 -0.38570913993E+02  0.77401867004E+02  0.21703048080E+03  0.12699999809E+01 0.  1.
</event>
<event>
 5   0  0.4663634E-02  0.7910456E+03  0.7818609E-02  0.9573069E-01
        2   -1    0    0  501    0  0.00000000000E+00  0.00000000000E+00  0.12201374605E+04  0.12201374605E+04  0.25500000920E-02 0. -1.
       -2   -1    0    0    0  501  0.00000000000E+00  0.00000000000E+00 -0.12821364681E+03  0.12821364684E+03  0.25500000920E-02 0.  1.
    10030    2    1    2    0    0  0.00000000000E+00  0.00000000000E+00  0.10919238137E+04  0.13483511073E+04  0.79104556997E+03 0.  0.
        5    1    3    3  502    0  0.14945383834E+03  0.26690678739E+03  0.97325051178E+03  0.10202030835E+04  0.46999998093E+01 0. -1.
       -5    1    3    3    0  502 -0.14945383834E+03 -0.26690678739E+03  0.11867330191E+03  0.32814802382E+03  0.46999998093E+01 0.  1.
</event>
<event>
 5   0  0.2689372E-02  0.8213692E+03  0.7818609E-02  0.9529591E-01
        1   -1    0    0  501    0  0.00000000000E+00  0.00000000000E+00  0.32162972511E+03  0.32162972515E+03  0.50400001928E-02 0. -1.
       -1   -1    0    0    0  501  0.00000000000E+00  0.00000000000E+00 -0.52439757952E+03  0.52439757954E+03  0.50400001928E-02 0.  1.
    10030    2    1    2    0    0  0.00000000000E+00  0.00000000000E+00 -0.20276785440E+03  0.84602730469E+03  0.82136922118E+03 0.  0.
        4    1    3    3  502    0  0.98604637571E+02  0.23631137099E+03 -0.43210607337E+03  0.50227802078E+03  0.12699999809E+01 0.  1.
       -4    1    3    3    0  502 -0.98604637571E+02 -0.23631137099E+03  0.22933821897E+03  0.34374928391E+03  0.12699999809E+01 0. -1.
</event>
<event>
 5   0  0.1786500E-02  0.8300183E+03  0.7818609E-02  0.9517555E-01
        4   -1    0    0  501    0  0.00000000000E+00  0.00000000000E+00  0.23836542709E+03  0.23836881032E+03  0.12699999809E+01 0. -1.
       -4   -1    0    0    0  501  0.00000000000E+00  0.00000000000E+00 -0.72254791631E+03  0.72254903243E+03  0.12699999809E+01 0.  1.
    10030    2    1    2    0    0  0.00000000000E+00  0.00000000000E+00 -0.48418248922E+03  0.96091784275E+03  0.83001832368E+03 0.  0.
        3    1    3    3  502    0  0.22650366100E+02  0.31034497891E+03  0.75815858216E+02  0.32027347623E+03  0.10100000352E+00 0. -1.
       -3    1    3    3    0  502 -0.22650366100E+02 -0.31034497891E+03 -0.55999834743E+03  0.64064436652E+03  0.10100000352E+00 0.  1.
</event>
<event>
 5   0  0.4663634E-02  0.7999586E+03  0.7818609E-02  0.9560077E-01
       -2   -1    0    0    0  501  0.00000000000E+00  0.00000000000E+00  0.48365380209E+03  0.48365380209E+03  0.25500000920E-02 0. -1.
        2   -1    0    0  501    0  0.00000000000E+00  0.00000000000E+00 -0.33078090248E+03  0.33078090249E+03  0.25500000920E-02 0.  1.
    10030    2    1    2    0    0  0.00000000000E+00  0.00000000000E+00  0.15287289961E+03  0.81443470458E+03  0.79995860180E+03 0.  0.
        5    1    3    3  502    0  0.29916351602E+02 -0.38305122825E+03  0.18952359653E+03  0.42844429649E+03  0.46999998093E+01 0.  1.
       -5    1    3    3    0  502 -0.29916351602E+02  0.38305122825E+03 -0.36650696922E+02  0.38599040809E+03  0.46999998093E+01 0. -1.
</event>
<event>
 5   0  0.2759559E-02  0.8416290E+03  0.7818609E-02  0.9501642E-01
       -1   -1    0    0    0  501  0.00000000000E+00  0.00000000000E+00  0.83520761101E+03  0.83520761102E+03  0.50400001928E-02 0.  1.
        1   -1    0    0  501    0  0.00000000000E+00  0.00000000000E+00 -0.21202493036E+03  0.21202493042E+03  0.50400001928E-02 0. -1.
    10030    2    1    2    0    0  0.00000000000E+00  0.00000000000E+00  0.62318268065E+03  0.10472325414E+04  0.84162898144E+03 0.  0.
        3    1    3    3  502    0 -0.25769816925E+03 -0.48747566712E+02 -0.97892703464E+02  0.27994224992E+03  0.10100000352E+00 0. -1.
       -3    1    3    3    0  502  0.25769816925E+03  0.48747566712E+02  0.72107538411E+03  0.76729029152E+03  0.10100000352E+00 0.  1.
</event>
<event>
 5   0  0.4684283E-02  0.8053885E+03  0.7818609E-02  0.9552250E-01
       -2   -1    0    0    0  501  0.00000000000E+00  0.00000000000E+00  0.36166186760E+03  0.36166186761E+03  0.25500000920E-02 0.  1.
        2   -1    0    0  501    0  0.00000000000E+00  0.00000000000E+00 -0.44838195155E+03  0.44838195156E+03  0.25500000920E-02 0. -1.
    10030    2    1    2    0    0  0.00000000000E+00  0.00000000000E+00 -0.86720083948E+02  0.81004381917E+03  0.80538848763E+03 0.  0.
        1    1    3    3  502    0 -0.10745402022E+03 -0.26024244809E+03 -0.33293071328E+03  0.43602219911E+03  0.50400001928E-02 0. -1.
       -1    1    3    3    0  502  0.10745402022E+03  0.26024244809E+03  0.24621062933E+03  0.37402162005E+03  0.50400001928E-02 0.  1.
</event>
<event>
 5   0  0.2635243E-02  0.7611438E+03  0.7818609E-02  0.9618028E-01
        1   -1    0    0  501    0  0.00000000000E+00  0.00000000000E+00  0.15533000390E+04  0.15533000390E+04  0.50400001928E-02 0.  1.
       -1   -1    0    0    0  501  0.00000000000E+00  0.00000000000E+00 -0.93243384378E+02  0.93243384514E+02  0.50400001928E-02 0. -1.
    10030    2    1    2    0    0  0.00000000000E+00  0.00000000000E+00  0.14600566546E+04  0.16465434235E+04  0.76114375175E+03 0.  0.
        1    1    3    3  502    0  0.16895301500E+03  0.21379338376E+03  0.15531117274E+03  0.31364676409E+03  0.50400001928E-02 0. -1.
       -1    1    3    3    0  502 -0.16895301500E+03 -0.21379338376E+03  0.13047454819E+04  0.13328966594E+04  0.50400001928E-02 0.  1.
</event>
<event>
 5   0  0.4684283E-02  0.7448965E+03  0.7818609E-02  0.9643391E-01
       -2   -1    0    0    0  501  0.00000000000E+00  0.00000000000E+00  0.86385075429E+02  0.86385075467E+02  0.25500000920E-02 0. -1.
        2   -1    0    0  501    0  0.00000000000E+00  0.00000000000E+00 -0.16058062068E+04  0.16058062068E+04  0.25500000920E-02 0.  1.
    10030    2    1    2    0    0  0.00000000000E+00  0.00000000000E+00 -0.15194211314E+04  0.16921912823E+04  0.74489647693E+03 0.  0.
        1    1    3    3  502    0  0.23565805582E+03  0.15681192550E+03 -0.20981987508E+03  0.35234795197E+03  0.50400001928E-02 0. -1.
       -1    1    3    3    0  502 -0.23565805582E+03 -0.15681192550E+03 -0.13096012563E+04  0.13398433303E+04  0.50400001928E-02 0.  1.
</event>
<event>
 5   0  0.4684283E-02  0.4049841E+03  0.7818609E-02  0.1042067E+00
       -2   -1    0    0    0  501  0.00000000000E+00  0.00000000000E+00  0.10164556199E+03  0.10164556203E+03  0.25500000920E-02 0. -1.
        2   -1    0    0  501    0  0.00000000000E+00  0.00000000000E+00 -0.40339214510E+03  0.40339214511E+03  0.25500000920E-02 0.  1.
    10030    2    1    2    0    0  0.00000000000E+00  0.00000000000E+00 -0.30174658311E+03  0.50503770713E+03  0.40498405550E+03 0.  0.
        1    1    3    3  502    0  0.92133212710E+02 -0.41942253343E+01 -0.37567875016E+03  0.38683412952E+03  0.50400001928E-02 0.  1.
       -1    1    3    3    0  502 -0.92133212710E+02  0.41942253343E+01  0.73932167055E+02  0.11820357762E+03  0.50400001928E-02 0. -1.
</event>
<event>
 5   0  0.4663634E-02  0.7955133E+03  0.7818609E-02  0.9566534E-01
       -2   -1    0    0    0  501  0.00000000000E+00  0.00000000000E+00  0.86384276274E+02  0.86384276312E+02  0.25500000920E-02 0. -1.
        2   -1    0    0  501    0  0.00000000000E+00  0.00000000000E+00 -0.18314715795E+04  0.18314715795E+04  0.25500000920E-02 0.  1.
    10030    2    1    2    0    0  0.00000000000E+00  0.00000000000E+00 -0.17450873032E+04  0.19178558558E+04  0.79551328575E+03 0.  0.
        5    1    3    3  502    0  0.69957895318E+02  0.36628978935E+03 -0.12059546491E+04  0.12623038551E+04  0.46999998093E+01 0.  1.
       -5    1    3    3    0  502 -0.69957895318E+02 -0.36628978935E+03 -0.53913265410E+03  0.65555200069E+03  0.46999998093E+01 0. -1.
</event>
<event>
 5   0  0.4590462E-02  0.7184207E+03  0.7818609E-02  0.9686239E-01
        2   -1    0    0  501    0  0.00000000000E+00  0.00000000000E+00  0.24694801734E+03  0.24694801735E+03  0.25500000920E-02 0.  1.
       -2   -1    0    0    0  501  0.00000000000E+00  0.00000000000E+00 -0.52250708477E+03  0.52250708477E+03  0.25500000920E-02 0. -1.
    10030    2    1    2    0    0  0.00000000000E+00  0.00000000000E+00 -0.27555906743E+03  0.76945510212E+03  0.71842073643E+03 0.  0.
        3    1    3    3  502    0 -0.11276587004E+03 -0.24154233954E+03 -0.39565984921E+03  0.47708025501E+03  0.10100000352E+00 0. -1.
       -3    1    3    3    0  502  0.11276587004E+03  0.24154233954E+03  0.12010078178E+03  0.29237484711E+03  0.10100000352E+00 0.  1.
</event>
<event>
 5   0  0.2769394E-02  0.8002767E+03  0.7818609E-02  0.9559617E-01
        1   -1    0    0  501    0  0.00000000000E+00  0.00000000000E+00  0.26487746400E+03  0.26487746405E+03  0.50400001928E-02 0. -1.
       -1   -1    0    0    0  501  0.00000000000E+00  0.00000000000E+00 -0.60447088504E+03  0.60447088506E+03  0.50400001928E-02 0.  1.
    10030    2    1    2    0    0  0.00000000000E+00  0.00000000000E+00 -0.33959342103E+03  0.86934834911E+03  0.80027673994E+03 0.  0.
        2    1    3    3  502    0  0.30940456481E+03  0.21570331872E+03 -0.24654972725E+02  0.37797747832E+03  0.25500000920E-02 0. -1.
       -2    1    3    3    0  502 -0.30940456481E+03 -0.21570331872E+03 -0.31493844831E+03  0.49137087079E+03  0.25500000920E-02 0.  1.
</event>
<event>
 5   0  0.2759559E-02  0.8055387E+03  0.7818609E-02  0.9552034E-01
       -1   -1    0    0    0  501  0.00000000000E+00  0.00000000000E+00  0.43966614229E+03  0.43966614231E+03  0.50400001928E-02 0. -1.
        1   -1    0    0  501    0  0.00000000000E+00  0.00000000000E+00 -0.36896893942E+03  0.36896893945E+03  0.50400001928E-02 0.  1.
    10030    2    1    2    0    0  0.00000000000E+00  0.00000000000E+00  0.70697202865E+02  0.80863508177E+03  0.80553870235E+03 0.  0.
        3    1    3    3  502    0  0.36119672128E+03  0.85371120887E+02 -0.12168749194E+03  0.39058821748E+03  0.10100000352E+00 0.  1.
       -3    1    3    3    0  502 -0.36119672128E+03 -0.85371120887E+02  0.19238469480E+03  0.41804686428E+03  0.10100000352E+00 0. -1.
</event>
<event>
 5   0  0.1786500E-02  0.7796452E+03  0.7818609E-02  0.9589956E-01
       -3   -1    0    0    0  501  0.00000000000E+00  0.00000000000E+00  0.14872853565E+03  0.14872856994E+03  0.10100000352E+00 0. -1.
        3   -1    0    0  501    0  0.00000000000E+00  0.00000000000E+00 -0.10217382940E+04  0.10217382989E+04  0.10100000352E+00 0.  1.
    10030    2    1    2    0    0  0.00000000000E+00  0.00000000000E+00 -0.87300975831E+03  0.11704668689E+04  0.77964520973E+03 0.  0.
        2    1    3    3  502    0  0.29630656909E+03  0.22497429113E+03 -0.61126492640E+03  0.71558076051E+03  0.25500000920E-02 0.  1.
       -2    1    3    3    0  502 -0.29630656909E+03 -0.22497429113E+03 -0.26174483190E+03  0.45488610838E+03  0.25500000920E-02 0. -1.
</event>
<event>
 5   0  0.1786500E-02  0.7559185E+03  0.7818609E-02  0.9626111E-01
       -3   -1    0    0    0  501  0.00000000000E+00  0.00000000000E+00  0.39137918590E+03  0.39137919894E+03  0.10100000352E+00 0. -1.
        3   -1    0    0  501    0  0.00000000000E+00  0.00000000000E+00 -0.36499947649E+03  0.36499949046E+03  0.10100000352E+00 0.  1.
    10030    2    1    2    0    0  0.00000000000E+00  0.00000000000E+00  0.26379709417E+02  0.75637868940E+03  0.75591853576E+03 0.  0.
        5    1    3    3  502    0 -0.30665871042E+01  0.16388791035E+03 -0.32755006183E+03  0.36630558844E+03  0.46999998093E+01 0.  1.
       -5    1    3    3    0  502  0.30665871042E+01 -0.16388791035E+03  0.35392977125E+03  0.39007310096E+03  0.46999998093E+01 0. -1.
</event>
<event>
 5   0  0.2769394E-02  0.8456043E+03  0.7818609E-02  0.9496256E-01
       -1   -1    0    0    0  501  0.00000000000E+00  0.00000000000E+00  0.72299803203E+03  0.72299803205E+03  0.50400001928E-02 0. -1.
        1   -1    0    0  501    0  0.00000000000E+00  0.00000000000E+00 -0.24725051920E+03  0.24725051925E+03  0.50400001928E-02 0.  1.
    10030    2    1    2    0    0  0.00000000000E+00  0.00000000000E+00  0.47574751283E+03  0.97024855130E+03  0.84560425456E+03 0.  0.
        2    1    3    3  502    0  0.28853673717E+03 -0.36833464936E+02 -0.11419657815E+03  0.31249161798E+03  0.25500000920E-02 0.  1.
       -2    1    3    3    0  502 -0.28853673717E+03  0.36833464936E+02  0.58994409098E+03  0.65775693332E+03  0.25500000920E-02 0. -1.
</event>
<event>
 5   0  0.2635243E-02  0.8004480E+03  0.7818609E-02  0.9559369E-01
        1   -1    0    0  501    0  0.00000000000E+00  0.00000000000E+00  0.14316693301E+04  0.14316693301E+04  0.50400001928E-02 0. -1.
       -1   -1    0    0    0  501  0.00000000000E+00  0.00000000000E+00 -0.11188284429E+03  0.11188284441E+03  0.50400001928E-02 0.  1.
    10030    2    1    2    0    0  0.00000000000E+00  0.00000000000E+00  0.13197864858E+04  0.15435521745E+04  0.80044796667E+03 0.  0.
        1    1    3    3  502    0  0.19818020584E+03  0.16812479101E+03  0.72968318095E+02  0.26993650144E+03  0.50400001928E-02 0.  1.
       -1    1    3    3    0  502 -0.19818020584E+03 -0.16812479101E+03  0.12468181677E+04  0.12736156731E+04  0.50400001928E-02 0. -1.
</event>
<event>
 5   0  0.4684283E-02  0.7951080E+03  0.7818609E-02  0.9567125E-01
       -2   -1    0    0    0  501  0.00000000000E+00  0.00000000000E+00  0.21118534231E+03  0.21118534233E+03  0.25500000920E-02 0.  1.
        2   -1    0    0  501    0  0.00000000000E+00  0.00000000000E+00 -0.74839096596E+03  0.74839096596E+03  0.25500000920E-02 0. -1.
    10030    2    1    2    0    0  0.00000000000E+00  0.00000000000E+00 -0.53720562364E+03  0.95957630829E+03  0.79510804886E+03 0.  0.
        1    1    3    3  502    0  0.24797010091E+02 -0.35569131546E+02  0.20832317472E+03  0.21278768756E+03  0.50400001928E-02 0.  1.
       -1    1    3    3    0  502 -0.24797010091E+02  0.35569131546E+02 -0.74552879836E+03  0.74678862072E+03  0.50400001928E-02 0. -1.
</event>
<event>
 5   0  0.2759559E-02  0.6472706E+03  0.7818609E-02  0.9811914E-01
       -1   -1    0    0    0  501  0.00000000000E+00  0.00000000000E+00  0.31462175378E+03  0.31462175382E+03  0.50400001928E-02 0.  1.
        1   -1    0    0  501    0  0.00000000000E+00  0.00000000000E+00 -0.33290709950E+03  0.33290709954E+03  0.50400001928E-02 0. -1.
    10030    2    1    2    0    0  0.00000000000E+00  0.00000000000E+00 -0.18285345719E+02  0.64752885336E+03  0.64727062506E+03 0.  0.
        3    1    3    3  502    0 -0.25772035118E+02 -0.19608092582E+03  0.24713891625E+03  0.31652737858E+03  0.10100000352E+00 0.  1.
       -3    1    3    3    0  502  0.25772035118E+02  0.19608092582E+03 -0.26542426197E+03  0.33100147478E+03  0.10100000352E+00 0. -1.
</event>
<event>
 5   0  0.4377843E-02  0.8347686E+03  0.7818609E-02  0.9511011E-01
       -2   -1    0    0    0  501  0.00000000000E+00  0.00000000000E+00  0.22295850033E+03  0.22295850034E+03  0.25500000920E-02 0. -1.
        2   -1    0    0  501    0  0.00000000000E+00  0.00000000000E+00 -0.78135453385E+03  0.78135453386E+03  0.25500000920E-02 0.  1.
    10030    2    1    2    0    0  0.00000000000E+00  0.00000000000E+00 -0.55839603352E+03  0.10043130342E+04  0.83476855499E+03 0.  0.
        2    1    3    3  502    0  0.29802908189E+03 -0.26858705734E+03 -0.14071408428E+03  0.42515972828E+03  0.25500000920E-02 0. -1.
       -2    1    3    3    0  502 -0.29802908189E+03  0.26858705734E+03 -0.41768194925E+03  0.57915330592E+03  0.25500000920E-02 0.  1.
</event>
<event>
 5   0  0.2606520E-02  0.7887145E+03  0.7818609E-02  0.9576498E-01
       -1   -1    0    0    0  501  0.00000000000E+00  0.00000000000E+00  0.40462882397E+03  0.40462882400E+03  0.50400001928E-02 0. -1.
        1   -1    0    0  501    0  0.00000000000E+00  0.00000000000E+00 -0.38434638882E+03  0.38434638885E+03  0.50400001928E-02 0.  1.
    10030    2    1    2    0    0  0.00000000000E+00  0.00000000000E+00  0.20282435148E+02  0.78897521285E+03  0.78871446628E+03 0.  0.
        5    1    3    3  502    0 -0.39743145862E+02 -0.28141279139E+03  0.28358641317E+03  0.40151714849E+03  0.46999998093E+01 0. -1.
       -5    1    3    3    0  502  0.39743145862E+02  0.28141279139E+03 -0.26330397802E+03  0.38745806436E+03  0.46999998093E+01 0.  1.
</event>
<event>
 5   0  0.4700220E-02  0.8415982E+03  0.7818609E-02  0.9501684E-01
       -2   -1    0    0    0  501  0.00000000000E+00  0.00000000000E+00  0.72697843409E+03  0.72697843409E+03  0.25500000920E-02 0.  1.
        2   -1    0    0  501    0  0.00000000000E+00  0.00000000000E+00 -0.24357237781E+03  0.24357237782E+03  0.25500000920E-02 0. -1.
    10030    2    1    2    0    0  0.00000000000E+00  0.00000000000E+00  0.48340605628E+03  0.97055081192E+03  0.84159816021E+03 0.  0.
        4    1    3    3  502    0  0.15673323583E+03  0.33572335188E+03  0.47175530500E+03  0.59985844739E+03  0.12699999809E+01 0.  1.
       -4    1    3    3    0  502 -0.15673323583E+03 -0.33572335188E+03  0.11650751280E+02  0.37069236452E+03  0.12699999809E+01 0. -1.
</event>
<event>
 5   0  0.4684283E-02  0.8107465E+03  0.7818609E-02  0.9544591E-01
        2   -1    0    0  501    0  0.00000000000E+00  0.00000000000E+00  0.52213814953E+03  0.52213814953E+03  0.25500000920E-02 0. -1.
       -2   -1    0    0    0  501  0.00000000000E+00  0.00000000000E+00 -0.31472031741E+03  0.31472031742E+03  0.25500000920E-02 0.  1.
    10030    2    1    2    0    0  0.00000000000E+00  0.00000000000E+00  0.20741783211E+03  0.83685846696E+03  0.81074653045E+03 0.  0.
        1    1    3    3  502    0  0.48264190560E+02 -0.26374883680E+03 -0.21011367668E+03  0.34064738096E+03  0.50400001928E-02 0.  1.
       -1    1    3    3    0  502 -0.48264190560E+02  0.26374883680E+03  0.41753150880E+03  0.49621108600E+03  0.50400001928E-02 0. -1.
</event>
<event>
 5   0  0.4684283E-02  0.6738285E+03  0.7818609E-02  0.9763066E-01
        2   -1    0    0  501    0  0.00000000000E+00  0.00000000000E+00  0.44553244903E+03  0.44553244904E+03  0.25500000920E-02 0. -1.
       -2   -1    0    0    0  501  0.00000000000E+00  0.00000000000E+00 -0.25477656383E+03  0.25477656384E+03  0.25500000920E-02 0.  1.
    10030    2    1    2    0    0  0.00000000000E+00  0.00000000000E+00  0.19075588520E+03  0.70030901288E+03  0.67382854331E+03 0.  0.
        1    1    3    3  502    0 -0.55833042097E+01 -0.57250600453E+02 -0.24963539263E+03  0.25617695802E+03  0.50400001928E-02 0.  1.
       -1    1    3    3    0  502  0.55833042097E+01  0.57250600453E+02  0.44039127784E+03  0.44413205486E+03  0.50400001928E-02 0. -1.
</event>
<event>
 5   0  0.2689372E-02  0.6026332E+03  0.7818609E-02  0.9899958E-01
       -1   -1    0    0    0  501  0.00000000000E+00  0.00000000000E+00  0.21558576500E+03  0.21558576506E+03  0.50400001928E-02 0.  1.
        1   -1    0    0  501    0  0.00000000000E+00  0.00000000000E+00 -0.42113961955E+03  0.42113961958E+03  0.50400001928E-02 0. -1.
    10030    2    1    2    0    0  0.00000000000E+00  0.00000000000E+00 -0.20555385455E+03  0.63672538464E+03  0.60263324529E+03 0.  0.
        4    1    3    3  502    0 -0.38553117464E+02 -0.19344453838E+03  0.13788725431E+03  0.24066915069E+03  0.12699999809E+01 0.  1.
       -4    1    3    3    0  502  0.38553117464E+02  0.19344453838E+03 -0.34344110886E+03  0.39605623395E+03  0.12699999809E+01 0. -1.
</event>
<event>
 5   0  0.4700220E-02  0.7940013E+03  0.7818609E-02  0.9568741E-01
       -2   -1    0    0    0  501  0.00000000000E+00  0.00000000000E+00  0.34839489894E+03  0.34839489895E+03  0.25500000920E-02 0. -1.
        2   -1    0    0  501    0  0.00000000000E+00  0.00000000000E+00 -0.45238752024E+03  0.45238752025E+03  0.25500000920E-02 0.  1.
    10030    2    1    2    0    0  0.00000000000E+00  0.00000000000E+00 -0.10399262131E+03  0.80078241920E+03  0.79400127053E+03 0.  0.
        4    1    3    3  502    0  0.48560536074E+02 -0.26970802935E+03 -0.34169040236E+03  0.43801197555E+03  0.12699999809E+01 0.  1.
       -4    1    3    3    0  502 -0.48560536074E+02  0.26970802935E+03  0.23769778106E+03  0.36277044364E+03  0.12699999809E+01 0. -1.
</event>
<event>
 5   0  0.4700220E-02  0.8164509E+03  0.7818609E-02  0.9536506E-01
        2   -1    0    0  501    0  0.00000000000E+00  0.00000000000E+00  0.13194822754E+04  0.13194822754E+04  0.25500000920E-02 0. -1.
       -2   -1    0    0    0  501  0.00000000000E+00  0.00000000000E+00 -0.12629803717E+03  0.12629803719E+03  0.25500000920E-02 0.  1.
    10030    2    1    2    0    0  0.00000000000E+00  0.00000000000E+00  0.11931842382E+04  0.14457803126E+04  0.81645090845E+03 0.  0.
        4    1    3    3  502    0 -0.20446561416E+03 -0.10422295411E+03 -0.12442881582E+01  0.22950331738E+03  0.12699999809E+01 0.  1.
       -4    1    3    3    0  502  0.20446561416E+03  0.10422295411E+03  0.11944285264E+04  0.12162769952E+04  0.12699999809E+01 0. -1.
</event>
<event>
 5   0  0.1786500E-02  0.8293097E+03  0.7818609E-02  0.9518535E-01
       -4   -1    0    0    0  501  0.00000000000E+00  0.00000000000E+00  0.20622496370E+03  0.20622887420E+03  0.12699999809E+01 0. -1.
        4   -1    0    0  501    0  0.00000000000E+00  0.00000000000E+00 -0.83373088098E+03  0.83373184826E+03  0.12699999809E+01 0.  1.
    10030    2    1    2    0    0  0.00000000000E+00  0.00000000000E+00 -0.62750591728E+03  0.10399607225E+04  0.82930972986E+03 0.  0.
        5    1    3    3  502    0 -0.23349170882E+03  0.42711720459E+02 -0.74006741178E+03  0.77721588579E+03  0.46999998093E+01 0.  1.
       -5    1    3    3    0  502  0.23349170882E+03 -0.42711720459E+02  0.11256149450E+03  0.26274483666E+03  0.46999998093E+01 0. -1.
</event>
<event>
 5   0  0.4684283E-02  0.8043439E+03  0.7818609E-02  0.9553751E-01
       -2   -1    0    0    0  501  0.00000000000E+00  0.00000000000E+00  0.40617610250E+03  0.40617610251E+03  0.25500000920E-02 0. -1.
        2   -1    0    0  501    0  0.00000000000E+00  0.00000000000E+00 -0.39820722676E+03  0.39820722677E+03  0.25500000920E-02 0.  1.
    10030    2    1    2    0    0  0.00000000000E+00  0.00000000000E+00  0.79688757366E+01  0.80438332927E+03  0.80434385522E+03 0.  0.
        1    1    3    3  502    0  0.32177116909E+03  0.18891585850E+03  0.15404636698E+03  0.40367830020E+03  0.50400001928E-02 0. -1.
       -1    1    3    3    0  502 -0.32177116909E+03 -0.18891585850E+03 -0.14607749124E+03  0.40070502907E+03  0.50400001928E-02 0.  1.
</event>
<event>
 5   0  0.2759559E-02  0.7881947E+03  0.7818609E-02  0.9577264E-01
       -1   -1    0    0    0  501  0.00000000000E+00  0.00000000000E+00  0.17285602044E+03  0.17285602051E+03  0.50400001928E-02 0.  1.
        1   -1    0    0  501    0  0.00000000000E+00  0.00000000000E+00 -0.89850921456E+03  0.89850921457E+03  0.50400001928E-02 0. -1.
    10030    2    1    2    0    0  0.00000000000E+00  0.00000000000E+00 -0.72565319412E+03  0.10713652351E+04  0.78819471503E+03 0.  0.
        3    1    3    3  502    0 -0.34802570228E+03 -0.37422588841E+01 -0.61411351297E+03  0.70588335506E+03  0.10100000352E+00 0. -1.
       -3    1    3    3    0  502  0.34802570228E+03  0.37422588841E+01 -0.11153968115E+03  0.36548188002E+03  0.10100000352E+00 0.  1.
</event>
<event>
 5   0  0.2606520E-02  0.8258094E+03  0.7818609E-02  0.9523393E-01
        1   -1    0    0  501    0  0.00000000000E+00  0.00000000000E+00  0.15877063276E+03  0.15877063284E+03  0.50400001928E-02 0. -1.
       -1   -1    0    0    0  501  0.00000000000E+00  0.00000000000E+00 -0.10738149950E+04  0.10738149951E+04  0.50400001928E-02 0.  1.
    10030    2    1    2    0    0  0.00000000000E+00  0.00000000000E+00 -0.91504436229E+03  0.12325856279E+04  0.82580938790E+03 0.  0.
        5    1    3    3  502    0  0.27884015263E+03 -0.20279714208E+03 -0.11850733226E+03  0.36461567349E+03  0.46999998093E+01 0. -1.
       -5    1    3    3    0  502 -0.27884015263E+03  0.20279714208E+03 -0.79653703003E+03  0.86796995441E+03  0.46999998093E+01 0.  1.
</event>
<event>
 5   0  0.2606520E-02  0.8011278E+03  0.7818609E-02  0.9558386E-01
       -1   -1    0    0    0  501  0.00000000000E+00  0.00000000000E+00  0.14870062578E+03  0.14870062587E+03  0.50400001928E-02 0.  1.
        1   -1    0    0  501    0  0.00000000000E+00  0.00000000000E+00 -0.10790232459E+04  0.10790232459E+04  0.50400001928E-02 0. -1.
    10030    2    1    2    0    0  0.00000000000E+00  0.00000000000E+00 -0.93032262014E+03  0.12277238718E+04  0.80112778496E+03 0.  0.
        5    1    3    3  502    0 -0.57481524836E+02 -0.26995169622E+03 -0.20338339390E+02  0.27679194721E+03  0.46999998093E+01 0.  1.
       -5    1    3    3    0  502  0.57481524836E+02  0.26995169622E+03 -0.90998428075E+03  0.95093192459E+03  0.46999998093E+01 0. -1.
</event>
<event>
 5   0  0.2769394E-02  0.7722681E+03  0.7818609E-02  0.9601049E-01
       -1   -1    0    0    0  501  0.00000000000E+00  0.00000000000E+00  0.45017073531E+03  0.45017073534E+03  0.50400001928E-02 0. -1.
        1   -1    0    0  501    0  0.00000000000E+00  0.00000000000E+00 -0.33120653015E+03  0.33120653019E+03  0.50400001928E-02 0.  1.
    10030    2    1    2    0    0  0.00000000000E+00  0.00000000000E+00  0.11896420516E+03  0.78137726553E+03  0.77226805513E+03 0.  0.
        2    1    3    3  502    0  0.32773347036E+03 -0.33421079919E+02  0.26328615664E+03  0.42171767388E+03  0.25500000920E-02 0. -1.
       -2    1    3    3    0  502 -0.32773347036E+03  0.33421079919E+02 -0.14432195148E+03  0.35965959165E+03  0.25500000920E-02 0.  1.
</event>
<event>
 5   0  0.4590462E-02  0.7768501E+03  0.7818609E-02  0.9594144E-01
       -2   -1    0    0    0  501  0.00000000000E+00  0.00000000000E+00  0.40005559920E+03  0.40005559920E+03  0.25500000920E-02 0.  1.
        2   -1    0    0  501    0  0.00000000000E+00  0.00000000000E+00 -0.37713262309E+03  0.37713262310E+03  0.25500000920E-02 0. -1.
    10030    2    1    2    0    0  0.00000000000E+00  0.00000000000E+00  0.22922976107E+02  0.77718822230E+03  0.77685009497E+03 0.  0.
        3    1    3    3  502    0 -0.12716946964E+03 -0.16926144360E+03  0.33726025526E+03  0.39820346593E+03  0.10100000352E+00 0.  1.
       -3    1    3    3    0  502  0.12716946964E+03  0.16926144360E+03 -0.31433727915E+03  0.37898475637E+03  0.10100000352E+00 0. -1.
</event>
<event>
 5   0  0.4663634E-02  0.7839518E+03  0.7818609E-02  0.9583541E-01
        2   -1    0    0  501    0  0.00000000000E+00  0.00000000000E+00  0.12030383276E+04  0.12030383276E+04  0.25500000920E-02 0.  1.
       -2   -1    0    0    0  501  0.00000000000E+00  0.00000000000E+00 -0.12771420755E+03  0.12771420758E+03  0.25500000920E-02 0. -1.
    10030    2    1    2    0    0  0.00000000000E+00  0.00000000000E+00  0.10753241201E+04  0.13307525352E+04  0.78395175025E+03 0.  0.
        5    1    3    3  502    0  0.32922850887E+02 -0.24354351048E+03  0.10559554348E+04  0.10841869423E+04  0.46999998093E+01 0.  1.
       -5    1    3    3    0  502 -0.32922850887E+02  0.24354351048E+03  0.19368685230E+02  0.24656559284E+03  0.46999998093E+01 0. -1.
</event>
<event>
 5   0  0.4377843E-02  0.8196156E+03  0.7818609E-02  0.9532050E-01
       -2   -1    0    0    0  501  0.00000000000E+00  0.00000000000E+00  0.16912711367E+03  0.16912711369E+03  0.25500000920E-02 0.  1.
        2   -1    0    0  501    0  0.00000000000E+00  0.00000000000E+00 -0.99299528299E+03  0.99299528299E+03  0.25500000920E-02 0. -1.
    10030    2    1    2    0    0  0.00000000000E+00  0.00000000000E+00 -0.82386816932E+03  0.11621223967E+04  0.81961558333E+03 0.  0.
        2    1    3    3  502    0  0.52861576516E+02 -0.37483606389E+03 -0.63452884154E+03  0.73886620698E+03  0.25500000920E-02 0. -1.
       -2    1    3    3    0  502 -0.52861576516E+02  0.37483606389E+03 -0.18933932778E+03  0.42325618970E+03  0.25500000920E-02 0.  1.
</event>
<event>
 5   0  0.2769394E-02  0.7849798E+03  0.7818609E-02  0.9582016E-01
        1   -1    0    0  501    0  0.00000000000E+00  0.00000000000E+00  0.72254895999E+03  0.72254896000E+03  0.50400001928E-02 0.  1.
       -1   -1    0    0    0  501  0.00000000000E+00  0.00000000000E+00 -0.21320120077E+03  0.21320120083E+03  0.50400001928E-02 0. -1.
    10030    2    1    2    0    0  0.00000000000E+00  0.00000000000E+00  0.50934775922E+03  0.93575016083E+03  0.78497976004E+03 0.  0.
        2    1    3    3  502    0  0.28861763697E+03  0.18909203244E+03  0.47766528413E+03  0.58925381693E+03  0.25500000920E-02 0.  1.
       -2    1    3    3    0  502 -0.28861763697E+03 -0.18909203244E+03  0.31682475089E+02  0.34649634390E+03  0.25500000920E-02 0. -1.
</event>
<event>
 5   0  0.4684283E-02  0.8008171E+03  0.7818609E-02  0.9558835E-01
        2   -1    0    0  501    0  0.00000000000E+00  0.00000000000E+00  0.48772923367E+03  0.48772923367E+03  0.25500000920E-02 0. -1.
       -2   -1    0    0    0  501  0.00000000000E+00  0.00000000000E+00 -0.32872137103E+03  0.32872137104E+03  0.25500000920E-02 0.  1.
    10030    2    1    2    0    0  0.00000000000E+00  0.00000000000E+00  0.15900786264E+03  0.81645060471E+03  0.80081713865E+03 0.  0.
        1    1    3    3  502    0  0.41858763566E+02  0.18799911745E+03 -0.27839210728E+03  0.33852324835E+03  0.50400001928E-02 0.  1.
       -1    1    3    3    0  502 -0.41858763566E+02 -0.18799911745E+03  0.43739996992E+03  0.47792735636E+03  0.50400001928E-02 0. -1.
</event>
<event>
 5   0  0.1786500E-02  0.8107429E+03  0.7818609E-02  0.9544596E-01
       -3   -1    0    0    0  501  0.00000000000E+00  0.00000000000E+00  0.42560276145E+03  0.42560277344E+03  0.10100000352E+00 0.  1.
        3   -1    0    0  501    0  0.00000000000E+00  0.00000000000E+00 -0.38610179419E+03  0.38610180740E+03  0.10100000352E+00 0. -1.
    10030    2    1    2    0    0  0.00000000000E+00  0.00000000000E+00  0.39500967261E+02  0.81170458084E+03  0.81074286931E+03 0.  0.
        4    1    3    3  502    0 -0.87087362894E+02  0.32067269974E+03 -0.21270847865E+03  0.39453985721E+03  0.12699999809E+01 0. -1.
       -4    1    3    3    0  502  0.87087362894E+02 -0.32067269974E+03  0.25220944591E+03  0.41716472363E+03  0.12699999809E+01 0.  1.
</event>
<event>
 5   0  0.1786500E-02  0.7940055E+03  0.7818609E-02  0.9568735E-01
        4   -1    0    0  501    0  0.00000000000E+00  0.00000000000E+00  0.11000513457E+04  0.11000520788E+04  0.12699999809E+01 0.  1.
       -4   -1    0    0    0  501  0.00000000000E+00  0.00000000000E+00 -0.14327259956E+03  0.14327822823E+03  0.12699999809E+01 0. -1.
    10030    2    1    2    0    0  0.00000000000E+00  0.00000000000E+00  0.95677874616E+03  0.12433303071E+04  0.79400546808E+03 0.  0.
        3    1    3    3  502    0  0.19487799829E+03  0.25667291119E+03  0.84143678292E+03  0.90104066912E+03  0.10100000352E+00 0.  1.
       -3    1    3    3    0  502 -0.19487799829E+03 -0.25667291119E+03  0.11534196324E+03  0.34228963794E+03  0.10100000352E+00 0. -1.
</event>
<event>
 5   0  0.2635243E-02  0.7840260E+03  0.7818609E-02  0.9583431E-01
       -1   -1    0    0    0  501  0.00000000000E+00  0.00000000000E+00  0.14923942999E+03  0.14923943008E+03  0.50400001928E-02 0. -1.
        1   -1    0    0  501    0  0.00000000000E+00  0.00000000000E+00 -0.10297157289E+04  0.10297157289E+04  0.50400001928E-02 0.  1.
    10030    2    1    2    0    0  0.00000000000E+00  0.00000000000E+00 -0.88047629894E+03  0.11789551590E+04  0.78402599063E+03 0.  0.
        1    1    3    3  502    0 -0.11034068769E+03 -0.35128081748E+03 -0.64254799218E+03  0.74056816187E+03  0.50400001928E-02 0.  1.
       -1    1    3    3    0  502  0.11034068769E+03  0.35128081748E+03 -0.23792830676E+03  0.43838699715E+03  0.50400001928E-02 0. -1.
</event>
<event>
 5   0  0.1786500E-02  0.7967914E+03  0.7818609E-02  0.9564673E-01
       -3   -1    0    0    0  501  0.00000000000E+00  0.00000000000E+00  0.49296267369E+03  0.49296268404E+03  0.10100000352E+00 0. -1.
        3   -1    0    0  501    0  0.00000000000E+00  0.00000000000E+00 -0.32196988787E+03  0.32196990371E+03  0.10100000352E+00 0.  1.
    10030    2    1    2    0    0  0.00000000000E+00  0.00000000000E+00  0.17099278583E+03  0.81493258775E+03  0.79679143430E+03 0.  0.
        5    1    3    3  502    0 -0.22165498067E+02 -0.81833062398E+02  0.48360024929E+03  0.49099821845E+03  0.46999998093E+01 0. -1.
       -5    1    3    3    0  502  0.22165498067E+02  0.81833062398E+02 -0.31260746346E+03  0.32393436930E+03  0.46999998093E+01 0.  1.
</event>
<event>
 5   0  0.2759559E-02  0.7985944E+03  0.7818609E-02  0.9562054E-01
        1   -1    0    0  501    0  0.00000000000E+00  0.00000000000E+00  0.11151684389E+04  0.11151684389E+04  0.50400001928E-02 0.  1.
       -1   -1    0    0    0  501  0.00000000000E+00  0.00000000000E+00 -0.14297235500E+03  0.14297235509E+03  0.50400001928E-02 0. -1.
    10030    2    1    2    0    0  0.00000000000E+00  0.00000000000E+00  0.97219608386E+03  0.12581407940E+04  0.79859441018E+03 0.  0.
        3    1    3    3  502    0  0.35556866306E+03  0.18087751463E+03  0.51304220426E+03  0.64989080852E+03  0.10100000352E+00 0.  1.
       -3    1    3    3    0  502 -0.35556866306E+03 -0.18087751463E+03  0.45915387960E+03  0.60824998545E+03  0.10100000352E+00 0. -1.
</event>
<event>
 5   0  0.2769394E-02  0.7905520E+03  0.7818609E-02  0.9573794E-01
        1   -1    0    0  501    0  0.00000000000E+00  0.00000000000E+00  0.39842227631E+03  0.39842227634E+03  0.50400001928E-02 0. -1.
       -1   -1    0    0    0  501  0.00000000000E+00  0.00000000000E+00 -0.39215457215E+03  0.39215457218E+03  0.50400001928E-02 0.  1.
    10030    2    1    2    0    0  0.00000000000E+00  0.00000000000E+00  0.62677041584E+01  0.79057684852E+03  0.79055200290E+03 0.  0.
        2    1    3    3  502    0  0.19202064101E+03  0.22060837496E+03 -0.26277511703E+03  0.39318029428E+03  0.25500000920E-02 0.  1.
       -2    1    3    3    0  502 -0.19202064101E+03 -0.22060837496E+03  0.26904282119E+03  0.39739655423E+03  0.25500000920E-02 0. -1.
</event>
<event>
 5   0  0.2759559E-02  0.6160371E+03  0.7818609E-02  0.9872682E-01
        1   -1    0    0  501    0  0.00000000000E+00  0.00000000000E+00  0.67175945199E+03  0.67175945201E+03  0.50400001928E-02 0.  1.
       -1   -1    0    0    0  501  0.00000000000E+00  0.00000000000E+00 -0.14123424590E+03  0.14123424599E+03  0.50400001928E-02 0. -1.
    10030    2    1    2    0    0  0.00000000000E+00  0.00000000000E+00  0.53052520609E+03  0.81299369800E+03  0.61603714068E+03 0.  0.
        3    1    3    3  502    0  0.56779092646E+02 -0.14159554905E+03  0.61839995964E+03  0.63693931042E+03  0.10100000352E+00 0.  1.
       -3    1    3    3    0  502 -0.56779092646E+02  0.14159554905E+03 -0.87874753556E+02  0.17605438758E+03  0.10100000352E+00 0. -1.
</event>
<event>
 5   0  0.2689372E-02  0.7803113E+03  0.7818609E-02  0.9588961E-01
       -1   -1    0    0    0  501  0.00000000000E+00  0.00000000000E+00  0.23138579035E+03  0.23138579040E+03  0.50400001928E-02 0.  1.
        1   -1    0    0  501    0  0.00000000000E+00  0.00000000000E+00 -0.65786852162E+03  0.65786852164E+03  0.50400001928E-02 0. -1.
    10030    2    1    2    0    0  0.00000000000E+00  0.00000000000E+00 -0.42648273128E+03  0.88925431204E+03  0.78031129135E+03 0.  0.
        4    1    3    3  502    0  0.33465991070E+03  0.12221935943E+03 -0.39445441078E+03  0.53153619137E+03  0.12699999809E+01 0. -1.
       -4    1    3    3    0  502 -0.33465991070E+03 -0.12221935943E+03 -0.32028320498E+02  0.35771812068E+03  0.12699999809E+01 0.  1.
</event>
<event>
 5   0  0.2769394E-02  0.7968863E+03  0.7818609E-02  0.9564535E-01
        1   -1    0    0  501    0  0.00000000000E+00  0.00000000000E+00  0.40756104646E+03  0.40756104649E+03  0.50400001928E-02 0.  1.
       -1   -1    0    0    0  501  0.00000000000E+00  0.00000000000E+00 -0.38952927933E+03  0.38952927937E+03  0.50400001928E-02 0. -1.
    10030    2    1    2    0    0  0.00000000000E+00  0.00000000000E+00  0.18031767129E+02  0.79709032586E+03  0.79688634256E+03 0.  0.
        2    1    3    3  502    0 -0.98389217500E+02  0.23665790134E+03 -0.29613524863E+03  0.39164203793E+03  0.25500000920E-02 0. -1.
       -2    1    3    3    0  502  0.98389217500E+02 -0.23665790134E+03  0.31416701576E+03  0.40544828793E+03  0.25500000920E-02 0.  1.
</event>
<event>
 5   0  0.4377843E-02  0.7910381E+03  0.7818609E-02  0.9573080E-01
       -2   -1    0    0    0  501  0.00000000000E+00  0.00000000000E+00  0.19561971033E+03  0.19561971035E+03  0.25500000920E-02 0.  1.
        2   -1    0    0  501    0  0.00000000000E+00  0.00000000000E+00 -0.79969103673E+03  0.79969103673E+03  0.25500000920E-02 0. -1.
    10030    2    1    2    0    0  0.00000000000E+00  0.00000000000E+00 -0.60407132640E+03  0.99531074708E+03  0.79103812542E+03 0.  0.
        2    1    3    3  502    0  0.21821634316E+02 -0.29598711272E+03 -0.63098801633E+03  0.69730225252E+03  0.25500000920E-02 0. -1.
       -2    1    3    3    0  502 -0.21821634316E+02  0.29598711272E+03  0.26916689928E+02  0.29800849455E+03  0.25500000920E-02 0.  1.
</event>
<event>
 5   0  0.2769394E-02  0.8050536E+03  0.7818609E-02  0.9552731E-01
       -1   -1    0    0    0  501  0.00000000000E+00  0.00000000000E+00  0.60091978484E+03  0.60091978486E+03  0.50400001928E-02 0.  1.
        1   -1    0    0  501    0  0.00000000000E+00  0.00000000000E+00 -0.26963302451E+03  0.26963302456E+03  0.50400001928E-02 0. -1.
    10030    2    1    2    0    0  0.00000000000E+00  0.00000000000E+00  0.33128676033E+03  0.87055280942E+03  0.80505358606E+03 0.  0.
        2    1    3    3  502    0  0.37892020766E+03  0.74553711808E+02  0.42876672885E+02  0.38855783199E+03  0.25500000920E-02 0. -1.
       -2    1    3    3    0  502 -0.37892020766E+03 -0.74553711808E+02  0.28841008744E+03  0.48199497743E+03  0.25500000920E-02 0.  1.
</event>
<event>
 5   0  0.2606520E-02  0.8229749E+03  0.7818609E-02  0.9527345E-01
       -1   -1    0    0    0  501  0.00000000000E+00  0.00000000000E+00  0.15772263597E+03  0.15772263605E+03  0.50400001928E-02 0. -1.
        1   -1    0    0  501    0  0.00000000000E+00  0.00000000000E+00 -0.10735422419E+04  0.10735422419E+04  0.50400001928E-02 0.  1.
    10030    2    1    2    0    0  0.00000000000E+00  0.00000000000E+00 -0.91581960589E+03  0.12312648779E+04  0.82297487755E+03 0.  0.
        5    1    3    3  502    0  0.31369450149E+03  0.15644772135E+03 -0.13556843626E+03  0.37587367650E+03  0.46999998093E+01 0. -1.
       -5    1    3    3    0  502 -0.31369450149E+03 -0.15644772135E+03 -0.78025116963E+03  0.85539120143E+03  0.46999998093E+01 0.  1.
</event>
<event>
 5   0  0.1786500E-02  0.8779119E+03  0.7818609E-02  0.9453622E-01
       -3   -1    0    0    0  501  0.00000000000E+00  0.00000000000E+00  0.10771481064E+04  0.10771481112E+04  0.10100000352E+00 0. -1.
        3   -1    0    0  501    0  0.00000000000E+00  0.00000000000E+00 -0.17888190060E+03  0.17888192912E+03  0.10100000352E+00 0.  1.
    10030    2    1    2    0    0  0.00000000000E+00  0.00000000000E+00  0.89826620583E+03  0.12560300403E+04  0.87791188941E+03 0.  0.
        2    1    3    3  502    0 -0.26272406545E+03  0.32160446310E+03  0.24564649504E+03  0.48248892814E+03  0.25500000920E-02 0.  1.
       -2    1    3    3    0  502  0.26272406545E+03 -0.32160446310E+03  0.65261971079E+03  0.77354111214E+03  0.25500000920E-02 0. -1.
</event>
<event>
 5   0  0.4590462E-02  0.7828436E+03  0.7818609E-02  0.9585188E-01
        2   -1    0    0  501    0  0.00000000000E+00  0.00000000000E+00  0.45206408334E+03  0.45206408335E+03  0.25500000920E-02 0.  1.
       -2   -1    0    0    0  501  0.00000000000E+00  0.00000000000E+00 -0.33891436224E+03  0.33891436225E+03  0.25500000920E-02 0. -1.
    10030    2    1    2    0    0  0.00000000000E+00  0.00000000000E+00  0.11314972110E+03  0.79097844560E+03  0.78284356165E+03 0.  0.
        3    1    3    3  502    0  0.18468814601E+03  0.17745991318E+03  0.35563924175E+03  0.43827047874E+03  0.10100000352E+00 0.  1.
       -3    1    3    3    0  502 -0.18468814601E+03 -0.17745991318E+03 -0.24248952064E+03  0.35270796686E+03  0.10100000352E+00 0. -1.
</event>
<event>
 5   0  0.4590462E-02  0.8027762E+03  0.7818609E-02  0.9556007E-01
       -2   -1    0    0    0  501  0.00000000000E+00  0.00000000000E+00  0.62725038305E+03  0.62725038305E+03  0.25500000920E-02 0. -1.
        2   -1    0    0  501    0  0.00000000000E+00  0.00000000000E+00 -0.25685499036E+03  0.25685499037E+03  0.25500000920E-02 0.  1.
    10030    2    1    2    0    0  0.00000000000E+00  0.00000000000E+00  0.37039539269E+03  0.88410537342E+03  0.80277616083E+03 0.  0.
        3    1    3    3  502    0  0.23536796962E+03 -0.50593075056E+02  0.53891307960E+03  0.59024152508E+03  0.10100000352E+00 0. -1.
       -3    1    3    3    0  502 -0.23536796962E+03  0.50593075056E+02 -0.16851768690E+03  0.29386384835E+03  0.10100000352E+00 0.  1.
</event>
<event>
 5   0  0.4700220E-02  0.7948210E+03  0.7818609E-02  0.9567544E-01
        2   -1    0    0  501    0  0.00000000000E+00  0.00000000000E+00  0.16234581821E+04  0.16234581821E+04  0.25500000920E-02 0.  1.
       -2   -1    0    0    0  501  0.00000000000E+00  0.00000000000E+00 -0.97283138048E+02  0.97283138082E+02  0.25500000920E-02 0. -1.
    10030    2    1    2    0    0  0.00000000000E+00  0.00000000000E+00  0.15261750441E+04  0.17207413202E+04  0.79482100243E+03 0.  0.
        4    1    3    3  502    0 -0.70728407682E+02 -0.60021620125E+02 -0.73511679992E+02  0.11836672899E+03  0.12699999809E+01 0. -1.
       -4    1    3    3    0  502  0.70728407682E+02  0.60021620125E+02  0.15996867241E+04  0.16023745912E+04  0.12699999809E+01 0.  1.
</event>
<event>
 5   0  0.4590462E-02  0.8027628E+03  0.7818609E-02  0.9556027E-01
       -2   -1    0    0    0  501  0.00000000000E+00  0.00000000000E+00  0.78304631460E+03  0.78304631460E+03  0.25500000920E-02 0. -1.
        2   -1    0    0  501    0  0.00000000000E+00  0.00000000000E+00 -0.20574392646E+03  0.20574392647E+03  0.25500000920E-02 0.  1.
    10030    2    1    2    0    0  0.00000000000E+00  0.00000000000E+00  0.57730238814E+03  0.98879024107E+03  0.80276278780E+03 0.  0.
        3    1    3    3  502    0  0.15461107393E+03  0.75249452002E+02 -0.15807947982E+03  0.23357267895E+03  0.10100000352E+00 0.  1.
       -3    1    3    3    0  502 -0.15461107393E+03 -0.75249452002E+02  0.73538186796E+03  0.75521756212E+03  0.10100000352E+00 0. -1.
</event>
<event>
 5   0  0.4684283E-02  0.7870595E+03  0.7818609E-02  0.9578939E-01
        2   -1    0    0  501    0  0.00000000000E+00  0.00000000000E+00  0.11364826240E+04  0.11364826240E+04  0.25500000920E-02 0. -1.
       -2   -1    0    0    0  501  0.00000000000E+00  0.00000000000E+00 -0.13626753323E+03  0.13626753326E+03  0.25500000920E-02 0.  1.
    10030    2    1    2    0    0  0.00000000000E+00  0.00000000000E+00  0.10002150907E+04  0.12727501572E+04  0.78705954983E+03 0.  0.
        1    1    3    3  502    0  0.32315429523E+03 -0.22318179273E+03  0.54059544114E+03  0.66819326706E+03  0.50400001928E-02 0. -1.
       -1    1    3    3    0  502 -0.32315429523E+03  0.22318179273E+03  0.45961964959E+03  0.60455689017E+03  0.50400001928E-02 0.  1.
</event>
<event>
 5   0  0.4663634E-02  0.7912748E+03  0.7818609E-02  0.9572733E-01
        2   -1    0    0  501    0  0.00000000000E+00  0.00000000000E+00  0.55597638518E+03  0.55597638518E+03  0.25500000920E-02 0. -1.
       -2   -1    0    0    0  501  0.00000000000E+00  0.00000000000E+00 -0.28153888046E+03  0.28153888047E+03  0.25500000920E-02 0.  1.
    10030    2    1    2    0    0  0.00000000000E+00  0.00000000000E+00  0.27443750471E+03  0.83751526566E+03  0.79127484240E+03 0.  0.
        5    1    3    3  502    0 -0.42856751475E+02 -0.37693417316E+03  0.18452744848E+02  0.37984031623E+03  0.46999998093E+01 0.  1.
       -5    1    3    3    0  502  0.42856751475E+02  0.37693417316E+03  0.25598475987E+03  0.45767494942E+03  0.46999998093E+01 0. -1.
</event>
<event>
 5   0  0.4663634E-02  0.8127128E+03  0.7818609E-02  0.9541796E-01
        2   -1    0    0  501    0  0.00000000000E+00  0.00000000000E+00  0.12849227911E+04  0.12849227911E+04  0.25500000920E-02 0. -1.
       -2   -1    0    0    0  501  0.00000000000E+00  0.00000000000E+00 -0.12851006013E+03  0.12851006016E+03  0.25500000920E-02 0.  1.
    10030    2    1    2    0    0  0.00000000000E+00  0.00000000000E+00  0.11564127310E+04  0.14134328512E+04  0.81271275409E+03 0.  0.
        5    1    3    3  502    0 -0.18413672782E+03 -0.35606434322E+03  0.69376873807E+03  0.80126481451E+03  0.46999998093E+01 0. -1.
       -5    1    3    3    0  502  0.18413672782E+03  0.35606434322E+03  0.46264399288E+03  0.61216803673E+03  0.46999998093E+01 0.  1.
</event>
<event>
 5   0  0.2759559E-02  0.7574206E+03  0.7818609E-02  0.9623780E-01
       -1   -1    0    0    0  501  0.00000000000E+00  0.00000000000E+00  0.12902595231E+03  0.12902595241E+03  0.50400001928E-02 0.  1.
        1   -1    0    0  501    0  0.00000000000E+00  0.00000000000E+00 -0.11115707827E+04  0.11115707827E+04  0.50400001928E-02 0. -1.
    10030    2    1    2    0    0  0.00000000000E+00  0.00000000000E+00 -0.98254483034E+03  0.12405967351E+04  0.75742056708E+03 0.  0.
        3    1    3    3  502    0 -0.24713055248E+03 -0.85808608914E+02 -0.93979082987E+03  0.97552213785E+03  0.10100000352E+00 0. -1.
       -3    1    3    3    0  502  0.24713055248E+03  0.85808608914E+02 -0.42754000470E+02  0.26507459722E+03  0.10100000352E+00 0.  1.
</event>
<event>
 5   0  0.1786500E-02  0.8423920E+03  0.7818609E-02  0.9500605E-01
        3   -1    0    0  501    0  0.00000000000E+00  0.00000000000E+00  0.14054358036E+03  0.14054361665E+03  0.10100000352E+00 0. -1.
       -3   -1    0    0    0  501  0.00000000000E+00  0.00000000000E+00 -0.12622848272E+04  0.12622848312E+04  0.10100000352E+00 0.  1.
    10030    2    1    2    0    0  0.00000000000E+00  0.00000000000E+00 -0.11217412468E+04  0.14028284479E+04  0.84239196896E+03 0.  0.
        5    1    3    3  502    0  0.14159228965E+03  0.39665367759E+03 -0.55886471907E+03  0.69981024618E+03  0.46999998093E+01 0. -1.
       -5    1    3    3    0  502 -0.14159228965E+03 -0.39665367759E+03 -0.56287652778E+03  0.70301820173E+03  0.46999998093E+01 0.  1.
</event>
<event>
 5   0  0.2635243E-02  0.7654671E+03  0.7818609E-02  0.9611393E-01
       -1   -1    0    0    0  501  0.00000000000E+00  0.00000000000E+00  0.21747335410E+03  0.21747335415E+03  0.50400001928E-02 0.  1.
        1   -1    0    0  501    0  0.00000000000E+00  0.00000000000E+00 -0.67357664199E+03  0.67357664201E+03  0.50400001928E-02 0. -1.
    10030    2    1    2    0    0  0.00000000000E+00  0.00000000000E+00 -0.45610328789E+03  0.89104999616E+03  0.76546710343E+03 0.  0.
        1    1    3    3  502    0  0.14883431431E+03 -0.11675243996E+03 -0.61535712250E+03  0.64377571683E+03  0.50400001928E-02 0. -1.
       -1    1    3    3    0  502 -0.14883431431E+03  0.11675243996E+03  0.15925383461E+03  0.24727427932E+03  0.50400001928E-02 0.  1.
</event>
<event>
 5   0  0.2759559E-02  0.7790958E+03  0.7818609E-02  0.9590778E-01
       -1   -1    0    0    0  501  0.00000000000E+00  0.00000000000E+00  0.14512080114E+03  0.14512080123E+03  0.50400001928E-02 0.  1.
        1   -1    0    0  501    0  0.00000000000E+00  0.00000000000E+00 -0.10456638839E+04  0.10456638839E+04  0.50400001928E-02 0. -1.
    10030    2    1    2    0    0  0.00000000000E+00  0.00000000000E+00 -0.90054308278E+03  0.11907846852E+04  0.77909583651E+03 0.  0.
        3    1    3    3  502    0  0.29796296545E+03  0.24228923580E+03 -0.55004776459E+03  0.67084913065E+03  0.10100000352E+00 0. -1.
       -3    1    3    3    0  502 -0.29796296545E+03 -0.24228923580E+03 -0.35049531819E+03  0.51993555451E+03  0.10100000352E+00 0.  1.
</event>
<event>
 5   0  0.2635243E-02  0.7998632E+03  0.7818609E-02  0.9560215E-01
       -1   -1    0    0    0  501  0.00000000000E+00  0.00000000000E+00  0.16632828717E+03  0.16632828724E+03  0.50400001928E-02 0. -1.
        1   -1    0    0  501    0  0.00000000000E+00  0.00000000000E+00 -0.96162411682E+03  0.96162411683E+03  0.50400001928E-02 0.  1.
    10030    2    1    2    0    0  0.00000000000E+00  0.00000000000E+00 -0.79529582965E+03  0.11279524041E+04  0.79986321905E+03 0.  0.
        1    1    3    3  502    0  0.26277277473E+03  0.27873214173E+03 -0.23560488946E+03  0.44972302803E+03  0.50400001928E-02 0. -1.
       -1    1    3    3    0  502 -0.26277277473E+03 -0.27873214173E+03 -0.55969094019E+03  0.67822937604E+03  0.50400001928E-02 0.  1.
</event>
<event>
 5   0  0.2689372E-02  0.6632031E+03  0.7818609E-02  0.9782315E-01
       -1   -1    0    0    0  501  0.00000000000E+00  0.00000000000E+00  0.24061713193E+03  0.24061713199E+03  0.50400001928E-02 0.  1.
        1   -1    0    0  501    0  0.00000000000E+00  0.00000000000E+00 -0.45698988026E+03  0.45698988029E+03  0.50400001928E-02 0. -1.
    10030    2    1    2    0    0  0.00000000000E+00  0.00000000000E+00 -0.21637274833E+03  0.69760701227E+03  0.66320311923E+03 0.  0.
        4    1    3    3  502    0  0.26123934472E+03 -0.16092448780E+03 -0.24046903798E+03  0.38983285794E+03  0.12699999809E+01 0. -1.
       -4    1    3    3    0  502 -0.26123934472E+03  0.16092448780E+03  0.24096289651E+02  0.30777415434E+03  0.12699999809E+01 0.  1.
</event>
<event>
 5   0  0.4700220E-02  0.7977721E+03  0.7818609E-02  0.9563248E-01
       -2   -1    0    0    0  501  0.00000000000E+00  0.00000000000E+00  0.13268712333E+03  0.13268712335E+03  0.25500000920E-02 0. -1.
        2   -1    0    0  501    0  0.00000000000E+00  0.00000000000E+00 -0.11991372828E+04  0.11991372828E+04  0.25500000920E-02 0.  1.
    10030    2    1    2    0    0  0.00000000000E+00  0.00000000000E+00 -0.10664501595E+04  0.13318244061E+04  0.79777208911E+03 0.  0.
        4    1    3    3  502    0 -0.30340010155E+03  0.69474842785E+02 -0.94968032808E+03  0.99938616852E+03  0.12699999809E+01 0.  1.
       -4    1    3    3    0  502  0.30340010155E+03 -0.69474842785E+02 -0.11676983138E+03  0.33243823761E+03  0.12699999809E+01 0. -1.
</event>
<event>
 5   0  0.4663634E-02  0.8071120E+03  0.7818609E-02  0.9549779E-01
       -2   -1    0    0    0  501  0.00000000000E+00  0.00000000000E+00  0.10716954140E+03  0.10716954143E+03  0.25500000920E-02 0.  1.
        2   -1    0    0  501    0  0.00000000000E+00  0.00000000000E+00 -0.15196243089E+04  0.15196243089E+04  0.25500000920E-02 0. -1.
    10030    2    1    2    0    0  0.00000000000E+00  0.00000000000E+00 -0.14124547675E+04  0.16267938503E+04  0.80711198802E+03 0.  0.
        5    1    3    3  502    0  0.20103051333E+03  0.23764965089E+02 -0.14098252545E+04  0.14242918869E+04  0.46999998093E+01 0. -1.
       -5    1    3    3    0  502 -0.20103051333E+03 -0.23764965089E+02 -0.26295130016E+01  0.20250196343E+03  0.46999998093E+01 0.  1.
</event>
<event>
 5   0  0.2635243E-02  0.8829833E+03  0.7818609E-02  0.9447107E-01
        1   -1    0    0  501    0  0.00000000000E+00  0.00000000000E+00  0.19045906800E+04  0.19045906800E+04  0.50400001928E-02 0.  1.
       -1   -1    0    0    0  501  0.00000000000E+00  0.00000000000E+00 -0.10233950056E+03  0.10233950069E+03  0.50400001928E-02 0. -1.
    10030    2    1    2    0    0  0.00000000000E+00  0.00000000000E+00  0.18022511795E+04  0.20069301807E+04  0.88298325943E+03 0.  0.
        1    1    3    3  502    0  0.10589415109E+03 -0.36533603190E+03  0.14105328747E+04  0.14609199081E+04  0.50400001928E-02 0.  1.
       -1    1    3    3    0  502 -0.10589415109E+03  0.36533603190E+03  0.39171830482E+03  0.54601027261E+03  0.50400001928E-02 0. -1.
</event>
<event>
 5   0  0.4590462E-02  0.7319575E+03  0.7818609E-02  0.9664089E-01
       -2   -1    0    0    0  501  0.00000000000E+00  0.00000000000E+00  0.16801073364E+03  0.16801073366E+03  0.25500000920E-02 0. -1.
        2   -1    0    0  501    0  0.00000000000E+00  0.00000000000E+00 -0.79721368598E+03  0.79721368598E+03  0.25500000920E-02 0.  1.
    10030    2    1    2    0    0  0.00000000000E+00  0.00000000000E+00 -0.62920295234E+03  0.96522441964E+03  0.73195752953E+03 0.  0.
        3    1    3    3  502    0  0.57784892225E+02  0.19914186297E+02 -0.79043592241E+03  0.79279545043E+03  0.10100000352E+00 0.  1.
       -3    1    3    3    0  502 -0.57784892225E+02 -0.19914186297E+02  0.16123297007E+03  0.17242896921E+03  0.10100000352E+00 0. -1.
</event>
<event>
 5   0  0.4684283E-02  0.8036697E+03  0.7818609E-02  0.9554720E-01
       -2   -1    0    0    0  501  0.00000000000E+00  0.00000000000E+00  0.29903621167E+03  0.29903621169E+03  0.25500000920E-02 0. -1.
        2   -1    0    0  501    0  0.00000000000E+00  0.00000000000E+00 -0.53997226729E+03  0.53997226730E+03  0.25500000920E-02 0.  1.
    10030    2    1    2    0    0  0.00000000000E+00  0.00000000000E+00 -0.24093605562E+03  0.83900847898E+03  0.80366973622E+03 0.  0.
        1    1    3    3  502    0  0.27493406175E+03 -0.26515880941E+03 -0.25074854088E+03  0.45691658243E+03  0.50400001928E-02 0.  1.
       -1    1    3    3    0  502 -0.27493406175E+03  0.26515880941E+03  0.98124852630E+01  0.38209189655E+03  0.50400001928E-02 0. -1.
</event>
<event>
 5   0  0.4377843E-02  0.7981743E+03  0.7818609E-02  0.9562664E-01
        2   -1    0    0  501    0  0.00000000000E+00  0.00000000000E+00  0.41117883847E+03  0.41117883848E+03  0.25500000920E-02 0. -1.
       -2   -1    0    0    0  501  0.00000000000E+00  0.00000000000E+00 -0.38735101359E+03  0.38735101360E+03  0.25500000920E-02 0.  1.
    10030    2    1    2    0    0  0.00000000000E+00  0.00000000000E+00  0.23827824879E+02  0.79852985208E+03  0.79817426633E+03 0.  0.
        2    1    3    3  502    0  0.84788634497E+02  0.16274115305E+01 -0.37823261245E+03  0.38762310320E+03  0.25500000920E-02 0.  1.
       -2    1    3    3    0  502 -0.84788634497E+02 -0.16274115305E+01  0.40206043733E+03  0.41090674888E+03  0.25500000920E-02 0. -1.
</event>
<event>
 5   0  0.1786500E-02  0.8173938E+03  0.7818609E-02  0.9535176E-01
        4   -1    0    0  501    0  0.00000000000E+00  0.00000000000E+00  0.43792031972E+03  0.43792216126E+03  0.12699999809E+01 0. -1.
       -4   -1    0    0    0  501  0.00000000000E+00  0.00000000000E+00 -0.38141992084E+03  0.38142203517E+03  0.12699999809E+01 0.  1.
    10030    2    1    2    0    0  0.00000000000E+00  0.00000000000E+00  0.56500398877E+02  0.81934419643E+03  0.81739379564E+03 0.  0.
        5    1    3    3  502    0 -0.97107349484E+01  0.23420789226E+03  0.36380773704E+03  0.43281150020E+03  0.46999998093E+01 0. -1.
       -5    1    3    3    0  502  0.97107349484E+01 -0.23420789226E+03 -0.30730733817E+03  0.38653269624E+03  0.46999998093E+01 0.  1.
</event>
<event>
 5   0  0.2689372E-02  0.7909989E+03  0.7818609E-02  0.9573138E-01
        1   -1    0    0  501    0  0.00000000000E+00  0.00000000000E+00  0.13240536164E+04  0.13240536165E+04  0.50400001928E-02 0.  1.
       -1   -1    0    0    0  501  0.00000000000E+00  0.00000000000E+00 -0.11813707129E+03  0.11813707140E+03  0.50400001928E-02 0. -1.
    10030    2    1    2    0    0  0.00000000000E+00  0.00000000000E+00  0.12059165452E+04  0.14421906879E+04  0.79099890409E+03 0.  0.
        4    1    3    3  502    0 -0.19639275231E+02  0.36456172500E+03  0.88023205955E+03  0.95294335825E+03  0.12699999809E+01 0.  1.
       -4    1    3    3    0  502  0.19639275231E+02 -0.36456172500E+03  0.32568448561E+03  0.48924732961E+03  0.12699999809E+01 0. -1.
</event>
<event>
 5   0  0.4663634E-02  0.7877069E+03  0.7818609E-02  0.9577983E-01
       -2   -1    0    0    0  501  0.00000000000E+00  0.00000000000E+00  0.34642635304E+03  0.34642635305E+03  0.25500000920E-02 0. -1.
        2   -1    0    0  501    0  0.00000000000E+00  0.00000000000E+00 -0.44777346456E+03  0.44777346457E+03  0.25500000920E-02 0.  1.
    10030    2    1    2    0    0  0.00000000000E+00  0.00000000000E+00 -0.10134711152E+03  0.79419981762E+03  0.78770687016E+03 0.  0.
        5    1    3    3  502    0 -0.37294923716E+03 -0.82411991630E+02  0.46115491446E+02  0.38474874712E+03  0.46999998093E+01 0. -1.
       -5    1    3    3    0  502  0.37294923716E+03  0.82411991630E+02 -0.14746260296E+03  0.40945107050E+03  0.46999998093E+01 0.  1.
</event>
<event>
 5   0  0.1786500E-02  0.7920397E+03  0.7818609E-02  0.9571611E-01
        4   -1    0    0  501    0  0.00000000000E+00  0.00000000000E+00  0.51247020013E+03  0.51247177378E+03  0.12699999809E+01 0. -1.
       -4   -1    0    0    0  501  0.00000000000E+00  0.00000000000E+00 -0.30602755721E+03  0.30603019242E+03  0.12699999809E+01 0.  1.
    10030    2    1    2    0    0  0.00000000000E+00  0.00000000000E+00  0.20644264292E+03  0.81850196619E+03  0.79203971103E+03 0.  0.
        1    1    3    3  502    0 -0.20276625328E+03 -0.30147067342E+03 -0.59628547342E+02  0.36817697387E+03  0.50400001928E-02 0.  1.
       -1    1    3    3    0  502  0.20276625328E+03  0.30147067342E+03  0.26607119026E+03  0.45032499233E+03  0.50400001928E-02 0. -1.
</event>
<event>
 5   0  0.2606520E-02  0.8002012E+03  0.7818609E-02  0.9559726E-01
       -1   -1    0    0    0  501  0.00000000000E+00  0.00000000000E+00  0.18276216743E+03  0.18276216750E+03  0.50400001928E-02 0. -1.
        1   -1    0    0  501    0  0.00000000000E+00  0.00000000000E+00 -0.87589504502E+03  0.87589504503E+03  0.50400001928E-02 0.  1.
    10030    2    1    2    0    0  0.00000000000E+00  0.00000000000E+00 -0.69313287759E+03  0.10586572125E+04  0.80020116699E+03 0.  0.
        5    1    3    3  502    0 -0.11333327752E+02  0.29175373214E+03  0.15289032630E+02  0.29241157476E+03  0.46999998093E+01 0. -1.
       -5    1    3    3    0  502  0.11333327752E+02 -0.29175373214E+03 -0.70842191022E+03  0.76624563777E+03  0.46999998093E+01 0.  1.
</event>
<event>
 5   0  0.2689372E-02  0.7984615E+03  0.7818609E-02  0.9562247E-01
       -1   -1    0    0    0  501  0.00000000000E+00  0.00000000000E+00  0.44800651483E+03  0.44800651486E+03  0.50400001928E-02 0.  1.
        1   -1    0    0  501    0  0.00000000000E+00  0.00000000000E+00 -0.35576530914E+03  0.35576530918E+03  0.50400001928E-02 0. -1.
    10030    2    1    2    0    0  0.00000000000E+00  0.00000000000E+00  0.92241205682E+02  0.80377182404E+03  0.79846146124E+03 0.  0.
        4    1    3    3  502    0 -0.17680642572E+03  0.24426903839E+03  0.30950108533E+03  0.43211157126E+03  0.12699999809E+01 0.  1.
       -4    1    3    3    0  502  0.17680642572E+03 -0.24426903839E+03 -0.21725987965E+03  0.37166025278E+03  0.12699999809E+01 0. -1.
</event>
<event>
 5   0  0.2759559E-02  0.7960669E+03  0.7818609E-02  0.9565728E-01
       -1   -1    0    0    0  501  0.00000000000E+00  0.00000000000E+00  0.92758862019E+02  0.92758862155E+02  0.50400001928E-02 0.  1.
        1   -1    0    0  501    0  0.00000000000E+00  0.00000000000E+00 -0.17079837995E+04  0.17079837995E+04  0.50400001928E-02 0. -1.
    10030    2    1    2    0    0  0.00000000000E+00  0.00000000000E+00 -0.16152249375E+04  0.18007426617E+04  0.79606691608E+03 0.  0.
        3    1    3    3  502    0 -0.23226005920E+03  0.25813434074E+03 -0.36751420793E+03  0.50561326743E+03  0.10100000352E+00 0.  1.
       -3    1    3    3    0  502  0.23226005920E+03 -0.25813434074E+03 -0.12477107296E+04  0.12951293942E+04  0.10100000352E+00 0. -1.
</event>
<event>
 5   0  0.1786500E-02  0.7990189E+03  0.7818609E-02  0.9561438E-01
       -3   -1    0    0    0  501  0.00000000000E+00  0.00000000000E+00  0.43315481007E+03  0.43315482184E+03  0.10100000352E+00 0.  1.
        3   -1    0    0  501    0  0.00000000000E+00  0.00000000000E+00 -0.36847747617E+03  0.36847749001E+03  0.10100000352E+00 0. -1.
    10030    2    1    2    0    0  0.00000000000E+00  0.00000000000E+00  0.64677333901E+02  0.80163231185E+03  0.79901890208E+03 0.  0.
        1    1    3    3  502    0  0.10761376687E+03  0.10456842616E+03 -0.33913244450E+03  0.37084510716E+03  0.50400001928E-02 0. -1.
       -1    1    3    3    0  502 -0.10761376687E+03 -0.10456842616E+03  0.40380977840E+03  0.43078720469E+03  0.50400001928E-02 0.  1.
</event>
<event>
 5   0  0.2606520E-02  0.8076784E+03  0.7818609E-02  0.9548969E-01
       -1   -1    0    0    0  501  0.00000000000E+00  0.00000000000E+00  0.36514119116E+03  0.36514119120E+03  0.50400001928E-02 0.  1.
        1   -1    0    0  501    0  0.00000000000E+00  0.00000000000E+00 -0.44663850443E+03  0.44663850446E+03  0.50400001928E-02 0. -1.
    10030    2    1    2    0    0  0.00000000000E+00  0.00000000000E+00 -0.81497313269E+02  0.81177969566E+03  0.80767843986E+03 0.  0.
        5    1    3    3  502    0 -0.36725431722E+03  0.12551779650E+03  0.71323492500E+02  0.39463854517E+03  0.46999998093E+01 0. -1.
       -5    1    3    3    0  502  0.36725431722E+03 -0.12551779650E+03 -0.15282080577E+03  0.41714115049E+03  0.46999998093E+01 0.  1.
</event>
<event>
 5   0  0.2635243E-02  0.8234424E+03  0.7818609E-02  0.9526692E-01
       -1   -1    0    0    0  501  0.00000000000E+00  0.00000000000E+00  0.55830489118E+03  0.55830489120E+03  0.50400001928E-02 0. -1.
        1   -1    0    0  501    0  0.00000000000E+00  0.00000000000E+00 -0.30362328682E+03  0.30362328686E+03  0.50400001928E-02 0.  1.
    10030    2    1    2    0    0  0.00000000000E+00  0.00000000000E+00  0.25468160436E+03  0.86192817806E+03  0.82344244762E+03 0.  0.
        1    1    3    3  502    0  0.21499200429E+03  0.29207633580E+03 -0.76663546214E+02  0.37068510516E+03  0.50400001928E-02 0.  1.
       -1    1    3    3    0  502 -0.21499200429E+03 -0.29207633580E+03  0.33134515057E+03  0.49124307290E+03  0.50400001928E-02 0. -1.
</event>
<event>
 5   0  0.1786500E-02  0.7938200E+03  0.7818609E-02  0.9569006E-01
       -3   -1    0    0    0  501  0.00000000000E+00  0.00000000000E+00  0.47444344798E+03  0.47444345873E+03  0.10100000352E+00 0.  1.
        3   -1    0    0  501    0  0.00000000000E+00  0.00000000000E+00 -0.33204704293E+03  0.33204705829E+03  0.10100000352E+00 0. -1.
    10030    2    1    2    0    0  0.00000000000E+00  0.00000000000E+00  0.14239640504E+03  0.80649051702E+03  0.79382001604E+03 0.  0.
        2    1    3    3  502    0  0.74448014736E+02  0.18491405749E+02  0.46684065760E+03  0.47310108706E+03  0.25500000920E-02 0.  1.
       -2    1    3    3    0  502 -0.74448014736E+02 -0.18491405749E+02 -0.32444425256E+03  0.33338942996E+03  0.25500000920E-02 0. -1.
</event>
<event>
 5   0  0.4684283E-02  0.8007604E+03  0.7818609E-02  0.9558917E-01
       -2   -1    0    0    0  501  0.00000000000E+00  0.00000000000E+00  0.62948754386E+03  0.62948754387E+03  0.25500000920E-02 0.  1.
        2   -1    0    0  501    0  0.00000000000E+00  0.00000000000E+00 -0.25465845022E+03  0.25465845023E+03  0.25500000920E-02 0. -1.
    10030    2    1    2    0    0  0.00000000000E+00  0.00000000000E+00  0.37482909364E+03  0.88414599410E+03  0.80076044448E+03 0.  0.
        1    1    3    3  502    0 -0.45508043641E+02 -0.77450886430E+02 -0.24338793856E+03  0.25943652501E+03  0.50400001928E-02 0. -1.
       -1    1    3    3    0  502  0.45508043641E+02  0.77450886430E+02  0.61821703220E+03  0.62470946909E+03  0.50400001928E-02 0.  1.
</event>
<event>
 5   0  0.2635243E-02  0.8066771E+03  0.7818609E-02  0.9550402E-01
       -1   -1    0    0    0  501  0.00000000000E+00  0.00000000000E+00  0.11212232519E+04  0.11212232519E+04  0.50400001928E-02 0. -1.
        1   -1    0    0  501    0  0.00000000000E+00  0.00000000000E+00 -0.14509331443E+03  0.14509331451E+03  0.50400001928E-02 0.  1.
    10030    2    1    2    0    0  0.00000000000E+00  0.00000000000E+00  0.97612993746E+03  0.12663165664E+04  0.80667712969E+03 0.  0.
        1    1    3    3  502    0 -0.27472909855E+03  0.24631969892E+03  0.74376562640E+03  0.83026307801E+03  0.50400001928E-02 0. -1.
       -1    1    3    3    0  502  0.27472909855E+03 -0.24631969892E+03  0.23236431105E+03  0.43605348840E+03  0.50400001928E-02 0.  1.
</event>
<event>
 5   0  0.4700220E-02  0.7484757E+03  0.7818609E-02  0.9637745E-01
       -2   -1    0    0    0  501  0.00000000000E+00  0.00000000000E+00  0.12485228565E+03  0.12485228568E+03  0.25500000920E-02 0. -1.
        2   -1    0    0  501    0  0.00000000000E+00  0.00000000000E+00 -0.11217573116E+04  0.11217573116E+04  0.25500000920E-02 0.  1.
    10030    2    1    2    0    0  0.00000000000E+00  0.00000000000E+00 -0.99690502591E+03  0.12466095972E+04  0.74847568914E+03 0.  0.
        4    1    3    3  502    0 -0.54909672035E+01 -0.18678594939E+03 -0.10384885346E+04  0.10551678497E+04  0.12699999809E+01 0.  1.
       -4    1    3    3    0  502  0.54909672035E+01  0.18678594939E+03  0.41583508694E+02  0.19144174755E+03  0.12699999809E+01 0. -1.
</event>
<event>
 5   0  0.4663634E-02  0.7919364E+03  0.7818609E-02  0.9571763E-01
       -2   -1    0    0    0  501  0.00000000000E+00  0.00000000000E+00  0.67460424822E+03  0.67460424823E+03  0.25500000920E-02 0.  1.
        2   -1    0    0  501    0  0.00000000000E+00  0.00000000000E+00 -0.23241895772E+03  0.23241895773E+03  0.25500000920E-02 0. -1.
    10030    2    1    2    0    0  0.00000000000E+00  0.00000000000E+00  0.44218529050E+03  0.90702320596E+03  0.79193640213E+03 0.  0.
        5    1    3    3  502    0  0.10427130777E+03  0.10121181333E+03  0.64292687375E+03  0.65916112732E+03  0.46999998093E+01 0.  1.
       -5    1    3    3    0  502 -0.10427130777E+03 -0.10121181333E+03 -0.20074158325E+03  0.24786207864E+03  0.46999998093E+01 0. -1.
</event>
<event>
 5   0  0.2769394E-02  0.8081667E+03  0.7818609E-02  0.9548271E-01
        1   -1    0    0  501    0  0.00000000000E+00  0.00000000000E+00  0.40363308735E+03  0.40363308738E+03  0.50400001928E-02 0. -1.
       -1   -1    0    0    0  501  0.00000000000E+00  0.00000000000E+00 -0.40453413840E+03  0.40453413843E+03  0.50400001928E-02 0.  1.
    10030    2    1    2    0    0  0.00000000000E+00  0.00000000000E+00 -0.90105104717E+00  0.80816722581E+03  0.80816672350E+03 0.  0.
        2    1    3    3  502    0  0.15455869127E+03  0.20198239534E+03 -0.31445404259E+03  0.40443370530E+03  0.25500000920E-02 0.  1.
       -2    1    3    3    0  502 -0.15455869127E+03 -0.20198239534E+03  0.31355299154E+03  0.40373352051E+03  0.25500000920E-02 0. -1.
</event>
<event>
 5   0  0.2635243E-02  0.7980197E+03  0.7818609E-02  0.9562888E-01
       -1   -1    0    0    0  501  0.00000000000E+00  0.00000000000E+00  0.18885903716E+03  0.18885903723E+03  0.50400001928E-02 0. -1.
        1   -1    0    0  501    0  0.00000000000E+00  0.00000000000E+00 -0.84300372024E+03  0.84300372026E+03  0.50400001928E-02 0.  1.
    10030    2    1    2    0    0  0.00000000000E+00  0.00000000000E+00 -0.65414468308E+03  0.10318627575E+04  0.79801972650E+03 0.  0.
        1    1    3    3  502    0  0.16715730230E+03 -0.32436818240E+03 -0.11836690643E+03  0.38362352121E+03  0.50400001928E-02 0. -1.
       -1    1    3    3    0  502 -0.16715730230E+03  0.32436818240E+03 -0.53577777665E+03  0.64823923627E+03  0.50400001928E-02 0.  1.
</event>
<event>
 5   0  0.4377843E-02  0.7654493E+03  0.7818609E-02  0.9611420E-01
        2   -1    0    0  501    0  0.00000000000E+00  0.00000000000E+00  0.24342884697E+03  0.24342884699E+03  0.25500000920E-02 0. -1.
       -2   -1    0    0    0  501  0.00000000000E+00  0.00000000000E+00 -0.60172876841E+03  0.60172876842E+03  0.25500000920E-02 0.  1.
    10030    2    1    2    0    0  0.00000000000E+00  0.00000000000E+00 -0.35829992144E+03  0.84515761540E+03  0.76544925447E+03 0.  0.
        2    1    3    3  502    0  0.32705765146E+03 -0.10483884020E+03 -0.36561523850E+03  0.50162973638E+03  0.25500000920E-02 0.  1.
       -2    1    3    3    0  502 -0.32705765146E+03  0.10483884020E+03  0.73153170615E+01  0.34352787902E+03  0.25500000920E-02 0. -1.
</event>
<event>
 5   0  0.2759559E-02  0.8004731E+03  0.7818609E-02  0.9559333E-01
        1   -1    0    0  501    0  0.00000000000E+00  0.00000000000E+00  0.63248026541E+03  0.63248026543E+03  0.50400001928E-02 0.  1.
       -1   -1    0    0    0  501  0.00000000000E+00  0.00000000000E+00 -0.25327159012E+03  0.25327159017E+03  0.50400001928E-02 0. -1.
    10030    2    1    2    0    0  0.00000000000E+00  0.00000000000E+00  0.37920867529E+03  0.88575185559E+03  0.80047306655E+03 0.  0.
        3    1    3    3  502    0  0.27026174041E+03  0.25246287104E+03  0.35890919529E+03  0.51535883639E+03  0.10100000352E+00 0.  1.
       -3    1    3    3    0  502 -0.27026174041E+03 -0.25246287104E+03  0.20299479996E+02  0.37039301920E+03  0.10100000352E+00 0. -1.
</event>
<event>
 5   0  0.2759559E-02  0.7923230E+03  0.7818609E-02  0.9571196E-01
        1   -1    0    0  501    0  0.00000000000E+00  0.00000000000E+00  0.20067496620E+03  0.20067496627E+03  0.50400001928E-02 0. -1.
       -1   -1    0    0    0  501  0.00000000000E+00  0.00000000000E+00 -0.78208027711E+03  0.78208027712E+03  0.50400001928E-02 0.  1.
    10030    2    1    2    0    0  0.00000000000E+00  0.00000000000E+00 -0.58140531090E+03  0.98275524339E+03  0.79232299781E+03 0.  0.
        3    1    3    3  502    0  0.24254207279E+03  0.56095533202E+02  0.91538636735E+02  0.26524083044E+03  0.10100000352E+00 0. -1.
       -3    1    3    3    0  502 -0.24254207279E+03 -0.56095533202E+02 -0.67294394764E+03  0.71751441294E+03  0.10100000352E+00 0.  1.
</event>
<event>
 5   0  0.4377843E-02  0.8110156E+03  0.7818609E-02  0.9544208E-01
        2   -1    0    0  501    0  0.00000000000E+00  0.00000000000E+00  0.14157119078E+04  0.14157119078E+04  0.25500000920E-02 0. -1.
       -2   -1    0    0    0  501  0.00000000000E+00  0.00000000000E+00 -0.11615116985E+03  0.11615116988E+03  0.25500000920E-02 0.  1.
    10030    2    1    2    0    0  0.00000000000E+00  0.00000000000E+00  0.12995607380E+04  0.15318630777E+04  0.81101564545E+03 0.  0.
        2    1    3    3  502    0  0.88198034902E+02  0.43049290422E+02  0.13929405810E+04  0.13963937829E+04  0.25500000920E-02 0. -1.
       -2    1    3    3    0  502 -0.88198034902E+02 -0.43049290422E+02 -0.93379842972E+02  0.13546929485E+03  0.25500000920E-02 0.  1.
</event>
<event>
 5   0  0.2606520E-02  0.8100037E+03  0.7818609E-02  0.9545649E-01
       -1   -1    0    0    0  501  0.00000000000E+00  0.00000000000E+00  0.14994804519E+03  0.14994804527E+03  0.50400001928E-02 0.  1.
        1   -1    0    0  501    0  0.00000000000E+00  0.00000000000E+00 -0.10938888218E+04  0.10938888218E+04  0.50400001928E-02 0. -1.
    10030    2    1    2    0    0  0.00000000000E+00  0.00000000000E+00 -0.94394077657E+03  0.12438368670E+04  0.81000368032E+03 0.  0.
        5    1    3    3  502    0 -0.23406513102E+02 -0.15896903532E+03 -0.10428013010E+04  0.10551187907E+04  0.46999998093E+01 0. -1.
       -5    1    3    3    0  502  0.23406513102E+02  0.15896903532E+03  0.98860524460E+02  0.18871807635E+03  0.46999998093E+01 0.  1.
</event>
<event>
 5   0  0.4590462E-02  0.7831349E+03  0.7818609E-02  0.9584755E-01
       -2   -1    0    0    0  501  0.00000000000E+00  0.00000000000E+00  0.29793648668E+03  0.29793648669E+03  0.25500000920E-02 0. -1.
        2   -1    0    0  501    0  0.00000000000E+00  0.00000000000E+00 -0.51462336191E+03  0.51462336192E+03  0.25500000920E-02 0.  1.
    10030    2    1    2    0    0  0.00000000000E+00  0.00000000000E+00 -0.21668687523E+03  0.81255984861E+03  0.78313492175E+03 0.  0.
        3    1    3    3  502    0 -0.19479428003E+03 -0.78163676286E+01  0.24400268880E+03  0.31231911481E+03  0.10100000352E+00 0. -1.
       -3    1    3    3    0  502  0.19479428003E+03  0.78163676286E+01 -0.46068956403E+03  0.50024073379E+03  0.10100000352E+00 0.  1.
</event>
<event>
 5   0  0.4590462E-02  0.8493515E+03  0.7818609E-02  0.9491208E-01
       -2   -1    0    0    0  501  0.00000000000E+00  0.00000000000E+00  0.92126682605E+02  0.92126682640E+02  0.25500000920E-02 0. -1.
        2   -1    0    0  501    0  0.00000000000E+00  0.00000000000E+00 -0.19576248399E+04  0.19576248399E+04  0.25500000920E-02 0.  1.
    10030    2    1    2    0    0  0.00000000000E+00  0.00000000000E+00 -0.18654981573E+04  0.20497515225E+04  0.84935147571E+03 0.  0.
        3    1    3    3  502    0 -0.72838672477E+02  0.39730097905E+03 -0.61628338965E+03  0.73685735846E+03  0.10100000352E+00 0. -1.
       -3    1    3    3    0  502  0.72838672477E+02 -0.39730097905E+03 -0.12492147676E+04  0.13128941641E+04  0.10100000352E+00 0.  1.
</event>
<event>
 5   0  0.4377843E-02  0.8083807E+03  0.7818609E-02  0.9547965E-01
       -2   -1    0    0    0  501  0.00000000000E+00  0.00000000000E+00  0.22672908437E+03  0.22672908439E+03  0.25500000920E-02 0. -1.
        2   -1    0    0  501    0  0.00000000000E+00  0.00000000000E+00 -0.72055085318E+03  0.72055085319E+03  0.25500000920E-02 0.  1.
    10030    2    1    2    0    0  0.00000000000E+00  0.00000000000E+00 -0.49382176881E+03  0.94727993758E+03  0.80838069051E+03 0.  0.
        2    1    3    3  502    0  0.19439550440E+03  0.33474149351E+02  0.16649513026E+03  0.25812934590E+03  0.25500000920E-02 0. -1.
       -2    1    3    3    0  502 -0.19439550440E+03 -0.33474149351E+02 -0.66031689907E+03  0.68915059168E+03  0.25500000920E-02 0.  1.
</event>
<event>
 5   0  0.2689372E-02  0.7935514E+03  0.7818609E-02  0.9569398E-01
        1   -1    0    0  501    0  0.00000000000E+00  0.00000000000E+00  0.21506220812E+03  0.21506220818E+03  0.50400001928E-02 0. -1.
       -1   -1    0    0    0  501  0.00000000000E+00  0.00000000000E+00 -0.73202520106E+03  0.73202520108E+03  0.50400001928E-02 0.  1.
    10030    2    1    2    0    0  0.00000000000E+00  0.00000000000E+00 -0.51696299294E+03  0.94708740926E+03  0.79355140016E+03 0.  0.
        4    1    3    3  502    0 -0.16553812989E+03  0.35551268340E+03 -0.18650366511E+03  0.43425496025E+03  0.12699999809E+01 0. -1.
       -4    1    3    3    0  502  0.16553812989E+03 -0.35551268340E+03 -0.33045932783E+03  0.51283244901E+03  0.12699999809E+01 0.  1.
</event>
<event>
 5   0  0.4684283E-02  0.7517745E+03  0.7818609E-02  0.9632571E-01
        2   -1    0    0  501    0  0.00000000000E+00  0.00000000000E+00  0.47072654059E+03  0.47072654059E+03  0.25500000920E-02 0.  1.
       -2   -1    0    0    0  501  0.00000000000E+00  0.00000000000E+00 -0.30015563200E+03  0.30015563201E+03  0.25500000920E-02 0. -1.
    10030    2    1    2    0    0  0.00000000000E+00  0.00000000000E+00  0.17057090858E+03  0.77088217261E+03  0.75177449357E+03 0.  0.
        1    1    3    3  502    0 -0.38458980804E+02  0.45229241493E+02  0.46588839639E+03  0.46965601817E+03  0.50400001928E-02 0.  1.
       -1    1    3    3    0  502  0.38458980804E+02 -0.45229241493E+02 -0.29531748780E+03  0.30122615444E+03  0.50400001928E-02 0. -1.
</event>
<event>
 5   0  0.4377843E-02  0.8161005E+03  0.7818609E-02  0.9537000E-01
        2   -1    0    0  501    0  0.00000000000E+00  0.00000000000E+00  0.28062860919E+03  0.28062860920E+03  0.25500000920E-02 0.  1.
       -2   -1    0    0    0  501  0.00000000000E+00  0.00000000000E+00 -0.59332872164E+03  0.59332872165E+03  0.25500000920E-02 0. -1.
    10030    2    1    2    0    0  0.00000000000E+00  0.00000000000E+00 -0.31270011245E+03  0.87395733085E+03  0.81610051821E+03 0.  0.
        2    1    3    3  502    0 -0.18240586489E+03  0.23169799658E+03 -0.45838998232E+03  0.54504792181E+03  0.25500000920E-02 0. -1.
       -2    1    3    3    0  502  0.18240586489E+03 -0.23169799658E+03  0.14568986987E+03  0.32890940904E+03  0.25500000920E-02 0.  1.
</event>
<event>
 5   0  0.4684283E-02  0.8168670E+03  0.7818609E-02  0.9535919E-01
        2   -1    0    0  501    0  0.00000000000E+00  0.00000000000E+00  0.29544649087E+03  0.29544649089E+03  0.25500000920E-02 0.  1.
       -2   -1    0    0    0  501  0.00000000000E+00  0.00000000000E+00 -0.56462990732E+03  0.56462990733E+03  0.25500000920E-02 0. -1.
    10030    2    1    2    0    0  0.00000000000E+00  0.00000000000E+00 -0.26918341645E+03  0.86007639821E+03  0.81686700207E+03 0.  0.
        1    1    3    3  502    0 -0.32635791939E+03  0.14072993325E+03 -0.34649224473E+03  0.49635801730E+03  0.50400001928E-02 0. -1.
       -1    1    3    3    0  502  0.32635791939E+03 -0.14072993325E+03  0.77308828279E+02  0.36371838091E+03  0.50400001928E-02 0.  1.
</event>
<event>
 5   0  0.4590462E-02  0.8098167E+03  0.7818609E-02  0.9545916E-01
        2   -1    0    0  501    0  0.00000000000E+00  0.00000000000E+00  0.27577891789E+03  0.27577891790E+03  0.25500000920E-02 0.  1.
       -2   -1    0    0    0  501  0.00000000000E+00  0.00000000000E+00 -0.59450068178E+03  0.59450068179E+03  0.25500000920E-02 0. -1.
    10030    2    1    2    0    0  0.00000000000E+00  0.00000000000E+00 -0.31872176389E+03  0.87027959969E+03  0.80981665755E+03 0.  0.
        3    1    3    3  502    0 -0.23881083920E+03  0.15394785441E+03  0.15065678087E+03  0.32160229262E+03  0.10100000352E+00 0.  1.
       -3    1    3    3    0  502  0.23881083920E+03 -0.15394785441E+03 -0.46937854477E+03  0.54867730706E+03  0.10100000352E+00 0. -1.
</event>
<event>
 5   0  0.2769394E-02  0.7997953E+03  0.7818609E-02  0.9560313E-01
       -1   -1    0    0    0  501  0.00000000000E+00  0.00000000000E+00  0.45647821761E+03  0.45647821763E+03  0.50400001928E-02 0.  1.
        1   -1    0    0  501    0  0.00000000000E+00  0.00000000000E+00 -0.35033027659E+03  0.35033027663E+03  0.50400001928E-02 0. -1.
    10030    2    1    2    0    0  0.00000000000E+00  0.00000000000E+00  0.10614794101E+03  0.80680849426E+03  0.79979532447E+03 0.  0.
        2    1    3    3  502    0  0.13897070206E+03  0.15054762039E+02 -0.32488278632E+03  0.35367828141E+03  0.25500000920E-02 0. -1.
       -2    1    3    3    0  502 -0.13897070206E+03 -0.15054762039E+02  0.43103072733E+03  0.45313021285E+03  0.25500000920E-02 0.  1.
</event>
<event>
 5   0  0.4590462E-02  0.7819694E+03  0.7818609E-02  0.9586489E-01
       -2   -1    0    0    0  501  0.00000000000E+00  0.00000000000E+00  0.14074777581E+03  0.14074777583E+03  0.25500000920E-02 0.  1.
        2   -1    0    0  501    0  0.00000000000E+00  0.00000000000E+00 -0.10861205453E+04  0.10861205453E+04  0.25500000920E-02 0. -1.
    10030    2    1    2    0    0  0.00000000000E+00  0.00000000000E+00 -0.94537276952E+03  0.12268683212E+04  0.78196943938E+03 0.  0.
        3    1    3    3  502    0  0.50597905130E+02  0.20297401353E+03  0.45566026161E+02  0.21409080109E+03  0.10100000352E+00 0.  1.
       -3    1    3    3    0  502 -0.50597905130E+02 -0.20297401353E+03 -0.99093879568E+03  0.10127775201E+04  0.10100000352E+00 0. -1.
</event>
<event>
 5   0  0.4700220E-02  0.8195295E+03  0.7818609E-02  0.9532171E-01
       -2   -1    0    0    0  501  0.00000000000E+00  0.00000000000E+00  0.25059769568E+03  0.25059769570E+03  0.25500000920E-02 0.  1.
        2   -1    0    0  501    0  0.00000000000E+00  0.00000000000E+00 -0.67002675135E+03  0.67002675136E+03  0.25500000920E-02 0. -1.
    10030    2    1    2    0    0  0.00000000000E+00  0.00000000000E+00 -0.41942905567E+03  0.92062444706E+03  0.81952952343E+03 0.  0.
        4    1    3    3  502    0 -0.26116789187E+03 -0.27162716460E+03 -0.28872977442E+02  0.37792227511E+03  0.12699999809E+01 0.  1.
       -4    1    3    3    0  502  0.26116789187E+03  0.27162716460E+03 -0.39055607823E+03  0.54270217195E+03  0.12699999809E+01 0. -1.
</event>
<event>
 5   0  0.2635243E-02  0.8175171E+03  0.7818609E-02  0.9535002E-01
        1   -1    0    0  501    0  0.00000000000E+00  0.00000000000E+00  0.54636056430E+03  0.54636056432E+03  0.50400001928E-02 0.  1.
       -1   -1    0    0    0  501  0.00000000000E+00  0.00000000000E+00 -0.30581184474E+03  0.30581184478E+03  0.50400001928E-02 0. -1.
    10030    2    1    2    0    0  0.00000000000E+00  0.00000000000E+00  0.24054871956E+03  0.85217240910E+03  0.81751705080E+03 0.  0.
        1    1    3    3  502    0  0.22794663471E+03 -0.25261549261E+03  0.35639208777E+03  0.49273682188E+03  0.50400001928E-02 0. -1.
       -1    1    3    3    0  502 -0.22794663471E+03  0.25261549261E+03 -0.11584336821E+03  0.35943558723E+03  0.50400001928E-02 0.  1.
</event>
<event>
 5   0  0.2769394E-02  0.7968793E+03  0.7818609E-02  0.9564545E-01
        1   -1    0    0  501    0  0.00000000000E+00  0.00000000000E+00  0.12696269202E+04  0.12696269202E+04  0.50400001928E-02 0. -1.
       -1   -1    0    0    0  501  0.00000000000E+00  0.00000000000E+00 -0.12504001180E+03  0.12504001190E+03  0.50400001928E-02 0.  1.
    10030    2    1    2    0    0  0.00000000000E+00  0.00000000000E+00  0.11445869084E+04  0.13946669321E+04  0.79687932627E+03 0.  0.
        2    1    3    3  502    0 -0.25537376138E+03 -0.26562647263E+03  0.30697817829E+03  0.47959230907E+03  0.25500000920E-02 0.  1.
       -2    1    3    3    0  502  0.25537376138E+03  0.26562647263E+03  0.83760873014E+03  0.91507462307E+03  0.25500000920E-02 0. -1.
</event>
<event>
 5   0  0.2606520E-02  0.7992413E+03  0.7818609E-02  0.9561116E-01
       -1   -1    0    0    0  501  0.00000000000E+00  0.00000000000E+00  0.12515811735E+03  0.12515811745E+03  0.50400001928E-02 0.  1.
        1   -1    0    0  501    0  0.00000000000E+00  0.00000000000E+00 -0.12759593266E+04  0.12759593266E+04  0.50400001928E-02 0. -1.
    10030    2    1    2    0    0  0.00000000000E+00  0.00000000000E+00 -0.11508012092E+04  0.14011174440E+04  0.79924130825E+03 0.  0.
        5    1    3    3  502    0 -0.66132899336E+02  0.37651370832E+03 -0.77937751015E+03  0.86809419204E+03  0.46999998093E+01 0.  1.
       -5    1    3    3    0  502  0.66132899336E+02 -0.37651370832E+03 -0.37142369908E+03  0.53302325199E+03  0.46999998093E+01 0. -1.
</event>
<event>
 5   0  0.1786500E-02  0.8011566E+03  0.7818609E-02  0.9558344E-01
       -3   -1    0    0    0  501  0.00000000000E+00  0.00000000000E+00  0.20128662914E+03  0.20128665448E+03  0.10100000352E+00 0. -1.
        3   -1    0    0  501    0  0.00000000000E+00  0.00000000000E+00 -0.79718646812E+03  0.79718647452E+03  0.10100000352E+00 0.  1.
    10030    2    1    2    0    0  0.00000000000E+00  0.00000000000E+00 -0.59589983898E+03  0.99847312900E+03  0.80115664588E+03 0.  0.
        2    1    3    3  502    0  0.89579607267E+02  0.34272710361E+03 -0.53103144743E+03  0.63834220584E+03  0.25500000920E-02 0.  1.
       -2    1    3    3    0  502 -0.89579607267E+02 -0.34272710361E+03 -0.64868391551E+02  0.36013092316E+03  0.25500000920E-02 0. -1.
</event>
<event>
 5   0  0.2759559E-02  0.8036034E+03  0.7818609E-02  0.9554816E-01
        1   -1    0    0  501    0  0.00000000000E+00  0.00000000000E+00  0.63635907873E+03  0.63635907875E+03  0.50400001928E-02 0.  1.
       -1   -1    0    0    0  501  0.00000000000E+00  0.00000000000E+00 -0.25370048372E+03  0.25370048377E+03  0.50400001928E-02 0. -1.
    10030    2    1    2    0    0  0.00000000000E+00  0.00000000000E+00  0.38265859501E+03  0.89005956252E+03  0.80360340000E+03 0.  0.
        3    1    3    3  502    0  0.19913733570E+03  0.34538131652E+03  0.13594266696E+03  0.42121770045E+03  0.10100000352E+00 0. -1.
       -3    1    3    3    0  502 -0.19913733570E+03 -0.34538131652E+03  0.24671592805E+03  0.46884186207E+03  0.10100000352E+00 0.  1.
</event>
<event>
 5   0  0.4700220E-02  0.7751292E+03  0.7818609E-02  0.9596731E-01
        2   -1    0    0  501    0  0.00000000000E+00  0.00000000000E+00  0.82463269626E+03  0.82463269627E+03  0.25500000920E-02 0. -1.
       -2   -1    0    0    0  501  0.00000000000E+00  0.00000000000E+00 -0.18214935915E+03  0.18214935917E+03  0.25500000920E-02 0.  1.
    10030    2    1    2    0    0  0.00000000000E+00  0.00000000000E+00  0.64248333711E+03  0.10067820554E+04  0.77512919483E+03 0.  0.
        4    1    3    3  502    0 -0.38296105441E+03  0.55140342499E+02  0.29205124003E+03  0.48476300010E+03  0.12699999809E+01 0.  1.
       -4    1    3    3    0  502  0.38296105441E+03 -0.55140342499E+02  0.35043209709E+03  0.52201905533E+03  0.12699999809E+01 0. -1.
</event>
<event>
 5   0  0.2635243E-02  0.7213053E+03  0.7818609E-02  0.9681475E-01
        1   -1    0    0  501    0  0.00000000000E+00  0.00000000000E+00  0.19858039388E+03  0.19858039395E+03  0.50400001928E-02 0. -1.
       -1   -1    0    0    0  501  0.00000000000E+00  0.00000000000E+00 -0.65500083758E+03  0.65500083760E+03  0.50400001928E-02 0.  1.
    10030    2    1    2    0    0  0.00000000000E+00  0.00000000000E+00 -0.45642044370E+03  0.85358123155E+03  0.72130527339E+03 0.  0.
        1    1    3    3  502    0  0.51646973488E+02  0.12114804373E+03 -0.62552793342E+03  0.63924131115E+03  0.50400001928E-02 0.  1.
       -1    1    3    3    0  502 -0.51646973488E+02 -0.12114804373E+03  0.16910748972E+03  0.21433992039E+03  0.50400001928E-02 0. -1.
</event>
<event>
 5   0  0.4663634E-02  0.7998984E+03  0.7818609E-02  0.9560164E-01
        2   -1    0    0  501    0  0.00000000000E+00  0.00000000000E+00  0.27165712413E+03  0.27165712414E+03  0.25500000920E-02 0. -1.
       -2   -1    0    0    0  501  0.00000000000E+00  0.00000000000E+00 -0.58882812041E+03  0.58882812041E+03  0.25500000920E-02 0.  1.
    10030    2    1    2    0    0  0.00000000000E+00  0.00000000000E+00 -0.31717099628E+03  0.86048524455E+03  0.79989837805E+03 0.  0.
        5    1    3    3  502    0  0.74986938449E+02  0.26142476320E+03 -0.47400271755E+03  0.54650399266E+03  0.46999998093E+01 0.  1.
       -5    1    3    3    0  502 -0.74986938449E+02 -0.26142476320E+03  0.15683172127E+03  0.31398125190E+03  0.46999998093E+01 0. -1.
</event>
<event>
 5   0  0.4663634E-02  0.5920888E+03  0.7818609E-02  0.9921957E-01
       -2   -1    0    0    0  501  0.00000000000E+00  0.00000000000E+00  0.66261100793E+03  0.66261100794E+03  0.25500000920E-02 0. -1.
        2   -1    0    0  501    0  0.00000000000E+00  0.00000000000E+00 -0.13226807954E+03  0.13226807957E+03  0.25500000920E-02 0.  1.
    10030    2    1    2    0    0  0.00000000000E+00  0.00000000000E+00  0.53034292839E+03  0.79487908750E+03  0.59208879575E+03 0.  0.
        5    1    3    3  502    0 -0.23459370245E+03 -0.69813242714E+02  0.41686166185E+02  0.24833026504E+03  0.46999998093E+01 0.  1.
       -5    1    3    3    0  502  0.23459370245E+03  0.69813242714E+02  0.48865676221E+03  0.54654882246E+03  0.46999998093E+01 0. -1.
</event>
<event>
 5   0  0.4663634E-02  0.8094035E+03  0.7818609E-02  0.9546505E-01
        2   -1    0    0  501    0  0.00000000000E+00  0.00000000000E+00  0.18700866995E+03  0.18700866997E+03  0.25500000920E-02 0.  1.
       -2   -1    0    0    0  501  0.00000000000E+00  0.00000000000E+00 -0.87580709645E+03  0.87580709645E+03  0.25500000920E-02 0. -1.
    10030    2    1    2    0    0  0.00000000000E+00  0.00000000000E+00 -0.68879842650E+03  0.10628157664E+04  0.80940353410E+03 0.  0.
        5    1    3    3  502    0 -0.41701002357E+02 -0.11156571640E+03  0.16343644579E+03  0.20228555184E+03  0.46999998093E+01 0.  1.
       -5    1    3    3    0  502  0.41701002357E+02  0.11156571640E+03 -0.85223487229E+03  0.86053021458E+03  0.46999998093E+01 0. -1.
</event>
<event>
 5   0  0.4377843E-02  0.8124947E+03  0.7818609E-02  0.9542106E-01
        2   -1    0    0  501    0  0.00000000000E+00  0.00000000000E+00  0.23890937320E+03  0.23890937322E+03  0.25500000920E-02 0. -1.
       -2   -1    0    0    0  501  0.00000000000E+00  0.00000000000E+00 -0.69079289740E+03  0.69079289741E+03  0.25500000920E-02 0.  1.
    10030    2    1    2    0    0  0.00000000000E+00  0.00000000000E+00 -0.45188352420E+03  0.92970227063E+03  0.81249467233E+03 0.  0.
        2    1    3    3  502    0  0.20080775528E+03  0.26691398913E+03  0.38651468934E+02  0.33624510143E+03  0.25500000920E-02 0. -1.
       -2    1    3    3    0  502 -0.20080775528E+03 -0.26691398913E+03 -0.49053499314E+03  0.59345716920E+03  0.25500000920E-02 0.  1.
</event>
<event>
 5   0  0.2689372E-02  0.4730016E+03  0.7818609E-02  0.1021076E+00
        1   -1    0    0  501    0  0.00000000000E+00  0.00000000000E+00  0.45594705457E+03  0.45594705460E+03  0.50400001928E-02 0.  1.
       -1   -1    0    0    0  501  0.00000000000E+00  0.00000000000E+00 -0.12267353511E+03  0.12267353521E+03  0.50400001928E-02 0. -1.
    10030    2    1    2    0    0  0.00000000000E+00  0.00000000000E+00  0.33327351946E+03  0.57862058981E+03  0.47300163655E+03 0.  0.
        4    1    3    3  502    0 -0.19244520981E+03  0.18127388903E+02 -0.51566767847E-01  0.19330125858E+03  0.12699999809E+01 0. -1.
       -4    1    3    3    0  502  0.19244520981E+03 -0.18127388903E+02  0.33332508623E+03  0.38531933123E+03  0.12699999809E+01 0.  1.
</event>
<event>
 5   0  0.4684283E-02  0.7644142E+03  0.7818609E-02  0.9613004E-01
       -2   -1    0    0    0  501  0.00000000000E+00  0.00000000000E+00  0.16470359513E+03  0.16470359515E+03  0.25500000920E-02 0.  1.
        2   -1    0    0  501    0  0.00000000000E+00  0.00000000000E+00 -0.88694044201E+03  0.88694044202E+03  0.25500000920E-02 0. -1.
    10030    2    1    2    0    0  0.00000000000E+00  0.00000000000E+00 -0.72223684688E+03  0.10516440372E+04  0.76441423189E+03 0.  0.
        1    1    3    3  502    0 -0.10593166317E+03  0.27566820468E+03 -0.69491272167E+03  0.75506169755E+03  0.50400001928E-02 0. -1.
       -1    1    3    3    0  502  0.10593166317E+03 -0.27566820468E+03 -0.27324125206E+02  0.29658233962E+03  0.50400001928E-02 0.  1.
</event>
<event>
 5   0  0.4663634E-02  0.7626061E+03  0.7818609E-02  0.9615778E-01
        2   -1    0    0  501    0  0.00000000000E+00  0.00000000000E+00  0.93361085715E+03  0.93361085715E+03  0.25500000920E-02 0.  1.
       -2   -1    0    0    0  501  0.00000000000E+00  0.00000000000E+00 -0.15573085464E+03  0.15573085466E+03  0.25500000920E-02 0. -1.
    10030    2    1    2    0    0  0.00000000000E+00  0.00000000000E+00  0.77788000251E+03  0.10893417118E+04  0.76260610198E+03 0.  0.
        5    1    3    3  502    0  0.12653704595E+03  0.24284369617E+03  0.76790985258E+03  0.81528664680E+03  0.46999998093E+01 0.  1.
       -5    1    3    3    0  502 -0.12653704595E+03 -0.24284369617E+03  0.99701499364E+01  0.27405506501E+03  0.46999998093E+01 0. -1.
</event>
<event>
 5   0  0.4700220E-02  0.8373963E+03  0.7818609E-02  0.9507411E-01
       -2   -1    0    0    0  501  0.00000000000E+00  0.00000000000E+00  0.77355904837E+02  0.77355904879E+02  0.25500000920E-02 0. -1.
        2   -1    0    0  501    0  0.00000000000E+00  0.00000000000E+00 -0.22662538869E+04  0.22662538869E+04  0.25500000920E-02 0.  1.
    10030    2    1    2    0    0  0.00000000000E+00  0.00000000000E+00 -0.21888979821E+04  0.23436097918E+04  0.83739625045E+03 0.  0.
        4    1    3    3  502    0  0.21117942829E+03 -0.26434660625E+03 -0.17847133377E+04  0.18165019102E+04  0.12699999809E+01 0.  1.
       -4    1    3    3    0  502 -0.21117942829E+03  0.26434660625E+03 -0.40418464439E+03  0.52710788159E+03  0.12699999809E+01 0. -1.
</event>
<event>
 5   0  0.4663634E-02  0.8069312E+03  0.7818609E-02  0.9550038E-01
        2   -1    0    0  501    0  0.00000000000E+00  0.00000000000E+00  0.23130966394E+04  0.23130966394E+04  0.25500000920E-02 0. -1.
       -2   -1    0    0    0  501  0.00000000000E+00  0.00000000000E+00 -0.70375133784E+02  0.70375133831E+02  0.25500000920E-02 0.  1.
    10030    2    1    2    0    0  0.00000000000E+00  0.00000000000E+00  0.22427215056E+04  0.23834717733E+04  0.80693118793E+03 0.  0.
        5    1    3    3  502    0  0.35791205407E+02  0.37973863113E+03  0.15096405932E+04  0.15570867828E+04  0.46999998093E+01 0. -1.
       -5    1    3    3    0  502 -0.35791205407E+02 -0.37973863113E+03  0.73308091242E+03  0.82638499049E+03  0.46999998093E+01 0.  1.
</event>
<event>
 5   0  0.4663634E-02  0.8005027E+03  0.7818609E-02  0.9559290E-01
        2   -1    0    0  501    0  0.00000000000E+00  0.00000000000E+00  0.12401667046E+04  0.12401667046E+04  0.25500000920E-02 0. -1.
       -2   -1    0    0    0  501  0.00000000000E+00  0.00000000000E+00 -0.12917710479E+03  0.12917710482E+03  0.25500000920E-02 0.  1.
    10030    2    1    2    0    0  0.00000000000E+00  0.00000000000E+00  0.11109895998E+04  0.13693438094E+04  0.80050270300E+03 0.  0.
        5    1    3    3  502    0 -0.34223562314E+03 -0.19365401840E+03  0.42803517930E+03  0.58126010125E+03  0.46999998093E+01 0. -1.
       -5    1    3    3    0  502  0.34223562314E+03  0.19365401840E+03  0.68295442050E+03  0.78808370816E+03  0.46999998093E+01 0.  1.
</event>
<event>
 5   0  0.2689372E-02  0.7871416E+03  0.7818609E-02  0.9578818E-01
        1   -1    0    0  501    0  0.00000000000E+00  0.00000000000E+00  0.12997239138E+04  0.12997239138E+04  0.50400001928E-02 0. -1.
       -1   -1    0    0    0  501  0.00000000000E+00  0.00000000000E+00 -0.11917760116E+03  0.11917760127E+03  0.50400001928E-02 0.  1.
    10030    2    1    2    0    0  0.00000000000E+00  0.00000000000E+00  0.11805463126E+04  0.14189015151E+04  0.78714160939E+03 0.  0.
        4    1    3    3  502    0 -0.22976736742E+03 -0.14935297908E+03  0.81068119181E+02  0.28578489872E+03  0.12699999809E+01 0.  1.
       -4    1    3    3    0  502  0.22976736742E+03  0.14935297908E+03  0.10994781935E+04  0.11331166164E+04  0.12699999809E+01 0. -1.
</event>
<event>
 5   0  0.2759559E-02  0.7946877E+03  0.7818609E-02  0.9567738E-01
        1   -1    0    0  501    0  0.00000000000E+00  0.00000000000E+00  0.85042110495E+03  0.85042110496E+03  0.50400001928E-02 0. -1.
       -1   -1    0    0    0  501  0.00000000000E+00  0.00000000000E+00 -0.18565170285E+03  0.18565170292E+03  0.50400001928E-02 0.  1.
    10030    2    1    2    0    0  0.00000000000E+00  0.00000000000E+00  0.66476940210E+03  0.10360728079E+04  0.79468767781E+03 0.  0.
        3    1    3    3  502    0  0.92045339451E+02 -0.24496825481E+03 -0.57434607836E+02  0.26791889586E+03  0.10100000352E+00 0.  1.
       -3    1    3    3    0  502 -0.92045339451E+02  0.24496825481E+03  0.72220400994E+03  0.76815391202E+03  0.10100000352E+00 0. -1.
</event>
<event>
 5   0  0.2606520E-02  0.8029134E+03  0.7818609E-02  0.9555810E-01
        1   -1    0    0  501    0  0.00000000000E+00  0.00000000000E+00  0.97917119453E+03  0.97917119454E+03  0.50400001928E-02 0. -1.
       -1   -1    0    0    0  501  0.00000000000E+00  0.00000000000E+00 -0.16459583178E+03  0.16459583186E+03  0.50400001928E-02 0.  1.
    10030    2    1    2    0    0  0.00000000000E+00  0.00000000000E+00  0.81457536275E+03  0.11437670264E+04  0.80291343810E+03 0.  0.
        5    1    3    3  502    0  0.22024185317E+03  0.22446376672E+03  0.51856280969E+02  0.31875009072E+03  0.46999998093E+01 0.  1.
       -5    1    3    3    0  502 -0.22024185317E+03 -0.22446376672E+03  0.76271908178E+03  0.82501693568E+03  0.46999998093E+01 0. -1.
</event>
<event>
 5   0  0.4684283E-02  0.7987858E+03  0.7818609E-02  0.9561776E-01
        2   -1    0    0  501    0  0.00000000000E+00  0.00000000000E+00  0.58570546240E+03  0.58570546240E+03  0.25500000920E-02 0. -1.
       -2   -1    0    0    0  501  0.00000000000E+00  0.00000000000E+00 -0.27234628535E+03  0.27234628536E+03  0.25500000920E-02 0.  1.
    10030    2    1    2    0    0  0.00000000000E+00  0.00000000000E+00  0.31335917705E+03  0.85805174777E+03  0.79878584615E+03 0.  0.
        1    1    3    3  502    0 -0.18349080165E+03 -0.10363700008E+03 -0.20776424015E+03  0.29593154882E+03  0.50400001928E-02 0.  1.
       -1    1    3    3    0  502  0.18349080165E+03  0.10363700008E+03  0.52112341720E+03  0.56212019894E+03  0.50400001928E-02 0. -1.
</event>
<event>
 5   0  0.4663634E-02  0.8000687E+03  0.7818609E-02  0.9559918E-01
        2   -1    0    0  501    0  0.00000000000E+00  0.00000000000E+00  0.44356275565E+03  0.44356275566E+03  0.25500000920E-02 0. -1.
       -2   -1    0    0    0  501  0.00000000000E+00  0.00000000000E+00 -0.36077751157E+03  0.36077751158E+03  0.25500000920E-02 0.  1.
    10030    2    1    2    0    0  0.00000000000E+00  0.00000000000E+00  0.82785244078E+02  0.80434026724E+03  0.80006866510E+03 0.  0.
        5    1    3    3  502    0 -0.13190502671E+03  0.37662021561E+03  0.69174459254E+02  0.40502952817E+03  0.46999998093E+01 0.  1.
       -5    1    3    3    0  502  0.13190502671E+03 -0.37662021561E+03  0.13610784824E+02  0.39931073907E+03  0.46999998093E+01 0. -1.
</event>
<event>
 5   0  0.2606520E-02  0.7883297E+03  0.7818609E-02  0.9577065E-01
       -1   -1    0    0    0  501  0.00000000000E+00  0.00000000000E+00  0.72137449058E+03  0.72137449060E+03  0.50400001928E-02 0. -1.
        1   -1    0    0  501    0  0.00000000000E+00  0.00000000000E+00 -0.21537488523E+03  0.21537488529E+03  0.50400001928E-02 0.  1.
    10030    2    1    2    0    0  0.00000000000E+00  0.00000000000E+00  0.50599960535E+03  0.93674937589E+03  0.78832974866E+03 0.  0.
        5    1    3    3  502    0  0.20170780480E+03  0.30848188459E+03  0.41891897382E+03  0.55799848411E+03  0.46999998093E+01 0. -1.
       -5    1    3    3    0  502 -0.20170780480E+03 -0.30848188459E+03  0.87080631528E+02  0.37875089178E+03  0.46999998093E+01 0.  1.
</event>
<event>
 5   0  0.2635243E-02  0.7864686E+03  0.7818609E-02  0.9579812E-01
       -1   -1    0    0    0  501  0.00000000000E+00  0.00000000000E+00  0.99051391258E+02  0.99051391387E+02  0.50400001928E-02 0. -1.
        1   -1    0    0  501    0  0.00000000000E+00  0.00000000000E+00 -0.15611412454E+04  0.15611412454E+04  0.50400001928E-02 0.  1.
    10030    2    1    2    0    0  0.00000000000E+00  0.00000000000E+00 -0.14620898541E+04  0.16601926368E+04  0.78646859421E+03 0.  0.
        1    1    3    3  502    0 -0.33573715188E+03 -0.20192065083E+03 -0.80237578468E+03  0.89291560870E+03  0.50400001928E-02 0. -1.
       -1    1    3    3    0  502  0.33573715188E+03  0.20192065083E+03 -0.65971406946E+03  0.76727702810E+03  0.50400001928E-02 0.  1.
</event>
<event>
 5   0  0.4377843E-02  0.7988210E+03  0.7818609E-02  0.9561725E-01
        2   -1    0    0  501    0  0.00000000000E+00  0.00000000000E+00  0.60235554041E+03  0.60235554041E+03  0.25500000920E-02 0. -1.
       -2   -1    0    0    0  501  0.00000000000E+00  0.00000000000E+00 -0.26484147513E+03  0.26484147514E+03  0.25500000920E-02 0.  1.
    10030    2    1    2    0    0  0.00000000000E+00  0.00000000000E+00  0.33751406528E+03  0.86719701556E+03  0.79882095586E+03 0.  0.
        2    1    3    3  502    0 -0.83019812613E+02  0.36898991341E+03  0.30813204902E+03  0.48784342275E+03  0.25500000920E-02 0. -1.
       -2    1    3    3    0  502  0.83019812613E+02 -0.36898991341E+03  0.29382016264E+02  0.37935359280E+03  0.25500000920E-02 0.  1.
</event>
<event>
 5   0  0.2635243E-02  0.8019020E+03  0.7818609E-02  0.9557268E-01
        1   -1    0    0  501    0  0.00000000000E+00  0.00000000000E+00  0.29724818696E+03  0.29724818700E+03  0.50400001928E-02 0. -1.
       -1   -1    0    0    0  501  0.00000000000E+00  0.00000000000E+00 -0.54083326710E+03  0.54083326712E+03  0.50400001928E-02 0.  1.
    10030    2    1    2    0    0  0.00000000000E+00  0.00000000000E+00 -0.24358508014E+03  0.83808145413E+03  0.80190200928E+03 0.  0.
        1    1    3    3  502    0 -0.43172361312E+01  0.36956572120E+03 -0.28425445363E+03  0.46625964360E+03  0.50400001928E-02 0.  1.
       -1    1    3    3    0  502  0.43172361312E+01 -0.36956572120E+03  0.40669373493E+02  0.37182181052E+03  0.50400001928E-02 0. -1.
</event>
<event>
 5   0  0.4700220E-02  0.4888227E+03  0.7818609E-02  0.1016738E+00
       -2   -1    0    0    0  501  0.00000000000E+00  0.00000000000E+00  0.10027490214E+03  0.10027490217E+03  0.25500000920E-02 0.  1.
        2   -1    0    0  501    0  0.00000000000E+00  0.00000000000E+00 -0.59573146224E+03  0.59573146224E+03  0.25500000920E-02 0. -1.
    10030    2    1    2    0    0  0.00000000000E+00  0.00000000000E+00 -0.49545656010E+03  0.69600636441E+03  0.48882272487E+03 0.  0.
        4    1    3    3  502    0 -0.75801522136E+01 -0.24185110114E+03 -0.19869583584E+03  0.31309912474E+03  0.12699999809E+01 0. -1.
       -4    1    3    3    0  502  0.75801522136E+01  0.24185110114E+03 -0.29676072426E+03  0.38290723968E+03  0.12699999809E+01 0.  1.
</event>
<event>
 5   0  0.4684283E-02  0.7782511E+03  0.7818609E-02  0.9592043E-01
       -2   -1    0    0    0  501  0.00000000000E+00  0.00000000000E+00  0.20284642118E+03  0.20284642119E+03  0.25500000920E-02 0. -1.
        2   -1    0    0  501    0  0.00000000000E+00  0.00000000000E+00 -0.74646956025E+03  0.74646956026E+03  0.25500000920E-02 0.  1.
    10030    2    1    2    0    0  0.00000000000E+00  0.00000000000E+00 -0.54362313907E+03  0.94931598145E+03  0.77825106187E+03 0.  0.
        1    1    3    3  502    0 -0.60269786970E+02 -0.34797877974E+03 -0.72504683202E+02  0.36052546024E+03  0.50400001928E-02 0. -1.
       -1    1    3    3    0  502  0.60269786970E+02  0.34797877974E+03 -0.47111845587E+03  0.58879052121E+03  0.50400001928E-02 0.  1.
</event>
<event>
 5   0  0.1786500E-02  0.8204703E+03  0.7818609E-02  0.9530851E-01
       -4   -1    0    0    0  501  0.00000000000E+00  0.00000000000E+00  0.30717848387E+03  0.30718110921E+03  0.12699999809E+01 0. -1.
        4   -1    0    0  501    0  0.00000000000E+00  0.00000000000E+00 -0.54786105359E+03  0.54786252558E+03  0.12699999809E+01 0.  1.
    10030    2    1    2    0    0  0.00000000000E+00  0.00000000000E+00 -0.24068256972E+03  0.85504363479E+03  0.82047030296E+03 0.  0.
        1    1    3    3  502    0 -0.29285413271E+03  0.19162849003E+03 -0.34338778105E+03  0.49030622007E+03  0.50400001928E-02 0.  1.
       -1    1    3    3    0  502  0.29285413271E+03 -0.19162849003E+03  0.10270521134E+03  0.36473741472E+03  0.50400001928E-02 0. -1.
</event>
<event>
 5   0  0.2635243E-02  0.8060192E+03  0.7818609E-02  0.9551345E-01
       -1   -1    0    0    0  501  0.00000000000E+00  0.00000000000E+00  0.62778768205E+02  0.62778768408E+02  0.50400001928E-02 0. -1.
        1   -1    0    0  501    0  0.00000000000E+00  0.00000000000E+00 -0.25871284520E+04  0.25871284520E+04  0.50400001928E-02 0.  1.
    10030    2    1    2    0    0  0.00000000000E+00  0.00000000000E+00 -0.25243496838E+04  0.26499072204E+04  0.80601919996E+03 0.  0.
        1    1    3    3  502    0  0.49268976870E+02  0.39337837827E+03 -0.10241265063E+04  0.10981844479E+04  0.50400001928E-02 0. -1.
       -1    1    3    3    0  502 -0.49268976870E+02 -0.39337837827E+03 -0.15002231774E+04  0.15517227725E+04  0.50400001928E-02 0.  1.
</event>
<event>
 5   0  0.2606520E-02  0.8184659E+03  0.7818609E-02  0.9533666E-01
        1   -1    0    0  501    0  0.00000000000E+00  0.00000000000E+00  0.40683458727E+03  0.40683458730E+03  0.50400001928E-02 0. -1.
       -1   -1    0    0    0  501  0.00000000000E+00  0.00000000000E+00 -0.41164548677E+03  0.41164548680E+03  0.50400001928E-02 0.  1.
    10030    2    1    2    0    0  0.00000000000E+00  0.00000000000E+00 -0.48108994940E+01  0.81848007410E+03  0.81846593511E+03 0.  0.
        5    1    3    3  502    0  0.58508408969E+02 -0.91305890487E+02 -0.39698739471E+03  0.41155932879E+03  0.46999998093E+01 0.  1.
       -5    1    3    3    0  502 -0.58508408969E+02  0.91305890487E+02  0.39217649522E+03  0.40692074530E+03  0.46999998093E+01 0. -1.
</event>
<event>
 5   0  0.4700220E-02  0.7613453E+03  0.7818609E-02  0.9617718E-01
       -2   -1    0    0    0  501  0.00000000000E+00  0.00000000000E+00  0.35733946171E+03  0.35733946172E+03  0.25500000920E-02 0.  1.
        2   -1    0    0  501    0  0.00000000000E+00  0.00000000000E+00 -0.40552938163E+03  0.40552938164E+03  0.25500000920E-02 0. -1.
    10030    2    1    2    0    0  0.00000000000E+00  0.00000000000E+00 -0.48189919926E+02  0.76286884336E+03  0.76134525925E+03 0.  0.
        4    1    3    3  502    0 -0.32172834197E+03  0.18244628503E+03 -0.11435443980E+03  0.38713605328E+03  0.12699999809E+01 0. -1.
       -4    1    3    3    0  502  0.32172834197E+03 -0.18244628503E+03  0.66164519872E+02  0.37573279008E+03  0.12699999809E+01 0.  1.
</event>
<event>
 5   0  0.1786500E-02  0.7968984E+03  0.7818609E-02  0.9564517E-01
       -3   -1    0    0    0  501  0.00000000000E+00  0.00000000000E+00  0.58144468399E+03  0.58144469276E+03  0.10100000352E+00 0. -1.
        3   -1    0    0  501    0  0.00000000000E+00  0.00000000000E+00 -0.27304705966E+03  0.27304707834E+03  0.10100000352E+00 0.  1.
    10030    2    1    2    0    0  0.00000000000E+00  0.00000000000E+00  0.30839762433E+03  0.85449177110E+03  0.79689842024E+03 0.  0.
        5    1    3    3  502    0  0.87551491044E+02  0.14690546954E+03 -0.23165998363E+03  0.28798423321E+03  0.46999998093E+01 0.  1.
       -5    1    3    3    0  502 -0.87551491044E+02 -0.14690546954E+03  0.54005760797E+03  0.56650753789E+03  0.46999998093E+01 0. -1.
</event>
<event>
 5   0  0.2689372E-02  0.8134332E+03  0.7818609E-02  0.9540774E-01
       -1   -1    0    0    0  501  0.00000000000E+00  0.00000000000E+00  0.84976160232E+03  0.84976160233E+03  0.50400001928E-02 0. -1.
        1   -1    0    0  501    0  0.00000000000E+00  0.00000000000E+00 -0.19466445413E+03  0.19466445419E+03  0.50400001928E-02 0.  1.
    10030    2    1    2    0    0  0.00000000000E+00  0.00000000000E+00  0.65509714819E+03  0.10444260565E+04  0.81343316504E+03 0.  0.
        4    1    3    3  502    0 -0.36105214052E+03  0.15082155527E+03  0.47001156674E+03  0.61157033568E+03  0.12699999809E+01 0. -1.
       -4    1    3    3    0  502  0.36105214052E+03 -0.15082155527E+03  0.18508558145E+03  0.43285572085E+03  0.12699999809E+01 0.  1.
</event>
<event>
 5   0  0.4700220E-02  0.7951572E+03  0.7818609E-02  0.9567053E-01
       -2   -1    0    0    0  501  0.00000000000E+00  0.00000000000E+00  0.24213462927E+03  0.24213462928E+03  0.25500000920E-02 0.  1.
        2   -1    0    0  501    0  0.00000000000E+00  0.00000000000E+00 -0.65281351636E+03  0.65281351636E+03  0.25500000920E-02 0. -1.
    10030    2    1    2    0    0  0.00000000000E+00  0.00000000000E+00 -0.41067888709E+03  0.89494814564E+03  0.79515723922E+03 0.  0.
        4    1    3    3  502    0  0.59614177534E+02  0.52661400972E+02  0.23308524187E+03  0.24628726356E+03  0.12699999809E+01 0.  1.
       -4    1    3    3    0  502 -0.59614177534E+02 -0.52661400972E+02 -0.64376412896E+03  0.64866088209E+03  0.12699999809E+01 0. -1.
</event>
<event>
 5   0  0.2769394E-02  0.7918294E+03  0.7818609E-02  0.9571920E-01
        1   -1    0    0  501    0  0.00000000000E+00  0.00000000000E+00  0.91237697980E+03  0.91237697981E+03  0.50400001928E-02 0. -1.
       -1   -1    0    0    0  501  0.00000000000E+00  0.00000000000E+00 -0.17180229214E+03  0.17180229221E+03  0.50400001928E-02 0.  1.
    10030    2    1    2    0    0  0.00000000000E+00  0.00000000000E+00  0.74057468766E+03  0.10841792720E+04  0.79182941716E+03 0.  0.
        2    1    3    3  502    0 -0.11012118893E+03 -0.37780307148E+03  0.31081547103E+03  0.50146594512E+03  0.25500000920E-02 0. -1.
       -2    1    3    3    0  502  0.11012118893E+03  0.37780307148E+03  0.42975921663E+03  0.58271332691E+03  0.25500000920E-02 0.  1.
</event>
<event>
 5   0  0.4684283E-02  0.7693238E+03  0.7818609E-02  0.9605513E-01
       -2   -1    0    0    0  501  0.00000000000E+00  0.00000000000E+00  0.23444071396E+03  0.23444071397E+03  0.25500000920E-02 0. -1.
        2   -1    0    0  501    0  0.00000000000E+00  0.00000000000E+00 -0.63113944968E+03  0.63113944969E+03  0.25500000920E-02 0.  1.
    10030    2    1    2    0    0  0.00000000000E+00  0.00000000000E+00 -0.39669873573E+03  0.86558016366E+03  0.76932381531E+03 0.  0.
        1    1    3    3  502    0  0.26738017369E+03 -0.13200115702E+03 -0.47175149745E+03  0.55809133492E+03  0.50400001928E-02 0.  1.
       -1    1    3    3    0  502 -0.26738017369E+03  0.13200115702E+03  0.75052761724E+02  0.30748882875E+03  0.50400001928E-02 0. -1.
</event>
<event>
 5   0  0.2635243E-02  0.7856305E+03  0.7818609E-02  0.9581053E-01
       -1   -1    0    0    0  501  0.00000000000E+00  0.00000000000E+00  0.25860400989E+03  0.25860400994E+03  0.50400001928E-02 0. -1.
        1   -1    0    0  501    0  0.00000000000E+00  0.00000000000E+00 -0.59667986288E+03  0.59667986290E+03  0.50400001928E-02 0.  1.
    10030    2    1    2    0    0  0.00000000000E+00  0.00000000000E+00 -0.33807585299E+03  0.85528387284E+03  0.78563046069E+03 0.  0.
        1    1    3    3  502    0 -0.26531165515E+03 -0.10922579933E+02 -0.48417465456E+03  0.55220890364E+03  0.50400001928E-02 0.  1.
       -1    1    3    3    0  502  0.26531165515E+03  0.10922579933E+02  0.14609880157E+03  0.30307496921E+03  0.50400001928E-02 0. -1.
</event>
<event>
 5   0  0.2635243E-02  0.8070233E+03  0.7818609E-02  0.9549906E-01
        1   -1    0    0  501    0  0.00000000000E+00  0.00000000000E+00  0.59976049369E+03  0.59976049371E+03  0.50400001928E-02 0.  1.
       -1   -1    0    0    0  501  0.00000000000E+00  0.00000000000E+00 -0.27147780762E+03  0.27147780766E+03  0.50400001928E-02 0. -1.
    10030    2    1    2    0    0  0.00000000000E+00  0.00000000000E+00  0.32828268607E+03  0.87123830138E+03  0.80702333040E+03 0.  0.
        1    1    3    3  502    0  0.39562566094E+03 -0.30319542451E+02  0.84936453400E+02  0.40577473972E+03  0.50400001928E-02 0. -1.
       -1    1    3    3    0  502 -0.39562566094E+03  0.30319542451E+02  0.24334623267E+03  0.46546356166E+03  0.50400001928E-02 0.  1.
</event>
<event>
 5   0  0.2759559E-02  0.8110562E+03  0.7818609E-02  0.9544150E-01
       -1   -1    0    0    0  501  0.00000000000E+00  0.00000000000E+00  0.42448474637E+03  0.42448474640E+03  0.50400001928E-02 0. -1.
        1   -1    0    0  501    0  0.00000000000E+00  0.00000000000E+00 -0.38741804562E+03  0.38741804566E+03  0.50400001928E-02 0.  1.
    10030    2    1    2    0    0  0.00000000000E+00  0.00000000000E+00  0.37066700744E+02  0.81190279205E+03  0.81105622705E+03 0.  0.
        3    1    3    3  502    0 -0.28063283396E+03 -0.53357438535E+02 -0.26960599831E+03  0.39279665002E+03  0.10100000352E+00 0.  1.
       -3    1    3    3    0  502  0.28063283396E+03  0.53357438535E+02  0.30667269906E+03  0.41910614203E+03  0.10100000352E+00 0. -1.
</event>
<event>
 5   0  0.4590462E-02  0.5673376E+03  0.7818609E-02  0.9975587E-01
       -2   -1    0    0    0  501  0.00000000000E+00  0.00000000000E+00  0.11099246739E+03  0.11099246742E+03  0.25500000920E-02 0. -1.
        2   -1    0    0  501    0  0.00000000000E+00  0.00000000000E+00 -0.72498608276E+03  0.72498608276E+03  0.25500000920E-02 0.  1.
    10030    2    1    2    0    0  0.00000000000E+00  0.00000000000E+00 -0.61399361536E+03  0.83597855019E+03  0.56733762141E+03 0.  0.
        3    1    3    3  502    0 -0.17079687238E+03 -0.10571098471E+03 -0.11846885524E+02  0.20121317750E+03  0.10100000352E+00 0. -1.
       -3    1    3    3    0  502  0.17079687238E+03  0.10571098471E+03 -0.60214672984E+03  0.63476537269E+03  0.10100000352E+00 0.  1.
</event>
<event>
 5   0  0.4377843E-02  0.8422229E+03  0.7818609E-02  0.9500835E-01
       -2   -1    0    0    0  501  0.00000000000E+00  0.00000000000E+00  0.17605594063E+03  0.17605594065E+03  0.25500000920E-02 0. -1.
        2   -1    0    0  501    0  0.00000000000E+00  0.00000000000E+00 -0.10072643024E+04  0.10072643024E+04  0.25500000920E-02 0.  1.
    10030    2    1    2    0    0  0.00000000000E+00  0.00000000000E+00 -0.83120836174E+03  0.11833202430E+04  0.84222292591E+03 0.  0.
        2    1    3    3  502    0 -0.40449787890E+03 -0.11705929988E+03 -0.42075699562E+03  0.59527965116E+03  0.25500000920E-02 0.  1.
       -2    1    3    3    0  502  0.40449787890E+03  0.11705929988E+03 -0.41045136612E+03  0.58804059186E+03  0.25500000920E-02 0. -1.
</event>
<event>
 5   0  0.2689372E-02  0.4545414E+03  0.7818609E-02  0.1026376E+00
       -1   -1    0    0    0  501  0.00000000000E+00  0.00000000000E+00  0.44004565898E+02  0.44004566187E+02  0.50400001928E-02 0.  1.
        1   -1    0    0  501    0  0.00000000000E+00  0.00000000000E+00 -0.11737867272E+04  0.11737867272E+04  0.50400001928E-02 0. -1.
    10030    2    1    2    0    0  0.00000000000E+00  0.00000000000E+00 -0.11297821613E+04  0.12177912934E+04  0.45454141977E+03 0.  0.
        4    1    3    3  502    0  0.38669162232E+02  0.93341871294E+02 -0.19482951468E+02  0.10290387428E+03  0.12699999809E+01 0.  1.
       -4    1    3    3    0  502 -0.38669162232E+02 -0.93341871294E+02 -0.11102992099E+04  0.11148874192E+04  0.12699999809E+01 0. -1.
</event>
<event>
 5   0  0.4684283E-02  0.8276694E+03  0.7818609E-02  0.9520808E-01
       -2   -1    0    0    0  501  0.00000000000E+00  0.00000000000E+00  0.40099272683E+03  0.40099272684E+03  0.25500000920E-02 0.  1.
        2   -1    0    0  501    0  0.00000000000E+00  0.00000000000E+00 -0.42708795380E+03  0.42708795381E+03  0.25500000920E-02 0. -1.
    10030    2    1    2    0    0  0.00000000000E+00  0.00000000000E+00 -0.26095226973E+02  0.82808068065E+03  0.82766941033E+03 0.  0.
        1    1    3    3  502    0  0.51827641919E+02 -0.30788080976E+03  0.25871663943E+03  0.40547625952E+03  0.50400001928E-02 0.  1.
       -1    1    3    3    0  502 -0.51827641919E+02  0.30788080976E+03 -0.28481186640E+03  0.42260442113E+03  0.50400001928E-02 0. -1.
</event>
<event>
 5   0  0.1786500E-02  0.7980457E+03  0.7818609E-02  0.9562850E-01
        4   -1    0    0  501    0  0.00000000000E+00  0.00000000000E+00  0.16499953838E+03  0.16500442589E+03  0.12699999809E+01 0. -1.
       -4   -1    0    0    0  501  0.00000000000E+00  0.00000000000E+00 -0.96494806249E+03  0.96494889823E+03  0.12699999809E+01 0.  1.
    10030    2    1    2    0    0  0.00000000000E+00  0.00000000000E+00 -0.79994852411E+03  0.11299533241E+04  0.79804565876E+03 0.  0.
        2    1    3    3  502    0  0.17674621516E+03  0.22400030004E+03 -0.79491627445E+03  0.84457518457E+03  0.25500000920E-02 0.  1.
       -2    1    3    3    0  502 -0.17674621516E+03 -0.22400030004E+03 -0.50322496602E+01  0.28537813956E+03  0.25500000920E-02 0. -1.
</event>
<event>
 5   0  0.2689372E-02  0.7775695E+03  0.7818609E-02  0.9593064E-01
        1   -1    0    0  501    0  0.00000000000E+00  0.00000000000E+00  0.37971704430E+03  0.37971704433E+03  0.50400001928E-02 0. -1.
       -1   -1    0    0    0  501  0.00000000000E+00  0.00000000000E+00 -0.39806899841E+03  0.39806899844E+03  0.50400001928E-02 0.  1.
    10030    2    1    2    0    0  0.00000000000E+00  0.00000000000E+00 -0.18351954115E+02  0.77778604278E+03  0.77756950436E+03 0.  0.
        4    1    3    3  502    0  0.74893050210E+02  0.24131792603E+03  0.28638669757E+03  0.38191918495E+03  0.12699999809E+01 0. -1.
       -4    1    3    3    0  502 -0.74893050210E+02 -0.24131792603E+03 -0.30473865168E+03  0.39586685782E+03  0.12699999809E+01 0.  1.
</event>
<event>
 5   0  0.4684283E-02  0.8028118E+03  0.7818609E-02  0.9555956E-01
       -2   -1    0    0    0  501  0.00000000000E+00  0.00000000000E+00  0.18737426029E+03  0.18737426031E+03  0.25500000920E-02 0.  1.
        2   -1    0    0  501    0  0.00000000000E+00  0.00000000000E+00 -0.85991898375E+03  0.85991898375E+03  0.25500000920E-02 0. -1.
    10030    2    1    2    0    0  0.00000000000E+00  0.00000000000E+00 -0.67254472346E+03  0.10472932441E+04  0.80281176748E+03 0.  0.
        1    1    3    3  502    0 -0.26357146765E+03 -0.63505196253E+02  0.49886272855E+02  0.27566550157E+03  0.50400001928E-02 0.  1.
       -1    1    3    3    0  502  0.26357146765E+03  0.63505196253E+02 -0.72243099632E+03  0.77162774249E+03  0.50400001928E-02 0. -1.
</event>
<event>
 5   0  0.2635243E-02  0.8344250E+03  0.7818609E-02  0.9511483E-01
        1   -1    0    0  501    0  0.00000000000E+00  0.00000000000E+00  0.61979671076E+03  0.61979671078E+03  0.50400001928E-02 0.  1.
       -1   -1    0    0    0  501  0.00000000000E+00  0.00000000000E+00 -0.28084414369E+03  0.28084414374E+03  0.50400001928E-02 0. -1.
    10030    2    1    2    0    0  0.00000000000E+00  0.00000000000E+00  0.33895256707E+03  0.90064085452E+03  0.83442501527E+03 0.  0.
        1    1    3    3  502    0 -0.38003271471E+03  0.15498634138E+03  0.25039657786E+03  0.48077445491E+03  0.50400001928E-02 0.  1.
       -1    1    3    3    0  502  0.38003271471E+03 -0.15498634138E+03  0.88555989212E+02  0.41986639961E+03  0.50400001928E-02 0. -1.
</event>
<event>
 5   0  0.4684283E-02  0.8089976E+03  0.7818609E-02  0.9547084E-01
        2   -1    0    0  501    0  0.00000000000E+00  0.00000000000E+00  0.15765946691E+04  0.15765946691E+04  0.25500000920E-02 0. -1.
       -2   -1    0    0    0  501  0.00000000000E+00  0.00000000000E+00 -0.10378017418E+03  0.10378017422E+03  0.25500000920E-02 0.  1.
    10030    2    1    2    0    0  0.00000000000E+00  0.00000000000E+00  0.14728144950E+04  0.16803748434E+04  0.80899757579E+03 0.  0.
        1    1    3    3  502    0  0.86398238764E+01 -0.23750587794E+03  0.56537345861E+02  0.24429523147E+03  0.50400001928E-02 0.  1.
       -1    1    3    3    0  502 -0.86398238764E+01  0.23750587794E+03  0.14162771491E+04  0.14360796119E+04  0.50400001928E-02 0. -1.
</event>
<event>
 5   0  0.2689372E-02  0.8064094E+03  0.7818609E-02  0.9550786E-01
        1   -1    0    0  501    0  0.00000000000E+00  0.00000000000E+00  0.20327446514E+04  0.20327446514E+04  0.50400001928E-02 0. -1.
       -1   -1    0    0    0  501  0.00000000000E+00  0.00000000000E+00 -0.79977596907E+02  0.79977597066E+02  0.50400001928E-02 0.  1.
    10030    2    1    2    0    0  0.00000000000E+00  0.00000000000E+00  0.19527670545E+04  0.21127222484E+04  0.80640940599E+03 0.  0.
        4    1    3    3  502    0  0.12228926793E+03  0.30070608801E+02 -0.27126876210E+02  0.12882696487E+03  0.12699999809E+01 0.  1.
       -4    1    3    3    0  502 -0.12228926793E+03 -0.30070608801E+02  0.19798939307E+04  0.19838952836E+04  0.12699999809E+01 0. -1.
</event>
<event>
 5   0  0.4377843E-02  0.8068702E+03  0.7818609E-02  0.9550126E-01
       -2   -1    0    0    0  501  0.00000000000E+00  0.00000000000E+00  0.41087033572E+03  0.41087033572E+03  0.25500000920E-02 0.  1.
        2   -1    0    0  501    0  0.00000000000E+00  0.00000000000E+00 -0.39613440433E+03  0.39613440434E+03  0.25500000920E-02 0. -1.
    10030    2    1    2    0    0  0.00000000000E+00  0.00000000000E+00  0.14735931388E+02  0.80700474006E+03  0.80687018956E+03 0.  0.
        2    1    3    3  502    0 -0.10871936771E+03 -0.72131290890E+02  0.38918685048E+03  0.41047439462E+03  0.25500000920E-02 0.  1.
       -2    1    3    3    0  502  0.10871936771E+03  0.72131290890E+02 -0.37445091909E+03  0.39653034544E+03  0.25500000920E-02 0. -1.
</event>
<event>
 5   0  0.4377843E-02  0.8030598E+03  0.7818609E-02  0.9555599E-01
       -2   -1    0    0    0  501  0.00000000000E+00  0.00000000000E+00  0.27386084753E+03  0.27386084754E+03  0.25500000920E-02 0.  1.
        2   -1    0    0  501    0  0.00000000000E+00  0.00000000000E+00 -0.58871602343E+03  0.58871602343E+03  0.25500000920E-02 0. -1.
    10030    2    1    2    0    0  0.00000000000E+00  0.00000000000E+00 -0.31485517590E+03  0.86257687098E+03  0.80305982128E+03 0.  0.
        2    1    3    3  502    0  0.10575841818E+03  0.29906023628E+03  0.10699709560E+03  0.33476894482E+03  0.25500000920E-02 0.  1.
       -2    1    3    3    0  502 -0.10575841818E+03 -0.29906023628E+03 -0.42185227150E+03  0.52780792616E+03  0.25500000920E-02 0. -1.
</event>
<event>
 5   0  0.2689372E-02  0.8026349E+03  0.7818609E-02  0.9556211E-01
        1   -1    0    0  501    0  0.00000000000E+00  0.00000000000E+00  0.28360986034E+03  0.28360986039E+03  0.50400001928E-02 0.  1.
       -1   -1    0    0    0  501  0.00000000000E+00  0.00000000000E+00 -0.56787767854E+03  0.56787767856E+03  0.50400001928E-02 0. -1.
    10030    2    1    2    0    0  0.00000000000E+00  0.00000000000E+00 -0.28426781820E+03  0.85148753894E+03  0.80263493353E+03 0.  0.
        4    1    3    3  502    0 -0.67611568364E+02 -0.13651157086E+03 -0.53600986503E+03  0.55723865755E+03  0.12699999809E+01 0. -1.
       -4    1    3    3    0  502  0.67611568364E+02  0.13651157086E+03  0.25174204684E+03  0.29424888139E+03  0.12699999809E+01 0.  1.
</event>
<event>
 5   0  0.2606520E-02  0.8194859E+03  0.7818609E-02  0.9532233E-01
       -1   -1    0    0    0  501  0.00000000000E+00  0.00000000000E+00  0.12934760398E+03  0.12934760408E+03  0.50400001928E-02 0. -1.
        1   -1    0    0  501    0  0.00000000000E+00  0.00000000000E+00 -0.12979696661E+04  0.12979696661E+04  0.50400001928E-02 0.  1.
    10030    2    1    2    0    0  0.00000000000E+00  0.00000000000E+00 -0.11686220621E+04  0.14273172702E+04  0.81948585450E+03 0.  0.
        5    1    3    3  502    0  0.37731111613E+01 -0.22257250195E+03  0.14787012622E+02  0.22314457362E+03  0.46999998093E+01 0. -1.
       -5    1    3    3    0  502 -0.37731111613E+01  0.22257250195E+03 -0.11834090748E+04  0.12041726966E+04  0.46999998093E+01 0.  1.
</event>
<event>
 5   0  0.2769394E-02  0.7819552E+03  0.7818609E-02  0.9586510E-01
       -1   -1    0    0    0  501  0.00000000000E+00  0.00000000000E+00  0.19256417781E+03  0.19256417787E+03  0.50400001928E-02 0. -1.
        1   -1    0    0  501    0  0.00000000000E+00  0.00000000000E+00 -0.79383145876E+03  0.79383145877E+03  0.50400001928E-02 0.  1.
    10030    2    1    2    0    0  0.00000000000E+00  0.00000000000E+00 -0.60126728095E+03  0.98639563664E+03  0.78195524734E+03 0.  0.
        2    1    3    3  502    0 -0.24616686939E+03  0.94303983709E+02  0.63599703615E+02  0.27117575710E+03  0.25500000920E-02 0. -1.
       -2    1    3    3    0  502  0.24616686939E+03 -0.94303983709E+02 -0.66486698457E+03  0.71521987955E+03  0.25500000920E-02 0.  1.
</event>
<event>
 5   0  0.4590462E-02  0.7665682E+03  0.7818609E-02  0.9609710E-01
       -2   -1    0    0    0  501  0.00000000000E+00  0.00000000000E+00  0.77928278626E+02  0.77928278667E+02  0.25500000920E-02 0.  1.
        2   -1    0    0  501    0  0.00000000000E+00  0.00000000000E+00 -0.18851528749E+04  0.18851528749E+04  0.25500000920E-02 0. -1.
    10030    2    1    2    0    0  0.00000000000E+00  0.00000000000E+00 -0.18072245963E+04  0.19630811536E+04  0.76656824492E+03 0.  0.
        3    1    3    3  502    0  0.23141887098E+03  0.91538895735E+02 -0.15711713574E+03  0.29431253426E+03  0.10100000352E+00 0.  1.
       -3    1    3    3    0  502 -0.23141887098E+03 -0.91538895735E+02 -0.16501074605E+04  0.16687686193E+04  0.10100000352E+00 0. -1.
</event>
<event>
 5   0  0.2769394E-02  0.8196205E+03  0.7818609E-02  0.9532044E-01
       -1   -1    0    0    0  501  0.00000000000E+00  0.00000000000E+00  0.15691126878E+03  0.15691126886E+03  0.50400001928E-02 0.  1.
        1   -1    0    0  501    0  0.00000000000E+00  0.00000000000E+00 -0.10703147888E+04  0.10703147889E+04  0.50400001928E-02 0. -1.
    10030    2    1    2    0    0  0.00000000000E+00  0.00000000000E+00 -0.91340352007E+03  0.12272260577E+04  0.81962052577E+03 0.  0.
        2    1    3    3  502    0 -0.13171506843E+03 -0.32279412865E+03 -0.77923062845E+03  0.85366579003E+03  0.25500000920E-02 0. -1.
       -2    1    3    3    0  502  0.13171506843E+03  0.32279412865E+03 -0.13417289162E+03  0.37356026769E+03  0.25500000920E-02 0.  1.
</event>
<event>
 5   0  0.2635243E-02  0.7696535E+03  0.7818609E-02  0.9605012E-01
        1   -1    0    0  501    0  0.00000000000E+00  0.00000000000E+00  0.67373638548E+03  0.67373638550E+03  0.50400001928E-02 0. -1.
       -1   -1    0    0    0  501  0.00000000000E+00  0.00000000000E+00 -0.21980649680E+03  0.21980649686E+03  0.50400001928E-02 0.  1.
    10030    2    1    2    0    0  0.00000000000E+00  0.00000000000E+00  0.45392988868E+03  0.89354288236E+03  0.76965351866E+03 0.  0.
        1    1    3    3  502    0  0.14124259139E+03 -0.86584818735E+02  0.63021573350E+03  0.65162740215E+03  0.50400001928E-02 0. -1.
       -1    1    3    3    0  502 -0.14124259139E+03  0.86584818735E+02 -0.17628584482E+03  0.24191548021E+03  0.50400001928E-02 0.  1.
</event>
<event>
 5   0  0.4684283E-02  0.8053077E+03  0.7818609E-02  0.9552366E-01
        2   -1    0    0  501    0  0.00000000000E+00  0.00000000000E+00  0.56058150633E+03  0.56058150634E+03  0.25500000920E-02 0.  1.
       -2   -1    0    0    0  501  0.00000000000E+00  0.00000000000E+00 -0.28921776421E+03  0.28921776422E+03  0.25500000920E-02 0. -1.
    10030    2    1    2    0    0  0.00000000000E+00  0.00000000000E+00  0.27136374213E+03  0.84979927056E+03  0.80530771740E+03 0.  0.
        1    1    3    3  502    0 -0.17586387681E+03 -0.34221426094E+03  0.26094751359E+03  0.46490032096E+03  0.50400001928E-02 0.  1.
       -1    1    3    3    0  502  0.17586387681E+03  0.34221426094E+03  0.10416228536E+02  0.38489894959E+03  0.50400001928E-02 0. -1.
</event>
<event>
 5   0  0.2606520E-02  0.7001704E+03  0.7818609E-02  0.9716941E-01
       -1   -1    0    0    0  501  0.00000000000E+00  0.00000000000E+00  0.34905408377E+03  0.34905408380E+03  0.50400001928E-02 0. -1.
        1   -1    0    0  501    0  0.00000000000E+00  0.00000000000E+00 -0.35111939969E+03  0.35111939973E+03  0.50400001928E-02 0.  1.
    10030    2    1    2    0    0  0.00000000000E+00  0.00000000000E+00 -0.20653159253E+01  0.70017348353E+03  0.70017043747E+03 0.  0.
        5    1    3    3  502    0 -0.34893864935E+03  0.20675202439E+02 -0.19792413691E+02  0.35014207780E+03  0.46999998093E+01 0. -1.
       -5    1    3    3    0  502  0.34893864935E+03 -0.20675202439E+02  0.17727097765E+02  0.35003140573E+03  0.46999998093E+01 0.  1.
</event>
<event>
 5   0  0.2606520E-02  0.5645600E+03  0.7818609E-02  0.9981789E-01
        1   -1    0    0  501    0  0.00000000000E+00  0.00000000000E+00  0.32144168808E+03  0.32144168812E+03  0.50400001928E-02 0. -1.
       -1   -1    0    0    0  501  0.00000000000E+00  0.00000000000E+00 -0.24788946018E+03  0.24788946023E+03  0.50400001928E-02 0.  1.
    10030    2    1    2    0    0  0.00000000000E+00  0.00000000000E+00  0.73552227905E+02  0.56933114835E+03  0.56456002892E+03 0.  0.
        5    1    3    3  502    0  0.16410346514E+03 -0.14026498033E+03  0.22012489524E+03  0.30835251171E+03  0.46999998093E+01 0. -1.
       -5    1    3    3    0  502 -0.16410346514E+03  0.14026498033E+03 -0.14657266733E+03  0.26097863664E+03  0.46999998093E+01 0.  1.
</event>
<event>
 5   0  0.4377843E-02  0.4612456E+03  0.7818609E-02  0.1024421E+00
        2   -1    0    0  501    0  0.00000000000E+00  0.00000000000E+00  0.37977425389E+03  0.37977425390E+03  0.25500000920E-02 0. -1.
       -2   -1    0    0    0  501  0.00000000000E+00  0.00000000000E+00 -0.14004864720E+03  0.14004864722E+03  0.25500000920E-02 0.  1.
    10030    2    1    2    0    0  0.00000000000E+00  0.00000000000E+00  0.23972560669E+03  0.51982290112E+03  0.46124557670E+03 0.  0.
        2    1    3    3  502    0 -0.21218224678E+02 -0.20461685418E+03  0.23735526571E+03  0.31409519614E+03  0.25500000920E-02 0. -1.
       -2    1    3    3    0  502  0.21218224678E+02  0.20461685418E+03  0.23703409808E+01  0.20572770498E+03  0.25500000920E-02 0.  1.
</event>
<event>
 5   0  0.4377843E-02  0.8106796E+03  0.7818609E-02  0.9544686E-01
       -2   -1    0    0    0  501  0.00000000000E+00  0.00000000000E+00  0.16266303453E+03  0.16266303455E+03  0.25500000920E-02 0.  1.
        2   -1    0    0  501    0  0.00000000000E+00  0.00000000000E+00 -0.10100657165E+04  0.10100657165E+04  0.25500000920E-02 0. -1.
    10030    2    1    2    0    0  0.00000000000E+00  0.00000000000E+00 -0.84740268201E+03  0.11727287511E+04  0.81067960265E+03 0.  0.
        2    1    3    3  502    0 -0.84216255342E+02 -0.31731869007E+03 -0.79797356373E+02  0.33786261530E+03  0.25500000920E-02 0.  1.
       -2    1    3    3    0  502  0.84216255342E+02  0.31731869007E+03 -0.76760532564E+03  0.83486613579E+03  0.25500000920E-02 0. -1.
</event>
<event>
 5   0  0.2759559E-02  0.8046919E+03  0.7818609E-02  0.9553251E-01
       -1   -1    0    0    0  501  0.00000000000E+00  0.00000000000E+00  0.22891449743E+03  0.22891449748E+03  0.50400001928E-02 0.  1.
        1   -1    0    0  501    0  0.00000000000E+00  0.00000000000E+00 -0.70717342052E+03  0.70717342053E+03  0.50400001928E-02 0. -1.
    10030    2    1    2    0    0  0.00000000000E+00  0.00000000000E+00 -0.47825892309E+03  0.93608791802E+03  0.80469186198E+03 0.  0.
        3    1    3    3  502    0 -0.22087992086E+03  0.20294178747E+03 -0.55107475840E+03  0.62742067872E+03  0.10100000352E+00 0. -1.
       -3    1    3    3    0  502  0.22087992086E+03 -0.20294178747E+03  0.72815835310E+02  0.30866723930E+03  0.10100000352E+00 0.  1.
</event>
<event>
 5   0  0.4663634E-02  0.8174947E+03  0.7818609E-02  0.9535034E-01
       -2   -1    0    0    0  501  0.00000000000E+00  0.00000000000E+00  0.28887245517E+03  0.28887245518E+03  0.25500000920E-02 0. -1.
        2   -1    0    0  501    0  0.00000000000E+00  0.00000000000E+00 -0.57836738191E+03  0.57836738192E+03  0.25500000920E-02 0.  1.
    10030    2    1    2    0    0  0.00000000000E+00  0.00000000000E+00 -0.28949492674E+03  0.86723983710E+03  0.81749472319E+03 0.  0.
        5    1    3    3  502    0  0.28307717146E+03  0.28511355867E+03 -0.22434583580E+03  0.46019079780E+03  0.46999998093E+01 0.  1.
       -5    1    3    3    0  502 -0.28307717146E+03 -0.28511355867E+03 -0.65149090940E+02  0.40704903930E+03  0.46999998093E+01 0. -1.
</event>
<event>
 5   0  0.2689372E-02  0.7952590E+03  0.7818609E-02  0.9566905E-01
       -1   -1    0    0    0  501  0.00000000000E+00  0.00000000000E+00  0.26143038185E+03  0.26143038190E+03  0.50400001928E-02 0.  1.
        1   -1    0    0  501    0  0.00000000000E+00  0.00000000000E+00 -0.60478512104E+03  0.60478512106E+03  0.50400001928E-02 0. -1.
    10030    2    1    2    0    0  0.00000000000E+00  0.00000000000E+00 -0.34335473920E+03  0.86621550296E+03  0.79525896451E+03 0.  0.
        4    1    3    3  502    0 -0.30300184836E+03  0.21032119570E+02  0.10784216109E+03  0.32231043230E+03  0.12699999809E+01 0.  1.
       -4    1    3    3    0  502  0.30300184836E+03 -0.21032119570E+02 -0.45119690029E+03  0.54390507066E+03  0.12699999809E+01 0. -1.
</event>
<event>
 5   0  0.4377843E-02  0.9559162E+03  0.7818609E-02  0.9358262E-01
        2   -1    0    0  501    0  0.00000000000E+00  0.00000000000E+00  0.13927896372E+04  0.13927896372E+04  0.25500000920E-02 0.  1.
       -2   -1    0    0    0  501  0.00000000000E+00  0.00000000000E+00 -0.16401897405E+03  0.16401897407E+03  0.25500000920E-02 0. -1.
    10030    2    1    2    0    0  0.00000000000E+00  0.00000000000E+00  0.12287706631E+04  0.15568086112E+04  0.95591616238E+03 0.  0.
        2    1    3    3  502    0  0.26200231516E+03  0.17178076015E+03  0.12022415325E+04  0.12423922671E+04  0.25500000920E-02 0.  1.
       -2    1    3    3    0  502 -0.26200231516E+03 -0.17178076015E+03  0.26529130567E+02  0.31441634417E+03  0.25500000920E-02 0. -1.
</event>
<event>
 5   0  0.2759559E-02  0.8064849E+03  0.7818609E-02  0.9550678E-01
       -1   -1    0    0    0  501  0.00000000000E+00  0.00000000000E+00  0.18672336079E+03  0.18672336085E+03  0.50400001928E-02 0.  1.
        1   -1    0    0  501    0  0.00000000000E+00  0.00000000000E+00 -0.87083091947E+03  0.87083091948E+03  0.50400001928E-02 0. -1.
    10030    2    1    2    0    0  0.00000000000E+00  0.00000000000E+00 -0.68410755868E+03  0.10575542803E+04  0.80648490625E+03 0.  0.
        3    1    3    3  502    0  0.36005651346E+03 -0.14818853281E+03 -0.47961004141E+03  0.61775912471E+03  0.10100000352E+00 0.  1.
       -3    1    3    3    0  502 -0.36005651346E+03  0.14818853281E+03 -0.20449751727E+03  0.43979515562E+03  0.10100000352E+00 0. -1.
</event>
<event>
 5   0  0.2606520E-02  0.8132402E+03  0.7818609E-02  0.9541048E-01
       -1   -1    0    0    0  501  0.00000000000E+00  0.00000000000E+00  0.88763460879E+03  0.88763460880E+03  0.50400001928E-02 0. -1.
        1   -1    0    0  501    0  0.00000000000E+00  0.00000000000E+00 -0.18627022110E+03  0.18627022117E+03  0.50400001928E-02 0.  1.
    10030    2    1    2    0    0  0.00000000000E+00  0.00000000000E+00  0.70136438769E+03  0.10739048300E+04  0.81324017333E+03 0.  0.
        5    1    3    3  502    0 -0.12794049526E+03  0.93076727322E+02 -0.14391740753E+03  0.21393073105E+03  0.46999998093E+01 0.  1.
       -5    1    3    3    0  502  0.12794049526E+03 -0.93076727322E+02  0.84528179522E+03  0.85997409892E+03  0.46999998093E+01 0. -1.
</event>
<event>
 5   0  0.2769394E-02  0.4209577E+03  0.7818609E-02  0.1036755E+00
        1   -1    0    0  501    0  0.00000000000E+00  0.00000000000E+00  0.15782400901E+03  0.15782400909E+03  0.50400001928E-02 0.  1.
       -1   -1    0    0    0  501  0.00000000000E+00  0.00000000000E+00 -0.28070099115E+03  0.28070099120E+03  0.50400001928E-02 0. -1.
    10030    2    1    2    0    0  0.00000000000E+00  0.00000000000E+00 -0.12287698214E+03  0.43852500029E+03  0.42095774507E+03 0.  0.
        2    1    3    3  502    0  0.19796088903E+03 -0.23127523990E+02  0.90457197991E+01  0.19951245827E+03  0.25500000920E-02 0.  1.
       -2    1    3    3    0  502 -0.19796088903E+03  0.23127523990E+02 -0.13192270194E+03  0.23901254202E+03  0.25500000920E-02 0. -1.
</event>
<event>
 5   0  0.2606520E-02  0.7839470E+03  0.7818609E-02  0.9583548E-01
       -1   -1    0    0    0  501  0.00000000000E+00  0.00000000000E+00  0.26746183941E+03  0.26746183945E+03  0.50400001928E-02 0. -1.
        1   -1    0    0  501    0  0.00000000000E+00  0.00000000000E+00 -0.57444909465E+03  0.57444909467E+03  0.50400001928E-02 0.  1.
    10030    2    1    2    0    0  0.00000000000E+00  0.00000000000E+00 -0.30698725524E+03  0.84191093412E+03  0.78394696639E+03 0.  0.
        5    1    3    3  502    0 -0.53979135007E+02 -0.38215117691E+03 -0.80120331644E+02  0.39420125135E+03  0.46999998093E+01 0. -1.
       -5    1    3    3    0  502  0.53979135007E+02  0.38215117691E+03 -0.22686692360E+03  0.44770968277E+03  0.46999998093E+01 0.  1.
</event>
<event>
 5   0  0.4377843E-02  0.8064813E+03  0.7818609E-02  0.9550683E-01
        2   -1    0    0  501    0  0.00000000000E+00  0.00000000000E+00  0.13167023257E+04  0.13167023257E+04  0.25500000920E-02 0.  1.
       -2   -1    0    0    0  501  0.00000000000E+00  0.00000000000E+00 -0.12349260747E+03  0.12349260750E+03  0.25500000920E-02 0. -1.
    10030    2    1    2    0    0  0.00000000000E+00  0.00000000000E+00  0.11932097182E+04  0.14401949332E+04  0.80648125455E+03 0.  0.
        2    1    3    3  502    0  0.84966129612E+02 -0.13079285449E+03 -0.67446942411E+02  0.16992676073E+03  0.25500000920E-02 0. -1.
       -2    1    3    3    0  502 -0.84966129612E+02  0.13079285449E+03  0.12606566607E+04  0.12702681725E+04  0.25500000920E-02 0.  1.
</event>
<event>
 5   0  0.4377843E-02  0.7873668E+03  0.7818609E-02  0.9578485E-01
       -2   -1    0    0    0  501  0.00000000000E+00  0.00000000000E+00  0.12267956488E+04  0.12267956488E+04  0.25500000920E-02 0.  1.
        2   -1    0    0  501    0  0.00000000000E+00  0.00000000000E+00 -0.12633450088E+03  0.12633450090E+03  0.25500000920E-02 0. -1.
    10030    2    1    2    0    0  0.00000000000E+00  0.00000000000E+00  0.11004611479E+04  0.13531301497E+04  0.78736679123E+03 0.  0.
        2    1    3    3  502    0 -0.92015005146E+02  0.36046354352E+03  0.77155627538E+03  0.85656279014E+03  0.25500000920E-02 0.  1.
       -2    1    3    3    0  502  0.92015005146E+02 -0.36046354352E+03  0.32890487251E+03  0.49656735953E+03  0.25500000920E-02 0. -1.
</event>
<event>
 5   0  0.2689372E-02  0.7992063E+03  0.7818609E-02  0.9561167E-01
        1   -1    0    0  501    0  0.00000000000E+00  0.00000000000E+00  0.43447550693E+03  0.43447550696E+03  0.50400001928E-02 0. -1.
       -1   -1    0    0    0  501  0.00000000000E+00  0.00000000000E+00 -0.36752973834E+03  0.36752973837E+03  0.50400001928E-02 0.  1.
    10030    2    1    2    0    0  0.00000000000E+00  0.00000000000E+00  0.66945768589E+02  0.80200524533E+03  0.79920627976E+03 0.  0.
        4    1    3    3  502    0 -0.11914001621E+03  0.41934110049E+02 -0.34696992501E+03  0.36924592728E+03  0.12699999809E+01 0.  1.
       -4    1    3    3    0  502  0.11914001621E+03 -0.41934110049E+02  0.41391569360E+03  0.43275931805E+03  0.12699999809E+01 0. -1.
</event>
<event>
 5   0  0.4700220E-02  0.7910345E+03  0.7818609E-02  0.9573086E-01
       -2   -1    0    0    0  501  0.00000000000E+00  0.00000000000E+00  0.17924024525E+03  0.17924024527E+03  0.25500000920E-02 0.  1.
        2   -1    0    0  501    0  0.00000000000E+00  0.00000000000E+00 -0.87276110415E+03  0.87276110416E+03  0.25500000920E-02 0. -1.
    10030    2    1    2    0    0  0.00000000000E+00  0.00000000000E+00 -0.69352085890E+03  0.10520013494E+04  0.79103454885E+03 0.  0.
        4    1    3    3  502    0 -0.27358462386E+03  0.27651676561E+03 -0.25157937178E+03  0.46325356046E+03  0.12699999809E+01 0.  1.
       -4    1    3    3    0  502  0.27358462386E+03 -0.27651676561E+03 -0.44194148712E+03  0.58874778897E+03  0.12699999809E+01 0. -1.
</event>
<event>
 5   0  0.2606520E-02  0.8074190E+03  0.7818609E-02  0.9549340E-01
        1   -1    0    0  501    0  0.00000000000E+00  0.00000000000E+00  0.10831249306E+04  0.10831249306E+04  0.50400001928E-02 0.  1.
       -1   -1    0    0    0  501  0.00000000000E+00  0.00000000000E+00 -0.15047327575E+03  0.15047327583E+03  0.50400001928E-02 0. -1.
    10030    2    1    2    0    0  0.00000000000E+00  0.00000000000E+00  0.93265165481E+03  0.12335982064E+04  0.80741899013E+03 0.  0.
        5    1    3    3  502    0 -0.33568813520E+03  0.17417699826E+02  0.12479753289E+03  0.35858947920E+03  0.46999998093E+01 0. -1.
       -5    1    3    3    0  502  0.33568813520E+03 -0.17417699826E+02  0.80785412191E+03  0.87500872720E+03  0.46999998093E+01 0.  1.
</event>
<event>
 5   0  0.2606520E-02  0.7855033E+03  0.7818609E-02  0.9581241E-01
       -1   -1    0    0    0  501  0.00000000000E+00  0.00000000000E+00  0.74916629366E+03  0.74916629368E+03  0.50400001928E-02 0.  1.
        1   -1    0    0  501    0  0.00000000000E+00  0.00000000000E+00 -0.20590067455E+03  0.20590067461E+03  0.50400001928E-02 0. -1.
    10030    2    1    2    0    0  0.00000000000E+00  0.00000000000E+00  0.54326561912E+03  0.95506696829E+03  0.78550326607E+03 0.  0.
        5    1    3    3  502    0 -0.32570126511E+02 -0.15657507373E+03  0.70774626111E+03  0.72560555881E+03  0.46999998093E+01 0.  1.
       -5    1    3    3    0  502  0.32570126511E+02  0.15657507373E+03 -0.16448064200E+03  0.22946140949E+03  0.46999998093E+01 0. -1.
</event>
<event>
 5   0  0.2759559E-02  0.6719056E+03  0.7818609E-02  0.9766521E-01
       -1   -1    0    0    0  501  0.00000000000E+00  0.00000000000E+00  0.33198505439E+03  0.33198505443E+03  0.50400001928E-02 0.  1.
        1   -1    0    0  501    0  0.00000000000E+00  0.00000000000E+00 -0.33996795189E+03  0.33996795193E+03  0.50400001928E-02 0. -1.
    10030    2    1    2    0    0  0.00000000000E+00  0.00000000000E+00 -0.79828974988E+01  0.67195300636E+03  0.67190558570E+03 0.  0.
        3    1    3    3  502    0 -0.17866786975E+03  0.28442706902E+03 -0.10572456635E+02  0.33605468649E+03  0.10100000352E+00 0.  1.
       -3    1    3    3    0  502  0.17866786975E+03 -0.28442706902E+03  0.25895591359E+01  0.33589831987E+03  0.10100000352E+00 0. -1.
</event>
<event>
 5   0  0.4377843E-02  0.8128837E+03  0.7818609E-02  0.9541553E-01
       -2   -1    0    0    0  501  0.00000000000E+00  0.00000000000E+00  0.47485082150E+03  0.47485082151E+03  0.25500000920E-02 0.  1.
        2   -1    0    0  501    0  0.00000000000E+00  0.00000000000E+00 -0.34788815274E+03  0.34788815275E+03  0.25500000920E-02 0. -1.
    10030    2    1    2    0    0  0.00000000000E+00  0.00000000000E+00  0.12696266876E+03  0.82273897426E+03  0.81288369433E+03 0.  0.
        2    1    3    3  502    0  0.10390841407E+03 -0.37905021461E+03 -0.41306245415E+02  0.39519897473E+03  0.25500000920E-02 0. -1.
       -2    1    3    3    0  502 -0.10390841407E+03  0.37905021461E+03  0.16826891418E+03  0.42753999953E+03  0.25500000920E-02 0.  1.
</event>
<event>
 5   0  0.2635243E-02  0.7816521E+03  0.7818609E-02  0.9586961E-01
        1   -1    0    0  501    0  0.00000000000E+00  0.00000000000E+00  0.82467193330E+03  0.82467193332E+03  0.50400001928E-02 0.  1.
       -1   -1    0    0    0  501  0.00000000000E+00  0.00000000000E+00 -0.18521913183E+03  0.18521913190E+03  0.50400001928E-02 0. -1.
    10030    2    1    2    0    0  0.00000000000E+00  0.00000000000E+00  0.63945280147E+03  0.10098910652E+04  0.78165214661E+03 0.  0.
        1    1    3    3  502    0 -0.30584308702E+03  0.23103843201E+03  0.41834441566E+03  0.56738946156E+03  0.50400001928E-02 0. -1.
       -1    1    3    3    0  502  0.30584308702E+03 -0.23103843201E+03  0.22110838581E+03  0.44250160366E+03  0.50400001928E-02 0.  1.
</event>
<event>
 5   0  0.4377843E-02  0.8322542E+03  0.7818609E-02  0.9514469E-01
       -2   -1    0    0    0  501  0.00000000000E+00  0.00000000000E+00  0.58618360672E+03  0.58618360673E+03  0.25500000920E-02 0. -1.
        2   -1    0    0  501    0  0.00000000000E+00  0.00000000000E+00 -0.29540529796E+03  0.29540529797E+03  0.25500000920E-02 0.  1.
    10030    2    1    2    0    0  0.00000000000E+00  0.00000000000E+00  0.29077830876E+03  0.88158890469E+03  0.83225415110E+03 0.  0.
        2    1    3    3  502    0  0.15159677739E+03  0.38310219534E+03  0.83506363464E+02  0.42038338185E+03  0.25500000920E-02 0.  1.
       -2    1    3    3    0  502 -0.15159677739E+03 -0.38310219534E+03  0.20727194530E+03  0.46120552285E+03  0.25500000920E-02 0. -1.
</event>
<event>
 5   0  0.4377843E-02  0.7874651E+03  0.7818609E-02  0.9578340E-01
        2   -1    0    0  501    0  0.00000000000E+00  0.00000000000E+00  0.56150333363E+03  0.56150333363E+03  0.25500000920E-02 0.  1.
       -2   -1    0    0    0  501  0.00000000000E+00  0.00000000000E+00 -0.27608977256E+03  0.27608977257E+03  0.25500000920E-02 0. -1.
    10030    2    1    2    0    0  0.00000000000E+00  0.00000000000E+00  0.28541356107E+03  0.83759310620E+03  0.78746511714E+03 0.  0.
        2    1    3    3  502    0 -0.30309862123E+02  0.22076927483E+03  0.48797391950E+03  0.53644786007E+03  0.25500000920E-02 0.  1.
       -2    1    3    3    0  502  0.30309862123E+02 -0.22076927483E+03 -0.20256035844E+03  0.30114524613E+03  0.25500000920E-02 0. -1.
</event>
<event>
 5   0  0.2759559E-02  0.7752753E+03  0.7818609E-02  0.9596511E-01
        1   -1    0    0  501    0  0.00000000000E+00  0.00000000000E+00  0.17758300402E+03  0.17758300409E+03  0.50400001928E-02 0.  1.
       -1   -1    0    0    0  501  0.00000000000E+00  0.00000000000E+00 -0.84615603185E+03  0.84615603187E+03  0.50400001928E-02 0. -1.
    10030    2    1    2    0    0  0.00000000000E+00  0.00000000000E+00 -0.66857302783E+03  0.10237390360E+04  0.77527525448E+03 0.  0.
        3    1    3    3  502    0 -0.16555793214E+03  0.23718604753E+03 -0.67505411225E+03  0.73441453874E+03  0.10100000352E+00 0. -1.
       -3    1    3    3    0  502  0.16555793214E+03 -0.23718604753E+03  0.64810844208E+01  0.28932449722E+03  0.10100000352E+00 0.  1.
</event>
<event>
 5   0  0.2635243E-02  0.8330265E+03  0.7818609E-02  0.9513406E-01
        1   -1    0    0  501    0  0.00000000000E+00  0.00000000000E+00  0.17453444275E+03  0.17453444283E+03  0.50400001928E-02 0.  1.
       -1   -1    0    0    0  501  0.00000000000E+00  0.00000000000E+00 -0.99397737080E+03  0.99397737082E+03  0.50400001928E-02 0. -1.
    10030    2    1    2    0    0  0.00000000000E+00  0.00000000000E+00 -0.81944292805E+03  0.11685118136E+04  0.83302649795E+03 0.  0.
        1    1    3    3  502    0  0.19323750846E+03  0.29046276700E+02 -0.92568780221E+03  0.94608790715E+03  0.50400001928E-02 0. -1.
       -1    1    3    3    0  502 -0.19323750846E+03 -0.29046276700E+02  0.10624487416E+03  0.22242390649E+03  0.50400001928E-02 0.  1.
</event>
<event>
 5   0  0.2759559E-02  0.8118002E+03  0.7818609E-02  0.9543092E-01
        1   -1    0    0  501    0  0.00000000000E+00  0.00000000000E+00  0.11968005576E+04  0.11968005576E+04  0.50400001928E-02 0.  1.
       -1   -1    0    0    0  501  0.00000000000E+00  0.00000000000E+00 -0.13766279430E+03  0.13766279440E+03  0.50400001928E-02 0. -1.
    10030    2    1    2    0    0  0.00000000000E+00  0.00000000000E+00  0.10591377633E+04  0.13344633520E+04  0.81180024403E+03 0.  0.
        3    1    3    3  502    0 -0.16957134936E+02 -0.39336302398E+03  0.69174178341E+03  0.79594517284E+03  0.10100000352E+00 0.  1.
       -3    1    3    3    0  502  0.16957134936E+02  0.39336302398E+03  0.36739597990E+03  0.53851817917E+03  0.10100000352E+00 0. -1.
</event>
<event>
 5   0  0.2606520E-02  0.8283410E+03  0.7818609E-02  0.9519877E-01
        1   -1    0    0  501    0  0.00000000000E+00  0.00000000000E+00  0.14759620574E+04  0.14759620574E+04  0.50400001928E-02 0. -1.
       -1   -1    0    0    0  501  0.00000000000E+00  0.00000000000E+00 -0.11622060952E+03  0.11622060963E+03  0.50400001928E-02 0.  1.
    10030    2    1    2    0    0  0.00000000000E+00  0.00000000000E+00  0.13597414478E+04  0.15921826670E+04  0.82834101681E+03 0.  0.
        5    1    3    3  502    0  0.33008963390E+03  0.26097246966E+02  0.11579951548E+04  0.12044148376E+04  0.46999998093E+01 0. -1.
       -5    1    3    3    0  502 -0.33008963390E+03 -0.26097246966E+02  0.20174629309E+03  0.38776782936E+03  0.46999998093E+01 0.  1.
</event>
<event>
 5   0  0.2689372E-02  0.7886204E+03  0.7818609E-02  0.9576636E-01
        1   -1    0    0  501    0  0.00000000000E+00  0.00000000000E+00  0.72537944797E+03  0.72537944799E+03  0.50400001928E-02 0. -1.
       -1   -1    0    0    0  501  0.00000000000E+00  0.00000000000E+00 -0.21434374417E+03  0.21434374423E+03  0.50400001928E-02 0.  1.
    10030    2    1    2    0    0  0.00000000000E+00  0.00000000000E+00  0.51103570380E+03  0.93972319222E+03  0.78862043306E+03 0.  0.
        4    1    3    3  502    0 -0.31385193650E+03 -0.18600367625E+03  0.77260405252E+02  0.37292249696E+03  0.12699999809E+01 0. -1.
       -4    1    3    3    0  502  0.31385193650E+03  0.18600367625E+03  0.43377529854E+03  0.56680069526E+03  0.12699999809E+01 0.  1.
</event>
<event>
 5   0  0.2689372E-02  0.8144895E+03  0.7818609E-02  0.9539278E-01
       -1   -1    0    0    0  501  0.00000000000E+00  0.00000000000E+00  0.64113879722E+03  0.64113879724E+03  0.50400001928E-02 0.  1.
        1   -1    0    0  501    0  0.00000000000E+00  0.00000000000E+00 -0.25867763453E+03  0.25867763458E+03  0.50400001928E-02 0. -1.
    10030    2    1    2    0    0  0.00000000000E+00  0.00000000000E+00  0.38246116269E+03  0.89981643182E+03  0.81448945359E+03 0.  0.
        4    1    3    3  502    0 -0.18320917080E+03 -0.85925948039E+01 -0.21046406511E+03  0.27917050087E+03  0.12699999809E+01 0. -1.
       -4    1    3    3    0  502  0.18320917080E+03  0.85925948039E+01  0.59292522780E+03  0.62064593096E+03  0.12699999809E+01 0.  1.
</event>
<event>
 5   0  0.4684283E-02  0.7729172E+03  0.7818609E-02  0.9600067E-01
       -2   -1    0    0    0  501  0.00000000000E+00  0.00000000000E+00  0.16547275585E+03  0.16547275587E+03  0.25500000920E-02 0. -1.
        2   -1    0    0  501    0  0.00000000000E+00  0.00000000000E+00 -0.90256696060E+03  0.90256696060E+03  0.25500000920E-02 0.  1.
    10030    2    1    2    0    0  0.00000000000E+00  0.00000000000E+00 -0.73709420475E+03  0.10680397165E+04  0.77291718140E+03 0.  0.
        1    1    3    3  502    0  0.11626246994E+03 -0.15868234475E+03  0.91112585920E+02  0.21679149382E+03  0.50400001928E-02 0. -1.
       -1    1    3    3    0  502 -0.11626246994E+03  0.15868234475E+03 -0.82820679067E+03  0.85124822266E+03  0.50400001928E-02 0.  1.
</event>
<event>
 5   0  0.4590462E-02  0.8123972E+03  0.7818609E-02  0.9542244E-01
       -2   -1    0    0    0  501  0.00000000000E+00  0.00000000000E+00  0.94600562727E+02  0.94600562761E+02  0.25500000920E-02 0.  1.
        2   -1    0    0  501    0  0.00000000000E+00  0.00000000000E+00 -0.17441469596E+04  0.17441469596E+04  0.25500000920E-02 0. -1.
    10030    2    1    2    0    0  0.00000000000E+00  0.00000000000E+00 -0.16495463969E+04  0.18387475224E+04  0.81239715384E+03 0.  0.
        3    1    3    3  502    0  0.88771213305E+02  0.33409928675E+02  0.69184588183E+02  0.11740131638E+03  0.10100000352E+00 0.  1.
       -3    1    3    3    0  502 -0.88771213305E+02 -0.33409928675E+02 -0.17187309851E+04  0.17213462060E+04  0.10100000352E+00 0. -1.
</event>
<event>
 5   0  0.2606520E-02  0.7887749E+03  0.7818609E-02  0.9576409E-01
       -1   -1    0    0    0  501  0.00000000000E+00  0.00000000000E+00  0.98887801101E+02  0.98887801229E+02  0.50400001928E-02 0. -1.
        1   -1    0    0  501    0  0.00000000000E+00  0.00000000000E+00 -0.15729084158E+04  0.15729084158E+04  0.50400001928E-02 0.  1.
    10030    2    1    2    0    0  0.00000000000E+00  0.00000000000E+00 -0.14740206147E+04  0.16717962171E+04  0.78877488471E+03 0.  0.
        5    1    3    3  502    0  0.33458702144E+03  0.17630429404E+03 -0.50016147736E+03  0.62706879403E+03  0.46999998093E+01 0.  1.
       -5    1    3    3    0  502 -0.33458702144E+03 -0.17630429404E+03 -0.97385913736E+03  0.10447274230E+04  0.46999998093E+01 0. -1.
</event>
<event>
 5   0  0.4377843E-02  0.8047548E+03  0.7818609E-02  0.9553160E-01
        2   -1    0    0  501    0  0.00000000000E+00  0.00000000000E+00  0.13946280755E+04  0.13946280755E+04  0.25500000920E-02 0.  1.
       -2   -1    0    0    0  501  0.00000000000E+00  0.00000000000E+00 -0.11609373765E+03  0.11609373768E+03  0.25500000920E-02 0. -1.
    10030    2    1    2    0    0  0.00000000000E+00  0.00000000000E+00  0.12785343379E+04  0.15107218132E+04  0.80475483459E+03 0.  0.
        2    1    3    3  502    0 -0.85267887918E+02  0.14281891411E+03 -0.48531676103E+02  0.17327197849E+03  0.25500000920E-02 0. -1.
       -2    1    3    3    0  502  0.85267887918E+02 -0.14281891411E+03  0.13270660140E+04  0.13374498347E+04  0.25500000920E-02 0.  1.
</event>
<event>
 5   0  0.4700220E-02  0.7822900E+03  0.7818609E-02  0.9586011E-01
        2   -1    0    0  501    0  0.00000000000E+00  0.00000000000E+00  0.44275756605E+03  0.44275756606E+03  0.25500000920E-02 0. -1.
       -2   -1    0    0    0  501  0.00000000000E+00  0.00000000000E+00 -0.34554891555E+03  0.34554891556E+03  0.25500000920E-02 0.  1.
    10030    2    1    2    0    0  0.00000000000E+00  0.00000000000E+00  0.97208650496E+02  0.78830648162E+03  0.78228996365E+03 0.  0.
        4    1    3    3  502    0 -0.12705462745E+03 -0.31109627758E+03 -0.15310763685E+03  0.36927947904E+03  0.12699999809E+01 0.  1.
       -4    1    3    3    0  502  0.12705462745E+03  0.31109627758E+03  0.25031628734E+03  0.41902700258E+03  0.12699999809E+01 0. -1.
</event>
<event>
 5   0  0.2689372E-02  0.7987089E+03  0.7818609E-02  0.9561888E-01
        1   -1    0    0  501    0  0.00000000000E+00  0.00000000000E+00  0.27280446148E+03  0.27280446153E+03  0.50400001928E-02 0. -1.
       -1   -1    0    0    0  501  0.00000000000E+00  0.00000000000E+00 -0.58460910305E+03  0.58460910307E+03  0.50400001928E-02 0.  1.
    10030    2    1    2    0    0  0.00000000000E+00  0.00000000000E+00 -0.31180464157E+03  0.85741356460E+03  0.79870888705E+03 0.  0.
        4    1    3    3  502    0 -0.22843572475E+03 -0.32672295200E+03 -0.13069014060E+03  0.41953819070E+03  0.12699999809E+01 0. -1.
       -4    1    3    3    0  502  0.22843572475E+03  0.32672295200E+03 -0.18111450097E+03  0.43787537390E+03  0.12699999809E+01 0.  1.
</event>
<event>
 5   0  0.4663634E-02  0.8457177E+03  0.7818609E-02  0.9496103E-01
       -2   -1    0    0    0  501  0.00000000000E+00  0.00000000000E+00  0.20507435689E+03  0.20507435691E+03  0.25500000920E-02 0. -1.
        2   -1    0    0  501    0  0.00000000000E+00  0.00000000000E+00 -0.87192577383E+03  0.87192577383E+03  0.25500000920E-02 0.  1.
    10030    2    1    2    0    0  0.00000000000E+00  0.00000000000E+00 -0.66685141694E+03  0.10770001307E+04  0.84571772439E+03 0.  0.
        5    1    3    3  502    0 -0.11366700033E+02 -0.14616852877E+03 -0.83848822806E+03  0.85122208575E+03  0.46999998093E+01 0.  1.
       -5    1    3    3    0  502  0.11366700033E+02  0.14616852877E+03  0.17163681112E+03  0.22577804499E+03  0.46999998093E+01 0. -1.
</event>
<event>
 5   0  0.4590462E-02  0.8207316E+03  0.7818609E-02  0.9530484E-01
       -2   -1    0    0    0  501  0.00000000000E+00  0.00000000000E+00  0.99867473078E+02  0.99867473110E+02  0.25500000920E-02 0.  1.
        2   -1    0    0  501    0  0.00000000000E+00  0.00000000000E+00 -0.16862355687E+04  0.16862355687E+04  0.25500000920E-02 0. -1.
    10030    2    1    2    0    0  0.00000000000E+00  0.00000000000E+00 -0.15863680956E+04  0.17861030418E+04  0.82073158899E+03 0.  0.
        3    1    3    3  502    0 -0.78166532244E+02 -0.22484210852E+02 -0.16685181626E+04  0.16704994510E+04  0.10100000352E+00 0. -1.
       -3    1    3    3    0  502  0.78166532244E+02  0.22484210852E+02  0.82150067013E+02  0.11560359083E+03  0.10100000352E+00 0.  1.
</event>
<event>
 5   0  0.2689372E-02  0.7502765E+03  0.7818609E-02  0.9634917E-01
       -1   -1    0    0    0  501  0.00000000000E+00  0.00000000000E+00  0.16078850426E+03  0.16078850433E+03  0.50400001928E-02 0.  1.
        1   -1    0    0  501    0  0.00000000000E+00  0.00000000000E+00 -0.87524118483E+03  0.87524118484E+03  0.50400001928E-02 0. -1.
    10030    2    1    2    0    0  0.00000000000E+00  0.00000000000E+00 -0.71445268057E+03  0.10360296892E+04  0.75027653840E+03 0.  0.
        4    1    3    3  502    0 -0.12007139743E+03 -0.35465588515E+03 -0.38899133284E+03  0.53992018602E+03  0.12699999809E+01 0. -1.
       -4    1    3    3    0  502  0.12007139743E+03  0.35465588515E+03 -0.32546134774E+03  0.49610950316E+03  0.12699999809E+01 0.  1.
</event>
<event>
 5   0  0.1786500E-02  0.7851672E+03  0.7818609E-02  0.9581739E-01
       -3   -1    0    0    0  501  0.00000000000E+00  0.00000000000E+00  0.50747842199E+03  0.50747843204E+03  0.10100000352E+00 0.  1.
        3   -1    0    0  501    0  0.00000000000E+00  0.00000000000E+00 -0.30370134377E+03  0.30370136057E+03  0.10100000352E+00 0. -1.
    10030    2    1    2    0    0  0.00000000000E+00  0.00000000000E+00  0.20377707822E+03  0.81117979261E+03  0.78516721680E+03 0.  0.
        3    1    3    3  502    0  0.32017566126E+03 -0.52691524986E+01 -0.13275177327E+03  0.34664572915E+03  0.10100000352E+00 0. -1.
       -3    1    3    3    0  502 -0.32017566126E+03  0.52691524986E+01  0.33652885148E+03  0.46453406346E+03  0.10100000352E+00 0.  1.
</event>
<event>
 5   0  0.2635243E-02  0.7866745E+03  0.7818609E-02  0.9579508E-01
        1   -1    0    0  501    0  0.00000000000E+00  0.00000000000E+00  0.48286201596E+03  0.48286201599E+03  0.50400001928E-02 0.  1.
       -1   -1    0    0    0  501  0.00000000000E+00  0.00000000000E+00 -0.32041077137E+03  0.32041077141E+03  0.50400001928E-02 0. -1.
    10030    2    1    2    0    0  0.00000000000E+00  0.00000000000E+00  0.16245124459E+03  0.80327278740E+03  0.78667449692E+03 0.  0.
        1    1    3    3  502    0  0.26158085830E+03  0.16496111808E+03 -0.16696133021E+03  0.35144388132E+03  0.50400001928E-02 0. -1.
       -1    1    3    3    0  502 -0.26158085830E+03 -0.16496111808E+03  0.32941257479E+03  0.45182890608E+03  0.50400001928E-02 0.  1.
</event>
<event>
 5   0  0.4700220E-02  0.8276144E+03  0.7818609E-02  0.9520885E-01
       -2   -1    0    0    0  501  0.00000000000E+00  0.00000000000E+00  0.34391930497E+03  0.34391930498E+03  0.25500000920E-02 0. -1.
        2   -1    0    0  501    0  0.00000000000E+00  0.00000000000E+00 -0.49789702033E+03  0.49789702034E+03  0.25500000920E-02 0.  1.
    10030    2    1    2    0    0  0.00000000000E+00  0.00000000000E+00 -0.15397771536E+03  0.84181632532E+03  0.82761439617E+03 0.  0.
        4    1    3    3  502    0 -0.35210473905E+03  0.20165491909E+03  0.55975922383E+01  0.40580216805E+03  0.12699999809E+01 0.  1.
       -4    1    3    3    0  502  0.35210473905E+03 -0.20165491909E+03 -0.15957530759E+03  0.43601415728E+03  0.12699999809E+01 0. -1.
</event>
<event>
 5   0  0.4590462E-02  0.7641148E+03  0.7818609E-02  0.9613463E-01
       -2   -1    0    0    0  501  0.00000000000E+00  0.00000000000E+00  0.31357132691E+03  0.31357132692E+03  0.25500000920E-02 0. -1.
        2   -1    0    0  501    0  0.00000000000E+00  0.00000000000E+00 -0.46550128294E+03  0.46550128295E+03  0.25500000920E-02 0.  1.
    10030    2    1    2    0    0  0.00000000000E+00  0.00000000000E+00 -0.15192995603E+03  0.77907260987E+03  0.76411479498E+03 0.  0.
        3    1    3    3  502    0 -0.26753672320E+03  0.17187571747E+03  0.13996048715E+03  0.34742784673E+03  0.10100000352E+00 0.  1.
       -3    1    3    3    0  502  0.26753672320E+03 -0.17187571747E+03 -0.29189044319E+03  0.43164476314E+03  0.10100000352E+00 0. -1.
</event>
<event>
 5   0  0.4377843E-02  0.8109910E+03  0.7818609E-02  0.9544243E-01
       -2   -1    0    0    0  501  0.00000000000E+00  0.00000000000E+00  0.55274410738E+03  0.55274410738E+03  0.25500000920E-02 0.  1.
        2   -1    0    0  501    0  0.00000000000E+00  0.00000000000E+00 -0.29747329886E+03  0.29747329887E+03  0.25500000920E-02 0. -1.
    10030    2    1    2    0    0  0.00000000000E+00  0.00000000000E+00  0.25527080852E+03  0.85021740625E+03  0.81099103091E+03 0.  0.
        2    1    3    3  502    0  0.22990386520E+03 -0.24245375145E+03 -0.11323167612E+03  0.35279033620E+03  0.25500000920E-02 0. -1.
       -2    1    3    3    0  502 -0.22990386520E+03  0.24245375145E+03  0.36850248464E+03  0.49742707006E+03  0.25500000920E-02 0.  1.
</event>
<event>
 5   0  0.4377843E-02  0.8002376E+03  0.7818609E-02  0.9559673E-01
       -2   -1    0    0    0  501  0.00000000000E+00  0.00000000000E+00  0.75179073233E+03  0.75179073233E+03  0.25500000920E-02 0.  1.
        2   -1    0    0  501    0  0.00000000000E+00  0.00000000000E+00 -0.21295163074E+03  0.21295163075E+03  0.25500000920E-02 0. -1.
    10030    2    1    2    0    0  0.00000000000E+00  0.00000000000E+00  0.53883910159E+03  0.96474236309E+03  0.80023762079E+03 0.  0.
        2    1    3    3  502    0  0.27654556258E+03  0.19984263486E+03  0.17456787922E+02  0.34164201490E+03  0.25500000920E-02 0. -1.
       -2    1    3    3    0  502 -0.27654556258E+03 -0.19984263486E+03  0.52138231367E+03  0.62310034819E+03  0.25500000920E-02 0.  1.
</event>
<event>
 5   0  0.4700220E-02  0.7536310E+03  0.7818609E-02  0.9629671E-01
       -2   -1    0    0    0  501  0.00000000000E+00  0.00000000000E+00  0.12711072750E+03  0.12711072752E+03  0.25500000920E-02 0. -1.
        2   -1    0    0  501    0  0.00000000000E+00  0.00000000000E+00 -0.11170570407E+04  0.11170570407E+04  0.25500000920E-02 0.  1.
    10030    2    1    2    0    0  0.00000000000E+00  0.00000000000E+00 -0.98994631319E+03  0.12441677682E+04  0.75363103204E+03 0.  0.
        4    1    3    3  502    0  0.33803817869E+03 -0.98847189104E+02 -0.27380372779E+03  0.44610612112E+03  0.12699999809E+01 0. -1.
       -4    1    3    3    0  502 -0.33803817869E+03  0.98847189104E+02 -0.71614258539E+03  0.79806164709E+03  0.12699999809E+01 0.  1.
</event>
<event>
 5   0  0.4663634E-02  0.7799515E+03  0.7818609E-02  0.9589499E-01
       -2   -1    0    0    0  501  0.00000000000E+00  0.00000000000E+00  0.70536628186E+02  0.70536628232E+02  0.25500000920E-02 0. -1.
        2   -1    0    0  501    0  0.00000000000E+00  0.00000000000E+00 -0.21560582412E+04  0.21560582412E+04  0.25500000920E-02 0.  1.
    10030    2    1    2    0    0  0.00000000000E+00  0.00000000000E+00 -0.20855216130E+04  0.22265948694E+04  0.77995148197E+03 0.  0.
        5    1    3    3  502    0  0.14084107402E+03  0.15742561255E+03 -0.19785036820E+04  0.19897532363E+04  0.46999998093E+01 0.  1.
       -5    1    3    3    0  502 -0.14084107402E+03 -0.15742561255E+03 -0.10701793094E+03  0.23684163308E+03  0.46999998093E+01 0. -1.
</event>
<event>
 5   0  0.4663634E-02  0.8080716E+03  0.7818609E-02  0.9548407E-01
       -2   -1    0    0    0  501  0.00000000000E+00  0.00000000000E+00  0.33493532695E+03  0.33493532696E+03  0.25500000920E-02 0.  1.
        2   -1    0    0  501    0  0.00000000000E+00  0.00000000000E+00 -0.48739243024E+03  0.48739243025E+03  0.25500000920E-02 0. -1.
    10030    2    1    2    0    0  0.00000000000E+00  0.00000000000E+00 -0.15245710329E+03  0.82232775720E+03  0.80807163786E+03 0.  0.
        5    1    3    3  502    0  0.26933067365E+03 -0.28162784111E+03  0.32280929054E+02  0.39104654587E+03  0.46999998093E+01 0.  1.
       -5    1    3    3    0  502 -0.26933067365E+03  0.28162784111E+03 -0.18473803235E+03  0.43128121133E+03  0.46999998093E+01 0. -1.
</event>
<event>
 5   0  0.4590462E-02  0.7672293E+03  0.7818609E-02  0.9608701E-01
       -2   -1    0    0    0  501  0.00000000000E+00  0.00000000000E+00  0.70745017146E+03  0.70745017147E+03  0.25500000920E-02 0.  1.
        2   -1    0    0  501    0  0.00000000000E+00  0.00000000000E+00 -0.20801494177E+03  0.20801494179E+03  0.25500000920E-02 0. -1.
    10030    2    1    2    0    0  0.00000000000E+00  0.00000000000E+00  0.49943522969E+03  0.91546511326E+03  0.76722931705E+03 0.  0.
        3    1    3    3  502    0  0.11999144724E+03 -0.16533537666E+03  0.63714598989E+03  0.66909547661E+03  0.10100000352E+00 0.  1.
       -3    1    3    3    0  502 -0.11999144724E+03  0.16533537666E+03 -0.13771076020E+03  0.24636963665E+03  0.10100000352E+00 0. -1.
</event>
<event>
 5   0  0.2635243E-02  0.7944973E+03  0.7818609E-02  0.9568016E-01
        1   -1    0    0  501    0  0.00000000000E+00  0.00000000000E+00  0.70028027323E+03  0.70028027325E+03  0.50400001928E-02 0.  1.
       -1   -1    0    0    0  501  0.00000000000E+00  0.00000000000E+00 -0.22534762626E+03  0.22534762632E+03  0.50400001928E-02 0. -1.
    10030    2    1    2    0    0  0.00000000000E+00  0.00000000000E+00  0.47493264697E+03  0.92562789957E+03  0.79449731863E+03 0.  0.
        1    1    3    3  502    0 -0.35604431377E+03 -0.17378971901E+03  0.20377894093E+03  0.44552920958E+03  0.50400001928E-02 0.  1.
       -1    1    3    3    0  502  0.35604431377E+03  0.17378971901E+03  0.27115370604E+03  0.48009868999E+03  0.50400001928E-02 0. -1.
</event>
<event>
 5   0  0.2635243E-02  0.7759761E+03  0.7818609E-02  0.9595457E-01
       -1   -1    0    0    0  501  0.00000000000E+00  0.00000000000E+00  0.26367242922E+03  0.26367242927E+03  0.50400001928E-02 0. -1.
        1   -1    0    0  501    0  0.00000000000E+00  0.00000000000E+00 -0.57091563682E+03  0.57091563684E+03  0.50400001928E-02 0.  1.
    10030    2    1    2    0    0  0.00000000000E+00  0.00000000000E+00 -0.30724320760E+03  0.83458806610E+03  0.77597606372E+03 0.  0.
        1    1    3    3  502    0  0.30360372372E+03  0.20720912518E+03 -0.20048035863E+02  0.36812058674E+03  0.50400001928E-02 0. -1.
       -1    1    3    3    0  502 -0.30360372372E+03 -0.20720912518E+03 -0.28719517173E+03  0.46646747937E+03  0.50400001928E-02 0.  1.
</event>
<event>
 5   0  0.4377843E-02  0.8000654E+03  0.7818609E-02  0.9559922E-01
       -2   -1    0    0    0  501  0.00000000000E+00  0.00000000000E+00  0.18816790924E+03  0.18816790926E+03  0.25500000920E-02 0. -1.
        2   -1    0    0  501    0  0.00000000000E+00  0.00000000000E+00 -0.85044350453E+03  0.85044350453E+03  0.25500000920E-02 0.  1.
    10030    2    1    2    0    0  0.00000000000E+00  0.00000000000E+00 -0.66227559528E+03  0.10386114138E+04  0.80006543779E+03 0.  0.
        2    1    3    3  502    0  0.22659204204E+03  0.27012481038E+03 -0.85807181136E+02  0.36286945179E+03  0.25500000920E-02 0. -1.
       -2    1    3    3    0  502 -0.22659204204E+03 -0.27012481038E+03 -0.57646841415E+03  0.67574196200E+03  0.25500000920E-02 0.  1.
</event>
<event>
 5   0  0.4700220E-02  0.7359350E+03  0.7818609E-02  0.9657678E-01
        2   -1    0    0  501    0  0.00000000000E+00  0.00000000000E+00  0.25945632894E+03  0.25945632895E+03  0.25500000920E-02 0.  1.
       -2   -1    0    0    0  501  0.00000000000E+00  0.00000000000E+00 -0.52186073897E+03  0.52186073898E+03  0.25500000920E-02 0. -1.
    10030    2    1    2    0    0  0.00000000000E+00  0.00000000000E+00 -0.26240441004E+03  0.78131706793E+03  0.73593497418E+03 0.  0.
        4    1    3    3  502    0 -0.28555064491E+03 -0.62598975069E+02 -0.36845699603E+03  0.47034027396E+03  0.12699999809E+01 0. -1.
       -4    1    3    3    0  502  0.28555064491E+03  0.62598975069E+02  0.10605258599E+03  0.31097679397E+03  0.12699999809E+01 0.  1.
</event>
<event>
 5   0  0.2606520E-02  0.8043729E+03  0.7818609E-02  0.9553709E-01
       -1   -1    0    0    0  501  0.00000000000E+00  0.00000000000E+00  0.24775230590E+03  0.24775230595E+03  0.50400001928E-02 0.  1.
        1   -1    0    0  501    0  0.00000000000E+00  0.00000000000E+00 -0.65288570376E+03  0.65288570378E+03  0.50400001928E-02 0. -1.
    10030    2    1    2    0    0  0.00000000000E+00  0.00000000000E+00 -0.40513339786E+03  0.90063800973E+03  0.80437289518E+03 0.  0.
        5    1    3    3  502    0  0.11679779664E+03  0.32415861784E+03  0.29645054617E+02  0.34586334596E+03  0.46999998093E+01 0.  1.
       -5    1    3    3    0  502 -0.11679779664E+03 -0.32415861784E+03 -0.43477845247E+03  0.55477466376E+03  0.46999998093E+01 0. -1.
</event>
<event>
 5   0  0.1786500E-02  0.7692778E+03  0.7818609E-02  0.9605583E-01
        3   -1    0    0  501    0  0.00000000000E+00  0.00000000000E+00  0.42668873000E+03  0.42668874196E+03  0.10100000352E+00 0.  1.
       -3   -1    0    0    0  501  0.00000000000E+00  0.00000000000E+00 -0.34673303053E+03  0.34673304524E+03  0.10100000352E+00 0. -1.
    10030    2    1    2    0    0  0.00000000000E+00  0.00000000000E+00  0.79955699475E+02  0.77342178720E+03  0.76927780875E+03 0.  0.
        4    1    3    3  502    0  0.23563521136E+03 -0.12330387601E+03  0.31935543441E+03  0.41559271535E+03  0.12699999809E+01 0.  1.
       -4    1    3    3    0  502 -0.23563521136E+03  0.12330387601E+03 -0.23939973493E+03  0.35782907184E+03  0.12699999809E+01 0. -1.
</event>
<event>
 5   0  0.4684283E-02  0.8019924E+03  0.7818609E-02  0.9557138E-01
        2   -1    0    0  501    0  0.00000000000E+00  0.00000000000E+00  0.14596606402E+04  0.14596606402E+04  0.25500000920E-02 0.  1.
       -2   -1    0    0    0  501  0.00000000000E+00  0.00000000000E+00 -0.11016118771E+03  0.11016118774E+03  0.25500000920E-02 0. -1.
    10030    2    1    2    0    0  0.00000000000E+00  0.00000000000E+00  0.13494994524E+04  0.15698218279E+04  0.80199239348E+03 0.  0.
        1    1    3    3  502    0 -0.18360287778E+03  0.31942436316E+03  0.36491073873E+03  0.51855741030E+03  0.50400001928E-02 0. -1.
       -1    1    3    3    0  502  0.18360287778E+03 -0.31942436316E+03  0.98458871371E+03  0.10512644176E+04  0.50400001928E-02 0.  1.
</event>
<event>
 5   0  0.2606520E-02  0.7937917E+03  0.7818609E-02  0.9569047E-01
       -1   -1    0    0    0  501  0.00000000000E+00  0.00000000000E+00  0.10242556512E+04  0.10242556512E+04  0.50400001928E-02 0.  1.
        1   -1    0    0  501    0  0.00000000000E+00  0.00000000000E+00 -0.15379591104E+03  0.15379591112E+03  0.50400001928E-02 0. -1.
    10030    2    1    2    0    0  0.00000000000E+00  0.00000000000E+00  0.87045974016E+03  0.11780515623E+04  0.79379173861E+03 0.  0.
        5    1    3    3  502    0 -0.23800041671E+02 -0.39613459184E+03  0.44101288423E+03  0.59329883776E+03  0.46999998093E+01 0.  1.
       -5    1    3    3    0  502  0.23800041671E+02  0.39613459184E+03  0.42944685593E+03  0.58475272458E+03  0.46999998093E+01 0. -1.
</event>
<event>
 5   0  0.2689372E-02  0.7967536E+03  0.7818609E-02  0.9564728E-01
       -1   -1    0    0    0  501  0.00000000000E+00  0.00000000000E+00  0.17129524035E+03  0.17129524042E+03  0.50400001928E-02 0.  1.
        1   -1    0    0  501    0  0.00000000000E+00  0.00000000000E+00 -0.92649433966E+03  0.92649433968E+03  0.50400001928E-02 0. -1.
    10030    2    1    2    0    0  0.00000000000E+00  0.00000000000E+00 -0.75519909932E+03  0.10977895801E+04  0.79675358961E+03 0.  0.
        4    1    3    3  502    0  0.14019908746E+03  0.13390421315E+03 -0.85710818904E+03  0.87876173280E+03  0.12699999809E+01 0. -1.
       -4    1    3    3    0  502 -0.14019908746E+03 -0.13390421315E+03  0.10190908972E+03  0.21902784730E+03  0.12699999809E+01 0.  1.
</event>
<event>
 5   0  0.2635243E-02  0.8012268E+03  0.7818609E-02  0.9558243E-01
        1   -1    0    0  501    0  0.00000000000E+00  0.00000000000E+00  0.58506591336E+03  0.58506591338E+03  0.50400001928E-02 0. -1.
       -1   -1    0    0    0  501  0.00000000000E+00  0.00000000000E+00 -0.27431284764E+03  0.27431284769E+03  0.50400001928E-02 0.  1.
    10030    2    1    2    0    0  0.00000000000E+00  0.00000000000E+00  0.31075306572E+03  0.85937876107E+03  0.80122680130E+03 0.  0.
        1    1    3    3  502    0 -0.21941466525E+03  0.43790100973E+02  0.51180642289E+03  0.55857513622E+03  0.50400001928E-02 0. -1.
       -1    1    3    3    0  502  0.21941466525E+03 -0.43790100973E+02 -0.20105335717E+03  0.30080362485E+03  0.50400001928E-02 0.  1.
</event>
<event>
 5   0  0.2635243E-02  0.8088898E+03  0.7818609E-02  0.9547238E-01
        1   -1    0    0  501    0  0.00000000000E+00  0.00000000000E+00  0.57720762237E+03  0.57720762240E+03  0.50400001928E-02 0. -1.
       -1   -1    0    0    0  501  0.00000000000E+00  0.00000000000E+00 -0.28339139508E+03  0.28339139512E+03  0.50400001928E-02 0.  1.
    10030    2    1    2    0    0  0.00000000000E+00  0.00000000000E+00  0.29381622730E+03  0.86059901752E+03  0.80888979072E+03 0.  0.
        1    1    3    3  502    0  0.16397550647E+03  0.18918591603E+03  0.48485567607E+03  0.54567783919E+03  0.50400001928E-02 0. -1.
       -1    1    3    3    0  502 -0.16397550647E+03 -0.18918591603E+03 -0.19103944877E+03  0.31492117833E+03  0.50400001928E-02 0.  1.
</event>
<event>
 5   0  0.2635243E-02  0.7549740E+03  0.7818609E-02  0.9627579E-01
        1   -1    0    0  501    0  0.00000000000E+00  0.00000000000E+00  0.21428613943E+03  0.21428613949E+03  0.50400001928E-02 0.  1.
       -1   -1    0    0    0  501  0.00000000000E+00  0.00000000000E+00 -0.66498205790E+03  0.66498205792E+03  0.50400001928E-02 0. -1.
    10030    2    1    2    0    0  0.00000000000E+00  0.00000000000E+00 -0.45069591847E+03  0.87926819741E+03  0.75497400753E+03 0.  0.
        1    1    3    3  502    0 -0.46361276478E+01  0.15104106128E+03  0.17752364984E+03  0.23312988257E+03  0.50400001928E-02 0.  1.
       -1    1    3    3    0  502  0.46361276478E+01 -0.15104106128E+03 -0.62821956830E+03  0.64613831483E+03  0.50400001928E-02 0. -1.
</event>
<event>
 5   0  0.1786500E-02  0.8271711E+03  0.7818609E-02  0.9521500E-01
       -4   -1    0    0    0  501  0.00000000000E+00  0.00000000000E+00  0.11952297481E+03  0.11952972186E+03  0.12699999809E+01 0.  1.
        4   -1    0    0  501    0  0.00000000000E+00  0.00000000000E+00 -0.14310834943E+04  0.14310840578E+04  0.12699999809E+01 0. -1.
    10030    2    1    2    0    0  0.00000000000E+00  0.00000000000E+00 -0.13115605195E+04  0.15506137797E+04  0.82717114157E+03 0.  0.
        5    1    3    3  502    0 -0.50861695612E+02 -0.89403568746E+02 -0.14066757768E+04  0.14104392015E+04  0.46999998093E+01 0. -1.
       -5    1    3    3    0  502  0.50861695612E+02  0.89403568746E+02  0.95115257315E+02  0.14017457814E+03  0.46999998093E+01 0.  1.
</event>
<event>
 5   0  0.2606520E-02  0.7774068E+03  0.7818609E-02  0.9593308E-01
       -1   -1    0    0    0  501  0.00000000000E+00  0.00000000000E+00  0.47782060657E+03  0.47782060659E+03  0.50400001928E-02 0. -1.
        1   -1    0    0  501    0  0.00000000000E+00  0.00000000000E+00 -0.31620722237E+03  0.31620722241E+03  0.50400001928E-02 0.  1.
    10030    2    1    2    0    0  0.00000000000E+00  0.00000000000E+00  0.16161338419E+03  0.79402782900E+03  0.77740678366E+03 0.  0.
        5    1    3    3  502    0  0.23835870314E+03  0.30402306728E+03  0.37193163022E+02  0.38813698378E+03  0.46999998093E+01 0. -1.
       -5    1    3    3    0  502 -0.23835870314E+03 -0.30402306728E+03  0.12442022117E+03  0.40589084523E+03  0.46999998093E+01 0.  1.
</event>
<event>
 5   0  0.4590462E-02  0.8032732E+03  0.7818609E-02  0.9555291E-01
        2   -1    0    0  501    0  0.00000000000E+00  0.00000000000E+00  0.10317419826E+04  0.10317419826E+04  0.25500000920E-02 0.  1.
       -2   -1    0    0    0  501  0.00000000000E+00  0.00000000000E+00 -0.15634912131E+03  0.15634912133E+03  0.25500000920E-02 0. -1.
    10030    2    1    2    0    0  0.00000000000E+00  0.00000000000E+00  0.87539286128E+03  0.11880911039E+04  0.80327318493E+03 0.  0.
        3    1    3    3  502    0 -0.57540809747E+02  0.37237085721E+03  0.64339216577E+03  0.74560343968E+03  0.10100000352E+00 0.  1.
       -3    1    3    3    0  502  0.57540809747E+02 -0.37237085721E+03  0.23200069551E+03  0.44248766424E+03  0.10100000352E+00 0. -1.
</event>
<event>
 5   0  0.2759559E-02  0.8300082E+03  0.7818609E-02  0.9517569E-01
        1   -1    0    0  501    0  0.00000000000E+00  0.00000000000E+00  0.98876857447E+03  0.98876857448E+03  0.50400001928E-02 0.  1.
       -1   -1    0    0    0  501  0.00000000000E+00  0.00000000000E+00 -0.17418474468E+03  0.17418474476E+03  0.50400001928E-02 0. -1.
    10030    2    1    2    0    0  0.00000000000E+00  0.00000000000E+00  0.81458382979E+03  0.11629533192E+04  0.83000819694E+03 0.  0.
        3    1    3    3  502    0 -0.70270970846E+02  0.20989116009E+03 -0.84576396910E+02  0.23695038625E+03  0.10100000352E+00 0. -1.
       -3    1    3    3    0  502  0.70270970846E+02 -0.20989116009E+03  0.89916022670E+03  0.92600293299E+03  0.10100000352E+00 0.  1.
</event>
<event>
 5   0  0.2769394E-02  0.8012088E+03  0.7818609E-02  0.9558269E-01
       -1   -1    0    0    0  501  0.00000000000E+00  0.00000000000E+00  0.19527133952E+03  0.19527133958E+03  0.50400001928E-02 0.  1.
        1   -1    0    0  501    0  0.00000000000E+00  0.00000000000E+00 -0.82185073577E+03  0.82185073578E+03  0.50400001928E-02 0. -1.
    10030    2    1    2    0    0  0.00000000000E+00  0.00000000000E+00 -0.62657939625E+03  0.10171220754E+04  0.80120882196E+03 0.  0.
        2    1    3    3  502    0  0.33164672240E+01 -0.35995313078E+03 -0.53646865624E+03  0.64604634080E+03  0.25500000920E-02 0. -1.
       -2    1    3    3    0  502 -0.33164672240E+01  0.35995313078E+03 -0.90110740004E+02  0.37107573457E+03  0.25500000920E-02 0.  1.
</event>
<event>
 5   0  0.4663634E-02  0.8144763E+03  0.7818609E-02  0.9539296E-01
        2   -1    0    0  501    0  0.00000000000E+00  0.00000000000E+00  0.30248287398E+03  0.30248287399E+03  0.25500000920E-02 0. -1.
       -2   -1    0    0    0  501  0.00000000000E+00  0.00000000000E+00 -0.54827205199E+03  0.54827205200E+03  0.25500000920E-02 0.  1.
    10030    2    1    2    0    0  0.00000000000E+00  0.00000000000E+00 -0.24578917801E+03  0.85075492599E+03  0.81447628822E+03 0.  0.
        5    1    3    3  502    0 -0.25511137973E+03 -0.21943162155E+03  0.11664235611E+03  0.35617352771E+03  0.46999998093E+01 0. -1.
       -5    1    3    3    0  502  0.25511137973E+03  0.21943162155E+03 -0.36243153412E+03  0.49458139828E+03  0.46999998093E+01 0.  1.
</event>
<event>
 5   0  0.4590462E-02  0.8069874E+03  0.7818609E-02  0.9549958E-01
        2   -1    0    0  501    0  0.00000000000E+00  0.00000000000E+00  0.16051817079E+04  0.16051817079E+04  0.25500000920E-02 0.  1.
       -2   -1    0    0    0  501  0.00000000000E+00  0.00000000000E+00 -0.10142600339E+03  0.10142600342E+03  0.25500000920E-02 0. -1.
    10030    2    1    2    0    0  0.00000000000E+00  0.00000000000E+00  0.15037557045E+04  0.17066077113E+04  0.80698739860E+03 0.  0.
        3    1    3    3  502    0 -0.33519626867E+03 -0.15011871646E+02  0.27793273989E+03  0.43569314078E+03  0.10100000352E+00 0. -1.
       -3    1    3    3    0  502  0.33519626867E+03  0.15011871646E+02  0.12258229646E+04  0.12709145706E+04  0.10100000352E+00 0.  1.
</event>
<event>
 5   0  0.2635243E-02  0.7685350E+03  0.7818609E-02  0.9606712E-01
       -1   -1    0    0    0  501  0.00000000000E+00  0.00000000000E+00  0.17816048604E+03  0.17816048612E+03  0.50400001928E-02 0. -1.
        1   -1    0    0  501    0  0.00000000000E+00  0.00000000000E+00 -0.82881174681E+03  0.82881174683E+03  0.50400001928E-02 0.  1.
    10030    2    1    2    0    0  0.00000000000E+00  0.00000000000E+00 -0.65065126077E+03  0.10069722329E+04  0.76853497954E+03 0.  0.
        1    1    3    3  502    0 -0.19890856331E+02 -0.62770970792E+02  0.17071338346E+03  0.18297240300E+03  0.50400001928E-02 0. -1.
       -1    1    3    3    0  502  0.19890856331E+02  0.62770970792E+02 -0.82136464423E+03  0.82399982995E+03  0.50400001928E-02 0.  1.
</event>
<event>
 5   0  0.4700220E-02  0.8023538E+03  0.7818609E-02  0.9556616E-01
        2   -1    0    0  501    0  0.00000000000E+00  0.00000000000E+00  0.52747441799E+03  0.52747441800E+03  0.25500000920E-02 0.  1.
       -2   -1    0    0    0  501  0.00000000000E+00  0.00000000000E+00 -0.30511983191E+03  0.30511983192E+03  0.25500000920E-02 0. -1.
    10030    2    1    2    0    0  0.00000000000E+00  0.00000000000E+00  0.22235458608E+03  0.83259424992E+03  0.80235380167E+03 0.  0.
        4    1    3    3  502    0 -0.15525637862E+03  0.21014532439E+03 -0.20472327892E+03  0.33193197239E+03  0.12699999809E+01 0. -1.
       -4    1    3    3    0  502  0.15525637862E+03 -0.21014532439E+03  0.42707786500E+03  0.50066227753E+03  0.12699999809E+01 0.  1.
</event>
<event>
 5   0  0.4684283E-02  0.7345808E+03  0.7818609E-02  0.9659856E-01
        2   -1    0    0  501    0  0.00000000000E+00  0.00000000000E+00  0.37570666126E+03  0.37570666127E+03  0.25500000920E-02 0.  1.
       -2   -1    0    0    0  501  0.00000000000E+00  0.00000000000E+00 -0.35906266371E+03  0.35906266372E+03  0.25500000920E-02 0. -1.
    10030    2    1    2    0    0  0.00000000000E+00  0.00000000000E+00  0.16643997544E+02  0.73476932499E+03  0.73458079085E+03 0.  0.
        1    1    3    3  502    0  0.25480109942E+03 -0.24087028531E+03 -0.10106849438E+03  0.36490674863E+03  0.50400001928E-02 0. -1.
       -1    1    3    3    0  502 -0.25480109942E+03  0.24087028531E+03  0.11771249192E+03  0.36986257636E+03  0.50400001928E-02 0.  1.
</event>
<event>
 5   0  0.4590462E-02  0.8274675E+03  0.7818609E-02  0.9521088E-01
        2   -1    0    0  501    0  0.00000000000E+00  0.00000000000E+00  0.13865892995E+04  0.13865892995E+04  0.25500000920E-02 0.  1.
       -2   -1    0    0    0  501  0.00000000000E+00  0.00000000000E+00 -0.12345085405E+03  0.12345085408E+03  0.25500000920E-02 0. -1.
    10030    2    1    2    0    0  0.00000000000E+00  0.00000000000E+00  0.12631384455E+04  0.15100401536E+04  0.82746754201E+03 0.  0.
        3    1    3    3  502    0  0.30181686269E+03 -0.27128110654E+03  0.77856964247E+03  0.87798494050E+03  0.10100000352E+00 0.  1.
       -3    1    3    3    0  502 -0.30181686269E+03  0.27128110654E+03  0.48456880300E+03  0.63205521310E+03  0.10100000352E+00 0. -1.
</event>
<event>
 5   0  0.2606520E-02  0.7908442E+03  0.7818609E-02  0.9573365E-01
        1   -1    0    0  501    0  0.00000000000E+00  0.00000000000E+00  0.37705437673E+03  0.37705437676E+03  0.50400001928E-02 0.  1.
       -1   -1    0    0    0  501  0.00000000000E+00  0.00000000000E+00 -0.41468458613E+03  0.41468458616E+03  0.50400001928E-02 0. -1.
    10030    2    1    2    0    0  0.00000000000E+00  0.00000000000E+00 -0.37630209402E+02  0.79173896292E+03  0.79084420258E+03 0.  0.
        5    1    3    3  502    0 -0.29076550030E+03  0.26297235806E+03 -0.70229912371E+02  0.39831315301E+03  0.46999998093E+01 0. -1.
       -5    1    3    3    0  502  0.29076550030E+03 -0.26297235806E+03  0.32599702970E+02  0.39342580991E+03  0.46999998093E+01 0.  1.
</event>
<event>
 5   0  0.2769394E-02  0.8045269E+03  0.7818609E-02  0.9553488E-01
        1   -1    0    0  501    0  0.00000000000E+00  0.00000000000E+00  0.95318390888E+02  0.95318391021E+02  0.50400001928E-02 0.  1.
       -1   -1    0    0    0  501  0.00000000000E+00  0.00000000000E+00 -0.16976354100E+04  0.16976354100E+04  0.50400001928E-02 0. -1.
    10030    2    1    2    0    0  0.00000000000E+00  0.00000000000E+00 -0.16023170191E+04  0.17929538010E+04  0.80452688140E+03 0.  0.
        2    1    3    3  502    0  0.30658777260E+02 -0.26994076330E+03 -0.14002469961E+03  0.30563850023E+03  0.25500000920E-02 0.  1.
       -2    1    3    3    0  502 -0.30658777260E+02  0.26994076330E+03 -0.14622923195E+04  0.14873153008E+04  0.25500000920E-02 0. -1.
</event>
<event>
 5   0  0.2635243E-02  0.8091364E+03  0.7818609E-02  0.9546886E-01
        1   -1    0    0  501    0  0.00000000000E+00  0.00000000000E+00  0.70915640652E+03  0.70915640654E+03  0.50400001928E-02 0. -1.
       -1   -1    0    0    0  501  0.00000000000E+00  0.00000000000E+00 -0.23080299836E+03  0.23080299842E+03  0.50400001928E-02 0.  1.
    10030    2    1    2    0    0  0.00000000000E+00  0.00000000000E+00  0.47835340815E+03  0.93995940495E+03  0.80913639139E+03 0.  0.
        1    1    3    3  502    0 -0.10678792658E+03  0.33322625148E+03  0.32893186139E+01  0.34993458757E+03  0.50400001928E-02 0.  1.
       -1    1    3    3    0  502  0.10678792658E+03 -0.33322625148E+03  0.47506408954E+03  0.59002481739E+03  0.50400001928E-02 0. -1.
</event>
<event>
 5   0  0.4377843E-02  0.8094138E+03  0.7818609E-02  0.9546490E-01
        2   -1    0    0  501    0  0.00000000000E+00  0.00000000000E+00  0.18864234519E+04  0.18864234519E+04  0.25500000920E-02 0.  1.
       -2   -1    0    0    0  501  0.00000000000E+00  0.00000000000E+00 -0.86824442857E+02  0.86824442894E+02  0.25500000920E-02 0. -1.
    10030    2    1    2    0    0  0.00000000000E+00  0.00000000000E+00  0.17995990091E+04  0.19732478948E+04  0.80941377613E+03 0.  0.
        2    1    3    3  502    0  0.77301262224E+02  0.18994143617E+03  0.49214403418E+02  0.21089165898E+03  0.25500000920E-02 0. -1.
       -2    1    3    3    0  502 -0.77301262224E+02 -0.18994143617E+03  0.17503846057E+04  0.17623562359E+04  0.25500000920E-02 0.  1.
</event>
<event>
 5   0  0.4700220E-02  0.8117727E+03  0.7818609E-02  0.9543131E-01
        2   -1    0    0  501    0  0.00000000000E+00  0.00000000000E+00  0.44182987697E+03  0.44182987698E+03  0.25500000920E-02 0. -1.
       -2   -1    0    0    0  501  0.00000000000E+00  0.00000000000E+00 -0.37286689575E+03  0.37286689576E+03  0.25500000920E-02 0.  1.
    10030    2    1    2    0    0  0.00000000000E+00  0.00000000000E+00  0.68962981214E+02  0.81469677274E+03  0.81177271371E+03 0.  0.
        4    1    3    3  502    0 -0.37203854722E+03  0.73626538852E+02  0.17960031559E+03  0.41963249886E+03  0.12699999809E+01 0. -1.
       -4    1    3    3    0  502  0.37203854722E+03 -0.73626538852E+02 -0.11063733438E+03  0.39506427388E+03  0.12699999809E+01 0.  1.
</event>
<event>
 5   0  0.2769394E-02  0.6292363E+03  0.7818609E-02  0.9846540E-01
        1   -1    0    0  501    0  0.00000000000E+00  0.00000000000E+00  0.45381750317E+03  0.45381750320E+03  0.50400001928E-02 0. -1.
       -1   -1    0    0    0  501  0.00000000000E+00  0.00000000000E+00 -0.21811538824E+03  0.21811538829E+03  0.50400001928E-02 0.  1.
    10030    2    1    2    0    0  0.00000000000E+00  0.00000000000E+00  0.23570211493E+03  0.67193289149E+03  0.62923630194E+03 0.  0.
        2    1    3    3  502    0 -0.19282254769E+03 -0.18354186978E+03  0.29690842852E+03  0.39877658882E+03  0.25500000920E-02 0. -1.
       -2    1    3    3    0  502  0.19282254769E+03  0.18354186978E+03 -0.61206313585E+02  0.27315630267E+03  0.25500000920E-02 0.  1.
</event>
<event>
 5   0  0.1786500E-02  0.7600826E+03  0.7818609E-02  0.9619664E-01
        3   -1    0    0  501    0  0.00000000000E+00  0.00000000000E+00  0.11593164821E+04  0.11593164865E+04  0.10100000352E+00 0.  1.
       -3   -1    0    0    0  501  0.00000000000E+00  0.00000000000E+00 -0.12458320359E+03  0.12458324453E+03  0.10100000352E+00 0. -1.
    10030    2    1    2    0    0  0.00000000000E+00  0.00000000000E+00  0.10347332785E+04  0.12838997310E+04  0.76008260188E+03 0.  0.
        5    1    3    3  502    0 -0.13834414476E+02 -0.96669436775E+02  0.11377108181E+04  0.11419038342E+04  0.46999998093E+01 0.  1.
       -5    1    3    3    0  502  0.13834414476E+02  0.96669436775E+02 -0.10297753963E+03  0.14199589676E+03  0.46999998093E+01 0. -1.
</event>
<event>
 5   0  0.2606520E-02  0.5408962E+03  0.7818609E-02  0.1003623E+00
        1   -1    0    0  501    0  0.00000000000E+00  0.00000000000E+00  0.47168834681E+03  0.47168834684E+03  0.50400001928E-02 0. -1.
       -1   -1    0    0    0  501  0.00000000000E+00  0.00000000000E+00 -0.15506460010E+03  0.15506460018E+03  0.50400001928E-02 0.  1.
    10030    2    1    2    0    0  0.00000000000E+00  0.00000000000E+00  0.31662374671E+03  0.62675294702E+03  0.54089616343E+03 0.  0.
        5    1    3    3  502    0  0.84372714366E+02  0.15240516565E+03  0.39795906414E+03  0.43444170630E+03  0.46999998093E+01 0. -1.
       -5    1    3    3    0  502 -0.84372714366E+02 -0.15240516565E+03 -0.81335317427E+02  0.19231124071E+03  0.46999998093E+01 0.  1.
</event>
<event>
 5   0  0.2769394E-02  0.7923572E+03  0.7818609E-02  0.9571146E-01
       -1   -1    0    0    0  501  0.00000000000E+00  0.00000000000E+00  0.22320628936E+03  0.22320628942E+03  0.50400001928E-02 0.  1.
        1   -1    0    0  501    0  0.00000000000E+00  0.00000000000E+00 -0.70319464422E+03  0.70319464424E+03  0.50400001928E-02 0. -1.
    10030    2    1    2    0    0  0.00000000000E+00  0.00000000000E+00 -0.47998835486E+03  0.92640093366E+03  0.79235716005E+03 0.  0.
        2    1    3    3  502    0  0.79002909874E+02  0.49876519864E+02 -0.69013004563E+03  0.69642559322E+03  0.25500000920E-02 0. -1.
       -2    1    3    3    0  502 -0.79002909874E+02 -0.49876519864E+02  0.21014169077E+03  0.22997534044E+03  0.25500000920E-02 0.  1.
</event>
<event>
 5   0  0.1786500E-02  0.7873373E+03  0.7818609E-02  0.9578529E-01
       -3   -1    0    0    0  501  0.00000000000E+00  0.00000000000E+00  0.49666505811E+03  0.49666506838E+03  0.10100000352E+00 0. -1.
        3   -1    0    0  501    0  0.00000000000E+00  0.00000000000E+00 -0.31203116452E+03  0.31203118087E+03  0.10100000352E+00 0.  1.
    10030    2    1    2    0    0  0.00000000000E+00  0.00000000000E+00  0.18463389359E+03  0.80869624925E+03  0.78733725231E+03 0.  0.
        4    1    3    3  502    0 -0.28964388969E+03 -0.66377264161E+02 -0.17290068717E+03  0.34379613807E+03  0.12699999809E+01 0.  1.
       -4    1    3    3    0  502  0.28964388969E+03  0.66377264161E+02  0.35753458076E+03  0.46490011117E+03  0.12699999809E+01 0. -1.
</event>
<event>
 5   0  0.4377843E-02  0.7701547E+03  0.7818609E-02  0.9604251E-01
        2   -1    0    0  501    0  0.00000000000E+00  0.00000000000E+00  0.22404093761E+04  0.22404093761E+04  0.25500000920E-02 0. -1.
       -2   -1    0    0    0  501  0.00000000000E+00  0.00000000000E+00 -0.66186375592E+02  0.66186375641E+02  0.25500000920E-02 0.  1.
    10030    2    1    2    0    0  0.00000000000E+00  0.00000000000E+00  0.21742230005E+04  0.23065957518E+04  0.77015472863E+03 0.  0.
        2    1    3    3  502    0 -0.31675250284E+03 -0.17393331210E+03  0.68865986600E+03  0.77771290085E+03  0.25500000920E-02 0.  1.
       -2    1    3    3    0  502  0.31675250284E+03  0.17393331210E+03  0.14855631345E+04  0.15288828509E+04  0.25500000920E-02 0. -1.
</event>
<event>
 5   0  0.4590462E-02  0.7740942E+03  0.7818609E-02  0.9598291E-01
        2   -1    0    0  501    0  0.00000000000E+00  0.00000000000E+00  0.19152613752E+04  0.19152613752E+04  0.25500000920E-02 0.  1.
       -2   -1    0    0    0  501  0.00000000000E+00  0.00000000000E+00 -0.78216725422E+02  0.78216725464E+02  0.25500000920E-02 0. -1.
    10030    2    1    2    0    0  0.00000000000E+00  0.00000000000E+00  0.18370446498E+04  0.19934781007E+04  0.77409424011E+03 0.  0.
        3    1    3    3  502    0 -0.45103967498E+02 -0.38438612693E+03  0.90747563331E+03  0.98655922160E+03  0.10100000352E+00 0. -1.
       -3    1    3    3    0  502  0.45103967498E+02  0.38438612693E+03  0.92956901651E+03  0.10069188791E+04  0.10100000352E+00 0.  1.
</event>
<event>
 5   0  0.4377843E-02  0.7994744E+03  0.7818609E-02  0.9560778E-01
       -2   -1    0    0    0  501  0.00000000000E+00  0.00000000000E+00  0.18796364743E+03  0.18796364744E+03  0.25500000920E-02 0.  1.
        2   -1    0    0  501    0  0.00000000000E+00  0.00000000000E+00 -0.85011038007E+03  0.85011038008E+03  0.25500000920E-02 0. -1.
    10030    2    1    2    0    0  0.00000000000E+00  0.00000000000E+00 -0.66214673265E+03  0.10380740275E+04  0.79947444678E+03 0.  0.
        2    1    3    3  502    0  0.24794018903E+03 -0.12719121936E+03 -0.70320410631E+03  0.75640462635E+03  0.25500000920E-02 0. -1.
       -2    1    3    3    0  502 -0.24794018903E+03  0.12719121936E+03  0.41057373666E+02  0.28166940117E+03  0.25500000920E-02 0.  1.
</event>
<event>
 5   0  0.2759559E-02  0.8444304E+03  0.7818609E-02  0.9497843E-01
       -1   -1    0    0    0  501  0.00000000000E+00  0.00000000000E+00  0.75156597745E+03  0.75156597747E+03  0.50400001928E-02 0. -1.
        1   -1    0    0  501    0  0.00000000000E+00  0.00000000000E+00 -0.23719232054E+03  0.23719232059E+03  0.50400001928E-02 0.  1.
    10030    2    1    2    0    0  0.00000000000E+00  0.00000000000E+00  0.51437365691E+03  0.98875829806E+03  0.84443040747E+03 0.  0.
        3    1    3    3  502    0 -0.35676094133E+03 -0.18960778188E+03  0.40076722523E+03  0.56907280662E+03  0.10100000352E+00 0. -1.
       -3    1    3    3    0  502  0.35676094133E+03  0.18960778188E+03  0.11360643167E+03  0.41968549144E+03  0.10100000352E+00 0.  1.
</event>
<event>
 5   0  0.2606520E-02  0.7862365E+03  0.7818609E-02  0.9580156E-01
       -1   -1    0    0    0  501  0.00000000000E+00  0.00000000000E+00  0.12311841260E+03  0.12311841270E+03  0.50400001928E-02 0.  1.
        1   -1    0    0  501    0  0.00000000000E+00  0.00000000000E+00 -0.12552302591E+04  0.12552302591E+04  0.50400001928E-02 0. -1.
    10030    2    1    2    0    0  0.00000000000E+00  0.00000000000E+00 -0.11321118465E+04  0.13783486718E+04  0.78623649627E+03 0.  0.
        5    1    3    3  502    0  0.35162746379E+03  0.61004143778E+02 -0.85495269981E+03  0.92646078587E+03  0.46999998093E+01 0. -1.
       -5    1    3    3    0  502 -0.35162746379E+03 -0.61004143778E+02 -0.27715914664E+03  0.45188788589E+03  0.46999998093E+01 0.  1.
</event>
<event>
 5   0  0.4663634E-02  0.8140028E+03  0.7818609E-02  0.9539967E-01
       -2   -1    0    0    0  501  0.00000000000E+00  0.00000000000E+00  0.23604221104E+03  0.23604221105E+03  0.25500000920E-02 0.  1.
        2   -1    0    0  501    0  0.00000000000E+00  0.00000000000E+00 -0.70178184673E+03  0.70178184674E+03  0.25500000920E-02 0. -1.
    10030    2    1    2    0    0  0.00000000000E+00  0.00000000000E+00 -0.46573963569E+03  0.93782405779E+03  0.81400279798E+03 0.  0.
        5    1    3    3  502    0  0.37561987465E+03 -0.14877975324E+03 -0.17640043633E+03  0.44086835806E+03  0.46999998093E+01 0. -1.
       -5    1    3    3    0  502 -0.37561987465E+03  0.14877975324E+03 -0.28933919936E+03  0.49695569973E+03  0.46999998093E+01 0.  1.
</event>
<event>
 5   0  0.2606520E-02  0.8045092E+03  0.7818609E-02  0.9553513E-01
        1   -1    0    0  501    0  0.00000000000E+00  0.00000000000E+00  0.23650977515E+03  0.23650977521E+03  0.50400001928E-02 0. -1.
       -1   -1    0    0    0  501  0.00000000000E+00  0.00000000000E+00 -0.68415250521E+03  0.68415250523E+03  0.50400001928E-02 0.  1.
    10030    2    1    2    0    0  0.00000000000E+00  0.00000000000E+00 -0.44764273006E+03  0.92066228043E+03  0.80450918009E+03 0.  0.
        5    1    3    3  502    0  0.37239866250E+03  0.41429189142E+02 -0.39118839253E+03  0.54170803021E+03  0.46999998093E+01 0.  1.
       -5    1    3    3    0  502 -0.37239866250E+03 -0.41429189142E+02 -0.56454337525E+02  0.37895425023E+03  0.46999998093E+01 0. -1.
</event>
<event>
 5   0  0.2769394E-02  0.7950448E+03  0.7818609E-02  0.9567217E-01
       -1   -1    0    0    0  501  0.00000000000E+00  0.00000000000E+00  0.23165771595E+03  0.23165771600E+03  0.50400001928E-02 0. -1.
        1   -1    0    0  501    0  0.00000000000E+00  0.00000000000E+00 -0.68214465311E+03  0.68214465313E+03  0.50400001928E-02 0.  1.
    10030    2    1    2    0    0  0.00000000000E+00  0.00000000000E+00 -0.45048693717E+03  0.91380236913E+03  0.79504483476E+03 0.  0.
        2    1    3    3  502    0  0.35339197148E+03  0.13919263866E+03 -0.36008591393E+03  0.52337590848E+03  0.25500000920E-02 0.  1.
       -2    1    3    3    0  502 -0.35339197148E+03 -0.13919263866E+03 -0.90401023241E+02  0.39042646065E+03  0.25500000920E-02 0. -1.
</event>
<event>
 5   0  0.4663634E-02  0.8000995E+03  0.7818609E-02  0.9559873E-01
       -2   -1    0    0    0  501  0.00000000000E+00  0.00000000000E+00  0.23674214293E+03  0.23674214295E+03  0.25500000920E-02 0. -1.
        2   -1    0    0  501    0  0.00000000000E+00  0.00000000000E+00 -0.67600895666E+03  0.67600895667E+03  0.25500000920E-02 0.  1.
    10030    2    1    2    0    0  0.00000000000E+00  0.00000000000E+00 -0.43926681373E+03  0.91275109962E+03  0.80009951644E+03 0.  0.
        5    1    3    3  502    0  0.29451841753E+03 -0.23832337837E+03 -0.36607631884E+03  0.52685205908E+03  0.46999998093E+01 0. -1.
       -5    1    3    3    0  502 -0.29451841753E+03  0.23832337837E+03 -0.73190494889E+02  0.38589904053E+03  0.46999998093E+01 0.  1.
</event>
<event>
 5   0  0.2635243E-02  0.8024172E+03  0.7818609E-02  0.9556525E-01
       -1   -1    0    0    0  501  0.00000000000E+00  0.00000000000E+00  0.16329329095E+03  0.16329329102E+03  0.50400001928E-02 0. -1.
        1   -1    0    0  501    0  0.00000000000E+00  0.00000000000E+00 -0.98576214618E+03  0.98576214619E+03  0.50400001928E-02 0.  1.
    10030    2    1    2    0    0  0.00000000000E+00  0.00000000000E+00 -0.82246885523E+03  0.11490554372E+04  0.80241721066E+03 0.  0.
        1    1    3    3  502    0  0.58192882478E+02 -0.99320216257E+02  0.13913793297E+03  0.18058317016E+03  0.50400001928E-02 0. -1.
       -1    1    3    3    0  502 -0.58192882478E+02  0.99320216257E+02 -0.96160678820E+03  0.96847226706E+03  0.50400001928E-02 0.  1.
</event>
<event>
 5   0  0.4590462E-02  0.6974492E+03  0.7818609E-02  0.9721604E-01
        2   -1    0    0  501    0  0.00000000000E+00  0.00000000000E+00  0.54049421523E+03  0.54049421523E+03  0.25500000920E-02 0. -1.
       -2   -1    0    0    0  501  0.00000000000E+00  0.00000000000E+00 -0.22499562168E+03  0.22499562170E+03  0.25500000920E-02 0.  1.
    10030    2    1    2    0    0  0.00000000000E+00  0.00000000000E+00  0.31549859354E+03  0.76548983693E+03  0.69744915794E+03 0.  0.
        3    1    3    3  502    0  0.32623545740E+03 -0.12282722686E+03  0.14718076500E+03  0.37838907107E+03  0.10100000352E+00 0. -1.
       -3    1    3    3    0  502 -0.32623545740E+03  0.12282722686E+03  0.16831782854E+03  0.38710076586E+03  0.10100000352E+00 0.  1.
</event>
<event>
 5   0  0.4684283E-02  0.8005260E+03  0.7818609E-02  0.9559256E-01
        2   -1    0    0  501    0  0.00000000000E+00  0.00000000000E+00  0.40856843412E+03  0.40856843413E+03  0.25500000920E-02 0.  1.
       -2   -1    0    0    0  501  0.00000000000E+00  0.00000000000E+00 -0.39212637400E+03  0.39212637401E+03  0.25500000920E-02 0. -1.
    10030    2    1    2    0    0  0.00000000000E+00  0.00000000000E+00  0.16442060115E+02  0.80069480814E+03  0.80052597362E+03 0.  0.
        1    1    3    3  502    0  0.92454402542E+02  0.28591721147E+03  0.27268933379E+03  0.40577819206E+03  0.50400001928E-02 0.  1.
       -1    1    3    3    0  502 -0.92454402542E+02 -0.28591721147E+03 -0.25624727368E+03  0.39491661608E+03  0.50400001928E-02 0. -1.
</event>
<event>
 5   0  0.4590462E-02  0.8108793E+03  0.7818609E-02  0.9544402E-01
       -2   -1    0    0    0  501  0.00000000000E+00  0.00000000000E+00  0.18803530074E+03  0.18803530075E+03  0.25500000920E-02 0. -1.
        2   -1    0    0  501    0  0.00000000000E+00  0.00000000000E+00 -0.87420456998E+03  0.87420456998E+03  0.25500000920E-02 0.  1.
    10030    2    1    2    0    0  0.00000000000E+00  0.00000000000E+00 -0.68616926924E+03  0.10622398707E+04  0.81087932328E+03 0.  0.
        3    1    3    3  502    0  0.22722072469E+03  0.33448380789E+03 -0.38178208285E+03  0.55611711397E+03  0.10100000352E+00 0.  1.
       -3    1    3    3    0  502 -0.22722072469E+03 -0.33448380789E+03 -0.30438718639E+03  0.50612275676E+03  0.10100000352E+00 0. -1.
</event>
<event>
 5   0  0.1786500E-02  0.8114142E+03  0.7818609E-02  0.9543641E-01
        4   -1    0    0  501    0  0.00000000000E+00  0.00000000000E+00  0.81541708185E+03  0.81541807086E+03  0.12699999809E+01 0.  1.
       -4   -1    0    0    0  501  0.00000000000E+00  0.00000000000E+00 -0.20185462568E+03  0.20185862084E+03  0.12699999809E+01 0. -1.
    10030    2    1    2    0    0  0.00000000000E+00  0.00000000000E+00  0.61356245617E+03  0.10172766917E+04  0.81141418514E+03 0.  0.
        5    1    3    3  502    0 -0.24675291090E+03  0.16921005177E+03 -0.36691634572E+02  0.30147538325E+03  0.46999998093E+01 0. -1.
       -5    1    3    3    0  502  0.24675291090E+03 -0.16921005177E+03  0.65025409074E+03  0.71580130845E+03  0.46999998093E+01 0.  1.
</event>
<event>
 5   0  0.4700220E-02  0.7564571E+03  0.7818609E-02  0.9625274E-01
        2   -1    0    0  501    0  0.00000000000E+00  0.00000000000E+00  0.49930980660E+03  0.49930980661E+03  0.25500000920E-02 0. -1.
       -2   -1    0    0    0  501  0.00000000000E+00  0.00000000000E+00 -0.28650913145E+03  0.28650913146E+03  0.25500000920E-02 0.  1.
    10030    2    1    2    0    0  0.00000000000E+00  0.00000000000E+00  0.21280067515E+03  0.78581893807E+03  0.75645705501E+03 0.  0.
        4    1    3    3  502    0 -0.31368699966E+03  0.18998199561E+03  0.10274784130E+02  0.36687855825E+03  0.12699999809E+01 0.  1.
       -4    1    3    3    0  502  0.31368699966E+03 -0.18998199561E+03  0.20252589102E+03  0.41894037982E+03  0.12699999809E+01 0. -1.
</event>
<event>
 5   0  0.2606520E-02  0.7556749E+03  0.7818609E-02  0.9626489E-01
       -1   -1    0    0    0  501  0.00000000000E+00  0.00000000000E+00  0.68633498756E+03  0.68633498758E+03  0.50400001928E-02 0.  1.
        1   -1    0    0  501    0  0.00000000000E+00  0.00000000000E+00 -0.20800504494E+03  0.20800504500E+03  0.50400001928E-02 0. -1.
    10030    2    1    2    0    0  0.00000000000E+00  0.00000000000E+00  0.47832994262E+03  0.89434003258E+03  0.75567490356E+03 0.  0.
        5    1    3    3  502    0 -0.33899065665E+03  0.16679660058E+03  0.23702198599E+03  0.44602385934E+03  0.46999998093E+01 0. -1.
       -5    1    3    3    0  502  0.33899065665E+03 -0.16679660058E+03  0.24130795662E+03  0.44831617324E+03  0.46999998093E+01 0.  1.
</event>
<event>
 5   0  0.1786500E-02  0.5869072E+03  0.7818609E-02  0.9932948E-01
       -4   -1    0    0    0  501  0.00000000000E+00  0.00000000000E+00  0.30098310474E+03  0.30098578411E+03  0.12699999809E+01 0.  1.
        4   -1    0    0  501    0  0.00000000000E+00  0.00000000000E+00 -0.28610713951E+03  0.28610995819E+03  0.12699999809E+01 0. -1.
    10030    2    1    2    0    0  0.00000000000E+00  0.00000000000E+00  0.14875965232E+02  0.58709574230E+03  0.58690724675E+03 0.  0.
        3    1    3    3  502    0 -0.70742614705E+02 -0.91033968945E+01  0.29218292945E+03  0.30076280327E+03  0.10100000352E+00 0.  1.
       -3    1    3    3    0  502  0.70742614705E+02  0.91033968945E+01 -0.27730696422E+03  0.28633293903E+03  0.10100000352E+00 0. -1.
</event>
<event>
 5   0  0.1786500E-02  0.8933127E+03  0.7818609E-02  0.9433980E-01
       -3   -1    0    0    0  501  0.00000000000E+00  0.00000000000E+00  0.87034143832E+03  0.87034144418E+03  0.10100000352E+00 0.  1.
        3   -1    0    0  501    0  0.00000000000E+00  0.00000000000E+00 -0.22922254716E+03  0.22922256941E+03  0.10100000352E+00 0. -1.
    10030    2    1    2    0    0  0.00000000000E+00  0.00000000000E+00  0.64111889116E+03  0.10995640136E+04  0.89331270414E+03 0.  0.
        3    1    3    3  502    0 -0.34542112833E+03 -0.27159790818E+03  0.41918930958E+03  0.60728977193E+03  0.10100000352E+00 0. -1.
       -3    1    3    3    0  502  0.34542112833E+03  0.27159790818E+03  0.22192958158E+03  0.49227424166E+03  0.10100000352E+00 0.  1.
</event>
<event>
 5   0  0.1786500E-02  0.7750762E+03  0.7818609E-02  0.9596811E-01
       -3   -1    0    0    0  501  0.00000000000E+00  0.00000000000E+00  0.25889400761E+03  0.25889402732E+03  0.10100000352E+00 0. -1.
        3   -1    0    0  501    0  0.00000000000E+00  0.00000000000E+00 -0.58010520512E+03  0.58010521391E+03  0.10100000352E+00 0.  1.
    10030    2    1    2    0    0  0.00000000000E+00  0.00000000000E+00 -0.32121119750E+03  0.83899924122E+03  0.77507618553E+03 0.  0.
        3    1    3    3  502    0  0.38452675201E+03 -0.68467051745E+01 -0.10894017248E+03  0.39971949135E+03  0.10100000352E+00 0.  1.
       -3    1    3    3    0  502 -0.38452675201E+03  0.68467051745E+01 -0.21227102502E+03  0.43927974987E+03  0.10100000352E+00 0. -1.
</event>
<event>
 5   0  0.1786500E-02  0.7940504E+03  0.7818609E-02  0.9568669E-01
        3   -1    0    0  501    0  0.00000000000E+00  0.00000000000E+00  0.71959632202E+03  0.71959632910E+03  0.10100000352E+00 0.  1.
       -3   -1    0    0    0  501  0.00000000000E+00  0.00000000000E+00 -0.21905199749E+03  0.21905202077E+03  0.10100000352E+00 0. -1.
    10030    2    1    2    0    0  0.00000000000E+00  0.00000000000E+00  0.50054432453E+03  0.93864834988E+03  0.79405044167E+03 0.  0.
        2    1    3    3  502    0  0.14520988742E+03  0.28962317652E+03  0.52154203678E+03  0.61398175211E+03  0.25500000920E-02 0.  1.
       -2    1    3    3    0  502 -0.14520988742E+03 -0.28962317652E+03 -0.20997712257E+02  0.32466659777E+03  0.25500000920E-02 0. -1.
</event>
<event>
 5   0  0.2769394E-02  0.8980234E+03  0.7818609E-02  0.9428056E-01
        1   -1    0    0  501    0  0.00000000000E+00  0.00000000000E+00  0.90979878459E+03  0.90979878460E+03  0.50400001928E-02 0. -1.
       -1   -1    0    0    0  501  0.00000000000E+00  0.00000000000E+00 -0.22160009652E+03  0.22160009657E+03  0.50400001928E-02 0.  1.
    10030    2    1    2    0    0  0.00000000000E+00  0.00000000000E+00  0.68819868807E+03  0.11313988812E+04  0.89802338169E+03 0.  0.
        2    1    3    3  502    0 -0.11286106494E+03 -0.36936364203E+03  0.55578248936E+02  0.39020002793E+03  0.25500000920E-02 0.  1.
       -2    1    3    3    0  502  0.11286106494E+03  0.36936364203E+03  0.63262043914E+03  0.74119885325E+03  0.25500000920E-02 0. -1.
</event>
<event>
 5   0  0.2759559E-02  0.7991337E+03  0.7818609E-02  0.9561272E-01
        1   -1    0    0  501    0  0.00000000000E+00  0.00000000000E+00  0.13347822978E+04  0.13347822978E+04  0.50400001928E-02 0. -1.
       -1   -1    0    0    0  501  0.00000000000E+00  0.00000000000E+00 -0.11961027201E+03  0.11961027212E+03  0.50400001928E-02 0.  1.
    10030    2    1    2    0    0  0.00000000000E+00  0.00000000000E+00  0.12151720258E+04  0.14543925700E+04  0.79913371548E+03 0.  0.
        3    1    3    3  502    0 -0.13729071935E+03  0.42975154375E+02 -0.70842452041E+02  0.16035669218E+03  0.10100000352E+00 0.  1.
       -3    1    3    3    0  502  0.13729071935E+03 -0.42975154375E+02  0.12860144779E+04  0.12940358778E+04  0.10100000352E+00 0. -1.
</event>
<event>
 5   0  0.2606520E-02  0.7739785E+03  0.7818609E-02  0.9598465E-01
        1   -1    0    0  501    0  0.00000000000E+00  0.00000000000E+00  0.47133449536E+03  0.47133449539E+03  0.50400001928E-02 0.  1.
       -1   -1    0    0    0  501  0.00000000000E+00  0.00000000000E+00 -0.31773760532E+03  0.31773760536E+03  0.50400001928E-02 0. -1.
    10030    2    1    2    0    0  0.00000000000E+00  0.00000000000E+00  0.15359689004E+03  0.78907210075E+03  0.77397853688E+03 0.  0.
        5    1    3    3  502    0  0.17838816127E+03 -0.13088045077E+03 -0.24686161862E+03  0.33153397597E+03  0.46999998093E+01 0. -1.
       -5    1    3    3    0  502 -0.17838816127E+03  0.13088045077E+03  0.40045850866E+03  0.45753812478E+03  0.46999998093E+01 0.  1.
</event>
<event>
 5   0  0.4663634E-02  0.7970212E+03  0.7818609E-02  0.9564339E-01
        2   -1    0    0  501    0  0.00000000000E+00  0.00000000000E+00  0.10452635133E+03  0.10452635136E+03  0.25500000920E-02 0.  1.
       -2   -1    0    0    0  501  0.00000000000E+00  0.00000000000E+00 -0.15193363268E+04  0.15193363268E+04  0.25500000920E-02 0. -1.
    10030    2    1    2    0    0  0.00000000000E+00  0.00000000000E+00 -0.14148099755E+04  0.16238626782E+04  0.79702116087E+03 0.  0.
        5    1    3    3  502    0 -0.22199768175E+03  0.31498849018E+03 -0.50075173425E+03  0.63188219551E+03  0.46999998093E+01 0.  1.
       -5    1    3    3    0  502  0.22199768175E+03 -0.31498849018E+03 -0.91405824124E+03  0.99198048268E+03  0.46999998093E+01 0. -1.
</event>
<event>
 5   0  0.2635243E-02  0.7956248E+03  0.7818609E-02  0.9566372E-01
       -1   -1    0    0    0  501  0.00000000000E+00  0.00000000000E+00  0.31179091405E+03  0.31179091409E+03  0.50400001928E-02 0.  1.
        1   -1    0    0  501    0  0.00000000000E+00  0.00000000000E+00 -0.50756680867E+03  0.50756680869E+03  0.50400001928E-02 0. -1.
    10030    2    1    2    0    0  0.00000000000E+00  0.00000000000E+00 -0.19577589462E+03  0.81935772278E+03  0.79562483430E+03 0.  0.
        1    1    3    3  502    0 -0.62203616373E+02  0.42620595703E+02  0.30436408648E+03  0.31356546722E+03  0.50400001928E-02 0.  1.
       -1    1    3    3    0  502  0.62203616373E+02 -0.42620595703E+02 -0.50013998110E+03  0.50579225556E+03  0.50400001928E-02 0. -1.
</event>
<event>
 5   0  0.2606520E-02  0.7851394E+03  0.7818609E-02  0.9581780E-01
        1   -1    0    0  501    0  0.00000000000E+00  0.00000000000E+00  0.30452928799E+03  0.30452928803E+03  0.50400001928E-02 0. -1.
       -1   -1    0    0    0  501  0.00000000000E+00  0.00000000000E+00 -0.50606282663E+03  0.50606282666E+03  0.50400001928E-02 0.  1.
    10030    2    1    2    0    0  0.00000000000E+00  0.00000000000E+00 -0.20153353864E+03  0.81059211469E+03  0.78513935655E+03 0.  0.
        5    1    3    3  502    0 -0.36734151370E+03  0.13745788111E+03 -0.84299601824E+02  0.40120190632E+03  0.46999998093E+01 0. -1.
       -5    1    3    3    0  502  0.36734151370E+03 -0.13745788111E+03 -0.11723393682E+03  0.40939020837E+03  0.46999998093E+01 0.  1.
</event>
<event>
 5   0  0.2689372E-02  0.8024407E+03  0.7818609E-02  0.9556491E-01
       -1   -1    0    0    0  501  0.00000000000E+00  0.00000000000E+00  0.15196314388E+03  0.15196314396E+03  0.50400001928E-02 0.  1.
        1   -1    0    0  501    0  0.00000000000E+00  0.00000000000E+00 -0.10593210682E+04  0.10593210682E+04  0.50400001928E-02 0. -1.
    10030    2    1    2    0    0  0.00000000000E+00  0.00000000000E+00 -0.90735792431E+03  0.12112842122E+04  0.80244067684E+03 0.  0.
        4    1    3    3  502    0  0.41096808103E+02  0.31764076090E+03 -0.88918203978E+02  0.33240436296E+03  0.12699999809E+01 0.  1.
       -4    1    3    3    0  502 -0.41096808103E+02 -0.31764076090E+03 -0.81843972033E+03  0.87887984921E+03  0.12699999809E+01 0. -1.
</event>
<event>
 5   0  0.2769394E-02  0.7805914E+03  0.7818609E-02  0.9588543E-01
       -1   -1    0    0    0  501  0.00000000000E+00  0.00000000000E+00  0.67345933138E+03  0.67345933140E+03  0.50400001928E-02 0. -1.
        1   -1    0    0  501    0  0.00000000000E+00  0.00000000000E+00 -0.22619142333E+03  0.22619142339E+03  0.50400001928E-02 0.  1.
    10030    2    1    2    0    0  0.00000000000E+00  0.00000000000E+00  0.44726790805E+03  0.89965075479E+03  0.78059137775E+03 0.  0.
        2    1    3    3  502    0  0.10256098606E+02 -0.34023888574E+03  0.35559580370E+01  0.34041200298E+03  0.25500000920E-02 0.  1.
       -2    1    3    3    0  502 -0.10256098606E+02  0.34023888574E+03  0.44371195001E+03  0.55923875180E+03  0.25500000920E-02 0. -1.
</event>
<event>
 5   0  0.4377843E-02  0.7961672E+03  0.7818609E-02  0.9565581E-01
        2   -1    0    0  501    0  0.00000000000E+00  0.00000000000E+00  0.75865382068E+03  0.75865382068E+03  0.25500000920E-02 0. -1.
       -2   -1    0    0    0  501  0.00000000000E+00  0.00000000000E+00 -0.20888389839E+03  0.20888389841E+03  0.25500000920E-02 0.  1.
    10030    2    1    2    0    0  0.00000000000E+00  0.00000000000E+00  0.54976992229E+03  0.96753771909E+03  0.79616723771E+03 0.  0.
        2    1    3    3  502    0  0.32344020538E+03 -0.56901462385E+02  0.14705843768E+01  0.32841057459E+03  0.25500000920E-02 0.  1.
       -2    1    3    3    0  502 -0.32344020538E+03  0.56901462385E+02  0.54829933791E+03  0.63912714450E+03  0.25500000920E-02 0. -1.
</event>
<event>
 5   0  0.4590462E-02  0.7887572E+03  0.7818609E-02  0.9576435E-01
        2   -1    0    0  501    0  0.00000000000E+00  0.00000000000E+00  0.33026239352E+03  0.33026239353E+03  0.25500000920E-02 0. -1.
       -2   -1    0    0    0  501  0.00000000000E+00  0.00000000000E+00 -0.47094209849E+03  0.47094209850E+03  0.25500000920E-02 0.  1.
    10030    2    1    2    0    0  0.00000000000E+00  0.00000000000E+00 -0.14067970497E+03  0.80120449202E+03  0.78875716076E+03 0.  0.
        3    1    3    3  502    0 -0.18996762894E+03  0.13411509643E+03  0.25321451424E+03  0.34379086601E+03  0.10100000352E+00 0. -1.
       -3    1    3    3    0  502  0.18996762894E+03 -0.13411509643E+03 -0.39389421921E+03  0.45741362601E+03  0.10100000352E+00 0.  1.
</event>
<event>
 5   0  0.4700220E-02  0.7772678E+03  0.7818609E-02  0.9593517E-01
       -2   -1    0    0    0  501  0.00000000000E+00  0.00000000000E+00  0.38498114952E+03  0.38498114953E+03  0.25500000920E-02 0. -1.
        2   -1    0    0  501    0  0.00000000000E+00  0.00000000000E+00 -0.39232129982E+03  0.39232129983E+03  0.25500000920E-02 0.  1.
    10030    2    1    2    0    0  0.00000000000E+00  0.00000000000E+00 -0.73401502974E+01  0.77730244936E+03  0.77726779168E+03 0.  0.
        4    1    3    3  502    0  0.41175592883E+02  0.37516739272E+03 -0.96349393375E+02  0.38952640541E+03  0.12699999809E+01 0.  1.
       -4    1    3    3    0  502 -0.41175592883E+02 -0.37516739272E+03  0.89009243077E+02  0.38777604395E+03  0.12699999809E+01 0. -1.
</event>
<event>
 5   0  0.2606520E-02  0.6327328E+03  0.7818609E-02  0.9839730E-01
       -1   -1    0    0    0  501  0.00000000000E+00  0.00000000000E+00  0.96101234055E+02  0.96101234187E+02  0.50400001928E-02 0.  1.
        1   -1    0    0  501    0  0.00000000000E+00  0.00000000000E+00 -0.10414820042E+04  0.10414820042E+04  0.50400001928E-02 0. -1.
    10030    2    1    2    0    0  0.00000000000E+00  0.00000000000E+00 -0.94538077016E+03  0.11375832384E+04  0.63273282176E+03 0.  0.
        5    1    3    3  502    0 -0.28888935493E+03  0.12087273408E+03 -0.39231975544E+03  0.50200015711E+03  0.46999998093E+01 0.  1.
       -5    1    3    3    0  502  0.28888935493E+03 -0.12087273408E+03 -0.55306101472E+03  0.63558308130E+03  0.46999998093E+01 0. -1.
</event>
<event>
 5   0  0.4684283E-02  0.8036124E+03  0.7818609E-02  0.9554803E-01
        2   -1    0    0  501    0  0.00000000000E+00  0.00000000000E+00  0.11870244616E+04  0.11870244616E+04  0.25500000920E-02 0.  1.
       -2   -1    0    0    0  501  0.00000000000E+00  0.00000000000E+00 -0.13601087059E+03  0.13601087061E+03  0.25500000920E-02 0. -1.
    10030    2    1    2    0    0  0.00000000000E+00  0.00000000000E+00  0.10510135910E+04  0.13230353322E+04  0.80361242015E+03 0.  0.
        1    1    3    3  502    0  0.13521784562E+03  0.11257387201E+03  0.11202313830E+04  0.11339643266E+04  0.50400001928E-02 0.  1.
       -1    1    3    3    0  502 -0.13521784562E+03 -0.11257387201E+03 -0.69217791976E+02  0.18907100567E+03  0.50400001928E-02 0. -1.
</event>
<event>
 5   0  0.4663634E-02  0.8117594E+03  0.7818609E-02  0.9543150E-01
       -2   -1    0    0    0  501  0.00000000000E+00  0.00000000000E+00  0.11320823146E+03  0.11320823149E+03  0.25500000920E-02 0. -1.
        2   -1    0    0  501    0  0.00000000000E+00  0.00000000000E+00 -0.14551797476E+04  0.14551797476E+04  0.25500000920E-02 0.  1.
    10030    2    1    2    0    0  0.00000000000E+00  0.00000000000E+00 -0.13419715161E+04  0.15683879791E+04  0.81175938728E+03 0.  0.
        5    1    3    3  502    0 -0.10050136997E+03  0.32826647041E+03 -0.10892133289E+04  0.11420451684E+04  0.46999998093E+01 0.  1.
       -5    1    3    3    0  502  0.10050136997E+03 -0.32826647041E+03 -0.25275818725E+03  0.42634281064E+03  0.46999998093E+01 0. -1.
</event>
<event>
 5   0  0.2689372E-02  0.8240191E+03  0.7818609E-02  0.9525887E-01
       -1   -1    0    0    0  501  0.00000000000E+00  0.00000000000E+00  0.52442592376E+03  0.52442592379E+03  0.50400001928E-02 0. -1.
        1   -1    0    0  501    0  0.00000000000E+00  0.00000000000E+00 -0.32369080922E+03  0.32369080926E+03  0.50400001928E-02 0.  1.
    10030    2    1    2    0    0  0.00000000000E+00  0.00000000000E+00  0.20073511454E+03  0.84811673305E+03  0.82401905722E+03 0.  0.
        4    1    3    3  502    0 -0.39215949879E+03 -0.77492312902E+02  0.20306583709E+03  0.44836534003E+03  0.12699999809E+01 0.  1.
       -4    1    3    3    0  502  0.39215949879E+03  0.77492312902E+02 -0.23307225505E+01  0.39975139302E+03  0.12699999809E+01 0. -1.
</event>
<event>
 5   0  0.2769394E-02  0.8030830E+03  0.7818609E-02  0.9555565E-01
       -1   -1    0    0    0  501  0.00000000000E+00  0.00000000000E+00  0.87704832434E+03  0.87704832435E+03  0.50400001928E-02 0.  1.
        1   -1    0    0  501    0  0.00000000000E+00  0.00000000000E+00 -0.18383886822E+03  0.18383886829E+03  0.50400001928E-02 0. -1.
    10030    2    1    2    0    0  0.00000000000E+00  0.00000000000E+00  0.69320945612E+03  0.10608871926E+04  0.80308298791E+03 0.  0.
        2    1    3    3  502    0 -0.18422664953E+03 -0.23391300762E+03  0.70249794364E+03  0.76299286651E+03  0.25500000920E-02 0.  1.
       -2    1    3    3    0  502  0.18422664953E+03  0.23391300762E+03 -0.92884875216E+01  0.29789432613E+03  0.25500000920E-02 0. -1.
</event>
<event>
 5   0  0.2769394E-02  0.6684888E+03  0.7818609E-02  0.9772692E-01
       -1   -1    0    0    0  501  0.00000000000E+00  0.00000000000E+00  0.18896443315E+03  0.18896443322E+03  0.50400001928E-02 0.  1.
        1   -1    0    0  501    0  0.00000000000E+00  0.00000000000E+00 -0.59121871136E+03  0.59121871139E+03  0.50400001928E-02 0. -1.
    10030    2    1    2    0    0  0.00000000000E+00  0.00000000000E+00 -0.40225427821E+03  0.78018314460E+03  0.66848876938E+03 0.  0.
        2    1    3    3  502    0 -0.28583220642E+03  0.70249084306E+02 -0.16283864339E+02  0.29478831103E+03  0.25500000920E-02 0.  1.
       -2    1    3    3    0  502  0.28583220642E+03 -0.70249084306E+02 -0.38597041387E+03  0.48539483358E+03  0.25500000920E-02 0. -1.
</event>
<event>
 5   0  0.2759559E-02  0.7743380E+03  0.7818609E-02  0.9597923E-01
       -1   -1    0    0    0  501  0.00000000000E+00  0.00000000000E+00  0.15352443386E+04  0.15352443386E+04  0.50400001928E-02 0.  1.
        1   -1    0    0  501    0  0.00000000000E+00  0.00000000000E+00 -0.97639074468E+02  0.97639074598E+02  0.50400001928E-02 0. -1.
    10030    2    1    2    0    0  0.00000000000E+00  0.00000000000E+00  0.14376052641E+04  0.16328834132E+04  0.77433800479E+03 0.  0.
        3    1    3    3  502    0 -0.35490429484E+03 -0.13352560681E+03  0.55391960364E+03  0.67127720330E+03  0.10100000352E+00 0. -1.
       -3    1    3    3    0  502  0.35490429484E+03  0.13352560681E+03  0.88368566046E+03  0.96160620988E+03  0.10100000352E+00 0.  1.
</event>
<event>
 5   0  0.2769394E-02  0.8111233E+03  0.7818609E-02  0.9544055E-01
       -1   -1    0    0    0  501  0.00000000000E+00  0.00000000000E+00  0.22505131457E+03  0.22505131462E+03  0.50400001928E-02 0. -1.
        1   -1    0    0  501    0  0.00000000000E+00  0.00000000000E+00 -0.73085661050E+03  0.73085661052E+03  0.50400001928E-02 0.  1.
    10030    2    1    2    0    0  0.00000000000E+00  0.00000000000E+00 -0.50580529594E+03  0.95590792515E+03  0.81112327297E+03 0.  0.
        2    1    3    3  502    0  0.10144969204E+03 -0.37692427028E+03 -0.12318050125E+03  0.40931330474E+03  0.25500000920E-02 0.  1.
       -2    1    3    3    0  502 -0.10144969204E+03  0.37692427028E+03 -0.38262479468E+03  0.54659462041E+03  0.25500000920E-02 0. -1.
</event>
<event>
 5   0  0.4377843E-02  0.7768557E+03  0.7818609E-02  0.9594135E-01
       -2   -1    0    0    0  501  0.00000000000E+00  0.00000000000E+00  0.79356810429E+02  0.79356810470E+02  0.25500000920E-02 0. -1.
        2   -1    0    0  501    0  0.00000000000E+00  0.00000000000E+00 -0.19012382546E+04  0.19012382546E+04  0.25500000920E-02 0.  1.
    10030    2    1    2    0    0  0.00000000000E+00  0.00000000000E+00 -0.18218814441E+04  0.19805950650E+04  0.77685572352E+03 0.  0.
        2    1    3    3  502    0  0.18009420736E+03 -0.34341328349E+03 -0.96849382556E+03  0.10432386577E+04  0.25500000920E-02 0. -1.
       -2    1    3    3    0  502 -0.18009420736E+03  0.34341328349E+03 -0.85338761859E+03  0.93735640733E+03  0.25500000920E-02 0.  1.
</event>
<event>
 5   0  0.4377843E-02  0.7762698E+03  0.7818609E-02  0.9595015E-01
       -2   -1    0    0    0  501  0.00000000000E+00  0.00000000000E+00  0.74564043814E+03  0.74564043815E+03  0.25500000920E-02 0.  1.
        2   -1    0    0  501    0  0.00000000000E+00  0.00000000000E+00 -0.20203935591E+03  0.20203935592E+03  0.25500000920E-02 0. -1.
    10030    2    1    2    0    0  0.00000000000E+00  0.00000000000E+00  0.54360108224E+03  0.94767979407E+03  0.77626983419E+03 0.  0.
        2    1    3    3  502    0 -0.37929940310E+03 -0.46683634410E+02  0.35461189627E+03  0.52134153478E+03  0.25500000920E-02 0.  1.
       -2    1    3    3    0  502  0.37929940310E+03  0.46683634410E+02  0.18898918597E+03  0.42633825929E+03  0.25500000920E-02 0. -1.
</event>
<event>
 5   0  0.4590462E-02  0.7767658E+03  0.7818609E-02  0.9594270E-01
        2   -1    0    0  501    0  0.00000000000E+00  0.00000000000E+00  0.29337195550E+03  0.29337195551E+03  0.25500000920E-02 0. -1.
       -2   -1    0    0    0  501  0.00000000000E+00  0.00000000000E+00 -0.51416386993E+03  0.51416386994E+03  0.25500000920E-02 0.  1.
    10030    2    1    2    0    0  0.00000000000E+00  0.00000000000E+00 -0.22079191443E+03  0.80753582545E+03  0.77676575613E+03 0.  0.
        3    1    3    3  502    0  0.30371537750E+03 -0.16574355887E+03  0.73022229848E+02  0.35361874115E+03  0.10100000352E+00 0. -1.
       -3    1    3    3    0  502 -0.30371537750E+03  0.16574355887E+03 -0.29381414428E+03  0.45391708430E+03  0.10100000352E+00 0.  1.
</event>
<event>
 5   0  0.1786500E-02  0.8855875E+03  0.7818609E-02  0.9443779E-01
       -3   -1    0    0    0  501  0.00000000000E+00  0.00000000000E+00  0.47815525391E+03  0.47815526458E+03  0.10100000352E+00 0. -1.
        3   -1    0    0  501    0  0.00000000000E+00  0.00000000000E+00 -0.41004736933E+03  0.41004738177E+03  0.10100000352E+00 0.  1.
    10030    2    1    2    0    0  0.00000000000E+00  0.00000000000E+00  0.68107884582E+02  0.88820264635E+03  0.88558752083E+03 0.  0.
        3    1    3    3  502    0  0.12577774166E+03 -0.10860923799E+03  0.44569289582E+03  0.47566603248E+03  0.10100000352E+00 0. -1.
       -3    1    3    3    0  502 -0.12577774166E+03  0.10860923799E+03 -0.37758501123E+03  0.41253661387E+03  0.10100000352E+00 0.  1.
</event>
<event>
 5   0  0.2635243E-02  0.7265329E+03  0.7818609E-02  0.9672903E-01
        1   -1    0    0  501    0  0.00000000000E+00  0.00000000000E+00  0.57279226947E+03  0.57279226949E+03  0.50400001928E-02 0. -1.
       -1   -1    0    0    0  501  0.00000000000E+00  0.00000000000E+00 -0.23038459504E+03  0.23038459509E+03  0.50400001928E-02 0.  1.
    10030    2    1    2    0    0  0.00000000000E+00  0.00000000000E+00  0.34240767444E+03  0.80317686459E+03  0.72653290379E+03 0.  0.
        1    1    3    3  502    0  0.62892068047E+01 -0.11211392300E+03 -0.21071699952E+03  0.23876921863E+03  0.50400001928E-02 0.  1.
       -1    1    3    3    0  502 -0.62892068047E+01  0.11211392300E+03  0.55312467396E+03  0.56440764596E+03  0.50400001928E-02 0. -1.
</event>
<event>
 5   0  0.2769394E-02  0.8265172E+03  0.7818609E-02  0.9522408E-01
        1   -1    0    0  501    0  0.00000000000E+00  0.00000000000E+00  0.83194582925E+03  0.83194582927E+03  0.50400001928E-02 0.  1.
       -1   -1    0    0    0  501  0.00000000000E+00  0.00000000000E+00 -0.20528098211E+03  0.20528098217E+03  0.50400001928E-02 0. -1.
    10030    2    1    2    0    0  0.00000000000E+00  0.00000000000E+00  0.62666484715E+03  0.10372268114E+04  0.82651716722E+03 0.  0.
        2    1    3    3  502    0  0.74295361932E+02  0.25708835483E+03 -0.81859975767E+02  0.27984867095E+03  0.25500000920E-02 0.  1.
       -2    1    3    3    0  502 -0.74295361932E+02 -0.25708835483E+03  0.70852482291E+03  0.75737814049E+03  0.25500000920E-02 0. -1.
</event>
<event>
 5   0  0.2769394E-02  0.7780845E+03  0.7818609E-02  0.9592292E-01
        1   -1    0    0  501    0  0.00000000000E+00  0.00000000000E+00  0.18287102934E+04  0.18287102934E+04  0.50400001928E-02 0. -1.
       -1   -1    0    0    0  501  0.00000000000E+00  0.00000000000E+00 -0.82765373941E+02  0.82765374094E+02  0.50400001928E-02 0.  1.
    10030    2    1    2    0    0  0.00000000000E+00  0.00000000000E+00  0.17459449195E+04  0.19114756675E+04  0.77808454918E+03 0.  0.
        2    1    3    3  502    0  0.23405442121E+03  0.77324713225E+02  0.13355442033E+03  0.28035221876E+03  0.25500000920E-02 0.  1.
       -2    1    3    3    0  502 -0.23405442121E+03 -0.77324713225E+02  0.16123904992E+04  0.16311234488E+04  0.25500000920E-02 0. -1.
</event>
<event>
 5   0  0.4590462E-02  0.7598474E+03  0.7818609E-02  0.9620027E-01
       -2   -1    0    0    0  501  0.00000000000E+00  0.00000000000E+00  0.61075433978E+03  0.61075433978E+03  0.25500000920E-02 0. -1.
        2   -1    0    0  501    0  0.00000000000E+00  0.00000000000E+00 -0.23633399304E+03  0.23633399305E+03  0.25500000920E-02 0.  1.
    10030    2    1    2    0    0  0.00000000000E+00  0.00000000000E+00  0.37442034674E+03  0.84708833283E+03  0.75984738440E+03 0.  0.
        3    1    3    3  502    0 -0.52191747995E+02 -0.31325190686E+03  0.41969967799E+03  0.52630653199E+03  0.10100000352E+00 0. -1.
       -3    1    3    3    0  502  0.52191747995E+02  0.31325190686E+03 -0.45279331249E+02  0.32078180084E+03  0.10100000352E+00 0.  1.
</event>
<event>
 5   0  0.4377843E-02  0.7724295E+03  0.7818609E-02  0.9600805E-01
       -2   -1    0    0    0  501  0.00000000000E+00  0.00000000000E+00  0.67147811864E+02  0.67147811913E+02  0.25500000920E-02 0. -1.
        2   -1    0    0  501    0  0.00000000000E+00  0.00000000000E+00 -0.22213955580E+04  0.22213955580E+04  0.25500000920E-02 0.  1.
    10030    2    1    2    0    0  0.00000000000E+00  0.00000000000E+00 -0.21542477461E+04  0.22885433699E+04  0.77242954646E+03 0.  0.
        2    1    3    3  502    0  0.11179206738E+03 -0.73114297749E+02 -0.21507758561E+04  0.21549199405E+04  0.25500000920E-02 0.  1.
       -2    1    3    3    0  502 -0.11179206738E+03  0.73114297749E+02 -0.34718900709E+01  0.13362342943E+03  0.25500000920E-02 0. -1.
</event>
<event>
 5   0  0.4377843E-02  0.8020734E+03  0.7818609E-02  0.9557021E-01
        2   -1    0    0  501    0  0.00000000000E+00  0.00000000000E+00  0.40395492858E+03  0.40395492859E+03  0.25500000920E-02 0.  1.
       -2   -1    0    0    0  501  0.00000000000E+00  0.00000000000E+00 -0.39813956542E+03  0.39813956543E+03  0.25500000920E-02 0. -1.
    10030    2    1    2    0    0  0.00000000000E+00  0.00000000000E+00  0.58153631612E+01  0.80209449402E+03  0.80207341241E+03 0.  0.
        2    1    3    3  502    0  0.36072171075E+03 -0.13011945224E+03  0.12029566910E+03  0.40189833598E+03  0.25500000920E-02 0.  1.
       -2    1    3    3    0  502 -0.36072171075E+03  0.13011945224E+03 -0.11448030594E+03  0.40019615804E+03  0.25500000920E-02 0. -1.
</event>
<event>
 5   0  0.2689372E-02  0.8215391E+03  0.7818609E-02  0.9529353E-01
       -1   -1    0    0    0  501  0.00000000000E+00  0.00000000000E+00  0.46744460113E+03  0.46744460116E+03  0.50400001928E-02 0. -1.
        1   -1    0    0  501    0  0.00000000000E+00  0.00000000000E+00 -0.36096602049E+03  0.36096602052E+03  0.50400001928E-02 0.  1.
    10030    2    1    2    0    0  0.00000000000E+00  0.00000000000E+00  0.10647858064E+03  0.82841062168E+03  0.82153908609E+03 0.  0.
        4    1    3    3  502    0 -0.30438780795E+03 -0.20382942805E+03 -0.13414189217E+03  0.39012053714E+03  0.12699999809E+01 0.  1.
       -4    1    3    3    0  502  0.30438780795E+03  0.20382942805E+03  0.24062047281E+03  0.43829008453E+03  0.12699999809E+01 0. -1.
</event>
<event>
 5   0  0.2606520E-02  0.8850747E+03  0.7818609E-02  0.9444434E-01
       -1   -1    0    0    0  501  0.00000000000E+00  0.00000000000E+00  0.21070572902E+04  0.21070572902E+04  0.50400001928E-02 0.  1.
        1   -1    0    0  501    0  0.00000000000E+00  0.00000000000E+00 -0.92944455458E+02  0.92944455594E+02  0.50400001928E-02 0. -1.
    10030    2    1    2    0    0  0.00000000000E+00  0.00000000000E+00  0.20141128348E+04  0.22000017458E+04  0.88507466943E+03 0.  0.
        5    1    3    3  502    0  0.12868704449E+03 -0.41196420584E+03  0.12498686511E+04  0.13222967130E+04  0.46999998093E+01 0.  1.
       -5    1    3    3    0  502 -0.12868704449E+03  0.41196420584E+03  0.76424418369E+03  0.87770503281E+03  0.46999998093E+01 0. -1.
</event>
<event>
 5   0  0.4684283E-02  0.8126755E+03  0.7818609E-02  0.9541849E-01
       -2   -1    0    0    0  501  0.00000000000E+00  0.00000000000E+00  0.84295950403E+02  0.84295950442E+02  0.25500000920E-02 0.  1.
        2   -1    0    0  501    0  0.00000000000E+00  0.00000000000E+00 -0.19586986772E+04  0.19586986772E+04  0.25500000920E-02 0. -1.
    10030    2    1    2    0    0  0.00000000000E+00  0.00000000000E+00 -0.18744027268E+04  0.20429946277E+04  0.81267549881E+03 0.  0.
        1    1    3    3  502    0  0.73058196139E+02 -0.14233530914E+03  0.17826885103E+01  0.16000005705E+03  0.50400001928E-02 0.  1.
       -1    1    3    3    0  502 -0.73058196139E+02  0.14233530914E+03 -0.18761854153E+04  0.18829945706E+04  0.50400001928E-02 0. -1.
</event>
<event>
 5   0  0.4590462E-02  0.5268226E+03  0.7818609E-02  0.1007006E+00
       -2   -1    0    0    0  501  0.00000000000E+00  0.00000000000E+00  0.88174071822E+02  0.88174071859E+02  0.25500000920E-02 0.  1.
        2   -1    0    0  501    0  0.00000000000E+00  0.00000000000E+00 -0.78691524434E+03  0.78691524434E+03  0.25500000920E-02 0. -1.
    10030    2    1    2    0    0  0.00000000000E+00  0.00000000000E+00 -0.69874117252E+03  0.87508931620E+03  0.52682263159E+03 0.  0.
        3    1    3    3  502    0  0.11431930592E+03 -0.24842652083E+02  0.42654096216E+02  0.12452085445E+03  0.10100000352E+00 0.  1.
       -3    1    3    3    0  502 -0.11431930592E+03  0.24842652083E+02 -0.74139526873E+03  0.75056846175E+03  0.10100000352E+00 0. -1.
</event>
<event>
 5   0  0.1786500E-02  0.8124502E+03  0.7818609E-02  0.9542169E-01
        4   -1    0    0  501    0  0.00000000000E+00  0.00000000000E+00  0.86458636419E+03  0.86458729694E+03  0.12699999809E+01 0. -1.
       -4   -1    0    0    0  501  0.00000000000E+00  0.00000000000E+00 -0.19086134668E+03  0.19086557195E+03  0.12699999809E+01 0.  1.
    10030    2    1    2    0    0  0.00000000000E+00  0.00000000000E+00  0.67372501750E+03  0.10554528689E+04  0.81245021955E+03 0.  0.
        5    1    3    3  502    0  0.31907314202E+03  0.91732880890E+02  0.64090196076E+03  0.72180330056E+03  0.46999998093E+01 0. -1.
       -5    1    3    3    0  502 -0.31907314202E+03 -0.91732880890E+02  0.32823056743E+02  0.33364956833E+03  0.46999998093E+01 0.  1.
</event>
<event>
 5   0  0.4590462E-02  0.8132771E+03  0.7818609E-02  0.9540995E-01
       -2   -1    0    0    0  501  0.00000000000E+00  0.00000000000E+00  0.99239676033E+02  0.99239676066E+02  0.25500000920E-02 0.  1.
        2   -1    0    0  501    0  0.00000000000E+00  0.00000000000E+00 -0.16662177991E+04  0.16662177991E+04  0.25500000920E-02 0. -1.
    10030    2    1    2    0    0  0.00000000000E+00  0.00000000000E+00 -0.15669781230E+04  0.17654574751E+04  0.81327711049E+03 0.  0.
        3    1    3    3  502    0  0.19785348671E+03 -0.63977342031E+02 -0.24903373721E+02  0.20942609847E+03  0.10100000352E+00 0.  1.
       -3    1    3    3    0  502 -0.19785348671E+03  0.63977342031E+02 -0.15420747493E+04  0.15560313767E+04  0.10100000352E+00 0. -1.
</event>
<event>
 5   0  0.4377843E-02  0.6871775E+03  0.7818609E-02  0.9739415E-01
        2   -1    0    0  501    0  0.00000000000E+00  0.00000000000E+00  0.29107117387E+03  0.29107117388E+03  0.25500000920E-02 0. -1.
       -2   -1    0    0    0  501  0.00000000000E+00  0.00000000000E+00 -0.40558205507E+03  0.40558205508E+03  0.25500000920E-02 0.  1.
    10030    2    1    2    0    0  0.00000000000E+00  0.00000000000E+00 -0.11451088121E+03  0.69665322896E+03  0.68717754584E+03 0.  0.
        2    1    3    3  502    0  0.30585261846E+03  0.13369921158E+03 -0.13981512741E+03  0.36189718603E+03  0.25500000920E-02 0.  1.
       -2    1    3    3    0  502 -0.30585261846E+03 -0.13369921158E+03  0.25304246203E+02  0.33475604293E+03  0.25500000920E-02 0. -1.
</event>
<event>
 5   0  0.4663634E-02  0.8231164E+03  0.7818609E-02  0.9527147E-01
        2   -1    0    0  501    0  0.00000000000E+00  0.00000000000E+00  0.67777750008E+03  0.67777750008E+03  0.25500000920E-02 0.  1.
       -2   -1    0    0    0  501  0.00000000000E+00  0.00000000000E+00 -0.24990524662E+03  0.24990524664E+03  0.25500000920E-02 0. -1.
    10030    2    1    2    0    0  0.00000000000E+00  0.00000000000E+00  0.42787225345E+03  0.92768274672E+03  0.82311640324E+03 0.  0.
        5    1    3    3  502    0  0.18721355536E+03  0.28373855915E+03  0.47535427267E+03  0.58441445892E+03  0.46999998093E+01 0.  1.
       -5    1    3    3    0  502 -0.18721355536E+03 -0.28373855915E+03 -0.47482019214E+02  0.34326828779E+03  0.46999998093E+01 0. -1.
</event>
<event>
 5   0  0.2759559E-02  0.8005343E+03  0.7818609E-02  0.9559244E-01
        1   -1    0    0  501    0  0.00000000000E+00  0.00000000000E+00  0.44666443772E+03  0.44666443775E+03  0.50400001928E-02 0. -1.
       -1   -1    0    0    0  501  0.00000000000E+00  0.00000000000E+00 -0.35868942681E+03  0.35868942685E+03  0.50400001928E-02 0.  1.
    10030    2    1    2    0    0  0.00000000000E+00  0.00000000000E+00  0.87975010907E+02  0.80535386459E+03  0.80053434946E+03 0.  0.
        3    1    3    3  502    0  0.15582199277E+03 -0.18567246989E+02  0.41442787401E+03  0.44314298939E+03  0.10100000352E+00 0. -1.
       -3    1    3    3    0  502 -0.15582199277E+03  0.18567246989E+02 -0.32645286310E+03  0.36221087521E+03  0.10100000352E+00 0.  1.
</event>
<event>
 5   0  0.2606520E-02  0.7306422E+03  0.7818609E-02  0.9666219E-01
       -1   -1    0    0    0  501  0.00000000000E+00  0.00000000000E+00  0.15245685157E+03  0.15245685165E+03  0.50400001928E-02 0.  1.
        1   -1    0    0  501    0  0.00000000000E+00  0.00000000000E+00 -0.87539190177E+03  0.87539190178E+03  0.50400001928E-02 0. -1.
    10030    2    1    2    0    0  0.00000000000E+00  0.00000000000E+00 -0.72293505020E+03  0.10278487534E+04  0.73064216489E+03 0.  0.
        5    1    3    3  502    0  0.38957508400E+02 -0.21149146159E+03  0.53926747620E+02  0.22175777302E+03  0.46999998093E+01 0.  1.
       -5    1    3    3    0  502 -0.38957508400E+02  0.21149146159E+03 -0.77686179782E+03  0.80609098041E+03  0.46999998093E+01 0. -1.
</event>
<event>
 5   0  0.4684283E-02  0.7909546E+03  0.7818609E-02  0.9573203E-01
       -2   -1    0    0    0  501  0.00000000000E+00  0.00000000000E+00  0.34478497621E+03  0.34478497622E+03  0.25500000920E-02 0.  1.
        2   -1    0    0  501    0  0.00000000000E+00  0.00000000000E+00 -0.45362275224E+03  0.45362275225E+03  0.25500000920E-02 0. -1.
    10030    2    1    2    0    0  0.00000000000E+00  0.00000000000E+00 -0.10883777603E+03  0.79840772847E+03  0.79095463801E+03 0.  0.
        1    1    3    3  502    0  0.76071976332E+01  0.38546913602E+03 -0.14332827955E+03  0.41132386270E+03  0.50400001928E-02 0. -1.
       -1    1    3    3    0  502 -0.76071976332E+01 -0.38546913602E+03  0.34490503515E+02  0.38708386577E+03  0.50400001928E-02 0.  1.
</event>
<event>
 5   0  0.2769394E-02  0.8002905E+03  0.7818609E-02  0.9559597E-01
        1   -1    0    0  501    0  0.00000000000E+00  0.00000000000E+00  0.33597985369E+03  0.33597985372E+03  0.50400001928E-02 0.  1.
       -1   -1    0    0    0  501  0.00000000000E+00  0.00000000000E+00 -0.47656494598E+03  0.47656494600E+03  0.50400001928E-02 0. -1.
    10030    2    1    2    0    0  0.00000000000E+00  0.00000000000E+00 -0.14058509229E+03  0.81254479973E+03  0.80029049937E+03 0.  0.
        2    1    3    3  502    0  0.28813271510E+03  0.26859036180E+03  0.11769088105E+01  0.39390687870E+03  0.25500000920E-02 0.  1.
       -2    1    3    3    0  502 -0.28813271510E+03 -0.26859036180E+03 -0.14176200110E+03  0.41863792103E+03  0.25500000920E-02 0. -1.
</event>
<event>
 5   0  0.4377843E-02  0.7822398E+03  0.7818609E-02  0.9586086E-01
        2   -1    0    0  501    0  0.00000000000E+00  0.00000000000E+00  0.67775036098E+03  0.67775036099E+03  0.25500000920E-02 0. -1.
       -2   -1    0    0    0  501  0.00000000000E+00  0.00000000000E+00 -0.22570963863E+03  0.22570963864E+03  0.25500000920E-02 0.  1.
    10030    2    1    2    0    0  0.00000000000E+00  0.00000000000E+00  0.45204072235E+03  0.90345999963E+03  0.78223983295E+03 0.  0.
        2    1    3    3  502    0 -0.27816831792E+03 -0.22603305482E+03  0.40682405163E+03  0.54219402796E+03  0.25500000920E-02 0. -1.
       -2    1    3    3    0  502  0.27816831792E+03  0.22603305482E+03  0.45216670726E+02  0.36126597167E+03  0.25500000920E-02 0.  1.
</event>
<event>
 5   0  0.2635243E-02  0.8086559E+03  0.7818609E-02  0.9547572E-01
        1   -1    0    0  501    0  0.00000000000E+00  0.00000000000E+00  0.21924426110E+03  0.21924426116E+03  0.50400001928E-02 0.  1.
       -1   -1    0    0    0  501  0.00000000000E+00  0.00000000000E+00 -0.74565734866E+03  0.74565734867E+03  0.50400001928E-02 0. -1.
    10030    2    1    2    0    0  0.00000000000E+00  0.00000000000E+00 -0.52641308755E+03  0.96490160983E+03  0.80865590823E+03 0.  0.
        1    1    3    3  502    0  0.18393137015E+02 -0.30207817835E+03 -0.58313894402E+03  0.65699357788E+03  0.50400001928E-02 0. -1.
       -1    1    3    3    0  502 -0.18393137015E+02  0.30207817835E+03  0.56725856468E+02  0.30790803195E+03  0.50400001928E-02 0.  1.
</event>
<event>
 5   0  0.4700220E-02  0.7928404E+03  0.7818609E-02  0.9570438E-01
       -2   -1    0    0    0  501  0.00000000000E+00  0.00000000000E+00  0.45508886867E+03  0.45508886868E+03  0.25500000920E-02 0.  1.
        2   -1    0    0  501    0  0.00000000000E+00  0.00000000000E+00 -0.34531494699E+03  0.34531494700E+03  0.25500000920E-02 0. -1.
    10030    2    1    2    0    0  0.00000000000E+00  0.00000000000E+00  0.10977392169E+03  0.80040381567E+03  0.79284043430E+03 0.  0.
        4    1    3    3  502    0 -0.60859878056E+02  0.28113385814E+02  0.44932260780E+03  0.45429803653E+03  0.12699999809E+01 0.  1.
       -4    1    3    3    0  502  0.60859878056E+02 -0.28113385814E+02 -0.33954868611E+03  0.34610577914E+03  0.12699999809E+01 0. -1.
</event>
<event>
 5   0  0.2689372E-02  0.8012922E+03  0.7818609E-02  0.9558149E-01
        1   -1    0    0  501    0  0.00000000000E+00  0.00000000000E+00  0.55005239492E+03  0.55005239494E+03  0.50400001928E-02 0. -1.
       -1   -1    0    0    0  501  0.00000000000E+00  0.00000000000E+00 -0.29182181759E+03  0.29182181763E+03  0.50400001928E-02 0.  1.
    10030    2    1    2    0    0  0.00000000000E+00  0.00000000000E+00  0.25823057733E+03  0.84187421257E+03  0.80129218062E+03 0.  0.
        4    1    3    3  502    0  0.87023996334E+02 -0.36442543246E+03 -0.19975024803E+02  0.37520619168E+03  0.12699999809E+01 0.  1.
       -4    1    3    3    0  502 -0.87023996334E+02  0.36442543246E+03  0.27820560213E+03  0.46666802089E+03  0.12699999809E+01 0. -1.
</event>
<event>
 5   0  0.1786500E-02  0.7995249E+03  0.7818609E-02  0.9560705E-01
        4   -1    0    0  501    0  0.00000000000E+00  0.00000000000E+00  0.34251139642E+03  0.34251375093E+03  0.12699999809E+01 0. -1.
       -4   -1    0    0    0  501  0.00000000000E+00  0.00000000000E+00 -0.46657822533E+03  0.46657995377E+03  0.12699999809E+01 0.  1.
    10030    2    1    2    0    0  0.00000000000E+00  0.00000000000E+00 -0.12406682892E+03  0.80909370469E+03  0.79952488700E+03 0.  0.
        2    1    3    3  502    0  0.30155107877E+03  0.23409674651E+03  0.58027430372E+02  0.38613666301E+03  0.25500000920E-02 0. -1.
       -2    1    3    3    0  502 -0.30155107877E+03 -0.23409674651E+03 -0.18209425929E+03  0.42295704168E+03  0.25500000920E-02 0.  1.
</event>
<event>
 5   0  0.2769394E-02  0.8086970E+03  0.7818609E-02  0.9547513E-01
       -1   -1    0    0    0  501  0.00000000000E+00  0.00000000000E+00  0.78900891685E+02  0.78900891846E+02  0.50400001928E-02 0. -1.
        1   -1    0    0  501    0  0.00000000000E+00  0.00000000000E+00 -0.20721906502E+04  0.20721906502E+04  0.50400001928E-02 0.  1.
    10030    2    1    2    0    0  0.00000000000E+00  0.00000000000E+00 -0.19932897585E+04  0.21510915421E+04  0.80869695244E+03 0.  0.
        2    1    3    3  502    0  0.24307338746E+03 -0.32257143989E+03 -0.94612795013E+03  0.10287347100E+04  0.25500000920E-02 0.  1.
       -2    1    3    3    0  502 -0.24307338746E+03  0.32257143989E+03 -0.10471618084E+04  0.11223568321E+04  0.25500000920E-02 0. -1.
</event>
<event>
 5   0  0.2759559E-02  0.8060812E+03  0.7818609E-02  0.9551256E-01
        1   -1    0    0  501    0  0.00000000000E+00  0.00000000000E+00  0.35127249935E+03  0.35127249938E+03  0.50400001928E-02 0.  1.
       -1   -1    0    0    0  501  0.00000000000E+00  0.00000000000E+00 -0.46243794533E+03  0.46243794535E+03  0.50400001928E-02 0. -1.
    10030    2    1    2    0    0  0.00000000000E+00  0.00000000000E+00 -0.11116544598E+03  0.81371044474E+03  0.80608121892E+03 0.  0.
        3    1    3    3  502    0  0.38736599194E+02  0.25845783960E+03  0.25414487216E+03  0.36454163715E+03  0.10100000352E+00 0.  1.
       -3    1    3    3    0  502 -0.38736599194E+02 -0.25845783960E+03 -0.36531031814E+03  0.44916880759E+03  0.10100000352E+00 0. -1.
</event>
<event>
 5   0  0.4684283E-02  0.7072431E+03  0.7818609E-02  0.9704925E-01
        2   -1    0    0  501    0  0.00000000000E+00  0.00000000000E+00  0.31769111384E+03  0.31769111385E+03  0.25500000920E-02 0.  1.
       -2   -1    0    0    0  501  0.00000000000E+00  0.00000000000E+00 -0.39361569444E+03  0.39361569445E+03  0.25500000920E-02 0. -1.
    10030    2    1    2    0    0  0.00000000000E+00  0.00000000000E+00 -0.75924580602E+02  0.71130680830E+03  0.70724312199E+03 0.  0.
        1    1    3    3  502    0 -0.29472132152E+03  0.19447155173E+03 -0.57265447392E+02  0.35771381478E+03  0.50400001928E-02 0.  1.
       -1    1    3    3    0  502  0.29472132152E+03 -0.19447155173E+03 -0.18659133210E+02  0.35359299353E+03  0.50400001928E-02 0. -1.
</event>
<event>
 5   0  0.2759559E-02  0.8210494E+03  0.7818609E-02  0.9530039E-01
        1   -1    0    0  501    0  0.00000000000E+00  0.00000000000E+00  0.22828335701E+03  0.22828335706E+03  0.50400001928E-02 0.  1.
       -1   -1    0    0    0  501  0.00000000000E+00  0.00000000000E+00 -0.73825154057E+03  0.73825154058E+03  0.50400001928E-02 0. -1.
    10030    2    1    2    0    0  0.00000000000E+00  0.00000000000E+00 -0.50996818356E+03  0.96653489765E+03  0.82104942612E+03 0.  0.
        3    1    3    3  502    0 -0.99977835603E+02 -0.26809724708E+03  0.91556923800E+02  0.30042367084E+03  0.10100000352E+00 0.  1.
       -3    1    3    3    0  502  0.99977835603E+02  0.26809724708E+03 -0.60152510736E+03  0.66611122681E+03  0.10100000352E+00 0. -1.
</event>
<event>
 5   0  0.4684283E-02  0.7888784E+03  0.7818609E-02  0.9576256E-01
       -2   -1    0    0    0  501  0.00000000000E+00  0.00000000000E+00  0.14981895115E+03  0.14981895118E+03  0.25500000920E-02 0.  1.
        2   -1    0    0  501    0  0.00000000000E+00  0.00000000000E+00 -0.10384687417E+04  0.10384687417E+04  0.25500000920E-02 0. -1.
    10030    2    1    2    0    0  0.00000000000E+00  0.00000000000E+00 -0.88864979056E+03  0.11882876929E+04  0.78887843856E+03 0.  0.
        1    1    3    3  502    0  0.12598345785E+03 -0.17223720528E+03  0.55360087571E+02  0.22045912514E+03  0.50400001928E-02 0.  1.
       -1    1    3    3    0  502 -0.12598345785E+03  0.17223720528E+03 -0.94400987813E+03  0.96782856776E+03  0.50400001928E-02 0. -1.
</event>
<event>
 5   0  0.2759559E-02  0.8013083E+03  0.7818609E-02  0.9558125E-01
       -1   -1    0    0    0  501  0.00000000000E+00  0.00000000000E+00  0.27016493359E+03  0.27016493364E+03  0.50400001928E-02 0. -1.
        1   -1    0    0  501    0  0.00000000000E+00  0.00000000000E+00 -0.59416939869E+03  0.59416939872E+03  0.50400001928E-02 0.  1.
    10030    2    1    2    0    0  0.00000000000E+00  0.00000000000E+00 -0.32400446510E+03  0.86433433235E+03  0.80130827069E+03 0.  0.
        3    1    3    3  502    0  0.45360882797E+02 -0.20016292909E+03 -0.53316095714E+03  0.57129976745E+03  0.10100000352E+00 0.  1.
       -3    1    3    3    0  502 -0.45360882797E+02  0.20016292909E+03  0.20915649203E+03  0.29303456491E+03  0.10100000352E+00 0. -1.
</event>
<event>
 5   0  0.2606520E-02  0.8079539E+03  0.7818609E-02  0.9548575E-01
       -1   -1    0    0    0  501  0.00000000000E+00  0.00000000000E+00  0.17467803069E+03  0.17467803076E+03  0.50400001928E-02 0. -1.
        1   -1    0    0  501    0  0.00000000000E+00  0.00000000000E+00 -0.93427532387E+03  0.93427532388E+03  0.50400001928E-02 0.  1.
    10030    2    1    2    0    0  0.00000000000E+00  0.00000000000E+00 -0.75959729318E+03  0.11089533546E+04  0.80795389408E+03 0.  0.
        5    1    3    3  502    0 -0.29358611049E+03  0.27518447742E+03 -0.42844144546E+03  0.58779542621E+03  0.46999998093E+01 0.  1.
       -5    1    3    3    0  502  0.29358611049E+03 -0.27518447742E+03 -0.33115584772E+03  0.52115792843E+03  0.46999998093E+01 0. -1.
</event>
<event>
 5   0  0.4700220E-02  0.7935294E+03  0.7818609E-02  0.9569431E-01
       -2   -1    0    0    0  501  0.00000000000E+00  0.00000000000E+00  0.45151942816E+03  0.45151942817E+03  0.25500000920E-02 0. -1.
        2   -1    0    0  501    0  0.00000000000E+00  0.00000000000E+00 -0.34864992472E+03  0.34864992473E+03  0.25500000920E-02 0.  1.
    10030    2    1    2    0    0  0.00000000000E+00  0.00000000000E+00  0.10286950344E+03  0.80016935290E+03  0.79352936844E+03 0.  0.
        4    1    3    3  502    0  0.28376992998E+03 -0.48024542054E+01  0.33101305526E+03  0.43602716931E+03  0.12699999809E+01 0. -1.
       -4    1    3    3    0  502 -0.28376992998E+03  0.48024542054E+01 -0.22814355182E+03  0.36414218358E+03  0.12699999809E+01 0.  1.
</event>
<event>
 5   0  0.4377843E-02  0.7428812E+03  0.7818609E-02  0.9646585E-01
        2   -1    0    0  501    0  0.00000000000E+00  0.00000000000E+00  0.80963619034E+03  0.80963619035E+03  0.25500000920E-02 0. -1.
       -2   -1    0    0    0  501  0.00000000000E+00  0.00000000000E+00 -0.17040753280E+03  0.17040753282E+03  0.25500000920E-02 0.  1.
    10030    2    1    2    0    0  0.00000000000E+00  0.00000000000E+00  0.63922865754E+03  0.98004372317E+03  0.74288116324E+03 0.  0.
        2    1    3    3  502    0  0.19182317342E+03  0.31709295377E+03  0.28665863973E+03  0.46852667686E+03  0.25500000920E-02 0. -1.
       -2    1    3    3    0  502 -0.19182317342E+03 -0.31709295377E+03  0.35257001782E+03  0.51151704631E+03  0.25500000920E-02 0.  1.
</event>
<event>
 5   0  0.2689372E-02  0.7989032E+03  0.7818609E-02  0.9561606E-01
       -1   -1    0    0    0  501  0.00000000000E+00  0.00000000000E+00  0.13033781606E+04  0.13033781606E+04  0.50400001928E-02 0.  1.
        1   -1    0    0  501    0  0.00000000000E+00  0.00000000000E+00 -0.12242155336E+03  0.12242155346E+03  0.50400001928E-02 0. -1.
    10030    2    1    2    0    0  0.00000000000E+00  0.00000000000E+00  0.11809566072E+04  0.14257997140E+04  0.79890319591E+03 0.  0.
        4    1    3    3  502    0 -0.73453284553E+01 -0.30414978615E+03  0.10524318076E+04  0.10955251566E+04  0.12699999809E+01 0.  1.
       -4    1    3    3    0  502  0.73453284553E+01  0.30414978615E+03  0.12852479964E+03  0.33027455744E+03  0.12699999809E+01 0. -1.
</event>
<event>
 5   0  0.1786500E-02  0.9396027E+03  0.7818609E-02  0.9377387E-01
        3   -1    0    0  501    0  0.00000000000E+00  0.00000000000E+00  0.37761340490E+03  0.37761341841E+03  0.10100000352E+00 0.  1.
       -3   -1    0    0    0  501  0.00000000000E+00  0.00000000000E+00 -0.58449540225E+03  0.58449541098E+03  0.10100000352E+00 0. -1.
    10030    2    1    2    0    0  0.00000000000E+00  0.00000000000E+00 -0.20688199735E+03  0.96210882939E+03  0.93960270261E+03 0.  0.
        1    1    3    3  502    0  0.42895972629E+03 -0.13672693806E+03  0.33984788514E+02  0.45150378542E+03  0.50400001928E-02 0.  1.
       -1    1    3    3    0  502 -0.42895972629E+03  0.13672693806E+03 -0.24086678586E+03  0.51060504397E+03  0.50400001928E-02 0. -1.
</event>
<event>
 5   0  0.4663634E-02  0.4279410E+03  0.7818609E-02  0.1034512E+00
        2   -1    0    0  501    0  0.00000000000E+00  0.00000000000E+00  0.76432299769E+03  0.76432299770E+03  0.25500000920E-02 0.  1.
       -2   -1    0    0    0  501  0.00000000000E+00  0.00000000000E+00 -0.59900559920E+02  0.59900559974E+02  0.25500000920E-02 0. -1.
    10030    2    1    2    0    0  0.00000000000E+00  0.00000000000E+00  0.70442243777E+03  0.82422355767E+03  0.42794100316E+03 0.  0.
        5    1    3    3  502    0  0.56311232692E+02  0.18597936596E+03  0.52450141315E+03  0.55935954616E+03  0.46999998093E+01 0.  1.
       -5    1    3    3    0  502 -0.56311232692E+02 -0.18597936596E+03  0.17992102463E+03  0.26486401151E+03  0.46999998093E+01 0. -1.
</event>
<event>
 5   0  0.2635243E-02  0.7502077E+03  0.7818609E-02  0.9635025E-01
        1   -1    0    0  501    0  0.00000000000E+00  0.00000000000E+00  0.22419659631E+04  0.22419659631E+04  0.50400001928E-02 0.  1.
       -1   -1    0    0    0  501  0.00000000000E+00  0.00000000000E+00 -0.62758713701E+02  0.62758713904E+02  0.50400001928E-02 0. -1.
    10030    2    1    2    0    0  0.00000000000E+00  0.00000000000E+00  0.21792072494E+04  0.23047246770E+04  0.75020770522E+03 0.  0.
        1    1    3    3  502    0  0.10629156056E+03  0.23950679872E+03  0.19141762222E+04  0.19320279533E+04  0.50400001928E-02 0.  1.
       -1    1    3    3    0  502 -0.10629156056E+03 -0.23950679872E+03  0.26503102712E+03  0.37269672368E+03  0.50400001928E-02 0. -1.
</event>
<event>
 5   0  0.4700220E-02  0.8061401E+03  0.7818609E-02  0.9551172E-01
       -2   -1    0    0    0  501  0.00000000000E+00  0.00000000000E+00  0.83792865172E+02  0.83792865211E+02  0.25500000920E-02 0.  1.
        2   -1    0    0  501    0  0.00000000000E+00  0.00000000000E+00 -0.19388938051E+04  0.19388938051E+04  0.25500000920E-02 0. -1.
    10030    2    1    2    0    0  0.00000000000E+00  0.00000000000E+00 -0.18551009399E+04  0.20226866703E+04  0.80614010502E+03 0.  0.
        4    1    3    3  502    0  0.79555289885E+02  0.32284000861E+03 -0.35588758375E+03  0.48704445432E+03  0.12699999809E+01 0.  1.
       -4    1    3    3    0  502 -0.79555289885E+02 -0.32284000861E+03 -0.14992133561E+04  0.15356422160E+04  0.12699999809E+01 0. -1.
</event>
<event>
 5   0  0.2769394E-02  0.7952984E+03  0.7818609E-02  0.9566847E-01
       -1   -1    0    0    0  501  0.00000000000E+00  0.00000000000E+00  0.15639240989E+03  0.15639240997E+03  0.50400001928E-02 0. -1.
        1   -1    0    0  501    0  0.00000000000E+00  0.00000000000E+00 -0.10110777897E+04  0.10110777897E+04  0.50400001928E-02 0.  1.
    10030    2    1    2    0    0  0.00000000000E+00  0.00000000000E+00 -0.85468537983E+03  0.11674701997E+04  0.79529841488E+03 0.  0.
        2    1    3    3  502    0 -0.24771681421E+03  0.50967773652E+02 -0.87780360774E+03  0.91350999325E+03  0.25500000920E-02 0.  1.
       -2    1    3    3    0  502  0.24771681421E+03 -0.50967773652E+02  0.23118227918E+02  0.25396020645E+03  0.25500000920E-02 0. -1.
</event>
<event>
 5   0  0.2769394E-02  0.7918693E+03  0.7818609E-02  0.9571861E-01
        1   -1    0    0  501    0  0.00000000000E+00  0.00000000000E+00  0.63961713572E+03  0.63961713574E+03  0.50400001928E-02 0. -1.
       -1   -1    0    0    0  501  0.00000000000E+00  0.00000000000E+00 -0.24509077252E+03  0.24509077258E+03  0.50400001928E-02 0.  1.
    10030    2    1    2    0    0  0.00000000000E+00  0.00000000000E+00  0.39452636319E+03  0.88470790831E+03  0.79186932746E+03 0.  0.
        2    1    3    3  502    0 -0.35511772366E+02  0.18185608558E+03 -0.19366145169E+03  0.26802514755E+03  0.25500000920E-02 0.  1.
       -2    1    3    3    0  502  0.35511772366E+02 -0.18185608558E+03  0.58818781489E+03  0.61668276077E+03  0.25500000920E-02 0. -1.
</event>
<event>
 5   0  0.4377843E-02  0.7592393E+03  0.7818609E-02  0.9620966E-01
       -2   -1    0    0    0  501  0.00000000000E+00  0.00000000000E+00  0.17469474845E+03  0.17469474847E+03  0.25500000920E-02 0. -1.
        2   -1    0    0  501    0  0.00000000000E+00  0.00000000000E+00 -0.82493083302E+03  0.82493083303E+03  0.25500000920E-02 0.  1.
    10030    2    1    2    0    0  0.00000000000E+00  0.00000000000E+00 -0.65023608458E+03  0.99962558149E+03  0.75923931503E+03 0.  0.
        2    1    3    3  502    0 -0.33042497570E+03 -0.97032894093E+02 -0.11480956621E+03  0.36301140974E+03  0.25500000920E-02 0. -1.
       -2    1    3    3    0  502  0.33042497570E+03  0.97032894093E+02 -0.53542651837E+03  0.63661417176E+03  0.25500000920E-02 0.  1.
</event>
<event>
 5   0  0.2606520E-02  0.8312574E+03  0.7818609E-02  0.9515844E-01
        1   -1    0    0  501    0  0.00000000000E+00  0.00000000000E+00  0.73126279112E+03  0.73126279113E+03  0.50400001928E-02 0. -1.
       -1   -1    0    0    0  501  0.00000000000E+00  0.00000000000E+00 -0.23623139697E+03  0.23623139702E+03  0.50400001928E-02 0.  1.
    10030    2    1    2    0    0  0.00000000000E+00  0.00000000000E+00  0.49503139414E+03  0.96749418816E+03  0.83125743481E+03 0.  0.
        5    1    3    3  502    0  0.98563553432E+02 -0.29761151653E+03  0.56506374432E+03  0.64622481690E+03  0.46999998093E+01 0. -1.
       -5    1    3    3    0  502 -0.98563553432E+02  0.29761151653E+03 -0.70032350179E+02  0.32126937125E+03  0.46999998093E+01 0.  1.
</event>
<event>
 5   0  0.2689372E-02  0.8155267E+03  0.7818609E-02  0.9537811E-01
       -1   -1    0    0    0  501  0.00000000000E+00  0.00000000000E+00  0.51891733754E+03  0.51891733757E+03  0.50400001928E-02 0. -1.
        1   -1    0    0  501    0  0.00000000000E+00  0.00000000000E+00 -0.32041892360E+03  0.32041892364E+03  0.50400001928E-02 0.  1.
    10030    2    1    2    0    0  0.00000000000E+00  0.00000000000E+00  0.19849841394E+03  0.83933626121E+03  0.81552666360E+03 0.  0.
        4    1    3    3  502    0 -0.15060863436E+03  0.18571688741E+03 -0.24069014052E+03  0.33927434276E+03  0.12699999809E+01 0.  1.
       -4    1    3    3    0  502  0.15060863436E+03 -0.18571688741E+03  0.43918855447E+03  0.50006191845E+03  0.12699999809E+01 0. -1.
</event>
<event>
 5   0  0.2606520E-02  0.7949281E+03  0.7818609E-02  0.9567388E-01
        1   -1    0    0  501    0  0.00000000000E+00  0.00000000000E+00  0.15089048403E+04  0.15089048403E+04  0.50400001928E-02 0. -1.
       -1   -1    0    0    0  501  0.00000000000E+00  0.00000000000E+00 -0.10469691808E+03  0.10469691820E+03  0.50400001928E-02 0.  1.
    10030    2    1    2    0    0  0.00000000000E+00  0.00000000000E+00  0.14042079223E+04  0.16136017585E+04  0.79492813904E+03 0.  0.
        5    1    3    3  502    0 -0.12151788946E+02  0.29045132555E+03  0.12522176326E+04  0.12855274123E+04  0.46999998093E+01 0. -1.
       -5    1    3    3    0  502  0.12151788946E+02 -0.29045132555E+03  0.15199028966E+03  0.32807434620E+03  0.46999998093E+01 0.  1.
</event>
<event>
 5   0  0.4377843E-02  0.7866771E+03  0.7818609E-02  0.9579504E-01
        2   -1    0    0  501    0  0.00000000000E+00  0.00000000000E+00  0.10215048714E+04  0.10215048714E+04  0.25500000920E-02 0.  1.
       -2   -1    0    0    0  501  0.00000000000E+00  0.00000000000E+00 -0.15145813165E+03  0.15145813167E+03  0.25500000920E-02 0. -1.
    10030    2    1    2    0    0  0.00000000000E+00  0.00000000000E+00  0.87004673979E+03  0.11729630031E+04  0.78667711119E+03 0.  0.
        2    1    3    3  502    0 -0.31388861201E+02  0.62846971661E+02  0.10120754718E+04  0.10145106028E+04  0.25500000920E-02 0.  1.
       -2    1    3    3    0  502  0.31388861201E+02 -0.62846971661E+02 -0.14202873202E+03  0.15845240036E+03  0.25500000920E-02 0. -1.
</event>
<event>
 5   0  0.4377843E-02  0.7958875E+03  0.7818609E-02  0.9565989E-01
       -2   -1    0    0    0  501  0.00000000000E+00  0.00000000000E+00  0.73727260443E+02  0.73727260487E+02  0.25500000920E-02 0. -1.
        2   -1    0    0  501    0  0.00000000000E+00  0.00000000000E+00 -0.21479058235E+04  0.21479058235E+04  0.25500000920E-02 0.  1.
    10030    2    1    2    0    0  0.00000000000E+00  0.00000000000E+00 -0.20741785630E+04  0.22216330840E+04  0.79588745965E+03 0.  0.
        2    1    3    3  502    0  0.14341331333E+03 -0.32976103735E+03 -0.15128514914E+04  0.15550014003E+04  0.25500000920E-02 0.  1.
       -2    1    3    3    0  502 -0.14341331333E+03  0.32976103735E+03 -0.56132707168E+03  0.66663168362E+03  0.25500000920E-02 0. -1.
</event>
<event>
 5   0  0.2635243E-02  0.5054551E+03  0.7818609E-02  0.1012365E+00
       -1   -1    0    0    0  501  0.00000000000E+00  0.00000000000E+00  0.16591666046E+03  0.16591666054E+03  0.50400001928E-02 0.  1.
        1   -1    0    0  501    0  0.00000000000E+00  0.00000000000E+00 -0.38495960868E+03  0.38495960872E+03  0.50400001928E-02 0. -1.
    10030    2    1    2    0    0  0.00000000000E+00  0.00000000000E+00 -0.21904294822E+03  0.55087626925E+03  0.50545509282E+03 0.  0.
        1    1    3    3  502    0 -0.81357560599E+02  0.71630133308E+02  0.13929494784E+03  0.17650215631E+03  0.50400001928E-02 0.  1.
       -1    1    3    3    0  502  0.81357560599E+02 -0.71630133308E+02 -0.35833789606E+03  0.37437411294E+03  0.50400001928E-02 0. -1.
</event>
<event>
 5   0  0.4590462E-02  0.7987295E+03  0.7818609E-02  0.9561858E-01
        2   -1    0    0  501    0  0.00000000000E+00  0.00000000000E+00  0.12350368322E+04  0.12350368322E+04  0.25500000920E-02 0.  1.
       -2   -1    0    0    0  501  0.00000000000E+00  0.00000000000E+00 -0.12913962178E+03  0.12913962180E+03  0.25500000920E-02 0. -1.
    10030    2    1    2    0    0  0.00000000000E+00  0.00000000000E+00  0.11058972104E+04  0.13641764540E+04  0.79872946462E+03 0.  0.
        3    1    3    3  502    0 -0.17327275554E+03 -0.31212295332E+03  0.85870198401E+03  0.92995338235E+03  0.10100000352E+00 0.  1.
       -3    1    3    3    0  502  0.17327275554E+03  0.31212295332E+03  0.24719522643E+03  0.43422307167E+03  0.10100000352E+00 0. -1.
</event>
<event>
 5   0  0.4590462E-02  0.8188336E+03  0.7818609E-02  0.9533149E-01
       -2   -1    0    0    0  501  0.00000000000E+00  0.00000000000E+00  0.56126180309E+03  0.56126180309E+03  0.25500000920E-02 0.  1.
        2   -1    0    0  501    0  0.00000000000E+00  0.00000000000E+00 -0.29865227545E+03  0.29865227546E+03  0.25500000920E-02 0. -1.
    10030    2    1    2    0    0  0.00000000000E+00  0.00000000000E+00  0.26260952764E+03  0.85991407855E+03  0.81883359633E+03 0.  0.
        3    1    3    3  502    0  0.59920285468E+02  0.77832841596E+01 -0.29394398092E+03  0.30009014353E+03  0.10100000352E+00 0. -1.
       -3    1    3    3    0  502 -0.59920285468E+02 -0.77832841596E+01  0.55655350857E+03  0.55982393502E+03  0.10100000352E+00 0.  1.
</event>
<event>
 5   0  0.4700220E-02  0.7570648E+03  0.7818609E-02  0.9624331E-01
       -2   -1    0    0    0  501  0.00000000000E+00  0.00000000000E+00  0.64977066110E+02  0.64977066160E+02  0.25500000920E-02 0. -1.
        2   -1    0    0  501    0  0.00000000000E+00  0.00000000000E+00 -0.22051902895E+04  0.22051902895E+04  0.25500000920E-02 0.  1.
    10030    2    1    2    0    0  0.00000000000E+00  0.00000000000E+00 -0.21402132234E+04  0.22701673557E+04  0.75706484606E+03 0.  0.
        4    1    3    3  502    0  0.20057003328E+03 -0.11181260642E+03 -0.16774523888E+03  0.28437734662E+03  0.12699999809E+01 0. -1.
       -4    1    3    3    0  502 -0.20057003328E+03  0.11181260642E+03 -0.19724679845E+04  0.19857900090E+04  0.12699999809E+01 0.  1.
</event>
<event>
 5   0  0.2689372E-02  0.7847578E+03  0.7818609E-02  0.9582345E-01
        1   -1    0    0  501    0  0.00000000000E+00  0.00000000000E+00  0.80423329631E+03  0.80423329632E+03  0.50400001928E-02 0. -1.
       -1   -1    0    0    0  501  0.00000000000E+00  0.00000000000E+00 -0.19143848233E+03  0.19143848239E+03  0.50400001928E-02 0.  1.
    10030    2    1    2    0    0  0.00000000000E+00  0.00000000000E+00  0.61279481398E+03  0.99567177872E+03  0.78475780142E+03 0.  0.
        4    1    3    3  502    0 -0.23210732225E+02 -0.13495177827E+03  0.77293124051E+03  0.78496817516E+03  0.12699999809E+01 0. -1.
       -4    1    3    3    0  502  0.23210732225E+02  0.13495177827E+03 -0.16013642653E+03  0.21070360356E+03  0.12699999809E+01 0.  1.
</event>
<event>
 5   0  0.2689372E-02  0.8101204E+03  0.7818609E-02  0.9545483E-01
        1   -1    0    0  501    0  0.00000000000E+00  0.00000000000E+00  0.62920012487E+03  0.62920012489E+03  0.50400001928E-02 0.  1.
       -1   -1    0    0    0  501  0.00000000000E+00  0.00000000000E+00 -0.26076559692E+03  0.26076559697E+03  0.50400001928E-02 0. -1.
    10030    2    1    2    0    0  0.00000000000E+00  0.00000000000E+00  0.36843452795E+03  0.88996572187E+03  0.81012035199E+03 0.  0.
        4    1    3    3  502    0  0.22209055177E+03  0.32671701542E+03  0.85935059879E+02  0.40429527423E+03  0.12699999809E+01 0.  1.
       -4    1    3    3    0  502 -0.22209055177E+03 -0.32671701542E+03  0.28249946807E+03  0.48567044764E+03  0.12699999809E+01 0. -1.
</event>
<event>
 5   0  0.4663634E-02  0.8087051E+03  0.7818609E-02  0.9547502E-01
        2   -1    0    0  501    0  0.00000000000E+00  0.00000000000E+00  0.51726804014E+03  0.51726804014E+03  0.25500000920E-02 0. -1.
       -2   -1    0    0    0  501  0.00000000000E+00  0.00000000000E+00 -0.31608560771E+03  0.31608560772E+03  0.25500000920E-02 0.  1.
    10030    2    1    2    0    0  0.00000000000E+00  0.00000000000E+00  0.20118243243E+03  0.83335364786E+03  0.80870509537E+03 0.  0.
        5    1    3    3  502    0  0.47417718868E+01 -0.69545054263E+02  0.51100126781E+03  0.51575515962E+03  0.46999998093E+01 0. -1.
       -5    1    3    3    0  502 -0.47417718868E+01  0.69545054263E+02 -0.30981883538E+03  0.31759848824E+03  0.46999998093E+01 0.  1.
</event>
<event>
 5   0  0.2689372E-02  0.8059276E+03  0.7818609E-02  0.9551477E-01
        1   -1    0    0  501    0  0.00000000000E+00  0.00000000000E+00  0.10917991481E+04  0.10917991481E+04  0.50400001928E-02 0. -1.
       -1   -1    0    0    0  501  0.00000000000E+00  0.00000000000E+00 -0.14872683692E+03  0.14872683700E+03  0.50400001928E-02 0.  1.
    10030    2    1    2    0    0  0.00000000000E+00  0.00000000000E+00  0.94307231122E+03  0.12405259852E+04  0.80592762433E+03 0.  0.
        4    1    3    3  502    0 -0.10395755150E+03  0.37054257994E+03  0.65540592034E+03  0.76004441277E+03  0.12699999809E+01 0. -1.
       -4    1    3    3    0  502  0.10395755150E+03 -0.37054257994E+03  0.28766639087E+03  0.48048157238E+03  0.12699999809E+01 0.  1.
</event>
<event>
 5   0  0.4590462E-02  0.7953884E+03  0.7818609E-02  0.9566716E-01
        2   -1    0    0  501    0  0.00000000000E+00  0.00000000000E+00  0.10549728495E+04  0.10549728495E+04  0.25500000920E-02 0. -1.
       -2   -1    0    0    0  501  0.00000000000E+00  0.00000000000E+00 -0.14991918578E+03  0.14991918580E+03  0.25500000920E-02 0.  1.
    10030    2    1    2    0    0  0.00000000000E+00  0.00000000000E+00  0.90505366377E+03  0.12048920353E+04  0.79538838472E+03 0.  0.
        3    1    3    3  502    0  0.37718094684E+03  0.22901566378E+02  0.26471805594E+03  0.46137360972E+03  0.10100000352E+00 0.  1.
       -3    1    3    3    0  502 -0.37718094684E+03 -0.22901566378E+02  0.64033560782E+03  0.74351842563E+03  0.10100000352E+00 0. -1.
</event>
<event>
 5   0  0.4663634E-02  0.7878671E+03  0.7818609E-02  0.9577747E-01
       -2   -1    0    0    0  501  0.00000000000E+00  0.00000000000E+00  0.82210483307E+03  0.82210483307E+03  0.25500000920E-02 0.  1.
        2   -1    0    0  501    0  0.00000000000E+00  0.00000000000E+00 -0.18876379756E+03  0.18876379758E+03  0.25500000920E-02 0. -1.
    10030    2    1    2    0    0  0.00000000000E+00  0.00000000000E+00  0.63334103551E+03  0.10108686307E+04  0.78786707075E+03 0.  0.
        5    1    3    3  502    0  0.13351551525E+03 -0.33953673487E+03  0.50719272575E+03  0.62480247934E+03  0.46999998093E+01 0.  1.
       -5    1    3    3    0  502 -0.13351551525E+03  0.33953673487E+03  0.12614830976E+03  0.38606615131E+03  0.46999998093E+01 0. -1.
</event>
<event>
 5   0  0.2689372E-02  0.7852014E+03  0.7818609E-02  0.9581688E-01
       -1   -1    0    0    0  501  0.00000000000E+00  0.00000000000E+00  0.17604118542E+03  0.17604118549E+03  0.50400001928E-02 0.  1.
        1   -1    0    0  501    0  0.00000000000E+00  0.00000000000E+00 -0.87556387511E+03  0.87556387512E+03  0.50400001928E-02 0. -1.
    10030    2    1    2    0    0  0.00000000000E+00  0.00000000000E+00 -0.69952268969E+03  0.10516050606E+04  0.78520138188E+03 0.  0.
        4    1    3    3  502    0 -0.62474233690E+02 -0.84454364048E+02  0.15686594120E+03  0.18879646683E+03  0.12699999809E+01 0.  1.
       -4    1    3    3    0  502  0.62474233690E+02  0.84454364048E+02 -0.85638863089E+03  0.86280859378E+03  0.12699999809E+01 0. -1.
</event>
<event>
 5   0  0.2759559E-02  0.7851915E+03  0.7818609E-02  0.9581703E-01
        1   -1    0    0  501    0  0.00000000000E+00  0.00000000000E+00  0.21141414322E+03  0.21141414328E+03  0.50400001928E-02 0.  1.
       -1   -1    0    0    0  501  0.00000000000E+00  0.00000000000E+00 -0.72904971912E+03  0.72904971914E+03  0.50400001928E-02 0. -1.
    10030    2    1    2    0    0  0.00000000000E+00  0.00000000000E+00 -0.51763557590E+03  0.94046386242E+03  0.78519149708E+03 0.  0.
        3    1    3    3  502    0 -0.23844886540E+03  0.99086085535E+01 -0.63219226301E+03  0.67573893594E+03  0.10100000352E+00 0. -1.
       -3    1    3    3    0  502  0.23844886540E+03 -0.99086085535E+01  0.11455668712E+03  0.26472492648E+03  0.10100000352E+00 0.  1.
</event>
<event>
 5   0  0.2689372E-02  0.8295691E+03  0.7818609E-02  0.9518176E-01
       -1   -1    0    0    0  501  0.00000000000E+00  0.00000000000E+00  0.15479027113E+03  0.15479027121E+03  0.50400001928E-02 0.  1.
        1   -1    0    0  501    0  0.00000000000E+00  0.00000000000E+00 -0.11114796263E+04  0.11114796263E+04  0.50400001928E-02 0. -1.
    10030    2    1    2    0    0  0.00000000000E+00  0.00000000000E+00 -0.95668935512E+03  0.12662698975E+04  0.82956912374E+03 0.  0.
        4    1    3    3  502    0 -0.11330948022E+02 -0.66684802977E+02  0.14631200740E+03  0.16119574976E+03  0.12699999809E+01 0.  1.
       -4    1    3    3    0  502  0.11330948022E+02  0.66684802977E+02 -0.11030013625E+04  0.11050741477E+04  0.12699999809E+01 0. -1.
</event>
<event>
 5   0  0.4663634E-02  0.8100024E+03  0.7818609E-02  0.9545651E-01
       -2   -1    0    0    0  501  0.00000000000E+00  0.00000000000E+00  0.19268313864E+03  0.19268313866E+03  0.25500000920E-02 0. -1.
        2   -1    0    0  501    0  0.00000000000E+00  0.00000000000E+00 -0.85127313533E+03  0.85127313533E+03  0.25500000920E-02 0.  1.
    10030    2    1    2    0    0  0.00000000000E+00  0.00000000000E+00 -0.65858999668E+03  0.10439562740E+04  0.81000241868E+03 0.  0.
        5    1    3    3  502    0  0.87490782185E+02  0.25303575780E+03  0.62310667265E+02  0.27492988369E+03  0.46999998093E+01 0. -1.
       -5    1    3    3    0  502 -0.87490782185E+02 -0.25303575780E+03 -0.72090066395E+03  0.76902639030E+03  0.46999998093E+01 0.  1.
</event>
<event>
 5   0  0.2689372E-02  0.8026342E+03  0.7818609E-02  0.9556212E-01
        1   -1    0    0  501    0  0.00000000000E+00  0.00000000000E+00  0.52855429764E+03  0.52855429767E+03  0.50400001928E-02 0.  1.
       -1   -1    0    0    0  501  0.00000000000E+00  0.00000000000E+00 -0.30470929313E+03  0.30470929317E+03  0.50400001928E-02 0. -1.
    10030    2    1    2    0    0  0.00000000000E+00  0.00000000000E+00  0.22384500452E+03  0.83326359084E+03  0.80263417929E+03 0.  0.
        4    1    3    3  502    0  0.17065342648E+03 -0.34573189676E+03 -0.36852896078E+01  0.38557532424E+03  0.12699999809E+01 0. -1.
       -4    1    3    3    0  502 -0.17065342648E+03  0.34573189676E+03  0.22753029412E+03  0.44768826660E+03  0.12699999809E+01 0.  1.
</event>
<event>
 5   0  0.1786500E-02  0.7959078E+03  0.7818609E-02  0.9565959E-01
       -3   -1    0    0    0  501  0.00000000000E+00  0.00000000000E+00  0.82302783744E+03  0.82302784364E+03  0.10100000352E+00 0. -1.
        3   -1    0    0  501    0  0.00000000000E+00  0.00000000000E+00 -0.19242035169E+03  0.19242037820E+03  0.10100000352E+00 0.  1.
    10030    2    1    2    0    0  0.00000000000E+00  0.00000000000E+00  0.63060748575E+03  0.10154482218E+04  0.79590784023E+03 0.  0.
        4    1    3    3  502    0  0.30066021850E+03 -0.66092925517E+02 -0.64521587672E+01  0.30790921559E+03  0.12699999809E+01 0.  1.
       -4    1    3    3    0  502 -0.30066021850E+03  0.66092925517E+02  0.63705964452E+03  0.70753900625E+03  0.12699999809E+01 0. -1.
</event>
<event>
 5   0  0.2769394E-02  0.8035333E+03  0.7818609E-02  0.9554917E-01
        1   -1    0    0  501    0  0.00000000000E+00  0.00000000000E+00  0.20239789248E+04  0.20239789248E+04  0.50400001928E-02 0.  1.
       -1   -1    0    0    0  501  0.00000000000E+00  0.00000000000E+00 -0.79752029246E+02  0.79752029406E+02  0.50400001928E-02 0. -1.
    10030    2    1    2    0    0  0.00000000000E+00  0.00000000000E+00  0.19442268955E+04  0.21037309542E+04  0.80353326397E+03 0.  0.
        2    1    3    3  502    0 -0.36829391422E+03 -0.43235822151E+02  0.56730832613E+03  0.67775252155E+03  0.25500000920E-02 0. -1.
       -2    1    3    3    0  502  0.36829391422E+03  0.43235822151E+02  0.13769185694E+04  0.14259784327E+04  0.25500000920E-02 0.  1.
</event>
<event>
 5   0  0.2606520E-02  0.8293100E+03  0.7818609E-02  0.9518535E-01
        1   -1    0    0  501    0  0.00000000000E+00  0.00000000000E+00  0.37707769713E+03  0.37707769716E+03  0.50400001928E-02 0. -1.
       -1   -1    0    0    0  501  0.00000000000E+00  0.00000000000E+00 -0.45597707274E+03  0.45597707276E+03  0.50400001928E-02 0.  1.
    10030    2    1    2    0    0  0.00000000000E+00  0.00000000000E+00 -0.78899375609E+02  0.83305476993E+03  0.82931003746E+03 0.  0.
        5    1    3    3  502    0 -0.10885516892E+03  0.28584793315E+03 -0.32063904269E+03  0.44315908474E+03  0.46999998093E+01 0.  1.
       -5    1    3    3    0  502  0.10885516892E+03 -0.28584793315E+03  0.24173966708E+03  0.38989568519E+03  0.46999998093E+01 0. -1.
</event>
<event>
 5   0  0.4377843E-02  0.8086353E+03  0.7818609E-02  0.9547601E-01
        2   -1    0    0  501    0  0.00000000000E+00  0.00000000000E+00  0.24767591758E+03  0.24767591759E+03  0.25500000920E-02 0.  1.
       -2   -1    0    0    0  501  0.00000000000E+00  0.00000000000E+00 -0.66002692373E+03  0.66002692373E+03  0.25500000920E-02 0. -1.
    10030    2    1    2    0    0  0.00000000000E+00  0.00000000000E+00 -0.41235100615E+03  0.90770284133E+03  0.80863532936E+03 0.  0.
        2    1    3    3  502    0 -0.19020817074E+03  0.75283923830E+01  0.19422775857E+03  0.27195633310E+03  0.25500000920E-02 0.  1.
       -2    1    3    3    0  502  0.19020817074E+03 -0.75283923830E+01 -0.60657876472E+03  0.63574650823E+03  0.25500000920E-02 0. -1.
</event>
<event>
 5   0  0.4700220E-02  0.8646015E+03  0.7818609E-02  0.9470946E-01
        2   -1    0    0  501    0  0.00000000000E+00  0.00000000000E+00  0.10236937877E+04  0.10236937877E+04  0.25500000920E-02 0. -1.
       -2   -1    0    0    0  501  0.00000000000E+00  0.00000000000E+00 -0.18255843696E+03  0.18255843698E+03  0.25500000920E-02 0.  1.
    10030    2    1    2    0    0  0.00000000000E+00  0.00000000000E+00  0.84113535076E+03  0.12062522247E+04  0.86460149855E+03 0.  0.
        4    1    3    3  502    0 -0.42996223739E+03  0.42782880450E+02  0.40162106896E+03  0.58991439749E+03  0.12699999809E+01 0. -1.
       -4    1    3    3    0  502  0.42996223739E+03 -0.42782880450E+02  0.43951428180E+03  0.61633782720E+03  0.12699999809E+01 0.  1.
</event>
<event>
 5   0  0.4590462E-02  0.7996548E+03  0.7818609E-02  0.9560517E-01
        2   -1    0    0  501    0  0.00000000000E+00  0.00000000000E+00  0.70183862264E+03  0.70183862264E+03  0.25500000920E-02 0.  1.
       -2   -1    0    0    0  501  0.00000000000E+00  0.00000000000E+00 -0.22777593922E+03  0.22777593923E+03  0.25500000920E-02 0. -1.
    10030    2    1    2    0    0  0.00000000000E+00  0.00000000000E+00  0.47406268342E+03  0.92961456187E+03  0.79965480417E+03 0.  0.
        3    1    3    3  502    0  0.29195816759E+03  0.15451932806E+03  0.49891108314E+03  0.59835447140E+03  0.10100000352E+00 0.  1.
       -3    1    3    3    0  502 -0.29195816759E+03 -0.15451932806E+03 -0.24848399720E+02  0.33126009047E+03  0.10100000352E+00 0. -1.
</event>
<event>
 5   0  0.2689372E-02  0.7922684E+03  0.7818609E-02  0.9571276E-01
        1   -1    0    0  501    0  0.00000000000E+00  0.00000000000E+00  0.13932242824E+04  0.13932242824E+04  0.50400001928E-02 0.  1.
       -1   -1    0    0    0  501  0.00000000000E+00  0.00000000000E+00 -0.11263249262E+03  0.11263249273E+03  0.50400001928E-02 0. -1.
    10030    2    1    2    0    0  0.00000000000E+00  0.00000000000E+00  0.12805917898E+04  0.15058567752E+04  0.79226844895E+03 0.  0.
        4    1    3    3  502    0  0.29421398681E+03  0.26522443475E+03  0.63297390018E+03  0.74670170888E+03  0.12699999809E+01 0. -1.
       -4    1    3    3    0  502 -0.29421398681E+03 -0.26522443475E+03  0.64761788963E+03  0.75915506630E+03  0.12699999809E+01 0.  1.
</event>
<event>
 5   0  0.2759559E-02  0.7497951E+03  0.7818609E-02  0.9635672E-01
        1   -1    0    0  501    0  0.00000000000E+00  0.00000000000E+00  0.51077919402E+03  0.51077919404E+03  0.50400001928E-02 0.  1.
       -1   -1    0    0    0  501  0.00000000000E+00  0.00000000000E+00 -0.27516422640E+03  0.27516422645E+03  0.50400001928E-02 0. -1.
    10030    2    1    2    0    0  0.00000000000E+00  0.00000000000E+00  0.23561496762E+03  0.78594342049E+03  0.74979507016E+03 0.  0.
        3    1    3    3  502    0  0.36674482177E+03  0.63279060161E+01  0.36570491466E+02  0.36861798347E+03  0.10100000352E+00 0.  1.
       -3    1    3    3    0  502 -0.36674482177E+03 -0.63279060161E+01  0.19904447615E+03  0.41732543702E+03  0.10100000352E+00 0. -1.
</event>
<event>
 5   0  0.2606520E-02  0.7974596E+03  0.7818609E-02  0.9563702E-01
        1   -1    0    0  501    0  0.00000000000E+00  0.00000000000E+00  0.11101223031E+04  0.11101223031E+04  0.50400001928E-02 0.  1.
       -1   -1    0    0    0  501  0.00000000000E+00  0.00000000000E+00 -0.14321434134E+03  0.14321434143E+03  0.50400001928E-02 0. -1.
    10030    2    1    2    0    0  0.00000000000E+00  0.00000000000E+00  0.96690796171E+03  0.12533366445E+04  0.79745955260E+03 0.  0.
        5    1    3    3  502    0  0.19801618015E+03 -0.10445939504E+03 -0.35054276517E+02  0.22665627085E+03  0.46999998093E+01 0. -1.
       -5    1    3    3    0  502 -0.19801618015E+03  0.10445939504E+03  0.10019622382E+04  0.10266803736E+04  0.46999998093E+01 0.  1.
</event>
<event>
 5   0  0.2606520E-02  0.8004760E+03  0.7818609E-02  0.9559328E-01
        1   -1    0    0  501    0  0.00000000000E+00  0.00000000000E+00  0.90834202943E+03  0.90834202945E+03  0.50400001928E-02 0.  1.
       -1   -1    0    0    0  501  0.00000000000E+00  0.00000000000E+00 -0.17635479895E+03  0.17635479902E+03  0.50400001928E-02 0. -1.
    10030    2    1    2    0    0  0.00000000000E+00  0.00000000000E+00  0.73198723048E+03  0.10846968285E+04  0.80047604843E+03 0.  0.
        5    1    3    3  502    0 -0.35010731570E+03 -0.18005268850E+03  0.46346679036E+03  0.60812635110E+03  0.46999998093E+01 0.  1.
       -5    1    3    3    0  502  0.35010731570E+03  0.18005268850E+03  0.26852044012E+03  0.47657047737E+03  0.46999998093E+01 0. -1.
</event>
<event>
 5   0  0.4377843E-02  0.7610441E+03  0.7818609E-02  0.9618182E-01
       -2   -1    0    0    0  501  0.00000000000E+00  0.00000000000E+00  0.24881954354E+03  0.24881954355E+03  0.25500000920E-02 0.  1.
        2   -1    0    0  501    0  0.00000000000E+00  0.00000000000E+00 -0.58193585499E+03  0.58193585500E+03  0.25500000920E-02 0. -1.
    10030    2    1    2    0    0  0.00000000000E+00  0.00000000000E+00 -0.33311631146E+03  0.83075539855E+03  0.76104405606E+03 0.  0.
        2    1    3    3  502    0  0.12733148900E+03  0.13499977615E+03 -0.52919071245E+03  0.56078610699E+03  0.25500000920E-02 0. -1.
       -2    1    3    3    0  502 -0.12733148900E+03 -0.13499977615E+03  0.19607440099E+03  0.26996929155E+03  0.25500000920E-02 0.  1.
</event>
<event>
 5   0  0.4377843E-02  0.7908184E+03  0.7818609E-02  0.9573403E-01
       -2   -1    0    0    0  501  0.00000000000E+00  0.00000000000E+00  0.34282651210E+03  0.34282651211E+03  0.25500000920E-02 0. -1.
        2   -1    0    0  501    0  0.00000000000E+00  0.00000000000E+00 -0.45605695773E+03  0.45605695773E+03  0.25500000920E-02 0.  1.
    10030    2    1    2    0    0  0.00000000000E+00  0.00000000000E+00 -0.11323044563E+03  0.79888346984E+03  0.79081835118E+03 0.  0.
        2    1    3    3  502    0  0.17447869818E+03  0.32185873379E+03 -0.20751248256E+03  0.42082928969E+03  0.25500000920E-02 0.  1.
       -2    1    3    3    0  502 -0.17447869818E+03 -0.32185873379E+03  0.94282036935E+02  0.37805418015E+03  0.25500000920E-02 0. -1.
</event>
<event>
 5   0  0.2759559E-02  0.7798611E+03  0.7818609E-02  0.9589634E-01
        1   -1    0    0  501    0  0.00000000000E+00  0.00000000000E+00  0.68035423776E+03  0.68035423777E+03  0.50400001928E-02 0. -1.
       -1   -1    0    0    0  501  0.00000000000E+00  0.00000000000E+00 -0.22348042259E+03  0.22348042264E+03  0.50400001928E-02 0.  1.
    10030    2    1    2    0    0  0.00000000000E+00  0.00000000000E+00  0.45687381517E+03  0.90383466042E+03  0.77986114814E+03 0.  0.
        3    1    3    3  502    0 -0.12397171704E+03  0.34568196301E+03  0.76524286949E+02  0.37512795533E+03  0.10100000352E+00 0.  1.
       -3    1    3    3    0  502  0.12397171704E+03 -0.34568196301E+03  0.38034952822E+03  0.52870670508E+03  0.10100000352E+00 0. -1.
</event>
<event>
 5   0  0.2635243E-02  0.8073164E+03  0.7818609E-02  0.9549487E-01
       -1   -1    0    0    0  501  0.00000000000E+00  0.00000000000E+00  0.11887014646E+03  0.11887014657E+03  0.50400001928E-02 0.  1.
        1   -1    0    0  501    0  0.00000000000E+00  0.00000000000E+00 -0.13707390555E+04  0.13707390555E+04  0.50400001928E-02 0. -1.
    10030    2    1    2    0    0  0.00000000000E+00  0.00000000000E+00 -0.12518689091E+04  0.14896092021E+04  0.80731642464E+03 0.  0.
        1    1    3    3  502    0 -0.21174664666E+03  0.17059015080E+03 -0.75470103387E+02  0.28219386679E+03  0.50400001928E-02 0.  1.
       -1    1    3    3    0  502  0.21174664666E+03 -0.17059015080E+03 -0.11763988057E+04  0.12074153353E+04  0.50400001928E-02 0. -1.
</event>
<event>
 5   0  0.4590462E-02  0.7442953E+03  0.7818609E-02  0.9644343E-01
       -2   -1    0    0    0  501  0.00000000000E+00  0.00000000000E+00  0.16586279543E+03  0.16586279545E+03  0.25500000920E-02 0. -1.
        2   -1    0    0  501    0  0.00000000000E+00  0.00000000000E+00 -0.83499067179E+03  0.83499067179E+03  0.25500000920E-02 0.  1.
    10030    2    1    2    0    0  0.00000000000E+00  0.00000000000E+00 -0.66912787636E+03  0.10008534672E+04  0.74429533653E+03 0.  0.
        3    1    3    3  502    0  0.25116905779E+02  0.36666094009E+03 -0.41323486002E+03  0.55302275151E+03  0.10100000352E+00 0. -1.
       -3    1    3    3    0  502 -0.25116905779E+02 -0.36666094009E+03 -0.25589301633E+03  0.44783071573E+03  0.10100000352E+00 0.  1.
</event>
<event>
 5   0  0.4663634E-02  0.7466732E+03  0.7818609E-02  0.9640584E-01
       -2   -1    0    0    0  501  0.00000000000E+00  0.00000000000E+00  0.81584377481E+03  0.81584377481E+03  0.25500000920E-02 0.  1.
        2   -1    0    0  501    0  0.00000000000E+00  0.00000000000E+00 -0.17084179335E+03  0.17084179337E+03  0.25500000920E-02 0. -1.
    10030    2    1    2    0    0  0.00000000000E+00  0.00000000000E+00  0.64500198145E+03  0.98668556818E+03  0.74667319115E+03 0.  0.
        5    1    3    3  502    0 -0.27990403598E+03 -0.22013673712E+03  0.47054778051E+03  0.59012181465E+03  0.46999998093E+01 0.  1.
       -5    1    3    3    0  502  0.27990403598E+03  0.22013673712E+03  0.17445420094E+03  0.39656375353E+03  0.46999998093E+01 0. -1.
</event>
<event>
 5   0  0.2769394E-02  0.8482849E+03  0.7818609E-02  0.9492642E-01
        1   -1    0    0  501    0  0.00000000000E+00  0.00000000000E+00  0.73122498698E+03  0.73122498700E+03  0.50400001928E-02 0.  1.
       -1   -1    0    0    0  501  0.00000000000E+00  0.00000000000E+00 -0.24602114046E+03  0.24602114051E+03  0.50400001928E-02 0. -1.
    10030    2    1    2    0    0  0.00000000000E+00  0.00000000000E+00  0.48520384652E+03  0.97724612751E+03  0.84828487023E+03 0.  0.
        2    1    3    3  502    0  0.20765096896E+02 -0.39170371027E+03  0.56722558038E+02  0.39633374129E+03  0.25500000920E-02 0. -1.
       -2    1    3    3    0  502 -0.20765096896E+02  0.39170371027E+03  0.42848128848E+03  0.58091238622E+03  0.25500000920E-02 0.  1.
</event>
<event>
 5   0  0.2769394E-02  0.8767102E+03  0.7818609E-02  0.9455172E-01
        1   -1    0    0  501    0  0.00000000000E+00  0.00000000000E+00  0.80397723381E+03  0.80397723383E+03  0.50400001928E-02 0.  1.
       -1   -1    0    0    0  501  0.00000000000E+00  0.00000000000E+00 -0.23900576857E+03  0.23900576862E+03  0.50400001928E-02 0. -1.
    10030    2    1    2    0    0  0.00000000000E+00  0.00000000000E+00  0.56497146524E+03  0.10429830024E+04  0.87671020689E+03 0.  0.
        2    1    3    3  502    0  0.28878276903E+03  0.29924418243E+03  0.11758804771E+03  0.43216839007E+03  0.25500000920E-02 0. -1.
       -2    1    3    3    0  502 -0.28878276903E+03 -0.29924418243E+03  0.44738341753E+03  0.61081461238E+03  0.25500000920E-02 0.  1.
</event>
<event>
 5   0  0.2759559E-02  0.7475399E+03  0.7818609E-02  0.9639218E-01
       -1   -1    0    0    0  501  0.00000000000E+00  0.00000000000E+00  0.72138880012E+03  0.72138880014E+03  0.50400001928E-02 0.  1.
        1   -1    0    0  501    0  0.00000000000E+00  0.00000000000E+00 -0.19365975975E+03  0.19365975981E+03  0.50400001928E-02 0. -1.
    10030    2    1    2    0    0  0.00000000000E+00  0.00000000000E+00  0.52772904037E+03  0.91504855995E+03  0.74753991667E+03 0.  0.
        3    1    3    3  502    0 -0.22392894229E+03  0.12969560222E+02  0.62984513909E+03  0.66859351637E+03  0.10100000352E+00 0.  1.
       -3    1    3    3    0  502  0.22392894229E+03 -0.12969560222E+02 -0.10211609872E+03  0.24645504358E+03  0.10100000352E+00 0. -1.
</event>
<event>
 5   0  0.4590462E-02  0.8166854E+03  0.7818609E-02  0.9536175E-01
       -2   -1    0    0    0  501  0.00000000000E+00  0.00000000000E+00  0.38445498007E+03  0.38445498008E+03  0.25500000920E-02 0. -1.
        2   -1    0    0  501    0  0.00000000000E+00  0.00000000000E+00 -0.43371465960E+03  0.43371465961E+03  0.25500000920E-02 0.  1.
    10030    2    1    2    0    0  0.00000000000E+00  0.00000000000E+00 -0.49259679527E+02  0.81816963969E+03  0.81668540043E+03 0.  0.
        3    1    3    3  502    0 -0.27223858021E+03  0.26822108036E+03 -0.16872224279E+03  0.41776021581E+03  0.10100000352E+00 0.  1.
       -3    1    3    3    0  502  0.27223858021E+03 -0.26822108036E+03  0.11946256326E+03  0.40040942387E+03  0.10100000352E+00 0. -1.
</event>
<event>
 5   0  0.2606520E-02  0.5271883E+03  0.7818609E-02  0.1006916E+00
        1   -1    0    0  501    0  0.00000000000E+00  0.00000000000E+00  0.35191067995E+03  0.35191067998E+03  0.50400001928E-02 0.  1.
       -1   -1    0    0    0  501  0.00000000000E+00  0.00000000000E+00 -0.19744179890E+03  0.19744179897E+03  0.50400001928E-02 0. -1.
    10030    2    1    2    0    0  0.00000000000E+00  0.00000000000E+00  0.15446888104E+03  0.54935247895E+03  0.52718830688E+03 0.  0.
        5    1    3    3  502    0 -0.24326260606E+02 -0.20845580486E+03 -0.88886172808E+02  0.22796585544E+03  0.46999998093E+01 0. -1.
       -5    1    3    3    0  502  0.24326260606E+02  0.20845580486E+03  0.24335505385E+03  0.32138662350E+03  0.46999998093E+01 0.  1.
</event>
<event>
 5   0  0.2769394E-02  0.7911557E+03  0.7818609E-02  0.9572908E-01
        1   -1    0    0  501    0  0.00000000000E+00  0.00000000000E+00  0.12890069623E+04  0.12890069623E+04  0.50400001928E-02 0.  1.
       -1   -1    0    0    0  501  0.00000000000E+00  0.00000000000E+00 -0.12139719456E+03  0.12139719467E+03  0.50400001928E-02 0. -1.
    10030    2    1    2    0    0  0.00000000000E+00  0.00000000000E+00  0.11676097677E+04  0.14104041569E+04  0.79115568397E+03 0.  0.
        2    1    3    3  502    0  0.63646494282E+02 -0.38805179015E+03  0.50719461749E+03  0.64177990627E+03  0.25500000920E-02 0.  1.
       -2    1    3    3    0  502 -0.63646494282E+02  0.38805179015E+03  0.66041515020E+03  0.76862425066E+03  0.25500000920E-02 0. -1.
</event>
<event>
 5   0  0.4590462E-02  0.8058909E+03  0.7818609E-02  0.9551529E-01
       -2   -1    0    0    0  501  0.00000000000E+00  0.00000000000E+00  0.60004433380E+03  0.60004433380E+03  0.25500000920E-02 0.  1.
        2   -1    0    0  501    0  0.00000000000E+00  0.00000000000E+00 -0.27058840766E+03  0.27058840767E+03  0.25500000920E-02 0. -1.
    10030    2    1    2    0    0  0.00000000000E+00  0.00000000000E+00  0.32945592614E+03  0.87063274148E+03  0.80589091276E+03 0.  0.
        3    1    3    3  502    0  0.19334880475E+03 -0.26821202898E+03 -0.84086225158E+02  0.34116265366E+03  0.10100000352E+00 0. -1.
       -3    1    3    3    0  502 -0.19334880475E+03  0.26821202898E+03  0.41354215130E+03  0.52947008782E+03  0.10100000352E+00 0.  1.
</event>
<event>
 5   0  0.4663634E-02  0.8031702E+03  0.7818609E-02  0.9555440E-01
       -2   -1    0    0    0  501  0.00000000000E+00  0.00000000000E+00  0.54551801895E+03  0.54551801896E+03  0.25500000920E-02 0. -1.
        2   -1    0    0  501    0  0.00000000000E+00  0.00000000000E+00 -0.29562834417E+03  0.29562834418E+03  0.25500000920E-02 0.  1.
    10030    2    1    2    0    0  0.00000000000E+00  0.00000000000E+00  0.24988967478E+03  0.84114636314E+03  0.80317019034E+03 0.  0.
        5    1    3    3  502    0  0.16482795071E+03  0.90365534084E+02  0.49656694738E+03  0.53097552327E+03  0.46999998093E+01 0. -1.
       -5    1    3    3    0  502 -0.16482795071E+03 -0.90365534084E+02 -0.24667727260E+03  0.31017083986E+03  0.46999998093E+01 0.  1.
</event>
<event>
 5   0  0.4663634E-02  0.8026168E+03  0.7818609E-02  0.9556237E-01
        2   -1    0    0  501    0  0.00000000000E+00  0.00000000000E+00  0.14171934630E+04  0.14171934630E+04  0.25500000920E-02 0. -1.
       -2   -1    0    0    0  501  0.00000000000E+00  0.00000000000E+00 -0.11363898992E+03  0.11363898995E+03  0.25500000920E-02 0.  1.
    10030    2    1    2    0    0  0.00000000000E+00  0.00000000000E+00  0.13035544730E+04  0.15308324529E+04  0.80261680439E+03 0.  0.
        5    1    3    3  502    0  0.85025041430E+02 -0.36033461567E+03  0.35656998292E+03  0.51403748466E+03  0.46999998093E+01 0.  1.
       -5    1    3    3    0  502 -0.85025041430E+02  0.36033461567E+03  0.94698449012E+03  0.10167949682E+04  0.46999998093E+01 0. -1.
</event>
<event>
 5   0  0.4663634E-02  0.7974295E+03  0.7818609E-02  0.9563745E-01
       -2   -1    0    0    0  501  0.00000000000E+00  0.00000000000E+00  0.84110208805E+02  0.84110208843E+02  0.25500000920E-02 0. -1.
        2   -1    0    0  501    0  0.00000000000E+00  0.00000000000E+00 -0.18900612550E+04  0.18900612550E+04  0.25500000920E-02 0.  1.
    10030    2    1    2    0    0  0.00000000000E+00  0.00000000000E+00 -0.18059510462E+04  0.19741714638E+04  0.79742948742E+03 0.  0.
        5    1    3    3  502    0  0.14440170800E+03  0.41462356002E+02  0.11281955847E+02  0.15073271962E+03  0.46999998093E+01 0. -1.
       -5    1    3    3    0  502 -0.14440170800E+03 -0.41462356002E+02 -0.18172330020E+04  0.18234387442E+04  0.46999998093E+01 0.  1.
</event>
<event>
 5   0  0.4377843E-02  0.8543663E+03  0.7818609E-02  0.9484495E-01
        2   -1    0    0  501    0  0.00000000000E+00  0.00000000000E+00  0.10874581167E+04  0.10874581167E+04  0.25500000920E-02 0. -1.
       -2   -1    0    0    0  501  0.00000000000E+00  0.00000000000E+00 -0.16780918686E+03  0.16780918688E+03  0.25500000920E-02 0.  1.
    10030    2    1    2    0    0  0.00000000000E+00  0.00000000000E+00  0.91964892984E+03  0.12552673036E+04  0.85436634373E+03 0.  0.
        2    1    3    3  502    0 -0.56016454670E+01 -0.22552337311E+03 -0.73153140026E+02  0.23715723086E+03  0.25500000920E-02 0.  1.
       -2    1    3    3    0  502  0.56016454670E+01  0.22552337311E+03  0.99280206987E+03  0.10181100727E+04  0.25500000920E-02 0. -1.
</event>
<event>
 5   0  0.4700220E-02  0.7596000E+03  0.7818609E-02  0.9620409E-01
        2   -1    0    0  501    0  0.00000000000E+00  0.00000000000E+00  0.40061985349E+03  0.40061985350E+03  0.25500000920E-02 0.  1.
       -2   -1    0    0    0  501  0.00000000000E+00  0.00000000000E+00 -0.36006210429E+03  0.36006210430E+03  0.25500000920E-02 0. -1.
    10030    2    1    2    0    0  0.00000000000E+00  0.00000000000E+00  0.40557749203E+02  0.76068195779E+03  0.75959996702E+03 0.  0.
        4    1    3    3  502    0  0.30628829708E+03  0.15107055966E+03  0.18668289122E+03  0.38921324450E+03  0.12699999809E+01 0. -1.
       -4    1    3    3    0  502 -0.30628829708E+03 -0.15107055966E+03 -0.14612514202E+03  0.37146871329E+03  0.12699999809E+01 0.  1.
</event>
<event>
 5   0  0.4663634E-02  0.7359789E+03  0.7818609E-02  0.9657608E-01
       -2   -1    0    0    0  501  0.00000000000E+00  0.00000000000E+00  0.54273479570E+03  0.54273479570E+03  0.25500000920E-02 0. -1.
        2   -1    0    0  501    0  0.00000000000E+00  0.00000000000E+00 -0.24950717570E+03  0.24950717572E+03  0.25500000920E-02 0.  1.
    10030    2    1    2    0    0  0.00000000000E+00  0.00000000000E+00  0.29322762000E+03  0.79224197142E+03  0.73597887480E+03 0.  0.
        5    1    3    3  502    0 -0.20947137258E+03 -0.72291426500E+02 -0.16959379015E+03  0.27908502276E+03  0.46999998093E+01 0.  1.
       -5    1    3    3    0  502  0.20947137258E+03  0.72291426500E+02  0.46282141014E+03  0.51315694866E+03  0.46999998093E+01 0. -1.
</event>
<event>
 5   0  0.4663634E-02  0.8045889E+03  0.7818609E-02  0.9553399E-01
       -2   -1    0    0    0  501  0.00000000000E+00  0.00000000000E+00  0.13820136979E+03  0.13820136981E+03  0.25500000920E-02 0. -1.
        2   -1    0    0  501    0  0.00000000000E+00  0.00000000000E+00 -0.11710506580E+04  0.11710506580E+04  0.25500000920E-02 0.  1.
    10030    2    1    2    0    0  0.00000000000E+00  0.00000000000E+00 -0.10328492882E+04  0.13092520278E+04  0.80458885162E+03 0.  0.
        5    1    3    3  502    0 -0.94571599264E+02  0.38010928549E+03 -0.66549055104E+03  0.77222187215E+03  0.46999998093E+01 0.  1.
       -5    1    3    3    0  502  0.94571599264E+02 -0.38010928549E+03 -0.36735873712E+03  0.53703015562E+03  0.46999998093E+01 0. -1.
</event>
<event>
 5   0  0.4684283E-02  0.7818392E+03  0.7818609E-02  0.9586683E-01
       -2   -1    0    0    0  501  0.00000000000E+00  0.00000000000E+00  0.11262079504E+03  0.11262079507E+03  0.25500000920E-02 0.  1.
        2   -1    0    0  501    0  0.00000000000E+00  0.00000000000E+00 -0.13569264733E+04  0.13569264733E+04  0.25500000920E-02 0. -1.
    10030    2    1    2    0    0  0.00000000000E+00  0.00000000000E+00 -0.12443056783E+04  0.14695472684E+04  0.78183921174E+03 0.  0.
        1    1    3    3  502    0 -0.87527168436E+02  0.89216236987E+02 -0.13183614058E+04  0.13242723808E+04  0.50400001928E-02 0. -1.
       -1    1    3    3    0  502  0.87527168436E+02 -0.89216236987E+02  0.74055727543E+02  0.14527488759E+03  0.50400001928E-02 0.  1.
</event>
<event>
 5   0  0.1786500E-02  0.7350974E+03  0.7818609E-02  0.9659025E-01
        3   -1    0    0  501    0  0.00000000000E+00  0.00000000000E+00  0.36874215850E+03  0.36874217234E+03  0.10100000352E+00 0. -1.
       -3   -1    0    0    0  501  0.00000000000E+00  0.00000000000E+00 -0.36635911564E+03  0.36635912956E+03  0.10100000352E+00 0.  1.
    10030    2    1    2    0    0  0.00000000000E+00  0.00000000000E+00  0.23830428690E+01  0.73510130189E+03  0.73509743922E+03 0.  0.
        2    1    3    3  502    0 -0.18093568101E+03  0.16350790989E+03  0.27618297354E+03  0.36844211505E+03  0.25500000920E-02 0. -1.
       -2    1    3    3    0  502  0.18093568101E+03 -0.16350790989E+03 -0.27379993067E+03  0.36665918685E+03  0.25500000920E-02 0.  1.
</event>
<event>
 5   0  0.4684283E-02  0.8381906E+03  0.7818609E-02  0.9506326E-01
        2   -1    0    0  501    0  0.00000000000E+00  0.00000000000E+00  0.64022685260E+03  0.64022685260E+03  0.25500000920E-02 0. -1.
       -2   -1    0    0    0  501  0.00000000000E+00  0.00000000000E+00 -0.27434161387E+03  0.27434161388E+03  0.25500000920E-02 0.  1.
    10030    2    1    2    0    0  0.00000000000E+00  0.00000000000E+00  0.36588523873E+03  0.91456846649E+03  0.83819059406E+03 0.  0.
        1    1    3    3  502    0 -0.18733930351E+03  0.35595880009E+03  0.54587551243E+02  0.40593408674E+03  0.50400001928E-02 0.  1.
       -1    1    3    3    0  502  0.18733930351E+03 -0.35595880009E+03  0.31129768749E+03  0.50863437975E+03  0.50400001928E-02 0. -1.
</event>
<event>
 5   0  0.2769394E-02  0.8060360E+03  0.7818609E-02  0.9551321E-01
        1   -1    0    0  501    0  0.00000000000E+00  0.00000000000E+00  0.34054255269E+03  0.34054255272E+03  0.50400001928E-02 0.  1.
       -1   -1    0    0    0  501  0.00000000000E+00  0.00000000000E+00 -0.47695504755E+03  0.47695504758E+03  0.50400001928E-02 0. -1.
    10030    2    1    2    0    0  0.00000000000E+00  0.00000000000E+00 -0.13641249487E+03  0.81749760030E+03  0.80603595313E+03 0.  0.
        2    1    3    3  502    0 -0.12685250732E+03 -0.18639148205E+03  0.27059499631E+03  0.35221441656E+03  0.25500000920E-02 0.  1.
       -2    1    3    3    0  502  0.12685250732E+03  0.18639148205E+03 -0.40700749118E+03  0.46528318375E+03  0.25500000920E-02 0. -1.
</event>
<event>
 5   0  0.4590462E-02  0.7817680E+03  0.7818609E-02  0.9586789E-01
       -2   -1    0    0    0  501  0.00000000000E+00  0.00000000000E+00  0.20966148075E+03  0.20966148077E+03  0.25500000920E-02 0. -1.
        2   -1    0    0  501    0  0.00000000000E+00  0.00000000000E+00 -0.72874765856E+03  0.72874765856E+03  0.25500000920E-02 0.  1.
    10030    2    1    2    0    0  0.00000000000E+00  0.00000000000E+00 -0.51908617780E+03  0.93840913933E+03  0.78176803004E+03 0.  0.
        3    1    3    3  502    0 -0.34992871256E+03  0.15920849734E+03 -0.17472495093E+03  0.42228695004E+03  0.10100000352E+00 0.  1.
       -3    1    3    3    0  502  0.34992871256E+03 -0.15920849734E+03 -0.34436122687E+03  0.51612218929E+03  0.10100000352E+00 0. -1.
</event>
<event>
 5   0  0.2689372E-02  0.8046996E+03  0.7818609E-02  0.9553239E-01
       -1   -1    0    0    0  501  0.00000000000E+00  0.00000000000E+00  0.22721509921E+03  0.22721509927E+03  0.50400001928E-02 0.  1.
        1   -1    0    0  501    0  0.00000000000E+00  0.00000000000E+00 -0.71247623874E+03  0.71247623876E+03  0.50400001928E-02 0. -1.
    10030    2    1    2    0    0  0.00000000000E+00  0.00000000000E+00 -0.48526113953E+03  0.93969133803E+03  0.80469959440E+03 0.  0.
        4    1    3    3  502    0 -0.13358923615E+03  0.98311385694E+02 -0.67069258772E+03  0.69089895983E+03  0.12699999809E+01 0. -1.
       -4    1    3    3    0  502  0.13358923615E+03 -0.98311385694E+02  0.18543144819E+03  0.24879237820E+03  0.12699999809E+01 0.  1.
</event>
<event>
 5   0  0.2635243E-02  0.7869996E+03  0.7818609E-02  0.9579028E-01
        1   -1    0    0  501    0  0.00000000000E+00  0.00000000000E+00  0.10781221343E+04  0.10781221343E+04  0.50400001928E-02 0.  1.
       -1   -1    0    0    0  501  0.00000000000E+00  0.00000000000E+00 -0.14362204098E+03  0.14362204106E+03  0.50400001928E-02 0. -1.
    10030    2    1    2    0    0  0.00000000000E+00  0.00000000000E+00  0.93450009328E+03  0.12217441753E+04  0.78699962238E+03 0.  0.
        1    1    3    3  502    0  0.15853866039E+02  0.10599594991E+03 -0.12052765617E+03  0.16128670867E+03  0.50400001928E-02 0. -1.
       -1    1    3    3    0  502 -0.15853866039E+02 -0.10599594991E+03  0.10550277495E+04  0.10604574667E+04  0.50400001928E-02 0.  1.
</event>
<event>
 5   0  0.2606520E-02  0.7579248E+03  0.7818609E-02  0.9622999E-01
        1   -1    0    0  501    0  0.00000000000E+00  0.00000000000E+00  0.13984272967E+04  0.13984272967E+04  0.50400001928E-02 0. -1.
       -1   -1    0    0    0  501  0.00000000000E+00  0.00000000000E+00 -0.10269572476E+03  0.10269572489E+03  0.50400001928E-02 0.  1.
    10030    2    1    2    0    0  0.00000000000E+00  0.00000000000E+00  0.12957315719E+04  0.15011230216E+04  0.75792481121E+03 0.  0.
        5    1    3    3  502    0 -0.11427483209E+03  0.35374561850E+03  0.50238197708E+03  0.62498355238E+03  0.46999998093E+01 0.  1.
       -5    1    3    3    0  502  0.11427483209E+03 -0.35374561850E+03  0.79334959481E+03  0.87613946917E+03  0.46999998093E+01 0. -1.
</event>
<event>
 5   0  0.4700220E-02  0.8067934E+03  0.7818609E-02  0.9550236E-01
        2   -1    0    0  501    0  0.00000000000E+00  0.00000000000E+00  0.60402234546E+03  0.60402234547E+03  0.25500000920E-02 0.  1.
       -2   -1    0    0    0  501  0.00000000000E+00  0.00000000000E+00 -0.26940877032E+03  0.26940877033E+03  0.25500000920E-02 0. -1.
    10030    2    1    2    0    0  0.00000000000E+00  0.00000000000E+00  0.33461357514E+03  0.87343111580E+03  0.80679344902E+03 0.  0.
        4    1    3    3  502    0 -0.60388763675E+02  0.38443561379E+03  0.28233613634E+03  0.48078357991E+03  0.12699999809E+01 0.  1.
       -4    1    3    3    0  502  0.60388763675E+02 -0.38443561379E+03  0.52277438803E+02  0.39264753589E+03  0.12699999809E+01 0. -1.
</event>
<event>
 5   0  0.2769394E-02  0.8048084E+03  0.7818609E-02  0.9553083E-01
        1   -1    0    0  501    0  0.00000000000E+00  0.00000000000E+00  0.13164534221E+04  0.13164534221E+04  0.50400001928E-02 0. -1.
       -1   -1    0    0    0  501  0.00000000000E+00  0.00000000000E+00 -0.12300406577E+03  0.12300406587E+03  0.50400001928E-02 0.  1.
    10030    2    1    2    0    0  0.00000000000E+00  0.00000000000E+00  0.11934493563E+04  0.14394574879E+04  0.80480835828E+03 0.  0.
        2    1    3    3  502    0 -0.74286486605E+02 -0.11211626437E+03  0.12750641436E+04  0.12821377106E+04  0.25500000920E-02 0. -1.
       -2    1    3    3    0  502  0.74286486605E+02  0.11211626437E+03 -0.81614787262E+02  0.15731977731E+03  0.25500000920E-02 0.  1.
</event>
<event>
 5   0  0.4377843E-02  0.7924080E+03  0.7818609E-02  0.9571072E-01
        2   -1    0    0  501    0  0.00000000000E+00  0.00000000000E+00  0.18613779261E+04  0.18613779261E+04  0.25500000920E-02 0. -1.
       -2   -1    0    0    0  501  0.00000000000E+00  0.00000000000E+00 -0.84334090775E+02  0.84334090813E+02  0.25500000920E-02 0.  1.
    10030    2    1    2    0    0  0.00000000000E+00  0.00000000000E+00  0.17770438353E+04  0.19457120169E+04  0.79240801365E+03 0.  0.
        2    1    3    3  502    0 -0.31592604627E+03  0.23824329227E+03  0.93814870489E+03  0.10181807922E+04  0.25500000920E-02 0.  1.
       -2    1    3    3    0  502  0.31592604627E+03 -0.23824329227E+03  0.83889513045E+03  0.92753122477E+03  0.25500000920E-02 0. -1.
</event>
<event>
 5   0  0.1786500E-02  0.7588361E+03  0.7818609E-02  0.9621589E-01
       -3   -1    0    0    0  501  0.00000000000E+00  0.00000000000E+00  0.46149190542E+03  0.46149191647E+03  0.10100000352E+00 0. -1.
        3   -1    0    0  501    0  0.00000000000E+00  0.00000000000E+00 -0.31194053318E+03  0.31194054953E+03  0.10100000352E+00 0.  1.
    10030    2    1    2    0    0  0.00000000000E+00  0.00000000000E+00  0.14955137224E+03  0.77343246600E+03  0.75883606038E+03 0.  0.
        5    1    3    3  502    0  0.13704955262E+03  0.21063763651E+03  0.36447017050E+03  0.44273173477E+03  0.46999998093E+01 0. -1.
       -5    1    3    3    0  502 -0.13704955262E+03 -0.21063763651E+03 -0.21491879827E+03  0.33070073123E+03  0.46999998093E+01 0.  1.
</event>
<event>
 5   0  0.4684283E-02  0.8413510E+03  0.7818609E-02  0.9502019E-01
       -2   -1    0    0    0  501  0.00000000000E+00  0.00000000000E+00  0.93816141456E+03  0.93816141456E+03  0.25500000920E-02 0. -1.
        2   -1    0    0  501    0  0.00000000000E+00  0.00000000000E+00 -0.18863263397E+03  0.18863263399E+03  0.25500000920E-02 0.  1.
    10030    2    1    2    0    0  0.00000000000E+00  0.00000000000E+00  0.74952878059E+03  0.11267940485E+04  0.84135095823E+03 0.  0.
        1    1    3    3  502    0  0.22944949368E+03 -0.28529784901E+03  0.65224151565E+03  0.74797120771E+03  0.50400001928E-02 0. -1.
       -1    1    3    3    0  502 -0.22944949368E+03  0.28529784901E+03  0.97287264938E+02  0.37882284084E+03  0.50400001928E-02 0.  1.
</event>
<event>
 5   0  0.4663634E-02  0.7790131E+03  0.7818609E-02  0.9590902E-01
       -2   -1    0    0    0  501  0.00000000000E+00  0.00000000000E+00  0.31397794557E+03  0.31397794558E+03  0.25500000920E-02 0. -1.
        2   -1    0    0  501    0  0.00000000000E+00  0.00000000000E+00 -0.48320384492E+03  0.48320384493E+03  0.25500000920E-02 0.  1.
    10030    2    1    2    0    0  0.00000000000E+00  0.00000000000E+00 -0.16922589935E+03  0.79718179051E+03  0.77901309496E+03 0.  0.
        5    1    3    3  502    0 -0.36026088994E+03  0.60690650972E+02 -0.22275013172E+03  0.42791468206E+03  0.46999998093E+01 0.  1.
       -5    1    3    3    0  502  0.36026088994E+03 -0.60690650972E+02  0.53524232373E+02  0.36926710846E+03  0.46999998093E+01 0. -1.
</event>
<event>
 5   0  0.2769394E-02  0.8006903E+03  0.7818609E-02  0.9559018E-01
        1   -1    0    0  501    0  0.00000000000E+00  0.00000000000E+00  0.14472096836E+03  0.14472096844E+03  0.50400001928E-02 0. -1.
       -1   -1    0    0    0  501  0.00000000000E+00  0.00000000000E+00 -0.11074845217E+04  0.11074845217E+04  0.50400001928E-02 0.  1.
    10030    2    1    2    0    0  0.00000000000E+00  0.00000000000E+00 -0.96276355330E+03  0.12522054901E+04  0.80069028338E+03 0.  0.
        2    1    3    3  502    0 -0.24580166159E+03 -0.11529509087E+03 -0.21250500145E+02  0.27232884273E+03  0.25500000920E-02 0. -1.
       -2    1    3    3    0  502  0.24580166159E+03  0.11529509087E+03 -0.94151305315E+03  0.97987664738E+03  0.25500000920E-02 0.  1.
</event>
<event>
 5   0  0.2689372E-02  0.8114035E+03  0.7818609E-02  0.9543656E-01
        1   -1    0    0  501    0  0.00000000000E+00  0.00000000000E+00  0.49552772025E+03  0.49552772027E+03  0.50400001928E-02 0. -1.
       -1   -1    0    0    0  501  0.00000000000E+00  0.00000000000E+00 -0.33215886274E+03  0.33215886277E+03  0.50400001928E-02 0.  1.
    10030    2    1    2    0    0  0.00000000000E+00  0.00000000000E+00  0.16336885751E+03  0.82768658305E+03  0.81140353472E+03 0.  0.
        4    1    3    3  502    0 -0.65226968184E+02 -0.21890345829E+03 -0.26033355013E+03  0.34633574990E+03  0.12699999809E+01 0.  1.
       -4    1    3    3    0  502  0.65226968184E+02  0.21890345829E+03  0.42370240765E+03  0.48135083315E+03  0.12699999809E+01 0. -1.
</event>
<event>
 5   0  0.4700220E-02  0.8275178E+03  0.7818609E-02  0.9521019E-01
        2   -1    0    0  501    0  0.00000000000E+00  0.00000000000E+00  0.21092784529E+03  0.21092784531E+03  0.25500000920E-02 0. -1.
       -2   -1    0    0    0  501  0.00000000000E+00  0.00000000000E+00 -0.81163502077E+03  0.81163502078E+03  0.25500000920E-02 0.  1.
    10030    2    1    2    0    0  0.00000000000E+00  0.00000000000E+00 -0.60070717548E+03  0.10225628661E+04  0.82751779705E+03 0.  0.
        4    1    3    3  502    0 -0.32515133333E+03  0.10527375646E+03 -0.12171056174E+02  0.34198786655E+03  0.12699999809E+01 0. -1.
       -4    1    3    3    0  502  0.32515133333E+03 -0.10527375646E+03 -0.58853611930E+03  0.68057499953E+03  0.12699999809E+01 0.  1.
</event>
<event>
 5   0  0.4590462E-02  0.7942400E+03  0.7818609E-02  0.9568392E-01
        2   -1    0    0  501    0  0.00000000000E+00  0.00000000000E+00  0.64878427600E+03  0.64878427601E+03  0.25500000920E-02 0.  1.
       -2   -1    0    0    0  501  0.00000000000E+00  0.00000000000E+00 -0.24307663020E+03  0.24307663021E+03  0.25500000920E-02 0. -1.
    10030    2    1    2    0    0  0.00000000000E+00  0.00000000000E+00  0.40570764581E+03  0.89186090622E+03  0.79424000288E+03 0.  0.
        3    1    3    3  502    0  0.37744012867E+03 -0.74571089609E+01  0.34123923758E+03  0.50888199680E+03  0.10100000352E+00 0.  1.
       -3    1    3    3    0  502 -0.37744012867E+03  0.74571089609E+01  0.64468408226E+02  0.38297890942E+03  0.10100000352E+00 0. -1.
</event>
<event>
 5   0  0.2635243E-02  0.6745547E+03  0.7818609E-02  0.9761765E-01
        1   -1    0    0  501    0  0.00000000000E+00  0.00000000000E+00  0.71841466943E+03  0.71841466945E+03  0.50400001928E-02 0.  1.
       -1   -1    0    0    0  501  0.00000000000E+00  0.00000000000E+00 -0.15834308540E+03  0.15834308548E+03  0.50400001928E-02 0. -1.
    10030    2    1    2    0    0  0.00000000000E+00  0.00000000000E+00  0.56007158403E+03  0.87675775493E+03  0.67455465426E+03 0.  0.
        1    1    3    3  502    0  0.19523813534E+03 -0.50443366940E+02 -0.71364362949E+02  0.21390496741E+03  0.50400001928E-02 0. -1.
       -1    1    3    3    0  502 -0.19523813534E+03  0.50443366940E+02  0.63143594698E+03  0.66285278752E+03  0.50400001928E-02 0.  1.
</event>
<event>
 5   0  0.2635243E-02  0.7764925E+03  0.7818609E-02  0.9594681E-01
        1   -1    0    0  501    0  0.00000000000E+00  0.00000000000E+00  0.52842579428E+03  0.52842579431E+03  0.50400001928E-02 0. -1.
       -1   -1    0    0    0  501  0.00000000000E+00  0.00000000000E+00 -0.28525320885E+03  0.28525320890E+03  0.50400001928E-02 0.  1.
    10030    2    1    2    0    0  0.00000000000E+00  0.00000000000E+00  0.24317258543E+03  0.81367900321E+03  0.77649250734E+03 0.  0.
        1    1    3    3  502    0 -0.23090799522E+03 -0.15090356328E+03 -0.16470986512E+03  0.32127827092E+03  0.50400001928E-02 0. -1.
       -1    1    3    3    0  502  0.23090799522E+03  0.15090356328E+03  0.40788245055E+03  0.49240073229E+03  0.50400001928E-02 0.  1.
</event>
<event>
 5   0  0.2769394E-02  0.7711654E+03  0.7818609E-02  0.9602718E-01
       -1   -1    0    0    0  501  0.00000000000E+00  0.00000000000E+00  0.90488949269E+03  0.90488949270E+03  0.50400001928E-02 0. -1.
        1   -1    0    0  501    0  0.00000000000E+00  0.00000000000E+00 -0.16430076306E+03  0.16430076314E+03  0.50400001928E-02 0.  1.
    10030    2    1    2    0    0  0.00000000000E+00  0.00000000000E+00  0.74058872963E+03  0.10691902558E+04  0.77116544057E+03 0.  0.
        2    1    3    3  502    0 -0.16962238561E+03  0.19865050320E+03 -0.22933387699E+02  0.26222073983E+03  0.25500000920E-02 0.  1.
       -2    1    3    3    0  502  0.16962238561E+03 -0.19865050320E+03  0.76352211733E+03  0.80696951601E+03  0.25500000920E-02 0. -1.
</event>
<event>
 5   0  0.2769394E-02  0.8156459E+03  0.7818609E-02  0.9537642E-01
        1   -1    0    0  501    0  0.00000000000E+00  0.00000000000E+00  0.75265516457E+03  0.75265516459E+03  0.50400001928E-02 0.  1.
       -1   -1    0    0    0  501  0.00000000000E+00  0.00000000000E+00 -0.22097711052E+03  0.22097711058E+03  0.50400001928E-02 0. -1.
    10030    2    1    2    0    0  0.00000000000E+00  0.00000000000E+00  0.53167805405E+03  0.97363227517E+03  0.81564591220E+03 0.  0.
        2    1    3    3  502    0  0.35839172302E+03  0.18479615700E+03  0.33869663364E+03  0.52660199052E+03  0.25500000920E-02 0.  1.
       -2    1    3    3    0  502 -0.35839172302E+03 -0.18479615700E+03  0.19298142041E+03  0.44703028465E+03  0.25500000920E-02 0. -1.
</event>
<event>
 5   0  0.4663634E-02  0.8016332E+03  0.7818609E-02  0.9557656E-01
        2   -1    0    0  501    0  0.00000000000E+00  0.00000000000E+00  0.10199598138E+04  0.10199598138E+04  0.25500000920E-02 0. -1.
       -2   -1    0    0    0  501  0.00000000000E+00  0.00000000000E+00 -0.15751006666E+03  0.15751006668E+03  0.25500000920E-02 0.  1.
    10030    2    1    2    0    0  0.00000000000E+00  0.00000000000E+00  0.86244974714E+03  0.11774698805E+04  0.80163317863E+03 0.  0.
        5    1    3    3  502    0  0.30160231285E+02 -0.27021871800E+03 -0.12828057434E+01  0.27194030723E+03  0.46999998093E+01 0. -1.
       -5    1    3    3    0  502 -0.30160231285E+02  0.27021871800E+03  0.86373255289E+03  0.90552957324E+03  0.46999998093E+01 0.  1.
</event>
<event>
 5   0  0.2606520E-02  0.4783516E+03  0.7818609E-02  0.1019589E+00
       -1   -1    0    0    0  501  0.00000000000E+00  0.00000000000E+00  0.67959266273E+02  0.67959266459E+02  0.50400001928E-02 0. -1.
        1   -1    0    0  501    0  0.00000000000E+00  0.00000000000E+00 -0.84175526700E+03  0.84175526701E+03  0.50400001928E-02 0.  1.
    10030    2    1    2    0    0  0.00000000000E+00  0.00000000000E+00 -0.77379600072E+03  0.90971453347E+03  0.47835162974E+03 0.  0.
        5    1    3    3  502    0 -0.65233163776E+02 -0.22360381456E+03 -0.48982131654E+03  0.54240302698E+03  0.46999998093E+01 0.  1.
       -5    1    3    3    0  502  0.65233163776E+02  0.22360381456E+03 -0.28397468419E+03  0.36731150649E+03  0.46999998093E+01 0. -1.
</event>
<event>
 5   0  0.2759559E-02  0.7821652E+03  0.7818609E-02  0.9586197E-01
        1   -1    0    0  501    0  0.00000000000E+00  0.00000000000E+00  0.21713501114E+03  0.21713501120E+03  0.50400001928E-02 0. -1.
       -1   -1    0    0    0  501  0.00000000000E+00  0.00000000000E+00 -0.70438013382E+03  0.70438013384E+03  0.50400001928E-02 0.  1.
    10030    2    1    2    0    0  0.00000000000E+00  0.00000000000E+00 -0.48724512268E+03  0.92151514504E+03  0.78216516987E+03 0.  0.
        3    1    3    3  502    0 -0.19059139743E+02  0.39060122104E+03 -0.23937246698E+03  0.45851036284E+03  0.10100000352E+00 0.  1.
       -3    1    3    3    0  502  0.19059139743E+02 -0.39060122104E+03 -0.24787265570E+03  0.46300478219E+03  0.10100000352E+00 0. -1.
</event>
<event>
 5   0  0.2606520E-02  0.8250513E+03  0.7818609E-02  0.9524448E-01
        1   -1    0    0  501    0  0.00000000000E+00  0.00000000000E+00  0.63501553085E+03  0.63501553087E+03  0.50400001928E-02 0. -1.
       -1   -1    0    0    0  501  0.00000000000E+00  0.00000000000E+00 -0.26798939627E+03  0.26798939632E+03  0.50400001928E-02 0.  1.
    10030    2    1    2    0    0  0.00000000000E+00  0.00000000000E+00  0.36702613457E+03  0.90300492719E+03  0.82505134087E+03 0.  0.
        5    1    3    3  502    0 -0.39991498164E+03 -0.10099937412E+03  0.17832463214E+03  0.44939362538E+03  0.46999998093E+01 0. -1.
       -5    1    3    3    0  502  0.39991498164E+03  0.10099937412E+03  0.18870150243E+03  0.45361130181E+03  0.46999998093E+01 0.  1.
</event>
<event>
 5   0  0.2689372E-02  0.8019541E+03  0.7818609E-02  0.9557193E-01
       -1   -1    0    0    0  501  0.00000000000E+00  0.00000000000E+00  0.14567895786E+03  0.14567895794E+03  0.50400001928E-02 0. -1.
        1   -1    0    0  501    0  0.00000000000E+00  0.00000000000E+00 -0.11036775859E+04  0.11036775859E+04  0.50400001928E-02 0.  1.
    10030    2    1    2    0    0  0.00000000000E+00  0.00000000000E+00 -0.95799862806E+03  0.12493565439E+04  0.80195411486E+03 0.  0.
        4    1    3    3  502    0  0.16934573701E+03 -0.36036413868E+03 -0.55274360474E+03  0.68122492363E+03  0.12699999809E+01 0.  1.
       -4    1    3    3    0  502 -0.16934573701E+03  0.36036413868E+03 -0.40525502332E+03  0.56813162024E+03  0.12699999809E+01 0. -1.
</event>
<event>
 5   0  0.4377843E-02  0.7925197E+03  0.7818609E-02  0.9570908E-01
        2   -1    0    0  501    0  0.00000000000E+00  0.00000000000E+00  0.71309268819E+03  0.71309268819E+03  0.25500000920E-02 0. -1.
       -2   -1    0    0    0  501  0.00000000000E+00  0.00000000000E+00 -0.22019842306E+03  0.22019842308E+03  0.25500000920E-02 0.  1.
    10030    2    1    2    0    0  0.00000000000E+00  0.00000000000E+00  0.49289426513E+03  0.93329111127E+03  0.79251974220E+03 0.  0.
        2    1    3    3  502    0  0.26350794137E+03 -0.24783262489E+03  0.55961263102E+02  0.36604522685E+03  0.25500000920E-02 0.  1.
       -2    1    3    3    0  502 -0.26350794137E+03  0.24783262489E+03  0.43693300203E+03  0.56724588442E+03  0.25500000920E-02 0. -1.
</event>
<event>
 5   0  0.4684283E-02  0.7944779E+03  0.7818609E-02  0.9568045E-01
       -2   -1    0    0    0  501  0.00000000000E+00  0.00000000000E+00  0.30544389878E+03  0.30544389879E+03  0.25500000920E-02 0. -1.
        2   -1    0    0  501    0  0.00000000000E+00  0.00000000000E+00 -0.51662122143E+03  0.51662122144E+03  0.25500000920E-02 0.  1.
    10030    2    1    2    0    0  0.00000000000E+00  0.00000000000E+00 -0.21117732265E+03  0.82206512023E+03  0.79447794198E+03 0.  0.
        1    1    3    3  502    0  0.36700956990E+03 -0.13781997889E+03 -0.17191137300E+03  0.42806996060E+03  0.50400001928E-02 0.  1.
       -1    1    3    3    0  502 -0.36700956990E+03  0.13781997889E+03 -0.39265949648E+02  0.39399515962E+03  0.50400001928E-02 0. -1.
</event>
<event>
 5   0  0.2606520E-02  0.8091633E+03  0.7818609E-02  0.9546848E-01
       -1   -1    0    0    0  501  0.00000000000E+00  0.00000000000E+00  0.31709907719E+03  0.31709907723E+03  0.50400001928E-02 0.  1.
        1   -1    0    0  501    0  0.00000000000E+00  0.00000000000E+00 -0.51619921656E+03  0.51619921659E+03  0.50400001928E-02 0. -1.
    10030    2    1    2    0    0  0.00000000000E+00  0.00000000000E+00 -0.19910013937E+03  0.83329829381E+03  0.80916325978E+03 0.  0.
        5    1    3    3  502    0 -0.20610782268E+03  0.29881543017E+03  0.84363074151E+02  0.37270674016E+03  0.46999998093E+01 0.  1.
       -5    1    3    3    0  502  0.20610782268E+03 -0.29881543017E+03 -0.28346321352E+03  0.46059155366E+03  0.46999998093E+01 0. -1.
</event>
<event>
 5   0  0.2769394E-02  0.7805576E+03  0.7818609E-02  0.9588594E-01
        1   -1    0    0  501    0  0.00000000000E+00  0.00000000000E+00  0.15694261228E+04  0.15694261228E+04  0.50400001928E-02 0. -1.
       -1   -1    0    0    0  501  0.00000000000E+00  0.00000000000E+00 -0.97053011939E+02  0.97053012070E+02  0.50400001928E-02 0.  1.
    10030    2    1    2    0    0  0.00000000000E+00  0.00000000000E+00  0.14723731109E+04  0.16664791349E+04  0.78055757598E+03 0.  0.
        2    1    3    3  502    0 -0.59452075171E+02 -0.31107522772E+03  0.24926386358E+03  0.40303203376E+03  0.25500000920E-02 0.  1.
       -2    1    3    3    0  502  0.59452075171E+02  0.31107522772E+03  0.12231092473E+04  0.12634471012E+04  0.25500000920E-02 0. -1.
</event>
<event>
 5   0  0.2759559E-02  0.7757763E+03  0.7818609E-02  0.9595757E-01
       -1   -1    0    0    0  501  0.00000000000E+00  0.00000000000E+00  0.12969461677E+03  0.12969461686E+03  0.50400001928E-02 0.  1.
        1   -1    0    0  501    0  0.00000000000E+00  0.00000000000E+00 -0.11600884163E+04  0.11600884163E+04  0.50400001928E-02 0. -1.
    10030    2    1    2    0    0  0.00000000000E+00  0.00000000000E+00 -0.10303937995E+04  0.12897830332E+04  0.77577631476E+03 0.  0.
        3    1    3    3  502    0 -0.11760130172E+03  0.36425280360E+03 -0.41074508713E+03  0.56144608637E+03  0.10100000352E+00 0.  1.
       -3    1    3    3    0  502  0.11760130172E+03 -0.36425280360E+03 -0.61964871240E+03  0.72833694680E+03  0.10100000352E+00 0. -1.
</event>
<event>
 5   0  0.4377843E-02  0.7936459E+03  0.7818609E-02  0.9569260E-01
        2   -1    0    0  501    0  0.00000000000E+00  0.00000000000E+00  0.40748570954E+03  0.40748570954E+03  0.25500000920E-02 0.  1.
       -2   -1    0    0    0  501  0.00000000000E+00  0.00000000000E+00 -0.38643922469E+03  0.38643922470E+03  0.25500000920E-02 0. -1.
    10030    2    1    2    0    0  0.00000000000E+00  0.00000000000E+00  0.21046484850E+02  0.79392493424E+03  0.79364592022E+03 0.  0.
        2    1    3    3  502    0 -0.10742859671E+03  0.30421026793E+03 -0.22060705171E+03  0.39083533844E+03  0.25500000920E-02 0. -1.
       -2    1    3    3    0  502  0.10742859671E+03 -0.30421026793E+03  0.24165353656E+03  0.40308959580E+03  0.25500000920E-02 0.  1.
</event>
<event>
 5   0  0.4590462E-02  0.7989812E+03  0.7818609E-02  0.9561493E-01
        2   -1    0    0  501    0  0.00000000000E+00  0.00000000000E+00  0.56721247367E+03  0.56721247368E+03  0.25500000920E-02 0.  1.
       -2   -1    0    0    0  501  0.00000000000E+00  0.00000000000E+00 -0.28136327481E+03  0.28136327482E+03  0.25500000920E-02 0. -1.
    10030    2    1    2    0    0  0.00000000000E+00  0.00000000000E+00  0.28584919886E+03  0.84857574850E+03  0.79898124912E+03 0.  0.
        3    1    3    3  502    0 -0.29675374031E+03  0.10021214090E+03 -0.12043395091E+03  0.33557354231E+03  0.10100000352E+00 0. -1.
       -3    1    3    3    0  502  0.29675374031E+03 -0.10021214090E+03  0.40628314976E+03  0.51300220619E+03  0.10100000352E+00 0.  1.
</event>
<event>
 5   0  0.2635243E-02  0.8058236E+03  0.7818609E-02  0.9551626E-01
        1   -1    0    0  501    0  0.00000000000E+00  0.00000000000E+00  0.25088315442E+03  0.25088315447E+03  0.50400001928E-02 0. -1.
       -1   -1    0    0    0  501  0.00000000000E+00  0.00000000000E+00 -0.64706587248E+03  0.64706587250E+03  0.50400001928E-02 0.  1.
    10030    2    1    2    0    0  0.00000000000E+00  0.00000000000E+00 -0.39618271806E+03  0.89794902698E+03  0.80582362150E+03 0.  0.
        1    1    3    3  502    0 -0.11399537239E+03  0.32484017283E+03  0.35177635023E+02  0.34605425707E+03  0.50400001928E-02 0. -1.
       -1    1    3    3    0  502  0.11399537239E+03 -0.32484017283E+03 -0.43136035308E+03  0.55189476990E+03  0.50400001928E-02 0.  1.
</event>
<event>
 5   0  0.4377843E-02  0.8079397E+03  0.7818609E-02  0.9548595E-01
       -2   -1    0    0    0  501  0.00000000000E+00  0.00000000000E+00  0.45934531847E+03  0.45934531848E+03  0.25500000920E-02 0.  1.
        2   -1    0    0  501    0  0.00000000000E+00  0.00000000000E+00 -0.35527002775E+03  0.35527002776E+03  0.25500000920E-02 0. -1.
    10030    2    1    2    0    0  0.00000000000E+00  0.00000000000E+00  0.10407529072E+03  0.81461534624E+03  0.80793966123E+03 0.  0.
        2    1    3    3  502    0  0.18758050984E+03 -0.34276094495E+03  0.15545271297E+03  0.42051998649E+03  0.25500000920E-02 0.  1.
       -2    1    3    3    0  502 -0.18758050984E+03  0.34276094495E+03 -0.51377422253E+02  0.39409535976E+03  0.25500000920E-02 0. -1.
</event>
<event>
 5   0  0.2689372E-02  0.8096728E+03  0.7818609E-02  0.9546121E-01
       -1   -1    0    0    0  501  0.00000000000E+00  0.00000000000E+00  0.15899777931E+03  0.15899777939E+03  0.50400001928E-02 0.  1.
        1   -1    0    0  501    0  0.00000000000E+00  0.00000000000E+00 -0.10307849437E+04  0.10307849438E+04  0.50400001928E-02 0. -1.
    10030    2    1    2    0    0  0.00000000000E+00  0.00000000000E+00 -0.87178716443E+03  0.11897827231E+04  0.80967281554E+03 0.  0.
        4    1    3    3  502    0 -0.12563742095E+03 -0.14943022569E+03  0.85251069023E+02  0.21303406198E+03  0.12699999809E+01 0.  1.
       -4    1    3    3    0  502  0.12563742095E+03  0.14943022569E+03 -0.95703823346E+03  0.97674866117E+03  0.12699999809E+01 0. -1.
</event>
<event>
 5   0  0.1786500E-02  0.7870290E+03  0.7818609E-02  0.9578984E-01
        3   -1    0    0  501    0  0.00000000000E+00  0.00000000000E+00  0.75539881395E+03  0.75539882071E+03  0.10100000352E+00 0.  1.
       -3   -1    0    0    0  501  0.00000000000E+00  0.00000000000E+00 -0.20499586775E+03  0.20499589263E+03  0.10100000352E+00 0. -1.
    10030    2    1    2    0    0  0.00000000000E+00  0.00000000000E+00  0.55040294621E+03  0.96039471333E+03  0.78702897164E+03 0.  0.
        1    1    3    3  502    0  0.83896301840E+02  0.12222658551E+03 -0.16961602306E+03  0.22527210873E+03  0.50400001928E-02 0. -1.
       -1    1    3    3    0  502 -0.83896301840E+02 -0.12222658551E+03  0.72001896926E+03  0.73512260460E+03  0.50400001928E-02 0.  1.
</event>
<event>
 5   0  0.2759559E-02  0.8048752E+03  0.7818609E-02  0.9552987E-01
       -1   -1    0    0    0  501  0.00000000000E+00  0.00000000000E+00  0.90135472049E+03  0.90135472050E+03  0.50400001928E-02 0.  1.
        1   -1    0    0  501    0  0.00000000000E+00  0.00000000000E+00 -0.17968068592E+03  0.17968068599E+03  0.50400001928E-02 0. -1.
    10030    2    1    2    0    0  0.00000000000E+00  0.00000000000E+00  0.72167403456E+03  0.10810354065E+04  0.80487523128E+03 0.  0.
        3    1    3    3  502    0  0.54217213473E+02 -0.38559323573E+03  0.22429904295E+03  0.44936813477E+03  0.10100000352E+00 0. -1.
       -3    1    3    3    0  502 -0.54217213473E+02  0.38559323573E+03  0.49737499161E+03  0.63166727172E+03  0.10100000352E+00 0.  1.
</event>
<event>
 5   0  0.4663634E-02  0.8595348E+03  0.7818609E-02  0.9477628E-01
       -2   -1    0    0    0  501  0.00000000000E+00  0.00000000000E+00  0.38273819060E+03  0.38273819061E+03  0.25500000920E-02 0.  1.
        2   -1    0    0  501    0  0.00000000000E+00  0.00000000000E+00 -0.48257540803E+03  0.48257540804E+03  0.25500000920E-02 0. -1.
    10030    2    1    2    0    0  0.00000000000E+00  0.00000000000E+00 -0.99837217431E+02  0.86531359864E+03  0.85953484747E+03 0.  0.
        5    1    3    3  502    0  0.24369611628E+03 -0.14954925240E+03 -0.37289504779E+03  0.46992082594E+03  0.46999998093E+01 0. -1.
       -5    1    3    3    0  502 -0.24369611628E+03  0.14954925240E+03  0.27305783036E+03  0.39539277270E+03  0.46999998093E+01 0.  1.
</event>
<event>
 5   0  0.4377843E-02  0.8348107E+03  0.7818609E-02  0.9510953E-01
       -2   -1    0    0    0  501  0.00000000000E+00  0.00000000000E+00  0.11635562110E+03  0.11635562113E+03  0.25500000920E-02 0.  1.
        2   -1    0    0  501    0  0.00000000000E+00  0.00000000000E+00 -0.14973684976E+04  0.14973684976E+04  0.25500000920E-02 0. -1.
    10030    2    1    2    0    0  0.00000000000E+00  0.00000000000E+00 -0.13810128765E+04  0.16137241187E+04  0.83481073684E+03 0.  0.
        2    1    3    3  502    0  0.37375750414E+02 -0.13014738579E+02  0.11272052461E+03  0.11946650918E+03  0.25500000920E-02 0.  1.
       -2    1    3    3    0  502 -0.37375750414E+02  0.13014738579E+02 -0.14937334011E+04  0.14942576096E+04  0.25500000920E-02 0. -1.
</event>
<event>
 5   0  0.2606520E-02  0.7603992E+03  0.7818609E-02  0.9619176E-01
       -1   -1    0    0    0  501  0.00000000000E+00  0.00000000000E+00  0.19590714192E+03  0.19590714198E+03  0.50400001928E-02 0.  1.
        1   -1    0    0  501    0  0.00000000000E+00  0.00000000000E+00 -0.73785833593E+03  0.73785833595E+03  0.50400001928E-02 0. -1.
    10030    2    1    2    0    0  0.00000000000E+00  0.00000000000E+00 -0.54195119401E+03  0.93376547793E+03  0.76039915247E+03 0.  0.
        5    1    3    3  502    0  0.93428474216E+02 -0.31233752505E+03 -0.30821884643E+02  0.32749914186E+03  0.46999998093E+01 0.  1.
       -5    1    3    3    0  502 -0.93428474216E+02  0.31233752505E+03 -0.51112930937E+03  0.60626633607E+03  0.46999998093E+01 0. -1.
</event>
<event>
 5   0  0.2606520E-02  0.8028386E+03  0.7818609E-02  0.9555917E-01
        1   -1    0    0  501    0  0.00000000000E+00  0.00000000000E+00  0.10469504537E+04  0.10469504537E+04  0.50400001928E-02 0.  1.
       -1   -1    0    0    0  501  0.00000000000E+00  0.00000000000E+00 -0.15391126896E+03  0.15391126904E+03  0.50400001928E-02 0. -1.
    10030    2    1    2    0    0  0.00000000000E+00  0.00000000000E+00  0.89303918477E+03  0.12008617228E+04  0.80283864613E+03 0.  0.
        5    1    3    3  502    0  0.53286565984E+02 -0.30522576521E+03  0.82819933319E+03  0.88427283762E+03  0.46999998093E+01 0.  1.
       -5    1    3    3    0  502 -0.53286565984E+02  0.30522576521E+03  0.64839851583E+02  0.31658888517E+03  0.46999998093E+01 0. -1.
</event>
<event>
 5   0  0.2769394E-02  0.8078421E+03  0.7818609E-02  0.9548735E-01
        1   -1    0    0  501    0  0.00000000000E+00  0.00000000000E+00  0.10358701894E+04  0.10358701894E+04  0.50400001928E-02 0.  1.
       -1   -1    0    0    0  501  0.00000000000E+00  0.00000000000E+00 -0.15750258353E+03  0.15750258361E+03  0.50400001928E-02 0. -1.
    10030    2    1    2    0    0  0.00000000000E+00  0.00000000000E+00  0.87836760590E+03  0.11933727731E+04  0.80784214076E+03 0.  0.
        2    1    3    3  502    0 -0.14617306142E+02  0.20547837223E+03  0.95244000372E+03  0.97446240963E+03  0.25500000920E-02 0.  1.
       -2    1    3    3    0  502  0.14617306142E+02 -0.20547837223E+03 -0.74072397818E+02  0.21891036343E+03  0.25500000920E-02 0. -1.
</event>
<event>
 5   0  0.2635243E-02  0.8218074E+03  0.7818609E-02  0.9528977E-01
       -1   -1    0    0    0  501  0.00000000000E+00  0.00000000000E+00  0.29220032904E+03  0.29220032908E+03  0.50400001928E-02 0. -1.
        1   -1    0    0  501    0  0.00000000000E+00  0.00000000000E+00 -0.57782907390E+03  0.57782907392E+03  0.50400001928E-02 0.  1.
    10030    2    1    2    0    0  0.00000000000E+00  0.00000000000E+00 -0.28562874486E+03  0.87002940300E+03  0.82180738753E+03 0.  0.
        1    1    3    3  502    0 -0.37544866135E+03  0.66705571767E+01  0.33815675704E+02  0.37702744408E+03  0.50400001928E-02 0.  1.
       -1    1    3    3    0  502  0.37544866135E+03 -0.66705571767E+01 -0.31944442057E+03  0.49300195892E+03  0.50400001928E-02 0. -1.
</event>
<event>
 5   0  0.4377843E-02  0.8000772E+03  0.7818609E-02  0.9559905E-01
       -2   -1    0    0    0  501  0.00000000000E+00  0.00000000000E+00  0.29322339130E+03  0.29322339131E+03  0.25500000920E-02 0. -1.
        2   -1    0    0  501    0  0.00000000000E+00  0.00000000000E+00 -0.54576431870E+03  0.54576431871E+03  0.25500000920E-02 0.  1.
    10030    2    1    2    0    0  0.00000000000E+00  0.00000000000E+00 -0.25254092740E+03  0.83898771002E+03  0.80007715725E+03 0.  0.
        2    1    3    3  502    0 -0.22306326506E+03 -0.13320523641E+03 -0.44525162180E+03  0.51550932285E+03  0.25500000920E-02 0.  1.
       -2    1    3    3    0  502  0.22306326506E+03  0.13320523641E+03  0.19271069439E+03  0.32347838717E+03  0.25500000920E-02 0. -1.
</event>
<event>
 5   0  0.2635243E-02  0.7857096E+03  0.7818609E-02  0.9580935E-01
        1   -1    0    0  501    0  0.00000000000E+00  0.00000000000E+00  0.14519312044E+03  0.14519312053E+03  0.50400001928E-02 0.  1.
       -1   -1    0    0    0  501  0.00000000000E+00  0.00000000000E+00 -0.10629628290E+04  0.10629628291E+04  0.50400001928E-02 0. -1.
    10030    2    1    2    0    0  0.00000000000E+00  0.00000000000E+00 -0.91776970860E+03  0.12081559496E+04  0.78570959042E+03 0.  0.
        1    1    3    3  502    0  0.85216780637E+02  0.29941589049E+03 -0.82735670552E+03  0.88398579931E+03  0.50400001928E-02 0. -1.
       -1    1    3    3    0  502 -0.85216780637E+02 -0.29941589049E+03 -0.90413003082E+02  0.32417015028E+03  0.50400001928E-02 0.  1.
</event>
<event>
 5   0  0.1786500E-02  0.7786320E+03  0.7818609E-02  0.9591472E-01
        3   -1    0    0  501    0  0.00000000000E+00  0.00000000000E+00  0.23317113622E+03  0.23317115810E+03  0.10100000352E+00 0.  1.
       -3   -1    0    0    0  501  0.00000000000E+00  0.00000000000E+00 -0.65002443088E+03  0.65002443872E+03  0.10100000352E+00 0. -1.
    10030    2    1    2    0    0  0.00000000000E+00  0.00000000000E+00 -0.41685329465E+03  0.88319559682E+03  0.77863200100E+03 0.  0.
        5    1    3    3  502    0 -0.68656985856E+02 -0.29074958802E+03 -0.49153577290E+03  0.57522048875E+03  0.46999998093E+01 0. -1.
       -5    1    3    3    0  502  0.68656985856E+02  0.29074958802E+03  0.74682478245E+02  0.30797510807E+03  0.46999998093E+01 0.  1.
</event>
<event>
 5   0  0.1786500E-02  0.7926840E+03  0.7818609E-02  0.9570667E-01
       -4   -1    0    0    0  501  0.00000000000E+00  0.00000000000E+00  0.11666041031E+04  0.11666047944E+04  0.12699999809E+01 0. -1.
        4   -1    0    0  501    0  0.00000000000E+00  0.00000000000E+00 -0.13464949053E+03  0.13465547965E+03  0.12699999809E+01 0.  1.
    10030    2    1    2    0    0  0.00000000000E+00  0.00000000000E+00  0.10319546125E+04  0.13012602740E+04  0.79268403438E+03 0.  0.
        2    1    3    3  502    0 -0.17679805061E+03  0.23027844802E+03  0.73048864241E+02  0.29936908807E+03  0.25500000920E-02 0.  1.
       -2    1    3    3    0  502  0.17679805061E+03 -0.23027844802E+03  0.95890574830E+03  0.10018911859E+04  0.25500000920E-02 0. -1.
</event>
<event>
 5   0  0.2759559E-02  0.7874752E+03  0.7818609E-02  0.9578325E-01
       -1   -1    0    0    0  501  0.00000000000E+00  0.00000000000E+00  0.11604814514E+04  0.11604814514E+04  0.50400001928E-02 0.  1.
        1   -1    0    0  501    0  0.00000000000E+00  0.00000000000E+00 -0.13359050537E+03  0.13359050546E+03  0.50400001928E-02 0. -1.
    10030    2    1    2    0    0  0.00000000000E+00  0.00000000000E+00  0.10268909460E+04  0.12940719568E+04  0.78747521517E+03 0.  0.
        3    1    3    3  502    0 -0.51946090514E+02  0.26690083937E+03  0.45475335655E+02  0.27568545614E+03  0.10100000352E+00 0. -1.
       -3    1    3    3    0  502  0.51946090514E+02 -0.26690083937E+03  0.98141561033E+03  0.10183865007E+04  0.10100000352E+00 0.  1.
</event>
<event>
 5   0  0.2606520E-02  0.6606304E+03  0.7818609E-02  0.9787034E-01
       -1   -1    0    0    0  501  0.00000000000E+00  0.00000000000E+00  0.25278950283E+03  0.25278950288E+03  0.50400001928E-02 0. -1.
        1   -1    0    0  501    0  0.00000000000E+00  0.00000000000E+00 -0.43161654109E+03  0.43161654112E+03  0.50400001928E-02 0.  1.
    10030    2    1    2    0    0  0.00000000000E+00  0.00000000000E+00 -0.17882703826E+03  0.68440604400E+03  0.66063039852E+03 0.  0.
        5    1    3    3  502    0  0.21197833205E+03  0.24759407799E+03 -0.34122348829E+02  0.32775610659E+03  0.46999998093E+01 0. -1.
       -5    1    3    3    0  502 -0.21197833205E+03 -0.24759407799E+03 -0.14470468943E+03  0.35664993742E+03  0.46999998093E+01 0.  1.
</event>
<event>
 5   0  0.2606520E-02  0.7919752E+03  0.7818609E-02  0.9571706E-01
        1   -1    0    0  501    0  0.00000000000E+00  0.00000000000E+00  0.22951607186E+03  0.22951607192E+03  0.50400001928E-02 0. -1.
       -1   -1    0    0    0  501  0.00000000000E+00  0.00000000000E+00 -0.68320354372E+03  0.68320354374E+03  0.50400001928E-02 0.  1.
    10030    2    1    2    0    0  0.00000000000E+00  0.00000000000E+00 -0.45368747185E+03  0.91271961565E+03  0.79197523615E+03 0.  0.
        5    1    3    3  502    0 -0.25747562652E+02 -0.19318666494E+03 -0.62406651654E+03  0.65380817643E+03  0.46999998093E+01 0.  1.
       -5    1    3    3    0  502  0.25747562652E+02  0.19318666494E+03  0.17037904469E+03  0.25891143923E+03  0.46999998093E+01 0. -1.
</event>
<event>
 5   0  0.4377843E-02  0.7666105E+03  0.7818609E-02  0.9609646E-01
        2   -1    0    0  501    0  0.00000000000E+00  0.00000000000E+00  0.11435652998E+04  0.11435652998E+04  0.25500000920E-02 0.  1.
       -2   -1    0    0    0  501  0.00000000000E+00  0.00000000000E+00 -0.12847793806E+03  0.12847793809E+03  0.25500000920E-02 0. -1.
    10030    2    1    2    0    0  0.00000000000E+00  0.00000000000E+00  0.10150873617E+04  0.12720432379E+04  0.76661049243E+03 0.  0.
        2    1    3    3  502    0  0.12852141632E+03  0.27318240025E+03  0.11566388393E+03  0.32330250897E+03  0.25500000920E-02 0. -1.
       -2    1    3    3    0  502 -0.12852141632E+03 -0.27318240025E+03  0.89942347781E+03  0.94874072891E+03  0.25500000920E-02 0.  1.
</event>
<event>
 5   0  0.2606520E-02  0.7902673E+03  0.7818609E-02  0.9574213E-01
        1   -1    0    0  501    0  0.00000000000E+00  0.00000000000E+00  0.69699430995E+03  0.69699430996E+03  0.50400001928E-02 0.  1.
       -1   -1    0    0    0  501  0.00000000000E+00  0.00000000000E+00 -0.22400557972E+03  0.22400557977E+03  0.50400001928E-02 0. -1.
    10030    2    1    2    0    0  0.00000000000E+00  0.00000000000E+00  0.47298873023E+03  0.92099988974E+03  0.79026733323E+03 0.  0.
        5    1    3    3  502    0  0.19128259566E+03  0.35208976452E+02 -0.16431778438E+03  0.25465884569E+03  0.46999998093E+01 0. -1.
       -5    1    3    3    0  502 -0.19128259566E+03 -0.35208976452E+02  0.63730651461E+03  0.66634104405E+03  0.46999998093E+01 0.  1.
</event>
<event>
 5   0  0.2635243E-02  0.8124093E+03  0.7818609E-02  0.9542227E-01
        1   -1    0    0  501    0  0.00000000000E+00  0.00000000000E+00  0.30344042318E+03  0.30344042322E+03  0.50400001928E-02 0. -1.
       -1   -1    0    0    0  501  0.00000000000E+00  0.00000000000E+00 -0.54377137603E+03  0.54377137605E+03  0.50400001928E-02 0.  1.
    10030    2    1    2    0    0  0.00000000000E+00  0.00000000000E+00 -0.24033095285E+03  0.84721179927E+03  0.81240929704E+03 0.  0.
        1    1    3    3  502    0  0.13965892834E+03 -0.58810034416E+02  0.27286016344E+03  0.31211521147E+03  0.50400001928E-02 0. -1.
       -1    1    3    3    0  502 -0.13965892834E+03  0.58810034416E+02 -0.51319111629E+03  0.53509658780E+03  0.50400001928E-02 0.  1.
</event>
<event>
 5   0  0.4377843E-02  0.8340831E+03  0.7818609E-02  0.9511953E-01
       -2   -1    0    0    0  501  0.00000000000E+00  0.00000000000E+00  0.36326051144E+03  0.36326051145E+03  0.25500000920E-02 0.  1.
        2   -1    0    0  501    0  0.00000000000E+00  0.00000000000E+00 -0.47878486858E+03  0.47878486859E+03  0.25500000920E-02 0. -1.
    10030    2    1    2    0    0  0.00000000000E+00  0.00000000000E+00 -0.11552435714E+03  0.84204538003E+03  0.83408305638E+03 0.  0.
        2    1    3    3  502    0  0.10462452832E+03 -0.38166935253E+03 -0.19056969691E+03  0.43924320823E+03  0.25500000920E-02 0. -1.
       -2    1    3    3    0  502 -0.10462452832E+03  0.38166935253E+03  0.75045339762E+02  0.40280217181E+03  0.25500000920E-02 0.  1.
</event>
<event>
 5   0  0.2769394E-02  0.9700550E+03  0.7818609E-02  0.9342012E-01
       -1   -1    0    0    0  501  0.00000000000E+00  0.00000000000E+00  0.11108009183E+03  0.11108009195E+03  0.50400001928E-02 0.  1.
        1   -1    0    0  501    0  0.00000000000E+00  0.00000000000E+00 -0.21178561539E+04  0.21178561539E+04  0.50400001928E-02 0. -1.
    10030    2    1    2    0    0  0.00000000000E+00  0.00000000000E+00 -0.20067760621E+04  0.22289362458E+04  0.97005495967E+03 0.  0.
        2    1    3    3  502    0  0.42831426355E+03  0.12158019184E+03 -0.56130812996E+03  0.71645074372E+03  0.25500000920E-02 0.  1.
       -2    1    3    3    0  502 -0.42831426355E+03 -0.12158019184E+03 -0.14454679321E+04  0.15124855021E+04  0.25500000920E-02 0. -1.
</event>
<event>
 5   0  0.2769394E-02  0.7785489E+03  0.7818609E-02  0.9591596E-01
       -1   -1    0    0    0  501  0.00000000000E+00  0.00000000000E+00  0.56283667233E+03  0.56283667235E+03  0.50400001928E-02 0.  1.
        1   -1    0    0  501    0  0.00000000000E+00  0.00000000000E+00 -0.26923370163E+03  0.26923370167E+03  0.50400001928E-02 0. -1.
    10030    2    1    2    0    0  0.00000000000E+00  0.00000000000E+00  0.29360297070E+03  0.83207037402E+03  0.77854890850E+03 0.  0.
        2    1    3    3  502    0  0.28861618935E+03  0.69126081786E+02 -0.12242235769E+03  0.32103730874E+03  0.25500000920E-02 0. -1.
       -2    1    3    3    0  502 -0.28861618935E+03 -0.69126081786E+02  0.41602532839E+03  0.51103306528E+03  0.25500000920E-02 0.  1.
</event>
<event>
 5   0  0.2689372E-02  0.8215774E+03  0.7818609E-02  0.9529299E-01
       -1   -1    0    0    0  501  0.00000000000E+00  0.00000000000E+00  0.37017799222E+03  0.37017799225E+03  0.50400001928E-02 0.  1.
        1   -1    0    0  501    0  0.00000000000E+00  0.00000000000E+00 -0.45585463552E+03  0.45585463555E+03  0.50400001928E-02 0. -1.
    10030    2    1    2    0    0  0.00000000000E+00  0.00000000000E+00 -0.85676643303E+02  0.82603262780E+03  0.82157739439E+03 0.  0.
        4    1    3    3  502    0  0.30673163898E+03  0.13996173866E+03  0.19310883774E+03  0.38854372052E+03  0.12699999809E+01 0.  1.
       -4    1    3    3    0  502 -0.30673163898E+03 -0.13996173866E+03 -0.27878548105E+03  0.43748890727E+03  0.12699999809E+01 0. -1.
</event>
<event>
 5   0  0.2689372E-02  0.8082009E+03  0.7818609E-02  0.9548222E-01
        1   -1    0    0  501    0  0.00000000000E+00  0.00000000000E+00  0.54691381777E+03  0.54691381779E+03  0.50400001928E-02 0.  1.
       -1   -1    0    0    0  501  0.00000000000E+00  0.00000000000E+00 -0.29857935070E+03  0.29857935075E+03  0.50400001928E-02 0. -1.
    10030    2    1    2    0    0  0.00000000000E+00  0.00000000000E+00  0.24833446706E+03  0.84549316854E+03  0.80820089737E+03 0.  0.
        4    1    3    3  502    0  0.34649689101E+03  0.14678099587E+03 -0.29906495750E+02  0.37749273850E+03  0.12699999809E+01 0. -1.
       -4    1    3    3    0  502 -0.34649689101E+03 -0.14678099587E+03  0.27824096281E+03  0.46800043004E+03  0.12699999809E+01 0.  1.
</event>
<event>
 5   0  0.2606520E-02  0.1100905E+04  0.7818609E-02  0.9204310E-01
        1   -1    0    0  501    0  0.00000000000E+00  0.00000000000E+00  0.34894200301E+03  0.34894200305E+03  0.50400001928E-02 0.  1.
       -1   -1    0    0    0  501  0.00000000000E+00  0.00000000000E+00 -0.86833322243E+03  0.86833322244E+03  0.50400001928E-02 0. -1.
    10030    2    1    2    0    0  0.00000000000E+00  0.00000000000E+00 -0.51939121941E+03  0.12172752255E+04  0.11009049622E+04 0.  0.
        5    1    3    3  502    0 -0.21191683073E+02  0.45255526335E+03 -0.60534179819E+03  0.75611912848E+03  0.46999998093E+01 0. -1.
       -5    1    3    3    0  502  0.21191683073E+02 -0.45255526335E+03  0.85950578778E+02  0.46115609701E+03  0.46999998093E+01 0.  1.
</event>
<event>
 5   0  0.2759559E-02  0.6210101E+03  0.7818609E-02  0.9862751E-01
        1   -1    0    0  501    0  0.00000000000E+00  0.00000000000E+00  0.16098136676E+03  0.16098136684E+03  0.50400001928E-02 0. -1.
       -1   -1    0    0    0  501  0.00000000000E+00  0.00000000000E+00 -0.59891012840E+03  0.59891012842E+03  0.50400001928E-02 0.  1.
    10030    2    1    2    0    0  0.00000000000E+00  0.00000000000E+00 -0.43792876165E+03  0.75989149526E+03  0.62101005168E+03 0.  0.
        3    1    3    3  502    0 -0.24269856949E+03  0.15731077126E+03 -0.35720886844E+03  0.45961664492E+03  0.10100000352E+00 0.  1.
       -3    1    3    3    0  502  0.24269856949E+03 -0.15731077126E+03 -0.80719893204E+02  0.30027485034E+03  0.10100000352E+00 0. -1.
</event>
<event>
 5   0  0.4663634E-02  0.8374828E+03  0.7818609E-02  0.9507293E-01
        2   -1    0    0  501    0  0.00000000000E+00  0.00000000000E+00  0.49327803192E+03  0.49327803193E+03  0.25500000920E-02 0. -1.
       -2   -1    0    0    0  501  0.00000000000E+00  0.00000000000E+00 -0.35546759833E+03  0.35546759834E+03  0.25500000920E-02 0.  1.
    10030    2    1    2    0    0  0.00000000000E+00  0.00000000000E+00  0.13781043359E+03  0.84874563027E+03  0.83748279343E+03 0.  0.
        5    1    3    3  502    0 -0.36753282087E+03  0.15902486597E+03  0.19283212246E+03  0.44449476922E+03  0.46999998093E+01 0. -1.
       -5    1    3    3    0  502  0.36753282087E+03 -0.15902486597E+03 -0.55021688867E+02  0.40425086105E+03  0.46999998093E+01 0.  1.
</event>
<event>
 5   0  0.2606520E-02  0.7995805E+03  0.7818609E-02  0.9560624E-01
        1   -1    0    0  501    0  0.00000000000E+00  0.00000000000E+00  0.39427273136E+03  0.39427273140E+03  0.50400001928E-02 0. -1.
       -1   -1    0    0    0  501  0.00000000000E+00  0.00000000000E+00 -0.40538503131E+03  0.40538503134E+03  0.50400001928E-02 0.  1.
    10030    2    1    2    0    0  0.00000000000E+00  0.00000000000E+00 -0.11112299944E+02  0.79965776273E+03  0.79958054897E+03 0.  0.
        5    1    3    3  502    0  0.38282292292E+02 -0.33533181271E+00  0.39240755525E+03  0.39429865048E+03  0.46999998093E+01 0. -1.
       -5    1    3    3    0  502 -0.38282292292E+02  0.33533181271E+00 -0.40351985520E+03  0.40535911226E+03  0.46999998093E+01 0.  1.
</event>
<event>
 5   0  0.4684283E-02  0.7880365E+03  0.7818609E-02  0.9577497E-01
        2   -1    0    0  501    0  0.00000000000E+00  0.00000000000E+00  0.60627028799E+03  0.60627028800E+03  0.25500000920E-02 0.  1.
       -2   -1    0    0    0  501  0.00000000000E+00  0.00000000000E+00 -0.25607454117E+03  0.25607454118E+03  0.25500000920E-02 0. -1.
    10030    2    1    2    0    0  0.00000000000E+00  0.00000000000E+00  0.35019574683E+03  0.86234482918E+03  0.78803651141E+03 0.  0.
        1    1    3    3  502    0 -0.46858090867E+02  0.36160930370E+03  0.33848692043E+03  0.49752423512E+03  0.50400001928E-02 0.  1.
       -1    1    3    3    0  502  0.46858090867E+02 -0.36160930370E+03  0.11708826391E+02  0.36482059405E+03  0.50400001928E-02 0. -1.
</event>
<event>
 5   0  0.2759559E-02  0.8000751E+03  0.7818609E-02  0.9559908E-01
        1   -1    0    0  501    0  0.00000000000E+00  0.00000000000E+00  0.22969753228E+03  0.22969753234E+03  0.50400001928E-02 0.  1.
       -1   -1    0    0    0  501  0.00000000000E+00  0.00000000000E+00 -0.69669904641E+03  0.69669904643E+03  0.50400001928E-02 0. -1.
    10030    2    1    2    0    0  0.00000000000E+00  0.00000000000E+00 -0.46700151413E+03  0.92639657877E+03  0.80007512582E+03 0.  0.
        3    1    3    3  502    0  0.12476085232E+03  0.55394526705E+02 -0.66889739402E+03  0.68268408344E+03  0.10100000352E+00 0. -1.
       -3    1    3    3    0  502 -0.12476085232E+03 -0.55394526705E+02  0.20189587989E+03  0.24371249533E+03  0.10100000352E+00 0.  1.
</event>
<event>
 5   0  0.2769394E-02  0.7690084E+03  0.7818609E-02  0.9605992E-01
        1   -1    0    0  501    0  0.00000000000E+00  0.00000000000E+00  0.85866940548E+03  0.85866940549E+03  0.50400001928E-02 0. -1.
       -1   -1    0    0    0  501  0.00000000000E+00  0.00000000000E+00 -0.17217740104E+03  0.17217740111E+03  0.50400001928E-02 0.  1.
    10030    2    1    2    0    0  0.00000000000E+00  0.00000000000E+00  0.68649200444E+03  0.10308468066E+04  0.76900836571E+03 0.  0.
        2    1    3    3  502    0  0.58448061208E+02 -0.25116381623E+03 -0.39073016709E+02  0.26081821079E+03  0.25500000920E-02 0.  1.
       -2    1    3    3    0  502 -0.58448061208E+02  0.25116381623E+03  0.72556502115E+03  0.77002859581E+03  0.25500000920E-02 0. -1.
</event>
<event>
 5   0  0.1786500E-02  0.7736453E+03  0.7818609E-02  0.9598968E-01
        3   -1    0    0  501    0  0.00000000000E+00  0.00000000000E+00  0.38381966017E+03  0.38381967345E+03  0.10100000352E+00 0.  1.
       -3   -1    0    0    0  501  0.00000000000E+00  0.00000000000E+00 -0.38984910769E+03  0.38984912077E+03  0.10100000352E+00 0. -1.
    10030    2    1    2    0    0  0.00000000000E+00  0.00000000000E+00 -0.60294475246E+01  0.77366879423E+03  0.77364529917E+03 0.  0.
        1    1    3    3  502    0  0.13134376178E+03 -0.25696462195E+03  0.25457757342E+03  0.38482689823E+03  0.50400001928E-02 0.  1.
       -1    1    3    3    0  502 -0.13134376178E+03  0.25696462195E+03 -0.26060702094E+03  0.38884189599E+03  0.50400001928E-02 0. -1.
</event>
<event>
 5   0  0.4684283E-02  0.5398699E+03  0.7818609E-02  0.1003866E+00
       -2   -1    0    0    0  501  0.00000000000E+00  0.00000000000E+00  0.19025633093E+03  0.19025633095E+03  0.25500000920E-02 0.  1.
        2   -1    0    0  501    0  0.00000000000E+00  0.00000000000E+00 -0.38298263820E+03  0.38298263821E+03  0.25500000920E-02 0. -1.
    10030    2    1    2    0    0  0.00000000000E+00  0.00000000000E+00 -0.19272630726E+03  0.57323896916E+03  0.53986987900E+03 0.  0.
        1    1    3    3  502    0 -0.17662130194E+03 -0.18932589496E+01  0.12037659760E+03  0.21375030761E+03  0.50400001928E-02 0.  1.
       -1    1    3    3    0  502  0.17662130194E+03  0.18932589496E+01 -0.31310290486E+03  0.35948866155E+03  0.50400001928E-02 0. -1.
</event>
<event>
 5   0  0.4590462E-02  0.8115324E+03  0.7818609E-02  0.9543473E-01
       -2   -1    0    0    0  501  0.00000000000E+00  0.00000000000E+00  0.34391671530E+03  0.34391671531E+03  0.25500000920E-02 0.  1.
        2   -1    0    0  501    0  0.00000000000E+00  0.00000000000E+00 -0.47873860064E+03  0.47873860065E+03  0.25500000920E-02 0. -1.
    10030    2    1    2    0    0  0.00000000000E+00  0.00000000000E+00 -0.13482188534E+03  0.82265531596E+03  0.81153239499E+03 0.  0.
        3    1    3    3  502    0  0.22261150864E+03  0.30421732699E+03 -0.21960914832E+03  0.43627084942E+03  0.10100000352E+00 0. -1.
       -3    1    3    3    0  502 -0.22261150864E+03 -0.30421732699E+03  0.84787262986E+02  0.38638446654E+03  0.10100000352E+00 0.  1.
</event>
<event>
 5   0  0.4684283E-02  0.7623260E+03  0.7818609E-02  0.9616209E-01
        2   -1    0    0  501    0  0.00000000000E+00  0.00000000000E+00  0.16055482000E+04  0.16055482000E+04  0.25500000920E-02 0.  1.
       -2   -1    0    0    0  501  0.00000000000E+00  0.00000000000E+00 -0.90489475323E+02  0.90489475358E+02  0.25500000920E-02 0. -1.
    10030    2    1    2    0    0  0.00000000000E+00  0.00000000000E+00  0.15150587247E+04  0.16960376754E+04  0.76232595196E+03 0.  0.
        1    1    3    3  502    0 -0.18829465332E+03  0.12874437658E+02  0.14942926778E+04  0.15061644115E+04  0.50400001928E-02 0.  1.
       -1    1    3    3    0  502  0.18829465332E+03 -0.12874437658E+02  0.20766046947E+02  0.18987326390E+03  0.50400001928E-02 0. -1.
</event>
<event>
 5   0  0.4590462E-02  0.8278678E+03  0.7818609E-02  0.9520533E-01
       -2   -1    0    0    0  501  0.00000000000E+00  0.00000000000E+00  0.18311682116E+03  0.18311682118E+03  0.25500000920E-02 0. -1.
        2   -1    0    0  501    0  0.00000000000E+00  0.00000000000E+00 -0.93569382091E+03  0.93569382092E+03  0.25500000920E-02 0.  1.
    10030    2    1    2    0    0  0.00000000000E+00  0.00000000000E+00 -0.75257699975E+03  0.11188106421E+04  0.82786781089E+03 0.  0.
        3    1    3    3  502    0 -0.39563233654E+03  0.11954241575E+03 -0.40728129898E+03  0.58025287727E+03  0.10100000352E+00 0.  1.
       -3    1    3    3    0  502  0.39563233654E+03 -0.11954241575E+03 -0.34529570077E+03  0.53855776482E+03  0.10100000352E+00 0. -1.
</event>
<event>
 5   0  0.4377843E-02  0.8010918E+03  0.7818609E-02  0.9558438E-01
       -2   -1    0    0    0  501  0.00000000000E+00  0.00000000000E+00  0.34325715459E+03  0.34325715460E+03  0.25500000920E-02 0.  1.
        2   -1    0    0  501    0  0.00000000000E+00  0.00000000000E+00 -0.46739594136E+03  0.46739594136E+03  0.25500000920E-02 0. -1.
    10030    2    1    2    0    0  0.00000000000E+00  0.00000000000E+00 -0.12413878677E+03  0.81065309596E+03  0.80109175730E+03 0.  0.
        2    1    3    3  502    0  0.20170058835E+03  0.34376486138E+03 -0.10228785642E+03  0.41148537379E+03  0.25500000920E-02 0. -1.
       -2    1    3    3    0  502 -0.20170058835E+03 -0.34376486138E+03 -0.21850930345E+02  0.39916772217E+03  0.25500000920E-02 0.  1.
</event>
<event>
 5   0  0.4684283E-02  0.7559245E+03  0.7818609E-02  0.9626101E-01
       -2   -1    0    0    0  501  0.00000000000E+00  0.00000000000E+00  0.31333494564E+03  0.31333494565E+03  0.25500000920E-02 0.  1.
        2   -1    0    0  501    0  0.00000000000E+00  0.00000000000E+00 -0.45591930758E+03  0.45591930759E+03  0.25500000920E-02 0. -1.
    10030    2    1    2    0    0  0.00000000000E+00  0.00000000000E+00 -0.14258436195E+03  0.76925425324E+03  0.75592447100E+03 0.  0.
        1    1    3    3  502    0 -0.17250738348E+03 -0.14936390260E+03 -0.37791432943E+03  0.44146077195E+03  0.50400001928E-02 0. -1.
       -1    1    3    3    0  502  0.17250738348E+03  0.14936390260E+03  0.23532996748E+03  0.32779348129E+03  0.50400001928E-02 0.  1.
</event>
<event>
 5   0  0.2606520E-02  0.7967779E+03  0.7818609E-02  0.9564693E-01
        1   -1    0    0  501    0  0.00000000000E+00  0.00000000000E+00  0.53006533652E+03  0.53006533655E+03  0.50400001928E-02 0. -1.
       -1   -1    0    0    0  501  0.00000000000E+00  0.00000000000E+00 -0.29942299052E+03  0.29942299057E+03  0.50400001928E-02 0.  1.
    10030    2    1    2    0    0  0.00000000000E+00  0.00000000000E+00  0.23064234600E+03  0.82948832711E+03  0.79677788188E+03 0.  0.
        5    1    3    3  502    0  0.39628444327E+03  0.57086372017E+01  0.15719313489E+03  0.42638681988E+03  0.46999998093E+01 0. -1.
       -5    1    3    3    0  502 -0.39628444327E+03 -0.57086372017E+01  0.73449211115E+02  0.40310150723E+03  0.46999998093E+01 0.  1.
</event>
<event>
 5   0  0.2606520E-02  0.8154739E+03  0.7818609E-02  0.9537885E-01
        1   -1    0    0  501    0  0.00000000000E+00  0.00000000000E+00  0.16604803950E+03  0.16604803958E+03  0.50400001928E-02 0. -1.
       -1   -1    0    0    0  501  0.00000000000E+00  0.00000000000E+00 -0.10012128230E+04  0.10012128230E+04  0.50400001928E-02 0.  1.
    10030    2    1    2    0    0  0.00000000000E+00  0.00000000000E+00 -0.83516478346E+03  0.11672608626E+04  0.81547391480E+03 0.  0.
        5    1    3    3  502    0  0.27437431097E+02  0.22180725821E+03 -0.90567587792E+03  0.93285698704E+03  0.46999998093E+01 0.  1.
       -5    1    3    3    0  502 -0.27437431097E+02 -0.22180725821E+03  0.70511094455E+02  0.23440387552E+03  0.46999998093E+01 0. -1.
</event>
<event>
 5   0  0.4377843E-02  0.7857213E+03  0.7818609E-02  0.9580918E-01
       -2   -1    0    0    0  501  0.00000000000E+00  0.00000000000E+00  0.91586966398E+02  0.91586966434E+02  0.25500000920E-02 0. -1.
        2   -1    0    0  501    0  0.00000000000E+00  0.00000000000E+00 -0.16851685672E+04  0.16851685672E+04  0.25500000920E-02 0.  1.
    10030    2    1    2    0    0  0.00000000000E+00  0.00000000000E+00 -0.15935816008E+04  0.17767555336E+04  0.78572126603E+03 0.  0.
        2    1    3    3  502    0 -0.10918369315E+03 -0.53073627041E+02  0.48107328971E+02  0.13058408726E+03  0.25500000920E-02 0. -1.
       -2    1    3    3    0  502  0.10918369315E+03  0.53073627041E+02 -0.16416889298E+04  0.16461714464E+04  0.25500000920E-02 0.  1.
</event>
<event>
 5   0  0.2759559E-02  0.7973864E+03  0.7818609E-02  0.9563808E-01
       -1   -1    0    0    0  501  0.00000000000E+00  0.00000000000E+00  0.85971385097E+03  0.85971385099E+03  0.50400001928E-02 0.  1.
        1   -1    0    0  501    0  0.00000000000E+00  0.00000000000E+00 -0.18489437051E+03  0.18489437058E+03  0.50400001928E-02 0. -1.
    10030    2    1    2    0    0  0.00000000000E+00  0.00000000000E+00  0.67481948046E+03  0.10446082216E+04  0.79738635890E+03 0.  0.
        3    1    3    3  502    0 -0.30184372063E+02  0.10899119053E+03 -0.16344053386E+03  0.19875360183E+03  0.10100000352E+00 0. -1.
       -3    1    3    3    0  502  0.30184372063E+02 -0.10899119053E+03  0.83826001432E+03  0.84585461974E+03  0.10100000352E+00 0.  1.
</event>
<event>
 5   0  0.2606520E-02  0.7707654E+03  0.7818609E-02  0.9603324E-01
       -1   -1    0    0    0  501  0.00000000000E+00  0.00000000000E+00  0.15163804591E+03  0.15163804600E+03  0.50400001928E-02 0. -1.
        1   -1    0    0  501    0  0.00000000000E+00  0.00000000000E+00 -0.97943631427E+03  0.97943631429E+03  0.50400001928E-02 0.  1.
    10030    2    1    2    0    0  0.00000000000E+00  0.00000000000E+00 -0.82779826836E+03  0.11310743603E+04  0.77076535690E+03 0.  0.
        5    1    3    3  502    0  0.15848457801E+03 -0.23811707993E+03 -0.34960604973E+02  0.28820381524E+03  0.46999998093E+01 0.  1.
       -5    1    3    3    0  502 -0.15848457801E+03  0.23811707993E+03 -0.79283766339E+03  0.84287054505E+03  0.46999998093E+01 0. -1.
</event>
<event>
 5   0  0.1786500E-02  0.7782469E+03  0.7818609E-02  0.9592049E-01
       -4   -1    0    0    0  501  0.00000000000E+00  0.00000000000E+00  0.93704279119E+03  0.93704365182E+03  0.12699999809E+01 0.  1.
        4   -1    0    0  501    0  0.00000000000E+00  0.00000000000E+00 -0.16158690224E+03  0.16159189297E+03  0.12699999809E+01 0. -1.
    10030    2    1    2    0    0  0.00000000000E+00  0.00000000000E+00  0.77545588896E+03  0.10986355448E+04  0.77824689179E+03 0.  0.
        4    1    3    3  502    0  0.14773592018E+00  0.20441491674E+03 -0.79685161179E+02  0.21940104335E+03  0.12699999809E+01 0. -1.
       -4    1    3    3    0  502 -0.14773592018E+00 -0.20441491674E+03  0.85514105013E+03  0.87923450145E+03  0.12699999809E+01 0.  1.
</event>
<event>
 5   0  0.4590462E-02  0.7958773E+03  0.7818609E-02  0.9566004E-01
        2   -1    0    0  501    0  0.00000000000E+00  0.00000000000E+00  0.53801616811E+03  0.53801616811E+03  0.25500000920E-02 0.  1.
       -2   -1    0    0    0  501  0.00000000000E+00  0.00000000000E+00 -0.29433159524E+03  0.29433159525E+03  0.25500000920E-02 0. -1.
    10030    2    1    2    0    0  0.00000000000E+00  0.00000000000E+00  0.24368457287E+03  0.83234776336E+03  0.79587726950E+03 0.  0.
        3    1    3    3  502    0 -0.95829370626E+02  0.30322144796E+03 -0.12834509294E+03  0.34292708825E+03  0.10100000352E+00 0. -1.
       -3    1    3    3    0  502  0.95829370626E+02 -0.30322144796E+03  0.37202966581E+03  0.48942067511E+03  0.10100000352E+00 0.  1.
</event>
<event>
 5   0  0.2606520E-02  0.7914920E+03  0.7818609E-02  0.9572414E-01
       -1   -1    0    0    0  501  0.00000000000E+00  0.00000000000E+00  0.32010803782E+03  0.32010803786E+03  0.50400001928E-02 0. -1.
        1   -1    0    0  501    0  0.00000000000E+00  0.00000000000E+00 -0.48925639843E+03  0.48925639846E+03  0.50400001928E-02 0.  1.
    10030    2    1    2    0    0  0.00000000000E+00  0.00000000000E+00 -0.16914836062E+03  0.80936443632E+03  0.79149202325E+03 0.  0.
        5    1    3    3  502    0 -0.27478617897E+03 -0.25080681567E+03  0.53308651493E+02  0.37586620659E+03  0.46999998093E+01 0. -1.
       -5    1    3    3    0  502  0.27478617897E+03  0.25080681567E+03 -0.22245701211E+03  0.43349822972E+03  0.46999998093E+01 0.  1.
</event>
<event>
 5   0  0.4377843E-02  0.7907396E+03  0.7818609E-02  0.9573519E-01
       -2   -1    0    0    0  501  0.00000000000E+00  0.00000000000E+00  0.35036145010E+03  0.35036145011E+03  0.25500000920E-02 0.  1.
        2   -1    0    0  501    0  0.00000000000E+00  0.00000000000E+00 -0.44615998895E+03  0.44615998895E+03  0.25500000920E-02 0. -1.
    10030    2    1    2    0    0  0.00000000000E+00  0.00000000000E+00 -0.95798538850E+02  0.79652143906E+03  0.79073955436E+03 0.  0.
        2    1    3    3  502    0  0.73022261074E+02  0.17581490228E+03  0.30115160540E+03  0.35627997406E+03  0.25500000920E-02 0.  1.
       -2    1    3    3    0  502 -0.73022261074E+02 -0.17581490228E+03 -0.39695014425E+03  0.44024146500E+03  0.25500000920E-02 0. -1.
</event>
<event>
 5   0  0.2635243E-02  0.8018515E+03  0.7818609E-02  0.9557341E-01
       -1   -1    0    0    0  501  0.00000000000E+00  0.00000000000E+00  0.42951647630E+03  0.42951647633E+03  0.50400001928E-02 0. -1.
        1   -1    0    0  501    0  0.00000000000E+00  0.00000000000E+00 -0.37423816895E+03  0.37423816899E+03  0.50400001928E-02 0.  1.
    10030    2    1    2    0    0  0.00000000000E+00  0.00000000000E+00  0.55278307351E+02  0.80375464532E+03  0.80185150658E+03 0.  0.
        1    1    3    3  502    0  0.28052450825E+03 -0.16785870908E+03 -0.20501280715E+03  0.38587666043E+03  0.50400001928E-02 0. -1.
       -1    1    3    3    0  502 -0.28052450825E+03  0.16785870908E+03  0.26029111450E+03  0.41787798489E+03  0.50400001928E-02 0.  1.
</event>
<event>
 5   0  0.1786500E-02  0.4599559E+03  0.7818609E-02  0.1024794E+00
        3   -1    0    0  501    0  0.00000000000E+00  0.00000000000E+00  0.40894881765E+02  0.40895006487E+02  0.10100000352E+00 0.  1.
       -3   -1    0    0    0  501  0.00000000000E+00  0.00000000000E+00 -0.12933104788E+04  0.12933104827E+04  0.10100000352E+00 0. -1.
    10030    2    1    2    0    0  0.00000000000E+00  0.00000000000E+00 -0.12524155970E+04  0.13342054892E+04  0.45995593245E+03 0.  0.
        4    1    3    3  502    0 -0.29219945482E+02 -0.17679001413E+03 -0.20806316305E+03  0.27459134551E+03  0.12699999809E+01 0.  1.
       -4    1    3    3    0  502  0.29219945482E+02  0.17679001413E+03 -0.10443524340E+04  0.10596141437E+04  0.12699999809E+01 0. -1.
</event>
<event>
 5   0  0.4590462E-02  0.7859185E+03  0.7818609E-02  0.9580626E-01
       -2   -1    0    0    0  501  0.00000000000E+00  0.00000000000E+00  0.98937569479E+02  0.98937569512E+02  0.25500000920E-02 0.  1.
        2   -1    0    0  501    0  0.00000000000E+00  0.00000000000E+00 -0.15607514511E+04  0.15607514511E+04  0.25500000920E-02 0. -1.
    10030    2    1    2    0    0  0.00000000000E+00  0.00000000000E+00 -0.14618138816E+04  0.16596890206E+04  0.78591845673E+03 0.  0.
        3    1    3    3  502    0 -0.12568143305E+02 -0.38257500162E+03 -0.54326277740E+03  0.66457207706E+03  0.10100000352E+00 0.  1.
       -3    1    3    3    0  502  0.12568143305E+02  0.38257500162E+03 -0.91855110418E+03  0.99511694352E+03  0.10100000352E+00 0. -1.
</event>
<event>
 5   0  0.2769394E-02  0.4684570E+03  0.7818609E-02  0.1022357E+00
       -1   -1    0    0    0  501  0.00000000000E+00  0.00000000000E+00  0.10822277085E+03  0.10822277097E+03  0.50400001928E-02 0.  1.
        1   -1    0    0  501    0  0.00000000000E+00  0.00000000000E+00 -0.50694496221E+03  0.50694496223E+03  0.50400001928E-02 0. -1.
    10030    2    1    2    0    0  0.00000000000E+00  0.00000000000E+00 -0.39872219136E+03  0.61516773320E+03  0.46845699278E+03 0.  0.
        2    1    3    3  502    0  0.18986311309E+03 -0.13512435275E+03 -0.23033641974E+03  0.32766058457E+03  0.25500000920E-02 0. -1.
       -2    1    3    3    0  502 -0.18986311309E+03  0.13512435275E+03 -0.16838577162E+03  0.28750714862E+03  0.25500000920E-02 0.  1.
</event>
<event>
 5   0  0.2759559E-02  0.7932675E+03  0.7818609E-02  0.9569814E-01
        1   -1    0    0  501    0  0.00000000000E+00  0.00000000000E+00  0.24590685793E+03  0.24590685798E+03  0.50400001928E-02 0. -1.
       -1   -1    0    0    0  501  0.00000000000E+00  0.00000000000E+00 -0.63974757774E+03  0.63974757775E+03  0.50400001928E-02 0.  1.
    10030    2    1    2    0    0  0.00000000000E+00  0.00000000000E+00 -0.39384071980E+03  0.88565443574E+03  0.79326746244E+03 0.  0.
        3    1    3    3  502    0  0.25473951867E+03  0.10697826380E+03 -0.51463571171E+03  0.58411171643E+03  0.10100000352E+00 0.  1.
       -3    1    3    3    0  502 -0.25473951867E+03 -0.10697826380E+03  0.12079499190E+03  0.30154271931E+03  0.10100000352E+00 0. -1.
</event>
<event>
 5   0  0.2606520E-02  0.4360576E+03  0.7818609E-02  0.1031963E+00
        1   -1    0    0  501    0  0.00000000000E+00  0.00000000000E+00  0.55370234519E+03  0.55370234521E+03  0.50400001928E-02 0.  1.
       -1   -1    0    0    0  501  0.00000000000E+00  0.00000000000E+00 -0.85852203208E+02  0.85852203356E+02  0.50400001928E-02 0. -1.
    10030    2    1    2    0    0  0.00000000000E+00  0.00000000000E+00  0.46785014198E+03  0.63955454857E+03  0.43605763981E+03 0.  0.
        5    1    3    3  502    0 -0.29814004007E+02 -0.13966677891E+03 -0.76036964129E+01  0.14309294239E+03  0.46999998093E+01 0. -1.
       -5    1    3    3    0  502  0.29814004007E+02  0.13966677891E+03  0.47545383839E+03  0.49646160617E+03  0.46999998093E+01 0.  1.
</event>
<event>
 5   0  0.2769394E-02  0.8163136E+03  0.7818609E-02  0.9536699E-01
       -1   -1    0    0    0  501  0.00000000000E+00  0.00000000000E+00  0.11138454509E+03  0.11138454520E+03  0.50400001928E-02 0.  1.
        1   -1    0    0  501    0  0.00000000000E+00  0.00000000000E+00 -0.14956472710E+04  0.14956472710E+04  0.50400001928E-02 0. -1.
    10030    2    1    2    0    0  0.00000000000E+00  0.00000000000E+00 -0.13842627259E+04  0.16070318162E+04  0.81631364312E+03 0.  0.
        2    1    3    3  502    0  0.11163687631E+03 -0.33111763321E+03 -0.27689044269E+03  0.44583628883E+03  0.25500000920E-02 0. -1.
       -2    1    3    3    0  502 -0.11163687631E+03  0.33111763321E+03 -0.11073722832E+04  0.11611955273E+04  0.25500000920E-02 0.  1.
</event>
<event>
 5   0  0.4700220E-02  0.7651180E+03  0.7818609E-02  0.9611927E-01
        2   -1    0    0  501    0  0.00000000000E+00  0.00000000000E+00  0.12924558784E+04  0.12924558785E+04  0.25500000920E-02 0.  1.
       -2   -1    0    0    0  501  0.00000000000E+00  0.00000000000E+00 -0.11323510783E+03  0.11323510786E+03  0.25500000920E-02 0. -1.
    10030    2    1    2    0    0  0.00000000000E+00  0.00000000000E+00  0.11792207706E+04  0.14056909863E+04  0.76511797987E+03 0.  0.
        4    1    3    3  502    0  0.11540994052E+03  0.17447054904E+03  0.11534454441E+01  0.20919457495E+03  0.12699999809E+01 0. -1.
       -4    1    3    3    0  502 -0.11540994052E+03 -0.17447054904E+03  0.11780673252E+04  0.11964964114E+04  0.12699999809E+01 0.  1.
</event>
<event>
 5   0  0.2689372E-02  0.8015122E+03  0.7818609E-02  0.9557831E-01
       -1   -1    0    0    0  501  0.00000000000E+00  0.00000000000E+00  0.99509131106E+02  0.99509131234E+02  0.50400001928E-02 0.  1.
        1   -1    0    0  501    0  0.00000000000E+00  0.00000000000E+00 -0.16139771263E+04  0.16139771263E+04  0.50400001928E-02 0. -1.
    10030    2    1    2    0    0  0.00000000000E+00  0.00000000000E+00 -0.15144679952E+04  0.17134862575E+04  0.80151222468E+03 0.  0.
        4    1    3    3  502    0 -0.29110686548E+03  0.17594165164E+03 -0.30421263688E+03  0.45633936193E+03  0.12699999809E+01 0.  1.
       -4    1    3    3    0  502  0.29110686548E+03 -0.17594165164E+03 -0.12102553583E+04  0.12571468956E+04  0.12699999809E+01 0. -1.
</event>
<event>
 5   0  0.2759559E-02  0.8156261E+03  0.7818609E-02  0.9537670E-01
        1   -1    0    0  501    0  0.00000000000E+00  0.00000000000E+00  0.43651044403E+03  0.43651044406E+03  0.50400001928E-02 0.  1.
       -1   -1    0    0    0  501  0.00000000000E+00  0.00000000000E+00 -0.38100230471E+03  0.38100230475E+03  0.50400001928E-02 0. -1.
    10030    2    1    2    0    0  0.00000000000E+00  0.00000000000E+00  0.55508139318E+02  0.81751274880E+03  0.81562610363E+03 0.  0.
        3    1    3    3  502    0  0.34340720580E+03  0.18491924506E+03  0.14714230714E+03  0.41686269315E+03  0.10100000352E+00 0. -1.
       -3    1    3    3    0  502 -0.34340720580E+03 -0.18491924506E+03 -0.91634167822E+02  0.40065005566E+03  0.10100000352E+00 0.  1.
</event>
<event>
 5   0  0.1786500E-02  0.8191724E+03  0.7818609E-02  0.9532673E-01
       -4   -1    0    0    0  501  0.00000000000E+00  0.00000000000E+00  0.19820225649E+03  0.19820632527E+03  0.12699999809E+01 0.  1.
        4   -1    0    0  501    0  0.00000000000E+00  0.00000000000E+00 -0.84639912016E+03  0.84640007296E+03  0.12699999809E+01 0. -1.
    10030    2    1    2    0    0  0.00000000000E+00  0.00000000000E+00 -0.64819686367E+03  0.10446063982E+04  0.81917235864E+03 0.  0.
        3    1    3    3  502    0  0.15599264034E+02  0.99010533985E+02 -0.83052102568E+03  0.83654743271E+03  0.10100000352E+00 0. -1.
       -3    1    3    3    0  502 -0.15599264034E+02 -0.99010533985E+02  0.18232416201E+03  0.20805896552E+03  0.10100000352E+00 0.  1.
</event>
<event>
 5   0  0.4684283E-02  0.8040041E+03  0.7818609E-02  0.9554239E-01
        2   -1    0    0  501    0  0.00000000000E+00  0.00000000000E+00  0.55316064365E+03  0.55316064366E+03  0.25500000920E-02 0.  1.
       -2   -1    0    0    0  501  0.00000000000E+00  0.00000000000E+00 -0.29214959554E+03  0.29214959555E+03  0.25500000920E-02 0. -1.
    10030    2    1    2    0    0  0.00000000000E+00  0.00000000000E+00  0.26101104811E+03  0.84531023921E+03  0.80400412516E+03 0.  0.
        1    1    3    3  502    0  0.26669361129E+03  0.18831240568E+03  0.37711665500E+03  0.49880258213E+03  0.50400001928E-02 0.  1.
       -1    1    3    3    0  502 -0.26669361129E+03 -0.18831240568E+03 -0.11610560689E+03  0.34650765708E+03  0.50400001928E-02 0. -1.
</event>
<event>
 5   0  0.4590462E-02  0.7876900E+03  0.7818609E-02  0.9578008E-01
       -2   -1    0    0    0  501  0.00000000000E+00  0.00000000000E+00  0.66882027730E+03  0.66882027731E+03  0.25500000920E-02 0.  1.
        2   -1    0    0  501    0  0.00000000000E+00  0.00000000000E+00 -0.23192163614E+03  0.23192163615E+03  0.25500000920E-02 0. -1.
    10030    2    1    2    0    0  0.00000000000E+00  0.00000000000E+00  0.43689864116E+03  0.90074191346E+03  0.78769002280E+03 0.  0.
        3    1    3    3  502    0  0.19474839838E+03  0.16709677482E+03  0.56010380122E+03  0.61608810180E+03  0.10100000352E+00 0.  1.
       -3    1    3    3    0  502 -0.19474839838E+03 -0.16709677482E+03 -0.12320516006E+03  0.28465381167E+03  0.10100000352E+00 0. -1.
</event>
<event>
 5   0  0.4590462E-02  0.7944587E+03  0.7818609E-02  0.9568073E-01
        2   -1    0    0  501    0  0.00000000000E+00  0.00000000000E+00  0.19056511034E+04  0.19056511034E+04  0.25500000920E-02 0.  1.
       -2   -1    0    0    0  501  0.00000000000E+00  0.00000000000E+00 -0.82801711976E+02  0.82801712015E+02  0.25500000920E-02 0. -1.
    10030    2    1    2    0    0  0.00000000000E+00  0.00000000000E+00  0.18228493915E+04  0.19884528154E+04  0.79445874363E+03 0.  0.
        3    1    3    3  502    0  0.39808963863E+02 -0.15118207686E+03  0.18254139406E+04  0.18320962963E+04  0.10100000352E+00 0.  1.
       -3    1    3    3    0  502 -0.39808963863E+02  0.15118207686E+03 -0.25645491942E+01  0.15635651916E+03  0.10100000352E+00 0. -1.
</event>
<event>
 5   0  0.2689372E-02  0.8553226E+03  0.7818609E-02  0.9483221E-01
       -1   -1    0    0    0  501  0.00000000000E+00  0.00000000000E+00  0.26565831996E+03  0.26565832001E+03  0.50400001928E-02 0.  1.
        1   -1    0    0  501    0  0.00000000000E+00  0.00000000000E+00 -0.68845651083E+03  0.68845651085E+03  0.50400001928E-02 0. -1.
    10030    2    1    2    0    0  0.00000000000E+00  0.00000000000E+00 -0.42279819088E+03  0.95411483086E+03  0.85532262933E+03 0.  0.
        4    1    3    3  502    0 -0.40022102034E+03  0.11149055477E+02 -0.43734079363E+02  0.40275979089E+03  0.12699999809E+01 0.  1.
       -4    1    3    3    0  502  0.40022102034E+03 -0.11149055477E+02 -0.37906411151E+03  0.55135503997E+03  0.12699999809E+01 0. -1.
</event>
<event>
 5   0  0.4684283E-02  0.8314932E+03  0.7818609E-02  0.9515518E-01
        2   -1    0    0  501    0  0.00000000000E+00  0.00000000000E+00  0.10099144589E+04  0.10099144589E+04  0.25500000920E-02 0. -1.
       -2   -1    0    0    0  501  0.00000000000E+00  0.00000000000E+00 -0.17114837694E+03  0.17114837696E+03  0.25500000920E-02 0.  1.
    10030    2    1    2    0    0  0.00000000000E+00  0.00000000000E+00  0.83876608199E+03  0.11810628359E+04  0.83149316415E+03 0.  0.
        1    1    3    3  502    0  0.45700663334E+02  0.29523063083E+03  0.83006524695E+03  0.88218931654E+03  0.50400001928E-02 0. -1.
       -1    1    3    3    0  502 -0.45700663334E+02 -0.29523063083E+03  0.87008350436E+01  0.29887351935E+03  0.50400001928E-02 0.  1.
</event>
<event>
 5   0  0.2769394E-02  0.6298069E+03  0.7818609E-02  0.9845426E-01
       -1   -1    0    0    0  501  0.00000000000E+00  0.00000000000E+00  0.27880346707E+03  0.27880346712E+03  0.50400001928E-02 0. -1.
        1   -1    0    0  501    0  0.00000000000E+00  0.00000000000E+00 -0.35567768717E+03  0.35567768720E+03  0.50400001928E-02 0.  1.
    10030    2    1    2    0    0  0.00000000000E+00  0.00000000000E+00 -0.76874220095E+02  0.63448115432E+03  0.62980686680E+03 0.  0.
        2    1    3    3  502    0 -0.46566031094E+02 -0.85408569125E+02 -0.34016145234E+03  0.35379772837E+03  0.25500000920E-02 0.  1.
       -2    1    3    3    0  502  0.46566031094E+02  0.85408569125E+02  0.26328723225E+03  0.28068342595E+03  0.25500000920E-02 0. -1.
</event>
<event>
 5   0  0.2635243E-02  0.8248096E+03  0.7818609E-02  0.9524785E-01
       -1   -1    0    0    0  501  0.00000000000E+00  0.00000000000E+00  0.38310744265E+03  0.38310744268E+03  0.50400001928E-02 0.  1.
        1   -1    0    0  501    0  0.00000000000E+00  0.00000000000E+00 -0.44394265178E+03  0.44394265181E+03  0.50400001928E-02 0. -1.
    10030    2    1    2    0    0  0.00000000000E+00  0.00000000000E+00 -0.60835209130E+02  0.82705009449E+03  0.82480963629E+03 0.  0.
        1    1    3    3  502    0 -0.95379564867E+02  0.14904706030E+03 -0.40394181638E+03  0.44100031590E+03  0.50400001928E-02 0. -1.
       -1    1    3    3    0  502  0.95379564867E+02 -0.14904706030E+03  0.34310660725E+03  0.38604977858E+03  0.50400001928E-02 0.  1.
</event>
<event>
 5   0  0.2606520E-02  0.7238803E+03  0.7818609E-02  0.9677243E-01
        1   -1    0    0  501    0  0.00000000000E+00  0.00000000000E+00  0.19524150671E+03  0.19524150677E+03  0.50400001928E-02 0.  1.
       -1   -1    0    0    0  501  0.00000000000E+00  0.00000000000E+00 -0.67096740976E+03  0.67096740978E+03  0.50400001928E-02 0. -1.
    10030    2    1    2    0    0  0.00000000000E+00  0.00000000000E+00 -0.47572590305E+03  0.86620891655E+03  0.72388034389E+03 0.  0.
        5    1    3    3  502    0 -0.66322581973E+02 -0.22381024040E+03 -0.56880735688E+03  0.61486064098E+03  0.46999998093E+01 0. -1.
       -5    1    3    3    0  502  0.66322581973E+02  0.22381024040E+03  0.93081453833E+02  0.25134827557E+03  0.46999998093E+01 0.  1.
</event>
<event>
 5   0  0.4377843E-02  0.8061933E+03  0.7818609E-02  0.9551096E-01
       -2   -1    0    0    0  501  0.00000000000E+00  0.00000000000E+00  0.96411827564E+02  0.96411827598E+02  0.25500000920E-02 0. -1.
        2   -1    0    0  501    0  0.00000000000E+00  0.00000000000E+00 -0.16853420165E+04  0.16853420166E+04  0.25500000920E-02 0.  1.
    10030    2    1    2    0    0  0.00000000000E+00  0.00000000000E+00 -0.15889301890E+04  0.17817538441E+04  0.80619328679E+03 0.  0.
        2    1    3    3  502    0 -0.30249515960E+03 -0.12936487328E+03 -0.27970882934E+03  0.43182823117E+03  0.25500000920E-02 0. -1.
       -2    1    3    3    0  502  0.30249515960E+03  0.12936487328E+03 -0.13092213596E+04  0.13499256130E+04  0.25500000920E-02 0.  1.
</event>
<event>
 5   0  0.4684283E-02  0.7754415E+03  0.7818609E-02  0.9596261E-01
        2   -1    0    0  501    0  0.00000000000E+00  0.00000000000E+00  0.12792205008E+04  0.12792205008E+04  0.25500000920E-02 0. -1.
       -2   -1    0    0    0  501  0.00000000000E+00  0.00000000000E+00 -0.11751484265E+03  0.11751484268E+03  0.25500000920E-02 0.  1.
    10030    2    1    2    0    0  0.00000000000E+00  0.00000000000E+00  0.11617056582E+04  0.13967353435E+04  0.77544154104E+03 0.  0.
        1    1    3    3  502    0  0.15079584251E+03 -0.12188793519E+03  0.11856188702E+04  0.12013692856E+04  0.50400001928E-02 0. -1.
       -1    1    3    3    0  502 -0.15079584251E+03  0.12188793519E+03 -0.23913212039E+02  0.19536605794E+03  0.50400001928E-02 0.  1.
</event>
<event>
 5   0  0.4663634E-02  0.7680429E+03  0.7818609E-02  0.9607462E-01
        2   -1    0    0  501    0  0.00000000000E+00  0.00000000000E+00  0.13594632952E+04  0.13594632952E+04  0.25500000920E-02 0.  1.
       -2   -1    0    0    0  501  0.00000000000E+00  0.00000000000E+00 -0.10847844135E+03  0.10847844138E+03  0.25500000920E-02 0. -1.
    10030    2    1    2    0    0  0.00000000000E+00  0.00000000000E+00  0.12509848539E+04  0.14679417366E+04  0.76804286171E+03 0.  0.
        5    1    3    3  502    0  0.25159799368E+03  0.41359306558E+02  0.76725812622E+02  0.26631012557E+03  0.46999998093E+01 0. -1.
       -5    1    3    3    0  502 -0.25159799368E+03 -0.41359306558E+02  0.11742590413E+04  0.12016316110E+04  0.46999998093E+01 0.  1.
</event>
<event>
 5   0  0.1786500E-02  0.7954505E+03  0.7818609E-02  0.9566626E-01
       -3   -1    0    0    0  501  0.00000000000E+00  0.00000000000E+00  0.53935310499E+03  0.53935311445E+03  0.10100000352E+00 0. -1.
        3   -1    0    0  501    0  0.00000000000E+00  0.00000000000E+00 -0.29328723342E+03  0.29328725081E+03  0.10100000352E+00 0.  1.
    10030    2    1    2    0    0  0.00000000000E+00  0.00000000000E+00  0.24606587157E+03  0.83264036526E+03  0.79545054196E+03 0.  0.
        2    1    3    3  502    0 -0.13380291568E+03  0.73818106281E+01 -0.26894457724E+03  0.30048110924E+03  0.25500000920E-02 0.  1.
       -2    1    3    3    0  502  0.13380291568E+03 -0.73818106281E+01  0.51501044881E+03  0.53215925602E+03  0.25500000920E-02 0. -1.
</event>
<event>
 5   0  0.1786500E-02  0.5908654E+03  0.7818609E-02  0.9924541E-01
        4   -1    0    0  501    0  0.00000000000E+00  0.00000000000E+00  0.11153882075E+03  0.11154605073E+03  0.12699999809E+01 0. -1.
       -4   -1    0    0    0  501  0.00000000000E+00  0.00000000000E+00 -0.78247895260E+03  0.78247998324E+03  0.12699999809E+01 0.  1.
    10030    2    1    2    0    0  0.00000000000E+00  0.00000000000E+00 -0.67094013185E+03  0.89402603397E+03  0.59086537289E+03 0.  0.
        1    1    3    3  502    0 -0.14871009478E+03 -0.16098604249E+03 -0.63523266141E+03  0.67197599088E+03  0.50400001928E-02 0.  1.
       -1    1    3    3    0  502  0.14871009478E+03  0.16098604249E+03 -0.35707470445E+02  0.22205004309E+03  0.50400001928E-02 0. -1.
</event>
<event>
 5   0  0.4700220E-02  0.7924956E+03  0.7818609E-02  0.9570943E-01
        2   -1    0    0  501    0  0.00000000000E+00  0.00000000000E+00  0.15650177652E+04  0.15650177652E+04  0.25500000920E-02 0.  1.
       -2   -1    0    0    0  501  0.00000000000E+00  0.00000000000E+00 -0.10032622098E+03  0.10032622101E+03  0.25500000920E-02 0. -1.
    10030    2    1    2    0    0  0.00000000000E+00  0.00000000000E+00  0.14646915442E+04  0.16653439862E+04  0.79249559789E+03 0.  0.
        4    1    3    3  502    0 -0.55595882406E+02 -0.24634974106E+03  0.90709831645E+02  0.26834489657E+03  0.12699999809E+01 0. -1.
       -4    1    3    3    0  502  0.55595882406E+02  0.24634974106E+03  0.13739817125E+04  0.13969990896E+04  0.12699999809E+01 0.  1.
</event>
<event>
 5   0  0.4684283E-02  0.8369410E+03  0.7818609E-02  0.9508034E-01
       -2   -1    0    0    0  501  0.00000000000E+00  0.00000000000E+00  0.32887794363E+03  0.32887794364E+03  0.25500000920E-02 0.  1.
        2   -1    0    0  501    0  0.00000000000E+00  0.00000000000E+00 -0.53246975272E+03  0.53246975273E+03  0.25500000920E-02 0. -1.
    10030    2    1    2    0    0  0.00000000000E+00  0.00000000000E+00 -0.20359180909E+03  0.86134769637E+03  0.83694099512E+03 0.  0.
        1    1    3    3  502    0  0.13616481565E+02 -0.36802138485E+03  0.10272630160E+03  0.38233210870E+03  0.50400001928E-02 0.  1.
       -1    1    3    3    0  502 -0.13616481565E+02  0.36802138485E+03 -0.30631811069E+03  0.47901558767E+03  0.50400001928E-02 0. -1.
</event>
<event>
 5   0  0.2635243E-02  0.8541404E+03  0.7818609E-02  0.9484797E-01
       -1   -1    0    0    0  501  0.00000000000E+00  0.00000000000E+00  0.77315392161E+03  0.77315392163E+03  0.50400001928E-02 0.  1.
        1   -1    0    0  501    0  0.00000000000E+00  0.00000000000E+00 -0.23590253718E+03  0.23590253724E+03  0.50400001928E-02 0. -1.
    10030    2    1    2    0    0  0.00000000000E+00  0.00000000000E+00  0.53725138443E+03  0.10090564589E+04  0.85414043758E+03 0.  0.
        1    1    3    3  502    0  0.56900791284E+02 -0.20918372886E+03  0.70332104136E+03  0.73597283898E+03  0.50400001928E-02 0.  1.
       -1    1    3    3    0  502 -0.56900791284E+02  0.20918372886E+03 -0.16606965694E+03  0.27308361988E+03  0.50400001928E-02 0. -1.
</event>
<event>
 5   0  0.2606520E-02  0.8129105E+03  0.7818609E-02  0.9541515E-01
        1   -1    0    0  501    0  0.00000000000E+00  0.00000000000E+00  0.43588057814E+03  0.43588057817E+03  0.50400001928E-02 0. -1.
       -1   -1    0    0    0  501  0.00000000000E+00  0.00000000000E+00 -0.37901638704E+03  0.37901638707E+03  0.50400001928E-02 0.  1.
    10030    2    1    2    0    0  0.00000000000E+00  0.00000000000E+00  0.56864191100E+02  0.81489696524E+03  0.81291052873E+03 0.  0.
        5    1    3    3  502    0  0.28665566553E+03  0.26463691654E+03 -0.85774452171E+02  0.39947905430E+03  0.46999998093E+01 0.  1.
       -5    1    3    3    0  502 -0.28665566553E+03 -0.26463691654E+03  0.14263864327E+03  0.41541791094E+03  0.46999998093E+01 0. -1.
</event>
<event>
 5   0  0.4663634E-02  0.8559928E+03  0.7818609E-02  0.9482329E-01
        2   -1    0    0  501    0  0.00000000000E+00  0.00000000000E+00  0.94267554494E+03  0.94267554494E+03  0.25500000920E-02 0. -1.
       -2   -1    0    0    0  501  0.00000000000E+00  0.00000000000E+00 -0.19432022627E+03  0.19432022629E+03  0.25500000920E-02 0.  1.
    10030    2    1    2    0    0  0.00000000000E+00  0.00000000000E+00  0.74835531867E+03  0.11369957712E+04  0.85599281587E+03 0.  0.
        5    1    3    3  502    0  0.34672467807E+03  0.14699310794E+03  0.10412919825E+03  0.39075562196E+03  0.46999998093E+01 0. -1.
       -5    1    3    3    0  502 -0.34672467807E+03 -0.14699310794E+03  0.64422612042E+03  0.74624014928E+03  0.46999998093E+01 0.  1.
</event>
<event>
 5   0  0.4663634E-02  0.8069021E+03  0.7818609E-02  0.9550080E-01
       -2   -1    0    0    0  501  0.00000000000E+00  0.00000000000E+00  0.13253700266E+03  0.13253700268E+03  0.25500000920E-02 0.  1.
        2   -1    0    0  501    0  0.00000000000E+00  0.00000000000E+00 -0.12281306508E+04  0.12281306508E+04  0.25500000920E-02 0. -1.
    10030    2    1    2    0    0  0.00000000000E+00  0.00000000000E+00 -0.10955936482E+04  0.13606676535E+04  0.80690211391E+03 0.  0.
        5    1    3    3  502    0  0.16717313756E+02 -0.40027370766E+03 -0.62782269630E+03  0.74476972120E+03  0.46999998093E+01 0. -1.
       -5    1    3    3    0  502 -0.16717313756E+02  0.40027370766E+03 -0.46777095188E+03  0.61589793233E+03  0.46999998093E+01 0.  1.
</event>
<event>
 5   0  0.4663634E-02  0.8076928E+03  0.7818609E-02  0.9548948E-01
       -2   -1    0    0    0  501  0.00000000000E+00  0.00000000000E+00  0.15068090225E+03  0.15068090227E+03  0.25500000920E-02 0. -1.
        2   -1    0    0  501    0  0.00000000000E+00  0.00000000000E+00 -0.10823661938E+04  0.10823661938E+04  0.25500000920E-02 0.  1.
    10030    2    1    2    0    0  0.00000000000E+00  0.00000000000E+00 -0.93168529151E+03  0.12330470960E+04  0.80769279967E+03 0.  0.
        5    1    3    3  502    0  0.35738743028E+03 -0.81050771826E+02 -0.72480687212E+03  0.81219584756E+03  0.46999998093E+01 0.  1.
       -5    1    3    3    0  502 -0.35738743028E+03  0.81050771826E+02 -0.20687841940E+03  0.42085124848E+03  0.46999998093E+01 0. -1.
</event>
<event>
 5   0  0.4700220E-02  0.8039406E+03  0.7818609E-02  0.9554331E-01
        2   -1    0    0  501    0  0.00000000000E+00  0.00000000000E+00  0.10555805682E+04  0.10555805682E+04  0.25500000920E-02 0.  1.
       -2   -1    0    0    0  501  0.00000000000E+00  0.00000000000E+00 -0.15307227154E+03  0.15307227156E+03  0.25500000920E-02 0. -1.
    10030    2    1    2    0    0  0.00000000000E+00  0.00000000000E+00  0.90250829669E+03  0.12086528398E+04  0.80394058336E+03 0.  0.
        4    1    3    3  502    0  0.37451285710E+03 -0.40424497595E+02  0.24032353116E+03  0.44682326783E+03  0.12699999809E+01 0.  1.
       -4    1    3    3    0  502 -0.37451285710E+03  0.40424497595E+02  0.66218476553E+03  0.76182957198E+03  0.12699999809E+01 0. -1.
</event>
<event>
 5   0  0.4700220E-02  0.8153830E+03  0.7818609E-02  0.9538014E-01
       -2   -1    0    0    0  501  0.00000000000E+00  0.00000000000E+00  0.13380998633E+03  0.13380998635E+03  0.25500000920E-02 0.  1.
        2   -1    0    0  501    0  0.00000000000E+00  0.00000000000E+00 -0.12421522044E+04  0.12421522044E+04  0.25500000920E-02 0. -1.
    10030    2    1    2    0    0  0.00000000000E+00  0.00000000000E+00 -0.11083422181E+04  0.13759621907E+04  0.81538302534E+03 0.  0.
        4    1    3    3  502    0  0.23868353662E+03 -0.27118005429E+03 -0.87302590724E+03  0.94481971831E+03  0.12699999809E+01 0. -1.
       -4    1    3    3    0  502 -0.23868353662E+03  0.27118005429E+03 -0.23531631082E+03  0.43114247243E+03  0.12699999809E+01 0.  1.
</event>
<event>
 5   0  0.2606520E-02  0.8011352E+03  0.7818609E-02  0.9558375E-01
       -1   -1    0    0    0  501  0.00000000000E+00  0.00000000000E+00  0.20350732361E+03  0.20350732367E+03  0.50400001928E-02 0. -1.
        1   -1    0    0  501    0  0.00000000000E+00  0.00000000000E+00 -0.78844535058E+03  0.78844535060E+03  0.50400001928E-02 0.  1.
    10030    2    1    2    0    0  0.00000000000E+00  0.00000000000E+00 -0.58493802697E+03  0.99195267427E+03  0.80113520245E+03 0.  0.
        5    1    3    3  502    0  0.28904494735E+03 -0.10013961728E+03 -0.61262368410E+03  0.68476623227E+03  0.46999998093E+01 0.  1.
       -5    1    3    3    0  502 -0.28904494735E+03  0.10013961728E+03  0.27685657136E+02  0.30718644200E+03  0.46999998093E+01 0. -1.
</event>
<event>
 5   0  0.4590462E-02  0.8004349E+03  0.7818609E-02  0.9559388E-01
        2   -1    0    0  501    0  0.00000000000E+00  0.00000000000E+00  0.75866883455E+03  0.75866883455E+03  0.25500000920E-02 0. -1.
       -2   -1    0    0    0  501  0.00000000000E+00  0.00000000000E+00 -0.21112507430E+03  0.21112507431E+03  0.25500000920E-02 0.  1.
    10030    2    1    2    0    0  0.00000000000E+00  0.00000000000E+00  0.54754376025E+03  0.96979390886E+03  0.80043491696E+03 0.  0.
        3    1    3    3  502    0 -0.19255422990E+03  0.20945338599E+03  0.61479804947E+03  0.67743966830E+03  0.10100000352E+00 0. -1.
       -3    1    3    3    0  502  0.19255422990E+03 -0.20945338599E+03 -0.67254289218E+02  0.29235424056E+03  0.10100000352E+00 0.  1.
</event>
<event>
 5   0  0.4377843E-02  0.8237490E+03  0.7818609E-02  0.9526264E-01
        2   -1    0    0  501    0  0.00000000000E+00  0.00000000000E+00  0.12421395668E+04  0.12421395668E+04  0.25500000920E-02 0.  1.
       -2   -1    0    0    0  501  0.00000000000E+00  0.00000000000E+00 -0.13657128335E+03  0.13657128338E+03  0.25500000920E-02 0. -1.
    10030    2    1    2    0    0  0.00000000000E+00  0.00000000000E+00  0.11055682834E+04  0.13787108501E+04  0.82374897816E+03 0.  0.
        2    1    3    3  502    0  0.42233858944E+02 -0.13269773523E+02 -0.13257780090E+03  0.13977359918E+03  0.25500000920E-02 0. -1.
       -2    1    3    3    0  502 -0.42233858944E+02  0.13269773523E+02  0.12381460843E+04  0.12389372510E+04  0.25500000920E-02 0.  1.
</event>
<event>
 5   0  0.2635243E-02  0.8033836E+03  0.7818609E-02  0.9555132E-01
       -1   -1    0    0    0  501  0.00000000000E+00  0.00000000000E+00  0.22949449872E+03  0.22949449877E+03  0.50400001928E-02 0. -1.
        1   -1    0    0  501    0  0.00000000000E+00  0.00000000000E+00 -0.70309449170E+03  0.70309449172E+03  0.50400001928E-02 0.  1.
    10030    2    1    2    0    0  0.00000000000E+00  0.00000000000E+00 -0.47359999298E+03  0.93258899049E+03  0.80338363926E+03 0.  0.
        1    1    3    3  502    0  0.30507278146E+03 -0.11569258765E+03  0.35195643089E+02  0.32816597956E+03  0.50400001928E-02 0. -1.
       -1    1    3    3    0  502 -0.30507278146E+03  0.11569258765E+03 -0.50879563607E+03  0.60442301092E+03  0.50400001928E-02 0.  1.
</event>
<event>
 5   0  0.4663634E-02  0.8097952E+03  0.7818609E-02  0.9545946E-01
       -2   -1    0    0    0  501  0.00000000000E+00  0.00000000000E+00  0.19380627647E+03  0.19380627649E+03  0.25500000920E-02 0. -1.
        2   -1    0    0  501    0  0.00000000000E+00  0.00000000000E+00 -0.84590698694E+03  0.84590698695E+03  0.25500000920E-02 0.  1.
    10030    2    1    2    0    0  0.00000000000E+00  0.00000000000E+00 -0.65210071047E+03  0.10397132634E+04  0.80979524176E+03 0.  0.
        5    1    3    3  502    0  0.38071261959E+03  0.12971001892E+03 -0.38562769688E+03  0.55722311360E+03  0.46999998093E+01 0. -1.
       -5    1    3    3    0  502 -0.38071261959E+03 -0.12971001892E+03 -0.26647301359E+03  0.48249014984E+03  0.46999998093E+01 0.  1.
</event>
<event>
 5   0  0.4377843E-02  0.7993628E+03  0.7818609E-02  0.9560940E-01
        2   -1    0    0  501    0  0.00000000000E+00  0.00000000000E+00  0.15066679780E+03  0.15066679783E+03  0.25500000920E-02 0. -1.
       -2   -1    0    0    0  501  0.00000000000E+00  0.00000000000E+00 -0.10602550697E+04  0.10602550697E+04  0.25500000920E-02 0.  1.
    10030    2    1    2    0    0  0.00000000000E+00  0.00000000000E+00 -0.90958827188E+03  0.12109218675E+04  0.79936283681E+03 0.  0.
        2    1    3    3  502    0  0.85296499731E+02 -0.86981582253E+02  0.12185583844E+03  0.17230825252E+03  0.25500000920E-02 0. -1.
       -2    1    3    3    0  502 -0.85296499731E+02  0.86981582253E+02 -0.10314441103E+04  0.10386136150E+04  0.25500000920E-02 0.  1.
</event>
<event>
 5   0  0.2635243E-02  0.8296313E+03  0.7818609E-02  0.9518090E-01
        1   -1    0    0  501    0  0.00000000000E+00  0.00000000000E+00  0.38712468792E+03  0.38712468795E+03  0.50400001928E-02 0.  1.
       -1   -1    0    0    0  501  0.00000000000E+00  0.00000000000E+00 -0.44448738928E+03  0.44448738931E+03  0.50400001928E-02 0. -1.
    10030    2    1    2    0    0  0.00000000000E+00  0.00000000000E+00 -0.57362701363E+02  0.83161207726E+03  0.82963134435E+03 0.  0.
        1    1    3    3  502    0  0.76678686184E+02 -0.11006888357E+03  0.36478256706E+03  0.38866579641E+03  0.50400001928E-02 0.  1.
       -1    1    3    3    0  502 -0.76678686184E+02  0.11006888357E+03 -0.42214526842E+03  0.44294628085E+03  0.50400001928E-02 0. -1.
</event>
<event>
 5   0  0.4663634E-02  0.7783342E+03  0.7818609E-02  0.9591918E-01
       -2   -1    0    0    0  501  0.00000000000E+00  0.00000000000E+00  0.65566105627E+03  0.65566105628E+03  0.25500000920E-02 0. -1.
        2   -1    0    0  501    0  0.00000000000E+00  0.00000000000E+00 -0.23098983067E+03  0.23098983068E+03  0.25500000920E-02 0.  1.
    10030    2    1    2    0    0  0.00000000000E+00  0.00000000000E+00  0.42467122561E+03  0.88665088696E+03  0.77833421194E+03 0.  0.
        5    1    3    3  502    0  0.30737734057E+03  0.10424630902E+03 -0.32202552943E+02  0.32620119076E+03  0.46999998093E+01 0.  1.
       -5    1    3    3    0  502 -0.30737734057E+03 -0.10424630902E+03  0.45687377855E+03  0.56044969619E+03  0.46999998093E+01 0. -1.
</event>
<event>
 5   0  0.1786500E-02  0.8175822E+03  0.7818609E-02  0.9534911E-01
       -4   -1    0    0    0  501  0.00000000000E+00  0.00000000000E+00  0.16011553911E+03  0.16012057571E+03  0.12699999809E+01 0. -1.
        4   -1    0    0  501    0  0.00000000000E+00  0.00000000000E+00 -0.10436631153E+04  0.10436638880E+04  0.12699999809E+01 0.  1.
    10030    2    1    2    0    0  0.00000000000E+00  0.00000000000E+00 -0.88354757619E+03  0.12037844637E+04  0.81758223788E+03 0.  0.
        4    1    3    3  502    0  0.89403292662E+02 -0.14158346478E+03 -0.99085123696E+03  0.10049012951E+04  0.12699999809E+01 0.  1.
       -4    1    3    3    0  502 -0.89403292662E+02  0.14158346478E+03  0.10730366077E+03  0.19888316860E+03  0.12699999809E+01 0. -1.
</event>
<event>
 5   0  0.4590462E-02  0.8010479E+03  0.7818609E-02  0.9558502E-01
        2   -1    0    0  501    0  0.00000000000E+00  0.00000000000E+00  0.64164232385E+03  0.64164232385E+03  0.25500000920E-02 0.  1.
       -2   -1    0    0    0  501  0.00000000000E+00  0.00000000000E+00 -0.25001380483E+03  0.25001380485E+03  0.25500000920E-02 0. -1.
    10030    2    1    2    0    0  0.00000000000E+00  0.00000000000E+00  0.39162851901E+03  0.89165612870E+03  0.80104791051E+03 0.  0.
        3    1    3    3  502    0 -0.31684015504E+02 -0.94306168491E+02  0.62767005324E+03  0.63550549658E+03  0.10100000352E+00 0.  1.
       -3    1    3    3    0  502  0.31684015504E+02  0.94306168491E+02 -0.23604153422E+03  0.25615063212E+03  0.10100000352E+00 0. -1.
</event>
<event>
 5   0  0.2769394E-02  0.8241925E+03  0.7818609E-02  0.9525645E-01
        1   -1    0    0  501    0  0.00000000000E+00  0.00000000000E+00  0.41246657256E+03  0.41246657259E+03  0.50400001928E-02 0.  1.
       -1   -1    0    0    0  501  0.00000000000E+00  0.00000000000E+00 -0.41172629273E+03  0.41172629276E+03  0.50400001928E-02 0. -1.
    10030    2    1    2    0    0  0.00000000000E+00  0.00000000000E+00  0.74027982658E+00  0.82419286535E+03  0.82419253290E+03 0.  0.
        2    1    3    3  502    0 -0.91295385383E+02  0.21612996596E+03  0.33915682181E+03  0.41240072668E+03  0.25500000920E-02 0.  1.
       -2    1    3    3    0  502  0.91295385383E+02 -0.21612996596E+03 -0.33841654198E+03  0.41179213867E+03  0.25500000920E-02 0. -1.
</event>
<event>
 5   0  0.2606520E-02  0.7835881E+03  0.7818609E-02  0.9584081E-01
       -1   -1    0    0    0  501  0.00000000000E+00  0.00000000000E+00  0.21834061931E+03  0.21834061936E+03  0.50400001928E-02 0.  1.
        1   -1    0    0  501    0  0.00000000000E+00  0.00000000000E+00 -0.70304180520E+03  0.70304180522E+03  0.50400001928E-02 0. -1.
    10030    2    1    2    0    0  0.00000000000E+00  0.00000000000E+00 -0.48470118589E+03  0.92138242458E+03  0.78358811420E+03 0.  0.
        5    1    3    3  502    0  0.50366762302E+02 -0.14094487334E+03  0.18336284583E+03  0.23674097933E+03  0.46999998093E+01 0.  1.
       -5    1    3    3    0  502 -0.50366762302E+02  0.14094487334E+03 -0.66806403173E+03  0.68464144525E+03  0.46999998093E+01 0. -1.
</event>
<event>
 5   0  0.4377843E-02  0.8222954E+03  0.7818609E-02  0.9528295E-01
        2   -1    0    0  501    0  0.00000000000E+00  0.00000000000E+00  0.75459665262E+03  0.75459665263E+03  0.25500000920E-02 0. -1.
       -2   -1    0    0    0  501  0.00000000000E+00  0.00000000000E+00 -0.22401691744E+03  0.22401691745E+03  0.25500000920E-02 0.  1.
    10030    2    1    2    0    0  0.00000000000E+00  0.00000000000E+00  0.53057973519E+03  0.97861357008E+03  0.82229536308E+03 0.  0.
        2    1    3    3  502    0 -0.83741554089E+01 -0.37468442401E+03  0.64082480525E+02  0.38021718582E+03  0.25500000920E-02 0.  1.
       -2    1    3    3    0  502  0.83741554089E+01  0.37468442401E+03  0.46649725466E+03  0.59839638426E+03  0.25500000920E-02 0. -1.
</event>
<event>
 5   0  0.4684283E-02  0.8016900E+03  0.7818609E-02  0.9557574E-01
       -2   -1    0    0    0  501  0.00000000000E+00  0.00000000000E+00  0.13143811921E+03  0.13143811924E+03  0.25500000920E-02 0. -1.
        2   -1    0    0  501    0  0.00000000000E+00  0.00000000000E+00 -0.12224513631E+04  0.12224513631E+04  0.25500000920E-02 0.  1.
    10030    2    1    2    0    0  0.00000000000E+00  0.00000000000E+00 -0.10910132438E+04  0.13538894823E+04  0.80168998499E+03 0.  0.
        1    1    3    3  502    0 -0.17033129551E+03  0.28861107755E+03 -0.17409623788E+03  0.37764878444E+03  0.50400001928E-02 0. -1.
       -1    1    3    3    0  502  0.17033129551E+03 -0.28861107755E+03 -0.91691700597E+03  0.97624069787E+03  0.50400001928E-02 0.  1.
</event>
<event>
 5   0  0.2769394E-02  0.8041785E+03  0.7818609E-02  0.9553989E-01
       -1   -1    0    0    0  501  0.00000000000E+00  0.00000000000E+00  0.36087642473E+03  0.36087642477E+03  0.50400001928E-02 0.  1.
        1   -1    0    0  501    0  0.00000000000E+00  0.00000000000E+00 -0.44800866896E+03  0.44800866898E+03  0.50400001928E-02 0. -1.
    10030    2    1    2    0    0  0.00000000000E+00  0.00000000000E+00 -0.87132244226E+02  0.80888509375E+03  0.80417850438E+03 0.  0.
        2    1    3    3  502    0 -0.83676346187E+02 -0.39249813704E+03 -0.18535781506E+02  0.40174630514E+03  0.25500000920E-02 0.  1.
       -2    1    3    3    0  502  0.83676346187E+02  0.39249813704E+03 -0.68596462720E+02  0.40713878861E+03  0.25500000920E-02 0. -1.
</event>
<event>
 5   0  0.2759559E-02  0.8277636E+03  0.7818609E-02  0.9520678E-01
        1   -1    0    0  501    0  0.00000000000E+00  0.00000000000E+00  0.39717537125E+03  0.39717537128E+03  0.50400001928E-02 0. -1.
       -1   -1    0    0    0  501  0.00000000000E+00  0.00000000000E+00 -0.43129095627E+03  0.43129095630E+03  0.50400001928E-02 0.  1.
    10030    2    1    2    0    0  0.00000000000E+00  0.00000000000E+00 -0.34115585023E+02  0.82846632758E+03  0.82776360321E+03 0.  0.
        3    1    3    3  502    0  0.67296079631E+01  0.63000428416E+02  0.39229284371E+03  0.39737642988E+03  0.10100000352E+00 0. -1.
       -3    1    3    3    0  502 -0.67296079631E+01 -0.63000428416E+02 -0.42640842873E+03  0.43108989770E+03  0.10100000352E+00 0.  1.
</event>
<event>
 5   0  0.4377843E-02  0.8796671E+03  0.7818609E-02  0.9451362E-01
        2   -1    0    0  501    0  0.00000000000E+00  0.00000000000E+00  0.34897460737E+03  0.34897460738E+03  0.25500000920E-02 0. -1.
       -2   -1    0    0    0  501  0.00000000000E+00  0.00000000000E+00 -0.55434852580E+03  0.55434852580E+03  0.25500000920E-02 0.  1.
    10030    2    1    2    0    0  0.00000000000E+00  0.00000000000E+00 -0.20537391842E+03  0.90332313318E+03  0.87966711691E+03 0.  0.
        2    1    3    3  502    0  0.27895583158E+03  0.30636726627E+03  0.48849394540E+02  0.41720920551E+03  0.25500000920E-02 0.  1.
       -2    1    3    3    0  502 -0.27895583158E+03 -0.30636726627E+03 -0.25422331296E+03  0.48611392767E+03  0.25500000920E-02 0. -1.
</event>
<event>
 5   0  0.2635243E-02  0.7853704E+03  0.7818609E-02  0.9581438E-01
       -1   -1    0    0    0  501  0.00000000000E+00  0.00000000000E+00  0.33346894960E+03  0.33346894964E+03  0.50400001928E-02 0. -1.
        1   -1    0    0  501    0  0.00000000000E+00  0.00000000000E+00 -0.46241681163E+03  0.46241681166E+03  0.50400001928E-02 0.  1.
    10030    2    1    2    0    0  0.00000000000E+00  0.00000000000E+00 -0.12894786203E+03  0.79588576130E+03  0.78537035462E+03 0.  0.
        1    1    3    3  502    0  0.25568015844E+03  0.18721969592E+03 -0.29947991448E+03  0.43601809270E+03  0.50400001928E-02 0. -1.
       -1    1    3    3    0  502 -0.25568015844E+03 -0.18721969592E+03  0.17053205245E+03  0.35986766860E+03  0.50400001928E-02 0.  1.
</event>
<event>
 5   0  0.2635243E-02  0.7658843E+03  0.7818609E-02  0.9610755E-01
       -1   -1    0    0    0  501  0.00000000000E+00  0.00000000000E+00  0.19274584882E+03  0.19274584889E+03  0.50400001928E-02 0.  1.
        1   -1    0    0  501    0  0.00000000000E+00  0.00000000000E+00 -0.76081899289E+03  0.76081899290E+03  0.50400001928E-02 0. -1.
    10030    2    1    2    0    0  0.00000000000E+00  0.00000000000E+00 -0.56807314406E+03  0.95356484179E+03  0.76588433232E+03 0.  0.
        1    1    3    3  502    0  0.37110272459E+03 -0.50188773882E+02 -0.18436594664E+03  0.41740501618E+03  0.50400001928E-02 0. -1.
       -1    1    3    3    0  502 -0.37110272459E+03  0.50188773882E+02 -0.38370719742E+03  0.53615982562E+03  0.50400001928E-02 0.  1.
</event>
<event>
 5   0  0.2769394E-02  0.8013827E+03  0.7818609E-02  0.9558018E-01
        1   -1    0    0  501    0  0.00000000000E+00  0.00000000000E+00  0.94644932136E+03  0.94644932137E+03  0.50400001928E-02 0. -1.
       -1   -1    0    0    0  501  0.00000000000E+00  0.00000000000E+00 -0.16963777735E+03  0.16963777743E+03  0.50400001928E-02 0.  1.
    10030    2    1    2    0    0  0.00000000000E+00  0.00000000000E+00  0.77681154400E+03  0.11160870988E+04  0.80138270334E+03 0.  0.
        2    1    3    3  502    0 -0.21665024286E+01 -0.79314965550E+02 -0.15858748685E+03  0.17732892738E+03  0.25500000920E-02 0.  1.
       -2    1    3    3    0  502  0.21665024286E+01  0.79314965550E+02  0.93539903085E+03  0.93875817142E+03  0.25500000920E-02 0. -1.
</event>
<event>
 5   0  0.4700220E-02  0.8018613E+03  0.7818609E-02  0.9557327E-01
       -2   -1    0    0    0  501  0.00000000000E+00  0.00000000000E+00  0.91669245684E+02  0.91669245719E+02  0.25500000920E-02 0. -1.
        2   -1    0    0  501    0  0.00000000000E+00  0.00000000000E+00 -0.17535365844E+04  0.17535365844E+04  0.25500000920E-02 0.  1.
    10030    2    1    2    0    0  0.00000000000E+00  0.00000000000E+00 -0.16618673387E+04  0.18452058301E+04  0.80186127479E+03 0.  0.
        4    1    3    3  502    0 -0.26154684195E+03  0.11648369333E+03 -0.14767693514E+04  0.15042687697E+04  0.12699999809E+01 0.  1.
       -4    1    3    3    0  502  0.26154684195E+03 -0.11648369333E+03 -0.18509798726E+03  0.34093706037E+03  0.12699999809E+01 0. -1.
</event>
<event>
 5   0  0.1786500E-02  0.8173393E+03  0.7818609E-02  0.9535253E-01
        4   -1    0    0  501    0  0.00000000000E+00  0.00000000000E+00  0.13197905542E+03  0.13198516572E+03  0.12699999809E+01 0.  1.
       -4   -1    0    0    0  501  0.00000000000E+00  0.00000000000E+00 -0.12653989505E+04  0.12653995878E+04  0.12699999809E+01 0. -1.
    10030    2    1    2    0    0  0.00000000000E+00  0.00000000000E+00 -0.11334198951E+04  0.13973847535E+04  0.81733927523E+03 0.  0.
        4    1    3    3  502    0 -0.20791546998E+03 -0.30685873290E+03 -0.27247619698E+03  0.46003914554E+03  0.12699999809E+01 0.  1.
       -4    1    3    3    0  502  0.20791546998E+03  0.30685873290E+03 -0.86094369812E+03  0.93734560800E+03  0.12699999809E+01 0. -1.
</event>
<event>
 5   0  0.4700220E-02  0.8088949E+03  0.7818609E-02  0.9547231E-01
       -2   -1    0    0    0  501  0.00000000000E+00  0.00000000000E+00  0.15708864112E+03  0.15708864115E+03  0.25500000920E-02 0.  1.
        2   -1    0    0  501    0  0.00000000000E+00  0.00000000000E+00 -0.10413085596E+04  0.10413085596E+04  0.25500000920E-02 0. -1.
    10030    2    1    2    0    0  0.00000000000E+00  0.00000000000E+00 -0.88421991843E+03  0.11983972007E+04  0.80889491685E+03 0.  0.
        4    1    3    3  502    0 -0.18012897449E+03 -0.22310165424E+03 -0.86468292245E+03  0.91098790599E+03  0.12699999809E+01 0. -1.
       -4    1    3    3    0  502  0.18012897449E+03  0.22310165424E+03 -0.19536995977E+02  0.28740929471E+03  0.12699999809E+01 0.  1.
</event>
<event>
 5   0  0.4684283E-02  0.8099395E+03  0.7818609E-02  0.9545740E-01
       -2   -1    0    0    0  501  0.00000000000E+00  0.00000000000E+00  0.14518573023E+03  0.14518573025E+03  0.25500000920E-02 0. -1.
        2   -1    0    0  501    0  0.00000000000E+00  0.00000000000E+00 -0.11295911532E+04  0.11295911532E+04  0.25500000920E-02 0.  1.
    10030    2    1    2    0    0  0.00000000000E+00  0.00000000000E+00 -0.98440542301E+03  0.12747768835E+04  0.80993954455E+03 0.  0.
        1    1    3    3  502    0 -0.13414753378E+03  0.18770749866E+03  0.31632057862E+02  0.23287389931E+03  0.50400001928E-02 0. -1.
       -1    1    3    3    0  502  0.13414753378E+03 -0.18770749866E+03 -0.10160374809E+04  0.10419029842E+04  0.50400001928E-02 0.  1.
</event>
<event>
 5   0  0.1786500E-02  0.8375778E+03  0.7818609E-02  0.9507163E-01
        4   -1    0    0  501    0  0.00000000000E+00  0.00000000000E+00  0.90891047137E+03  0.90891135864E+03  0.12699999809E+01 0. -1.
       -4   -1    0    0    0  501  0.00000000000E+00  0.00000000000E+00 -0.19295780209E+03  0.19296198145E+03  0.12699999809E+01 0.  1.
    10030    2    1    2    0    0  0.00000000000E+00  0.00000000000E+00  0.71595266928E+03  0.11018733401E+04  0.83757783696E+03 0.  0.
        2    1    3    3  502    0 -0.30412872104E+03  0.14058131110E+03  0.68850817155E+03  0.76570287076E+03  0.25500000920E-02 0. -1.
       -2    1    3    3    0  502  0.30412872104E+03 -0.14058131110E+03  0.27444497730E+02  0.33617046934E+03  0.25500000920E-02 0.  1.
</event>
<event>
 5   0  0.4590462E-02  0.8115715E+03  0.7818609E-02  0.9543417E-01
        2   -1    0    0  501    0  0.00000000000E+00  0.00000000000E+00  0.53562411942E+03  0.53562411943E+03  0.25500000920E-02 0.  1.
       -2   -1    0    0    0  501  0.00000000000E+00  0.00000000000E+00 -0.30742097365E+03  0.30742097366E+03  0.25500000920E-02 0. -1.
    10030    2    1    2    0    0  0.00000000000E+00  0.00000000000E+00  0.22820314577E+03  0.84304509309E+03  0.81157153305E+03 0.  0.
        3    1    3    3  502    0 -0.20330486429E+03  0.15391042669E+03 -0.21379930745E+03  0.33276334137E+03  0.10100000352E+00 0. -1.
       -3    1    3    3    0  502  0.20330486429E+03 -0.15391042669E+03  0.44200245322E+03  0.51028175173E+03  0.10100000352E+00 0.  1.
</event>
<event>
 5   0  0.4700220E-02  0.7901850E+03  0.7818609E-02  0.9574334E-01
       -2   -1    0    0    0  501  0.00000000000E+00  0.00000000000E+00  0.23564667382E+03  0.23564667384E+03  0.25500000920E-02 0.  1.
        2   -1    0    0  501    0  0.00000000000E+00  0.00000000000E+00 -0.66242425650E+03  0.66242425650E+03  0.25500000920E-02 0. -1.
    10030    2    1    2    0    0  0.00000000000E+00  0.00000000000E+00 -0.42677758267E+03  0.89807093034E+03  0.79018497255E+03 0.  0.
        4    1    3    3  502    0 -0.18328296300E+03 -0.34968777890E+03 -0.19644444541E+03  0.44098324262E+03  0.12699999809E+01 0. -1.
       -4    1    3    3    0  502  0.18328296300E+03  0.34968777890E+03 -0.23033313726E+03  0.45708768772E+03  0.12699999809E+01 0.  1.
</event>
<event>
 5   0  0.2759559E-02  0.7967261E+03  0.7818609E-02  0.9564768E-01
       -1   -1    0    0    0  501  0.00000000000E+00  0.00000000000E+00  0.20091449033E+03  0.20091449039E+03  0.50400001928E-02 0. -1.
        1   -1    0    0  501    0  0.00000000000E+00  0.00000000000E+00 -0.78985400864E+03  0.78985400865E+03  0.50400001928E-02 0.  1.
    10030    2    1    2    0    0  0.00000000000E+00  0.00000000000E+00 -0.58893951831E+03  0.99076849905E+03  0.79672608999E+03 0.  0.
        3    1    3    3  502    0 -0.28552221545E+03 -0.23866115510E+03 -0.47125959744E+03  0.60047289768E+03  0.10100000352E+00 0.  1.
       -3    1    3    3    0  502  0.28552221545E+03  0.23866115510E+03 -0.11767992087E+03  0.39029560137E+03  0.10100000352E+00 0. -1.
</event>
<event>
 5   0  0.2769394E-02  0.1114857E+04  0.7818609E-02  0.9190831E-01
       -1   -1    0    0    0  501  0.00000000000E+00  0.00000000000E+00  0.43274127171E+03  0.43274127174E+03  0.50400001928E-02 0.  1.
        1   -1    0    0  501    0  0.00000000000E+00  0.00000000000E+00 -0.71804222029E+03  0.71804222031E+03  0.50400001928E-02 0. -1.
    10030    2    1    2    0    0  0.00000000000E+00  0.00000000000E+00 -0.28530094858E+03  0.11507834921E+04  0.11148569479E+04 0.  0.
        2    1    3    3  502    0 -0.99046629877E+02 -0.54455349157E+03 -0.74353631617E+02  0.55845966963E+03  0.25500000920E-02 0. -1.
       -2    1    3    3    0  502  0.99046629877E+02  0.54455349157E+03 -0.21094731696E+03  0.59232382242E+03  0.25500000920E-02 0.  1.
</event>
<event>
 5   0  0.2759559E-02  0.8192856E+03  0.7818609E-02  0.9532514E-01
       -1   -1    0    0    0  501  0.00000000000E+00  0.00000000000E+00  0.40383223127E+03  0.40383223131E+03  0.50400001928E-02 0.  1.
        1   -1    0    0  501    0  0.00000000000E+00  0.00000000000E+00 -0.41553693189E+03  0.41553693192E+03  0.50400001928E-02 0. -1.
    10030    2    1    2    0    0  0.00000000000E+00  0.00000000000E+00 -0.11704700614E+02  0.81936916322E+03  0.81928555805E+03 0.  0.
        3    1    3    3  502    0  0.21333879197E+03  0.30253714908E+03  0.16956517653E+03  0.40717873965E+03  0.10100000352E+00 0.  1.
       -3    1    3    3    0  502 -0.21333879197E+03 -0.30253714908E+03 -0.18126987714E+03  0.41219042358E+03  0.10100000352E+00 0. -1.
</event>
<event>
 5   0  0.4700220E-02  0.7955892E+03  0.7818609E-02  0.9566424E-01
        2   -1    0    0  501    0  0.00000000000E+00  0.00000000000E+00  0.15313687946E+03  0.15313687948E+03  0.25500000920E-02 0.  1.
       -2   -1    0    0    0  501  0.00000000000E+00  0.00000000000E+00 -0.10333274926E+04  0.10333274926E+04  0.25500000920E-02 0. -1.
    10030    2    1    2    0    0  0.00000000000E+00  0.00000000000E+00 -0.88019061309E+03  0.11864643720E+04  0.79558920979E+03 0.  0.
        4    1    3    3  502    0 -0.28389170050E+03 -0.67324872143E+02 -0.36859071113E+02  0.29408730004E+03  0.12699999809E+01 0.  1.
       -4    1    3    3    0  502  0.28389170050E+03  0.67324872143E+02 -0.84333154198E+03  0.89237707199E+03  0.12699999809E+01 0. -1.
</event>
<event>
 5   0  0.2635243E-02  0.7958603E+03  0.7818609E-02  0.9566029E-01
       -1   -1    0    0    0  501  0.00000000000E+00  0.00000000000E+00  0.38052938158E+03  0.38052938161E+03  0.50400001928E-02 0.  1.
        1   -1    0    0  501    0  0.00000000000E+00  0.00000000000E+00 -0.41612662948E+03  0.41612662951E+03  0.50400001928E-02 0. -1.
    10030    2    1    2    0    0  0.00000000000E+00  0.00000000000E+00 -0.35597247897E+02  0.79665601112E+03  0.79586031186E+03 0.  0.
        1    1    3    3  502    0  0.24610507663E+03 -0.10847993314E+03  0.27577399247E+03  0.38521020182E+03  0.50400001928E-02 0.  1.
       -1    1    3    3    0  502 -0.24610507663E+03  0.10847993314E+03 -0.31137124036E+03  0.41144580930E+03  0.50400001928E-02 0. -1.
</event>
<event>
 5   0  0.2606520E-02  0.8076218E+03  0.7818609E-02  0.9549050E-01
       -1   -1    0    0    0  501  0.00000000000E+00  0.00000000000E+00  0.15912110978E+03  0.15912110986E+03  0.50400001928E-02 0.  1.
        1   -1    0    0  501    0  0.00000000000E+00  0.00000000000E+00 -0.10247744261E+04  0.10247744261E+04  0.50400001928E-02 0. -1.
    10030    2    1    2    0    0  0.00000000000E+00  0.00000000000E+00 -0.86565331635E+03  0.11838955360E+04  0.80762180261E+03 0.  0.
        5    1    3    3  502    0  0.33673003223E+03 -0.11609346651E+03 -0.15401065304E+03  0.38808011907E+03  0.46999998093E+01 0.  1.
       -5    1    3    3    0  502 -0.33673003223E+03  0.11609346651E+03 -0.71164266332E+03  0.79581541693E+03  0.46999998093E+01 0. -1.
</event>
<event>
 5   0  0.2635243E-02  0.7977587E+03  0.7818609E-02  0.9563267E-01
       -1   -1    0    0    0  501  0.00000000000E+00  0.00000000000E+00  0.26633720808E+03  0.26633720813E+03  0.50400001928E-02 0.  1.
        1   -1    0    0  501    0  0.00000000000E+00  0.00000000000E+00 -0.59738079656E+03  0.59738079658E+03  0.50400001928E-02 0. -1.
    10030    2    1    2    0    0  0.00000000000E+00  0.00000000000E+00 -0.33104358848E+03  0.86371800471E+03  0.79775869421E+03 0.  0.
        1    1    3    3  502    0  0.58746454984E+02 -0.37414094554E+02  0.25970275039E+03  0.26888004580E+03  0.50400001928E-02 0.  1.
       -1    1    3    3    0  502 -0.58746454984E+02  0.37414094554E+02 -0.59074633887E+03  0.59483795891E+03  0.50400001928E-02 0. -1.
</event>
<event>
 5   0  0.2769394E-02  0.7857176E+03  0.7818609E-02  0.9580923E-01
       -1   -1    0    0    0  501  0.00000000000E+00  0.00000000000E+00  0.19349486621E+03  0.19349486628E+03  0.50400001928E-02 0.  1.
        1   -1    0    0  501    0  0.00000000000E+00  0.00000000000E+00 -0.79763381683E+03  0.79763381685E+03  0.50400001928E-02 0. -1.
    10030    2    1    2    0    0  0.00000000000E+00  0.00000000000E+00 -0.60413895062E+03  0.99112868313E+03  0.78571763049E+03 0.  0.
        2    1    3    3  502    0 -0.24175608546E+03  0.18394393411E+03  0.12167865169E+02  0.30402209245E+03  0.25500000920E-02 0.  1.
       -2    1    3    3    0  502  0.24175608546E+03 -0.18394393411E+03 -0.61630681579E+03  0.68710659067E+03  0.25500000920E-02 0. -1.
</event>
<event>
 5   0  0.4663634E-02  0.8076913E+03  0.7818609E-02  0.9548950E-01
        2   -1    0    0  501    0  0.00000000000E+00  0.00000000000E+00  0.11402629510E+04  0.11402629510E+04  0.25500000920E-02 0. -1.
       -2   -1    0    0    0  501  0.00000000000E+00  0.00000000000E+00 -0.14302956621E+03  0.14302956623E+03  0.25500000920E-02 0.  1.
    10030    2    1    2    0    0  0.00000000000E+00  0.00000000000E+00  0.99723338475E+03  0.12832925172E+04  0.80769131542E+03 0.  0.
        5    1    3    3  502    0  0.18659845730E+03  0.14105732076E+03  0.10216157010E+04  0.10480633962E+04  0.46999998093E+01 0. -1.
       -5    1    3    3    0  502 -0.18659845730E+03 -0.14105732076E+03 -0.24382316232E+02  0.23522912097E+03  0.46999998093E+01 0.  1.
</event>
<event>
 5   0  0.4700220E-02  0.8302357E+03  0.7818609E-02  0.9517255E-01
        2   -1    0    0  501    0  0.00000000000E+00  0.00000000000E+00  0.71920696310E+03  0.71920696311E+03  0.25500000920E-02 0. -1.
       -2   -1    0    0    0  501  0.00000000000E+00  0.00000000000E+00 -0.23960117813E+03  0.23960117814E+03  0.25500000920E-02 0.  1.
    10030    2    1    2    0    0  0.00000000000E+00  0.00000000000E+00  0.47960578498E+03  0.95880814125E+03  0.83023571517E+03 0.  0.
        4    1    3    3  502    0 -0.24567671766E+03  0.27531168243E+03  0.20173504757E+02  0.36954317106E+03  0.12699999809E+01 0.  1.
       -4    1    3    3    0  502  0.24567671766E+03 -0.27531168243E+03  0.45943228022E+03  0.58926497019E+03  0.12699999809E+01 0. -1.
</event>
<event>
 5   0  0.2759559E-02  0.7973828E+03  0.7818609E-02  0.9563813E-01
       -1   -1    0    0    0  501  0.00000000000E+00  0.00000000000E+00  0.46818687581E+03  0.46818687584E+03  0.50400001928E-02 0. -1.
        1   -1    0    0  501    0  0.00000000000E+00  0.00000000000E+00 -0.33951147885E+03  0.33951147888E+03  0.50400001928E-02 0.  1.
    10030    2    1    2    0    0  0.00000000000E+00  0.00000000000E+00  0.12867539696E+03  0.80769835472E+03  0.79738276533E+03 0.  0.
        3    1    3    3  502    0 -0.20694966089E+03  0.14453567406E+03 -0.24825808891E+03  0.35404916626E+03  0.10100000352E+00 0.  1.
       -3    1    3    3    0  502  0.20694966089E+03 -0.14453567406E+03  0.37693348588E+03  0.45364918846E+03  0.10100000352E+00 0. -1.
</event>
<event>
 5   0  0.2769394E-02  0.5383748E+03  0.7818609E-02  0.1004221E+00
       -1   -1    0    0    0  501  0.00000000000E+00  0.00000000000E+00  0.46808262772E+02  0.46808263044E+02  0.50400001928E-02 0.  1.
        1   -1    0    0  501    0  0.00000000000E+00  0.00000000000E+00 -0.15480571262E+04  0.15480571263E+04  0.50400001928E-02 0. -1.
    10030    2    1    2    0    0  0.00000000000E+00  0.00000000000E+00 -0.15012488635E+04  0.15948653893E+04  0.53837483216E+03 0.  0.
        2    1    3    3  502    0  0.25830246195E+03  0.59204631233E+02 -0.89072024869E+03  0.92930506920E+03  0.25500000920E-02 0. -1.
       -2    1    3    3    0  502 -0.25830246195E+03 -0.59204631233E+02 -0.61052861478E+03  0.66556032010E+03  0.25500000920E-02 0.  1.
</event>
<event>
 5   0  0.4700220E-02  0.8079853E+03  0.7818609E-02  0.9548530E-01
        2   -1    0    0  501    0  0.00000000000E+00  0.00000000000E+00  0.32366558042E+03  0.32366558043E+03  0.25500000920E-02 0. -1.
       -2   -1    0    0    0  501  0.00000000000E+00  0.00000000000E+00 -0.50425520167E+03  0.50425520168E+03  0.25500000920E-02 0.  1.
    10030    2    1    2    0    0  0.00000000000E+00  0.00000000000E+00 -0.18058962126E+03  0.82792078211E+03  0.80798527842E+03 0.  0.
        4    1    3    3  502    0 -0.44277865330E+01 -0.21354623067E+03 -0.44166482718E+03  0.49060272155E+03  0.12699999809E+01 0.  1.
       -4    1    3    3    0  502  0.44277865330E+01  0.21354623067E+03  0.26107520593E+03  0.33731806055E+03  0.12699999809E+01 0. -1.
</event>
<event>
 5   0  0.2635243E-02  0.7740390E+03  0.7818609E-02  0.9598374E-01
       -1   -1    0    0    0  501  0.00000000000E+00  0.00000000000E+00  0.10852515560E+03  0.10852515571E+03  0.50400001928E-02 0. -1.
        1   -1    0    0  501    0  0.00000000000E+00  0.00000000000E+00 -0.13801787354E+04  0.13801787354E+04  0.50400001928E-02 0.  1.
    10030    2    1    2    0    0  0.00000000000E+00  0.00000000000E+00 -0.12716535798E+04  0.14887038911E+04  0.77403904838E+03 0.  0.
        1    1    3    3  502    0  0.16411792754E+03  0.12543364501E+03 -0.12652927634E+04  0.12820429286E+04  0.50400001928E-02 0.  1.
       -1    1    3    3    0  502 -0.16411792754E+03 -0.12543364501E+03 -0.63608163836E+01  0.20666096258E+03  0.50400001928E-02 0. -1.
</event>
<event>
 5   0  0.4684283E-02  0.8062159E+03  0.7818609E-02  0.9551063E-01
       -2   -1    0    0    0  501  0.00000000000E+00  0.00000000000E+00  0.20162611173E+03  0.20162611175E+03  0.25500000920E-02 0. -1.
        2   -1    0    0  501    0  0.00000000000E+00  0.00000000000E+00 -0.80592754747E+03  0.80592754747E+03  0.25500000920E-02 0.  1.
    10030    2    1    2    0    0  0.00000000000E+00  0.00000000000E+00 -0.60430143573E+03  0.10075536592E+04  0.80621594563E+03 0.  0.
        1    1    3    3  502    0 -0.33509348089E+02 -0.14955591867E+03 -0.76809487352E+03  0.78323660792E+03  0.50400001928E-02 0.  1.
       -1    1    3    3    0  502  0.33509348089E+02  0.14955591867E+03  0.16379343779E+03  0.22431705131E+03  0.50400001928E-02 0. -1.
</event>
<event>
 5   0  0.2635243E-02  0.7962868E+03  0.7818609E-02  0.9565407E-01
        1   -1    0    0  501    0  0.00000000000E+00  0.00000000000E+00  0.73154330500E+03  0.73154330502E+03  0.50400001928E-02 0.  1.
       -1   -1    0    0    0  501  0.00000000000E+00  0.00000000000E+00 -0.21669007585E+03  0.21669007591E+03  0.50400001928E-02 0. -1.
    10030    2    1    2    0    0  0.00000000000E+00  0.00000000000E+00  0.51485322915E+03  0.94823338093E+03  0.79628681840E+03 0.  0.
        1    1    3    3  502    0 -0.11726965854E+02 -0.11017383099E+03 -0.19796217546E+03  0.22685858525E+03  0.50400001928E-02 0. -1.
       -1    1    3    3    0  502  0.11726965854E+02  0.11017383099E+03  0.71281540461E+03  0.72137479568E+03  0.50400001928E-02 0.  1.
</event>
<event>
 5   0  0.2635243E-02  0.4276320E+03  0.7818609E-02  0.1034611E+00
       -1   -1    0    0    0  501  0.00000000000E+00  0.00000000000E+00  0.31368412028E+02  0.31368412433E+02  0.50400001928E-02 0. -1.
        1   -1    0    0  501    0  0.00000000000E+00  0.00000000000E+00 -0.14574308654E+04  0.14574308654E+04  0.50400001928E-02 0.  1.
    10030    2    1    2    0    0  0.00000000000E+00  0.00000000000E+00 -0.14260624534E+04  0.14887992779E+04  0.42763204836E+03 0.  0.
        1    1    3    3  502    0 -0.64572545547E+02 -0.68417299112E+02 -0.13815034118E+04  0.13847029346E+04  0.50400001928E-02 0.  1.
       -1    1    3    3    0  502  0.64572545547E+02  0.68417299112E+02 -0.44559041628E+02  0.10409634322E+03  0.50400001928E-02 0. -1.
</event>
<event>
 5   0  0.4663634E-02  0.8141322E+03  0.7818609E-02  0.9539784E-01
        2   -1    0    0  501    0  0.00000000000E+00  0.00000000000E+00  0.27003898890E+03  0.27003898891E+03  0.25500000920E-02 0. -1.
       -2   -1    0    0    0  501  0.00000000000E+00  0.00000000000E+00 -0.61362545136E+03  0.61362545137E+03  0.25500000920E-02 0.  1.
    10030    2    1    2    0    0  0.00000000000E+00  0.00000000000E+00 -0.34358646246E+03  0.88366444028E+03  0.81413216730E+03 0.  0.
        5    1    3    3  502    0 -0.16772148680E+03 -0.59370514223E+02  0.22556841066E+03  0.28733004190E+03  0.46999998093E+01 0. -1.
       -5    1    3    3    0  502  0.16772148680E+03  0.59370514223E+02 -0.56915487312E+03  0.59633439838E+03  0.46999998093E+01 0.  1.
</event>
<event>
 5   0  0.2606520E-02  0.7341520E+03  0.7818609E-02  0.9660547E-01
        1   -1    0    0  501    0  0.00000000000E+00  0.00000000000E+00  0.35798849184E+03  0.35798849188E+03  0.50400001928E-02 0. -1.
       -1   -1    0    0    0  501  0.00000000000E+00  0.00000000000E+00 -0.37639421277E+03  0.37639421281E+03  0.50400001928E-02 0.  1.
    10030    2    1    2    0    0  0.00000000000E+00  0.00000000000E+00 -0.18405720931E+02  0.73438270468E+03  0.73415201857E+03 0.  0.
        5    1    3    3  502    0 -0.28200467242E+03  0.22283909008E+03 -0.83649436159E+02  0.36905719543E+03  0.46999998093E+01 0. -1.
       -5    1    3    3    0  502  0.28200467242E+03 -0.22283909008E+03  0.65243715228E+02  0.36532550925E+03  0.46999998093E+01 0.  1.
</event>
<event>
 5   0  0.4590462E-02  0.8847139E+03  0.7818609E-02  0.9444894E-01
        2   -1    0    0  501    0  0.00000000000E+00  0.00000000000E+00  0.10466795526E+04  0.10466795526E+04  0.25500000920E-02 0. -1.
       -2   -1    0    0    0  501  0.00000000000E+00  0.00000000000E+00 -0.18695279186E+03  0.18695279188E+03  0.25500000920E-02 0.  1.
    10030    2    1    2    0    0  0.00000000000E+00  0.00000000000E+00  0.85972676079E+03  0.12336323445E+04  0.88471388496E+03 0.  0.
        3    1    3    3  502    0 -0.30736456065E+03 -0.12296809916E+01  0.87345593863E+03  0.92595883936E+03  0.10100000352E+00 0. -1.
       -3    1    3    3    0  502  0.30736456065E+03  0.12296809916E+01 -0.13729177842E+02  0.30767350517E+03  0.10100000352E+00 0.  1.
</event>
<event>
 5   0  0.4700220E-02  0.7857535E+03  0.7818609E-02  0.9580870E-01
       -2   -1    0    0    0  501  0.00000000000E+00  0.00000000000E+00  0.75818866432E+03  0.75818866433E+03  0.25500000920E-02 0.  1.
        2   -1    0    0  501    0  0.00000000000E+00  0.00000000000E+00 -0.20358012559E+03  0.20358012561E+03  0.25500000920E-02 0. -1.
    10030    2    1    2    0    0  0.00000000000E+00  0.00000000000E+00  0.55460853873E+03  0.96176878993E+03  0.78575350719E+03 0.  0.
        4    1    3    3  502    0 -0.61456273972E+02  0.10882922092E+03  0.73320398575E+03  0.74378113081E+03  0.12699999809E+01 0.  1.
       -4    1    3    3    0  502  0.61456273972E+02 -0.10882922092E+03 -0.17859544701E+03  0.21798765912E+03  0.12699999809E+01 0. -1.
</event>
<event>
 5   0  0.4590462E-02  0.7922348E+03  0.7818609E-02  0.9571325E-01
       -2   -1    0    0    0  501  0.00000000000E+00  0.00000000000E+00  0.70289068951E+02  0.70289068997E+02  0.25500000920E-02 0. -1.
        2   -1    0    0  501    0  0.00000000000E+00  0.00000000000E+00 -0.22323387442E+04  0.22323387442E+04  0.25500000920E-02 0.  1.
    10030    2    1    2    0    0  0.00000000000E+00  0.00000000000E+00 -0.21620496753E+04  0.23026278132E+04  0.79223484389E+03 0.  0.
        3    1    3    3  502    0 -0.54912990890E+02  0.36667146055E+03 -0.67572116520E+03  0.77075450038E+03  0.10100000352E+00 0. -1.
       -3    1    3    3    0  502  0.54912990890E+02 -0.36667146055E+03 -0.14863285101E+04  0.15318733128E+04  0.10100000352E+00 0.  1.
</event>
<event>
 5   0  0.4684283E-02  0.7951575E+03  0.7818609E-02  0.9567053E-01
        2   -1    0    0  501    0  0.00000000000E+00  0.00000000000E+00  0.60505810842E+03  0.60505810843E+03  0.25500000920E-02 0. -1.
       -2   -1    0    0    0  501  0.00000000000E+00  0.00000000000E+00 -0.26124576901E+03  0.26124576902E+03  0.25500000920E-02 0.  1.
    10030    2    1    2    0    0  0.00000000000E+00  0.00000000000E+00  0.34381233942E+03  0.86630387745E+03  0.79515752109E+03 0.  0.
        1    1    3    3  502    0  0.29758728854E+02  0.26854476870E+03  0.48966500549E+03  0.55926173870E+03  0.50400001928E-02 0. -1.
       -1    1    3    3    0  502 -0.29758728854E+02 -0.26854476870E+03 -0.14585266607E+03  0.30704213875E+03  0.50400001928E-02 0.  1.
</event>
<event>
 5   0  0.2769394E-02  0.8029870E+03  0.7818609E-02  0.9555704E-01
       -1   -1    0    0    0  501  0.00000000000E+00  0.00000000000E+00  0.12956994751E+03  0.12956994761E+03  0.50400001928E-02 0.  1.
        1   -1    0    0  501    0  0.00000000000E+00  0.00000000000E+00 -0.12440926559E+04  0.12440926560E+04  0.50400001928E-02 0. -1.
    10030    2    1    2    0    0  0.00000000000E+00  0.00000000000E+00 -0.11145227084E+04  0.13736626036E+04  0.80298697425E+03 0.  0.
        2    1    3    3  502    0 -0.31174304360E+02  0.33949251831E+03 -0.92003278776E+03  0.98116631506E+03  0.25500000920E-02 0. -1.
       -2    1    3    3    0  502  0.31174304360E+02 -0.33949251831E+03 -0.19448992067E+03  0.39249628851E+03  0.25500000920E-02 0.  1.
</event>
<event>
 5   0  0.2689372E-02  0.7893648E+03  0.7818609E-02  0.9575540E-01
        1   -1    0    0  501    0  0.00000000000E+00  0.00000000000E+00  0.14948729193E+04  0.14948729193E+04  0.50400001928E-02 0. -1.
       -1   -1    0    0    0  501  0.00000000000E+00  0.00000000000E+00 -0.10420564664E+03  0.10420564676E+03  0.50400001928E-02 0.  1.
    10030    2    1    2    0    0  0.00000000000E+00  0.00000000000E+00  0.13906672727E+04  0.15990785661E+04  0.78936480616E+03 0.  0.
        4    1    3    3  502    0  0.22448739784E+03 -0.13007360336E+03  0.12978414630E+04  0.13235209897E+04  0.12699999809E+01 0. -1.
       -4    1    3    3    0  502 -0.22448739784E+03  0.13007360336E+03  0.92825809663E+02  0.27555757641E+03  0.12699999809E+01 0.  1.
</event>
<event>
 5   0  0.4663634E-02  0.7948426E+03  0.7818609E-02  0.9567512E-01
        2   -1    0    0  501    0  0.00000000000E+00  0.00000000000E+00  0.59021538471E+03  0.59021538471E+03  0.25500000920E-02 0.  1.
       -2   -1    0    0    0  501  0.00000000000E+00  0.00000000000E+00 -0.26760346818E+03  0.26760346819E+03  0.25500000920E-02 0. -1.
    10030    2    1    2    0    0  0.00000000000E+00  0.00000000000E+00  0.32261191653E+03  0.85781885291E+03  0.79484258549E+03 0.  0.
        5    1    3    3  502    0 -0.27241195090E+03 -0.16331428037E+02  0.47306481616E+03  0.54615693425E+03  0.46999998093E+01 0.  1.
       -5    1    3    3    0  502  0.27241195090E+03  0.16331428037E+02 -0.15045289963E+03  0.31166191866E+03  0.46999998093E+01 0. -1.
</event>
<event>
 5   0  0.2635243E-02  0.8089244E+03  0.7818609E-02  0.9547189E-01
        1   -1    0    0  501    0  0.00000000000E+00  0.00000000000E+00  0.84863561599E+03  0.84863561601E+03  0.50400001928E-02 0.  1.
       -1   -1    0    0    0  501  0.00000000000E+00  0.00000000000E+00 -0.19276785302E+03  0.19276785309E+03  0.50400001928E-02 0. -1.
    10030    2    1    2    0    0  0.00000000000E+00  0.00000000000E+00  0.65586776297E+03  0.10414034691E+04  0.80892438642E+03 0.  0.
        1    1    3    3  502    0 -0.11838897142E+03 -0.77055092491E+02 -0.15997990597E+03  0.21341744580E+03  0.50400001928E-02 0. -1.
       -1    1    3    3    0  502  0.11838897142E+03  0.77055092491E+02  0.81584766894E+03  0.82798602330E+03  0.50400001928E-02 0.  1.
</event>
<event>
 5   0  0.2689372E-02  0.7544045E+03  0.7818609E-02  0.9628466E-01
        1   -1    0    0  501    0  0.00000000000E+00  0.00000000000E+00  0.88238521678E+03  0.88238521680E+03  0.50400001928E-02 0.  1.
       -1   -1    0    0    0  501  0.00000000000E+00  0.00000000000E+00 -0.16124652316E+03  0.16124652324E+03  0.50400001928E-02 0. -1.
    10030    2    1    2    0    0  0.00000000000E+00  0.00000000000E+00  0.72113869363E+03  0.10436317400E+04  0.75440452899E+03 0.  0.
        4    1    3    3  502    0 -0.28206784161E+03 -0.25013452149E+03  0.37753425457E+03  0.53353844509E+03  0.12699999809E+01 0.  1.
       -4    1    3    3    0  502  0.28206784161E+03  0.25013452149E+03  0.34360443906E+03  0.51009329495E+03  0.12699999809E+01 0. -1.
</event>
<event>
 5   0  0.2606520E-02  0.8041882E+03  0.7818609E-02  0.9553975E-01
       -1   -1    0    0    0  501  0.00000000000E+00  0.00000000000E+00  0.15621522316E+03  0.15621522325E+03  0.50400001928E-02 0. -1.
        1   -1    0    0  501    0  0.00000000000E+00  0.00000000000E+00 -0.10349801761E+04  0.10349801761E+04  0.50400001928E-02 0.  1.
    10030    2    1    2    0    0  0.00000000000E+00  0.00000000000E+00 -0.87876495292E+03  0.11911953993E+04  0.80418818503E+03 0.  0.
        5    1    3    3  502    0  0.18175669852E+03 -0.83399355434E+02 -0.95604985220E+03  0.97675194386E+03  0.46999998093E+01 0.  1.
       -5    1    3    3    0  502 -0.18175669852E+03  0.83399355434E+02  0.77284899284E+02  0.21444345548E+03  0.46999998093E+01 0. -1.
</event>
<event>
 5   0  0.4700220E-02  0.8166053E+03  0.7818609E-02  0.9536288E-01
        2   -1    0    0  501    0  0.00000000000E+00  0.00000000000E+00  0.20827737736E+04  0.20827737736E+04  0.25500000920E-02 0.  1.
       -2   -1    0    0    0  501  0.00000000000E+00  0.00000000000E+00 -0.80042806447E+02  0.80042806488E+02  0.25500000920E-02 0. -1.
    10030    2    1    2    0    0  0.00000000000E+00  0.00000000000E+00  0.20027309672E+04  0.21628165801E+04  0.81660531000E+03 0.  0.
        4    1    3    3  502    0 -0.24226162183E+03 -0.20442483621E+03  0.16829698597E+04  0.17125622233E+04  0.12699999809E+01 0.  1.
       -4    1    3    3    0  502  0.24226162183E+03  0.20442483621E+03  0.31976110741E+03  0.45025435676E+03  0.12699999809E+01 0. -1.
</event>
<event>
 5   0  0.2635243E-02  0.8128649E+03  0.7818609E-02  0.9541580E-01
        1   -1    0    0  501    0  0.00000000000E+00  0.00000000000E+00  0.10025218898E+04  0.10025218898E+04  0.50400001928E-02 0.  1.
       -1   -1    0    0    0  501  0.00000000000E+00  0.00000000000E+00 -0.16477178145E+03  0.16477178153E+03  0.50400001928E-02 0. -1.
    10030    2    1    2    0    0  0.00000000000E+00  0.00000000000E+00  0.83775010832E+03  0.11672936713E+04  0.81286485413E+03 0.  0.
        1    1    3    3  502    0  0.85790422399E+02  0.37821301188E+03  0.59347009009E+03  0.70895121608E+03  0.50400001928E-02 0.  1.
       -1    1    3    3    0  502 -0.85790422399E+02 -0.37821301188E+03  0.24428001823E+03  0.45834245522E+03  0.50400001928E-02 0. -1.
</event>
<event>
 5   0  0.4377843E-02  0.8113275E+03  0.7818609E-02  0.9543764E-01
       -2   -1    0    0    0  501  0.00000000000E+00  0.00000000000E+00  0.18691591264E+03  0.18691591266E+03  0.25500000920E-02 0.  1.
        2   -1    0    0  501    0  0.00000000000E+00  0.00000000000E+00 -0.88041226660E+03  0.88041226661E+03  0.25500000920E-02 0. -1.
    10030    2    1    2    0    0  0.00000000000E+00  0.00000000000E+00 -0.69349635396E+03  0.10673281793E+04  0.81132746121E+03 0.  0.
        2    1    3    3  502    0  0.49352509171E+02 -0.21713431632E+02  0.18218109851E+03  0.18999235757E+03  0.25500000920E-02 0.  1.
       -2    1    3    3    0  502 -0.49352509171E+02  0.21713431632E+02 -0.87567745247E+03  0.87733582170E+03  0.25500000920E-02 0. -1.
</event>
<event>
 5   0  0.4663634E-02  0.8069291E+03  0.7818609E-02  0.9550041E-01
       -2   -1    0    0    0  501  0.00000000000E+00  0.00000000000E+00  0.31747783514E+03  0.31747783515E+03  0.25500000920E-02 0.  1.
        2   -1    0    0  501    0  0.00000000000E+00  0.00000000000E+00 -0.51274015682E+03  0.51274015683E+03  0.25500000920E-02 0. -1.
    10030    2    1    2    0    0  0.00000000000E+00  0.00000000000E+00 -0.19526232167E+03  0.83021799198E+03  0.80692907987E+03 0.  0.
        5    1    3    3  502    0  0.27048954399E+03 -0.21170197662E+03 -0.31534952325E+03  0.46631505672E+03  0.46999998093E+01 0. -1.
       -5    1    3    3    0  502 -0.27048954399E+03  0.21170197662E+03  0.12008720158E+03  0.36390293526E+03  0.46999998093E+01 0.  1.
</event>
<event>
 5   0  0.2759559E-02  0.7982682E+03  0.7818609E-02  0.9562527E-01
       -1   -1    0    0    0  501  0.00000000000E+00  0.00000000000E+00  0.25541530327E+03  0.25541530332E+03  0.50400001928E-02 0. -1.
        1   -1    0    0  501    0  0.00000000000E+00  0.00000000000E+00 -0.62372160519E+03  0.62372160521E+03  0.50400001928E-02 0.  1.
    10030    2    1    2    0    0  0.00000000000E+00  0.00000000000E+00 -0.36830630192E+03  0.87913690853E+03  0.79826823306E+03 0.  0.
        3    1    3    3  502    0  0.12821155323E+03 -0.37796737430E+03 -0.18772082939E+03  0.44106310025E+03  0.10100000352E+00 0.  1.
       -3    1    3    3    0  502 -0.12821155323E+03  0.37796737430E+03 -0.18058547253E+03  0.43807380828E+03  0.10100000352E+00 0. -1.
</event>
<event>
 5   0  0.1786500E-02  0.8125101E+03  0.7818609E-02  0.9542084E-01
       -3   -1    0    0    0  501  0.00000000000E+00  0.00000000000E+00  0.11401641809E+04  0.11401641854E+04  0.10100000352E+00 0.  1.
        3   -1    0    0  501    0  0.00000000000E+00  0.00000000000E+00 -0.14475382137E+03  0.14475385661E+03  0.10100000352E+00 0. -1.
    10030    2    1    2    0    0  0.00000000000E+00  0.00000000000E+00  0.99541035952E+03  0.12849180420E+04  0.81251005579E+03 0.  0.
        1    1    3    3  502    0  0.85914346891E+02  0.35741558620E+03  0.77123094226E+03  0.85435609823E+03  0.50400001928E-02 0.  1.
       -1    1    3    3    0  502 -0.85914346891E+02 -0.35741558620E+03  0.22417941726E+03  0.43056194375E+03  0.50400001928E-02 0. -1.
</event>
<event>
 5   0  0.2606520E-02  0.8059253E+03  0.7818609E-02  0.9551480E-01
       -1   -1    0    0    0  501  0.00000000000E+00  0.00000000000E+00  0.19468171979E+03  0.19468171986E+03  0.50400001928E-02 0. -1.
        1   -1    0    0  501    0  0.00000000000E+00  0.00000000000E+00 -0.83407373155E+03  0.83407373157E+03  0.50400001928E-02 0.  1.
    10030    2    1    2    0    0  0.00000000000E+00  0.00000000000E+00 -0.63939201176E+03  0.10287554514E+04  0.80592532789E+03 0.  0.
        5    1    3    3  502    0  0.11414364591E+03  0.33744708585E+03 -0.79330874194E+02  0.36498600692E+03  0.46999998093E+01 0. -1.
       -5    1    3    3    0  502 -0.11414364591E+03 -0.33744708585E+03 -0.56006113757E+03  0.66376944451E+03  0.46999998093E+01 0.  1.
</event>
<event>
 5   0  0.4377843E-02  0.7316732E+03  0.7818609E-02  0.9664549E-01
        2   -1    0    0  501    0  0.00000000000E+00  0.00000000000E+00  0.14524730443E+03  0.14524730445E+03  0.25500000920E-02 0. -1.
       -2   -1    0    0    0  501  0.00000000000E+00  0.00000000000E+00 -0.92143811754E+03  0.92143811754E+03  0.25500000920E-02 0.  1.
    10030    2    1    2    0    0  0.00000000000E+00  0.00000000000E+00 -0.77619081311E+03  0.10666854220E+04  0.73167315868E+03 0.  0.
        2    1    3    3  502    0  0.14285278293E+03 -0.19866738468E+03 -0.78457414766E+03  0.82184684735E+03  0.25500000920E-02 0.  1.
       -2    1    3    3    0  502 -0.14285278293E+03  0.19866738468E+03  0.83833345445E+01  0.24483857464E+03  0.25500000920E-02 0. -1.
</event>
<event>
 5   0  0.2689372E-02  0.7867507E+03  0.7818609E-02  0.9579395E-01
        1   -1    0    0  501    0  0.00000000000E+00  0.00000000000E+00  0.14437365463E+04  0.14437365463E+04  0.50400001928E-02 0. -1.
       -1   -1    0    0    0  501  0.00000000000E+00  0.00000000000E+00 -0.10718310724E+03  0.10718310736E+03  0.50400001928E-02 0.  1.
    10030    2    1    2    0    0  0.00000000000E+00  0.00000000000E+00  0.13365534390E+04  0.15509196536E+04  0.78675070807E+03 0.  0.
        4    1    3    3  502    0  0.27738423735E+03 -0.14469573628E+03  0.11383544283E+04  0.11805639706E+04  0.12699999809E+01 0. -1.
       -4    1    3    3    0  502 -0.27738423735E+03  0.14469573628E+03  0.19819901070E+03  0.37035568306E+03  0.12699999809E+01 0.  1.
</event>
<event>
 5   0  0.4590462E-02  0.7742851E+03  0.7818609E-02  0.9598003E-01
        2   -1    0    0  501    0  0.00000000000E+00  0.00000000000E+00  0.90769472034E+03  0.90769472034E+03  0.25500000920E-02 0. -1.
       -2   -1    0    0    0  501  0.00000000000E+00  0.00000000000E+00 -0.16512089865E+03  0.16512089867E+03  0.25500000920E-02 0.  1.
    10030    2    1    2    0    0  0.00000000000E+00  0.00000000000E+00  0.74257382169E+03  0.10728156190E+04  0.77428513594E+03 0.  0.
        3    1    3    3  502    0 -0.95494318601E+02 -0.37506745842E+03  0.35854322088E+03  0.52758697357E+03  0.10100000352E+00 0. -1.
       -3    1    3    3    0  502  0.95494318601E+02  0.37506745842E+03  0.38403060081E+03  0.54522864544E+03  0.10100000352E+00 0.  1.
</event>
<event>
 5   0  0.4663634E-02  0.7953401E+03  0.7818609E-02  0.9566787E-01
        2   -1    0    0  501    0  0.00000000000E+00  0.00000000000E+00  0.14519543792E+04  0.14519543792E+04  0.25500000920E-02 0. -1.
       -2   -1    0    0    0  501  0.00000000000E+00  0.00000000000E+00 -0.10891628181E+03  0.10891628184E+03  0.25500000920E-02 0.  1.
    10030    2    1    2    0    0  0.00000000000E+00  0.00000000000E+00  0.13430380974E+04  0.15608706610E+04  0.79534010929E+03 0.  0.
        5    1    3    3  502    0  0.21535015813E+02 -0.71153049742E+02 -0.95102728670E+02  0.12080203803E+03  0.46999998093E+01 0.  1.
       -5    1    3    3    0  502 -0.21535015813E+02  0.71153049742E+02  0.14381408261E+04  0.14400686230E+04  0.46999998093E+01 0. -1.
</event>
<event>
 5   0  0.4684283E-02  0.8000574E+03  0.7818609E-02  0.9559934E-01
       -2   -1    0    0    0  501  0.00000000000E+00  0.00000000000E+00  0.25734406796E+03  0.25734406798E+03  0.25500000920E-02 0.  1.
        2   -1    0    0  501    0  0.00000000000E+00  0.00000000000E+00 -0.62182498736E+03  0.62182498736E+03  0.25500000920E-02 0. -1.
    10030    2    1    2    0    0  0.00000000000E+00  0.00000000000E+00 -0.36448091939E+03  0.87916905534E+03  0.80005742748E+03 0.  0.
        1    1    3    3  502    0 -0.32639353100E+03 -0.19682145657E+03 -0.31570627518E+03  0.49491602829E+03  0.50400001928E-02 0. -1.
       -1    1    3    3    0  502  0.32639353100E+03  0.19682145657E+03 -0.48774644211E+02  0.38425302704E+03  0.50400001928E-02 0.  1.
</event>
<event>
 5   0  0.2689372E-02  0.8089916E+03  0.7818609E-02  0.9547093E-01
       -1   -1    0    0    0  501  0.00000000000E+00  0.00000000000E+00  0.15279822892E+03  0.15279822901E+03  0.50400001928E-02 0.  1.
        1   -1    0    0  501    0  0.00000000000E+00  0.00000000000E+00 -0.10708032817E+04  0.10708032817E+04  0.50400001928E-02 0. -1.
    10030    2    1    2    0    0  0.00000000000E+00  0.00000000000E+00 -0.91800505274E+03  0.12236015107E+04  0.80899158221E+03 0.  0.
        4    1    3    3  502    0  0.65120364418E+02  0.39589366881E+03 -0.53675710166E+03  0.67013599959E+03  0.12699999809E+01 0. -1.
       -4    1    3    3    0  502 -0.65120364418E+02 -0.39589366881E+03 -0.38124795108E+03  0.55346551109E+03  0.12699999809E+01 0.  1.
</event>
<event>
 5   0  0.4684283E-02  0.8065212E+03  0.7818609E-02  0.9550626E-01
       -2   -1    0    0    0  501  0.00000000000E+00  0.00000000000E+00  0.12722810618E+03  0.12722810620E+03  0.25500000920E-02 0. -1.
        2   -1    0    0  501    0  0.00000000000E+00  0.00000000000E+00 -0.12781696604E+04  0.12781696604E+04  0.25500000920E-02 0.  1.
    10030    2    1    2    0    0  0.00000000000E+00  0.00000000000E+00 -0.11509415543E+04  0.14053977667E+04  0.80652118458E+03 0.  0.
        1    1    3    3  502    0  0.34951812253E+03  0.41246784720E+02 -0.91851233363E+03  0.98363058222E+03  0.50400001928E-02 0.  1.
       -1    1    3    3    0  502 -0.34951812253E+03 -0.41246784720E+02 -0.23242922064E+03  0.42176718443E+03  0.50400001928E-02 0. -1.
</event>
<event>
 5   0  0.2689372E-02  0.7989430E+03  0.7818609E-02  0.9561548E-01
        1   -1    0    0  501    0  0.00000000000E+00  0.00000000000E+00  0.21260753463E+04  0.21260753463E+04  0.50400001928E-02 0.  1.
       -1   -1    0    0    0  501  0.00000000000E+00  0.00000000000E+00 -0.75057296705E+02  0.75057296874E+02  0.50400001928E-02 0. -1.
    10030    2    1    2    0    0  0.00000000000E+00  0.00000000000E+00  0.20510180496E+04  0.22011326431E+04  0.79894297237E+03 0.  0.
        4    1    3    3  502    0  0.78273792633E+02  0.36935438202E+03  0.66601475901E+03  0.76558913148E+03  0.12699999809E+01 0.  1.
       -4    1    3    3    0  502 -0.78273792633E+02 -0.36935438202E+03  0.13850032905E+04  0.14355435117E+04  0.12699999809E+01 0. -1.
</event>
<event>
 5   0  0.4700220E-02  0.8035885E+03  0.7818609E-02  0.9554837E-01
       -2   -1    0    0    0  501  0.00000000000E+00  0.00000000000E+00  0.22453807861E+03  0.22453807862E+03  0.25500000920E-02 0. -1.
        2   -1    0    0  501    0  0.00000000000E+00  0.00000000000E+00 -0.71898102158E+03  0.71898102159E+03  0.25500000920E-02 0.  1.
    10030    2    1    2    0    0  0.00000000000E+00  0.00000000000E+00 -0.49444294297E+03  0.94351910021E+03  0.80358849457E+03 0.  0.
        4    1    3    3  502    0 -0.34329992277E+03  0.98189679512E+02 -0.30910270051E+02  0.35840355444E+03  0.12699999809E+01 0. -1.
       -4    1    3    3    0  502  0.34329992277E+03 -0.98189679512E+02 -0.46353267292E+03  0.58511554577E+03  0.12699999809E+01 0.  1.
</event>
<event>
 5   0  0.2635243E-02  0.7553234E+03  0.7818609E-02  0.9627036E-01
       -1   -1    0    0    0  501  0.00000000000E+00  0.00000000000E+00  0.13328983951E+03  0.13328983961E+03  0.50400001928E-02 0.  1.
        1   -1    0    0  501    0  0.00000000000E+00  0.00000000000E+00 -0.10700617728E+04  0.10700617728E+04  0.50400001928E-02 0. -1.
    10030    2    1    2    0    0  0.00000000000E+00  0.00000000000E+00 -0.93677193329E+03  0.12033516124E+04  0.75532340632E+03 0.  0.
        1    1    3    3  502    0 -0.88410217040E+02 -0.66971845132E+02 -0.10435297275E+04  0.10494073979E+04  0.50400001928E-02 0. -1.
       -1    1    3    3    0  502  0.88410217040E+02  0.66971845132E+02  0.10675779426E+03  0.15394421450E+03  0.50400001928E-02 0.  1.
</event>
<event>
 5   0  0.4663634E-02  0.8062589E+03  0.7818609E-02  0.9551002E-01
        2   -1    0    0  501    0  0.00000000000E+00  0.00000000000E+00  0.57304900817E+03  0.57304900818E+03  0.25500000920E-02 0. -1.
       -2   -1    0    0    0  501  0.00000000000E+00  0.00000000000E+00 -0.28359413588E+03  0.28359413589E+03  0.25500000920E-02 0.  1.
    10030    2    1    2    0    0  0.00000000000E+00  0.00000000000E+00  0.28945487229E+03  0.85664314407E+03  0.80625886240E+03 0.  0.
        5    1    3    3  502    0  0.24226359393E+03 -0.10176078915E+01  0.48703864039E+03  0.54398659147E+03  0.46999998093E+01 0. -1.
       -5    1    3    3    0  502 -0.24226359393E+03  0.10176078915E+01 -0.19758376810E+03  0.31265655260E+03  0.46999998093E+01 0.  1.
</event>
<event>
 5   0  0.4663634E-02  0.8166339E+03  0.7818609E-02  0.9536247E-01
       -2   -1    0    0    0  501  0.00000000000E+00  0.00000000000E+00  0.18619158507E+03  0.18619158509E+03  0.25500000920E-02 0.  1.
        2   -1    0    0  501    0  0.00000000000E+00  0.00000000000E+00 -0.89543655552E+03  0.89543655552E+03  0.25500000920E-02 0. -1.
    10030    2    1    2    0    0  0.00000000000E+00  0.00000000000E+00 -0.70924497045E+03  0.10816281406E+04  0.81663394887E+03 0.  0.
        5    1    3    3  502    0  0.28523816378E+03  0.29194955448E+03 -0.34103047595E+03  0.53190152092E+03  0.46999998093E+01 0.  1.
       -5    1    3    3    0  502 -0.28523816378E+03 -0.29194955448E+03 -0.36821449450E+03  0.54972661968E+03  0.46999998093E+01 0. -1.
</event>
<event>
 5   0  0.4377843E-02  0.7951189E+03  0.7818609E-02  0.9567109E-01
       -2   -1    0    0    0  501  0.00000000000E+00  0.00000000000E+00  0.99014309385E+02  0.99014309418E+02  0.25500000920E-02 0.  1.
        2   -1    0    0  501    0  0.00000000000E+00  0.00000000000E+00 -0.15962692941E+04  0.15962692941E+04  0.25500000920E-02 0. -1.
    10030    2    1    2    0    0  0.00000000000E+00  0.00000000000E+00 -0.14972549847E+04  0.16952836035E+04  0.79511886351E+03 0.  0.
        2    1    3    3  502    0  0.12869467073E+03  0.37024290301E+03 -0.60701637286E+03  0.72257248939E+03  0.25500000920E-02 0. -1.
       -2    1    3    3    0  502 -0.12869467073E+03 -0.37024290301E+03 -0.89023861184E+03  0.97271111411E+03  0.25500000920E-02 0.  1.
</event>
<event>
 5   0  0.4377843E-02  0.7952772E+03  0.7818609E-02  0.9566878E-01
       -2   -1    0    0    0  501  0.00000000000E+00  0.00000000000E+00  0.89013356526E+02  0.89013356563E+02  0.25500000920E-02 0. -1.
        2   -1    0    0  501    0  0.00000000000E+00  0.00000000000E+00 -0.17763228174E+04  0.17763228174E+04  0.25500000920E-02 0.  1.
    10030    2    1    2    0    0  0.00000000000E+00  0.00000000000E+00 -0.16873094608E+04  0.18653361739E+04  0.79527720019E+03 0.  0.
        2    1    3    3  502    0 -0.28232312882E+03  0.35676845137E+02 -0.14950891668E+04  0.15219299600E+04  0.25500000920E-02 0.  1.
       -2    1    3    3    0  502  0.28232312882E+03 -0.35676845137E+02 -0.19222029404E+03  0.34340621396E+03  0.25500000920E-02 0. -1.
</event>
<event>
 5   0  0.4684283E-02  0.7953943E+03  0.7818609E-02  0.9566708E-01
        2   -1    0    0  501    0  0.00000000000E+00  0.00000000000E+00  0.15459282520E+04  0.15459282520E+04  0.25500000920E-02 0.  1.
       -2   -1    0    0    0  501  0.00000000000E+00  0.00000000000E+00 -0.10230941318E+03  0.10230941322E+03  0.25500000920E-02 0. -1.
    10030    2    1    2    0    0  0.00000000000E+00  0.00000000000E+00  0.14436188389E+04  0.16482376653E+04  0.79539427285E+03 0.  0.
        1    1    3    3  502    0 -0.21197783313E+03  0.76409364215E+02  0.42731928056E+02  0.22934474134E+03  0.50400001928E-02 0. -1.
       -1    1    3    3    0  502  0.21197783313E+03 -0.76409364215E+02  0.14008869108E+04  0.14188929239E+04  0.50400001928E-02 0.  1.
</event>
<event>
 5   0  0.2759559E-02  0.7964455E+03  0.7818609E-02  0.9565176E-01
       -1   -1    0    0    0  501  0.00000000000E+00  0.00000000000E+00  0.17349258130E+03  0.17349258138E+03  0.50400001928E-02 0. -1.
        1   -1    0    0  501    0  0.00000000000E+00  0.00000000000E+00 -0.91405261520E+03  0.91405261521E+03  0.50400001928E-02 0.  1.
    10030    2    1    2    0    0  0.00000000000E+00  0.00000000000E+00 -0.74056003389E+03  0.10875451966E+04  0.79644547260E+03 0.  0.
        3    1    3    3  502    0  0.13115829604E+02  0.55805547810E+02  0.16782876258E+03  0.17734933860E+03  0.10100000352E+00 0. -1.
       -3    1    3    3    0  502 -0.13115829604E+02 -0.55805547810E+02 -0.90838879647E+03  0.91019585799E+03  0.10100000352E+00 0.  1.
</event>
<event>
 5   0  0.2759559E-02  0.8002751E+03  0.7818609E-02  0.9559619E-01
       -1   -1    0    0    0  501  0.00000000000E+00  0.00000000000E+00  0.48977876254E+03  0.48977876256E+03  0.50400001928E-02 0. -1.
        1   -1    0    0  501    0  0.00000000000E+00  0.00000000000E+00 -0.32690278089E+03  0.32690278093E+03  0.50400001928E-02 0.  1.
    10030    2    1    2    0    0  0.00000000000E+00  0.00000000000E+00  0.16287598165E+03  0.81668154349E+03  0.80027505152E+03 0.  0.
        3    1    3    3  502    0 -0.19141956407E+02 -0.18222574950E+03  0.44445159502E+03  0.48073887797E+03  0.10100000352E+00 0. -1.
       -3    1    3    3    0  502  0.19141956407E+02  0.18222574950E+03 -0.28157561337E+03  0.33594266552E+03  0.10100000352E+00 0.  1.
</event>
<event>
 5   0  0.1786500E-02  0.7646549E+03  0.7818609E-02  0.9612636E-01
        3   -1    0    0  501    0  0.00000000000E+00  0.00000000000E+00  0.13326024645E+03  0.13326028473E+03  0.10100000352E+00 0. -1.
       -3   -1    0    0    0  501  0.00000000000E+00  0.00000000000E+00 -0.10969080342E+04  0.10969080388E+04  0.10100000352E+00 0.  1.
    10030    2    1    2    0    0  0.00000000000E+00  0.00000000000E+00 -0.96364778771E+03  0.12301683235E+04  0.76465485382E+03 0.  0.
        4    1    3    3  502    0  0.12038368561E+03 -0.28466190107E+03 -0.11976408230E+03  0.33146595299E+03  0.12699999809E+01 0.  1.
       -4    1    3    3    0  502 -0.12038368561E+03  0.28466190107E+03 -0.84388370540E+03  0.89870237055E+03  0.12699999809E+01 0. -1.
</event>
<event>
 5   0  0.4590462E-02  0.7436005E+03  0.7818609E-02  0.9645444E-01
       -2   -1    0    0    0  501  0.00000000000E+00  0.00000000000E+00  0.18194955020E+03  0.18194955022E+03  0.25500000920E-02 0.  1.
        2   -1    0    0  501    0  0.00000000000E+00  0.00000000000E+00 -0.75974594278E+03  0.75974594279E+03  0.25500000920E-02 0. -1.
    10030    2    1    2    0    0  0.00000000000E+00  0.00000000000E+00 -0.57779639258E+03  0.94169549301E+03  0.74360051793E+03 0.  0.
        3    1    3    3  502    0  0.26445288639E+03  0.67369295328E+02 -0.60867722068E+03  0.66705466062E+03  0.10100000352E+00 0. -1.
       -3    1    3    3    0  502 -0.26445288639E+03 -0.67369295328E+02  0.30880828102E+02  0.27464083239E+03  0.10100000352E+00 0.  1.
</event>
<event>
 5   0  0.2635243E-02  0.8087273E+03  0.7818609E-02  0.9547470E-01
        1   -1    0    0  501    0  0.00000000000E+00  0.00000000000E+00  0.19789950538E+03  0.19789950545E+03  0.50400001928E-02 0. -1.
       -1   -1    0    0    0  501  0.00000000000E+00  0.00000000000E+00 -0.82622718081E+03  0.82622718083E+03  0.50400001928E-02 0.  1.
    10030    2    1    2    0    0  0.00000000000E+00  0.00000000000E+00 -0.62832767543E+03  0.10241266863E+04  0.80872727283E+03 0.  0.
        1    1    3    3  502    0 -0.15563217339E+03  0.13485080266E+03  0.12652347494E+03  0.24169050893E+03  0.50400001928E-02 0. -1.
       -1    1    3    3    0  502  0.15563217339E+03 -0.13485080266E+03 -0.75485115037E+03  0.78243617734E+03  0.50400001928E-02 0.  1.
</event>
<event>
 5   0  0.4377843E-02  0.8124642E+03  0.7818609E-02  0.9542149E-01
       -2   -1    0    0    0  501  0.00000000000E+00  0.00000000000E+00  0.24557502703E+03  0.24557502705E+03  0.25500000920E-02 0.  1.
        2   -1    0    0  501    0  0.00000000000E+00  0.00000000000E+00 -0.67199227069E+03  0.67199227070E+03  0.25500000920E-02 0. -1.
    10030    2    1    2    0    0  0.00000000000E+00  0.00000000000E+00 -0.42641724366E+03  0.91756729774E+03  0.81246420241E+03 0.  0.
        2    1    3    3  502    0  0.25589690395E+03  0.28638791602E+03 -0.36270858882E+03  0.52826014831E+03  0.25500000920E-02 0. -1.
       -2    1    3    3    0  502 -0.25589690395E+03 -0.28638791602E+03 -0.63708654844E+02  0.38930714943E+03  0.25500000920E-02 0.  1.
</event>
<event>
 5   0  0.2689372E-02  0.8383005E+03  0.7818609E-02  0.9506176E-01
        1   -1    0    0  501    0  0.00000000000E+00  0.00000000000E+00  0.81216337811E+03  0.81216337812E+03  0.50400001928E-02 0.  1.
       -1   -1    0    0    0  501  0.00000000000E+00  0.00000000000E+00 -0.21631968321E+03  0.21631968327E+03  0.50400001928E-02 0. -1.
    10030    2    1    2    0    0  0.00000000000E+00  0.00000000000E+00  0.59584369490E+03  0.10284830614E+04  0.83830048241E+03 0.  0.
        4    1    3    3  502    0 -0.18008316972E+03 -0.37691719197E+03  0.34022286005E+03  0.53874829468E+03  0.12699999809E+01 0.  1.
       -4    1    3    3    0  502  0.18008316972E+03  0.37691719197E+03  0.25562083485E+03  0.48973476671E+03  0.12699999809E+01 0. -1.
</event>
<event>
 5   0  0.2635243E-02  0.7956099E+03  0.7818609E-02  0.9566393E-01
        1   -1    0    0  501    0  0.00000000000E+00  0.00000000000E+00  0.44711755746E+03  0.44711755749E+03  0.50400001928E-02 0. -1.
       -1   -1    0    0    0  501  0.00000000000E+00  0.00000000000E+00 -0.35393105468E+03  0.35393105472E+03  0.50400001928E-02 0.  1.
    10030    2    1    2    0    0  0.00000000000E+00  0.00000000000E+00  0.93186502785E+02  0.80104861221E+03  0.79560992630E+03 0.  0.
        1    1    3    3  502    0  0.25257759674E+03  0.27667179846E+03  0.18132151865E+03  0.41619733251E+03  0.50400001928E-02 0. -1.
       -1    1    3    3    0  502 -0.25257759674E+03 -0.27667179846E+03 -0.88135015866E+02  0.38485127970E+03  0.50400001928E-02 0.  1.
</event>
<event>
 5   0  0.2769394E-02  0.8065335E+03  0.7818609E-02  0.9550608E-01
       -1   -1    0    0    0  501  0.00000000000E+00  0.00000000000E+00  0.53980840690E+03  0.53980840692E+03  0.50400001928E-02 0. -1.
        1   -1    0    0  501    0  0.00000000000E+00  0.00000000000E+00 -0.30126257495E+03  0.30126257499E+03  0.50400001928E-02 0.  1.
    10030    2    1    2    0    0  0.00000000000E+00  0.00000000000E+00  0.23854583195E+03  0.84107098191E+03  0.80653349755E+03 0.  0.
        2    1    3    3  502    0  0.29261356057E+03  0.91369093672E+02 -0.15396451971E+03  0.34303947360E+03  0.25500000920E-02 0.  1.
       -2    1    3    3    0  502 -0.29261356057E+03 -0.91369093672E+02  0.39251035166E+03  0.49803150832E+03  0.25500000920E-02 0. -1.
</event>
<event>
 5   0  0.2759559E-02  0.8021882E+03  0.7818609E-02  0.9556855E-01
        1   -1    0    0  501    0  0.00000000000E+00  0.00000000000E+00  0.22460013197E+03  0.22460013202E+03  0.50400001928E-02 0.  1.
       -1   -1    0    0    0  501  0.00000000000E+00  0.00000000000E+00 -0.71627948097E+03  0.71627948098E+03  0.50400001928E-02 0. -1.
    10030    2    1    2    0    0  0.00000000000E+00  0.00000000000E+00 -0.49167934900E+03  0.94087961301E+03  0.80218817240E+03 0.  0.
        3    1    3    3  502    0  0.80734929161E+02 -0.35350054355E+03 -0.44745424218E+02  0.36535315280E+03  0.10100000352E+00 0.  1.
       -3    1    3    3    0  502 -0.80734929161E+02  0.35350054355E+03 -0.44693392478E+03  0.57552646020E+03  0.10100000352E+00 0. -1.
</event>
<event>
 5   0  0.4700220E-02  0.8022220E+03  0.7818609E-02  0.9556806E-01
        2   -1    0    0  501    0  0.00000000000E+00  0.00000000000E+00  0.10803634425E+04  0.10803634425E+04  0.25500000920E-02 0. -1.
       -2   -1    0    0    0  501  0.00000000000E+00  0.00000000000E+00 -0.14892214784E+03  0.14892214786E+03  0.25500000920E-02 0.  1.
    10030    2    1    2    0    0  0.00000000000E+00  0.00000000000E+00  0.93144129470E+03  0.12292855904E+04  0.80222202493E+03 0.  0.
        4    1    3    3  502    0 -0.15098501450E+01 -0.10627824865E+03 -0.12694678988E+03  0.16557308400E+03  0.12699999809E+01 0.  1.
       -4    1    3    3    0  502  0.15098501450E+01  0.10627824865E+03  0.10583880846E+04  0.10637125064E+04  0.12699999809E+01 0. -1.
</event>
<event>
 5   0  0.4700220E-02  0.7748414E+03  0.7818609E-02  0.9597165E-01
        2   -1    0    0  501    0  0.00000000000E+00  0.00000000000E+00  0.25260846379E+03  0.25260846380E+03  0.25500000920E-02 0.  1.
       -2   -1    0    0    0  501  0.00000000000E+00  0.00000000000E+00 -0.59417953506E+03  0.59417953507E+03  0.25500000920E-02 0. -1.
    10030    2    1    2    0    0  0.00000000000E+00  0.00000000000E+00 -0.34157107128E+03  0.84678799887E+03  0.77484135040E+03 0.  0.
        4    1    3    3  502    0  0.13716240109E+03  0.32324806002E+02 -0.56517503581E+03  0.58247991498E+03  0.12699999809E+01 0. -1.
       -4    1    3    3    0  502 -0.13716240109E+03 -0.32324806002E+02  0.22360396453E+03  0.26430808389E+03  0.12699999809E+01 0.  1.
</event>
<event>
 5   0  0.2769394E-02  0.7883041E+03  0.7818609E-02  0.9577102E-01
       -1   -1    0    0    0  501  0.00000000000E+00  0.00000000000E+00  0.30190735995E+03  0.30190735999E+03  0.50400001928E-02 0. -1.
        1   -1    0    0  501    0  0.00000000000E+00  0.00000000000E+00 -0.51458121274E+03  0.51458121276E+03  0.50400001928E-02 0.  1.
    10030    2    1    2    0    0  0.00000000000E+00  0.00000000000E+00 -0.21267385279E+03  0.81648857275E+03  0.78830414294E+03 0.  0.
        2    1    3    3  502    0 -0.30785795186E+03  0.54696898388E+02 -0.35489091665E+03  0.47298608007E+03  0.25500000920E-02 0.  1.
       -2    1    3    3    0  502  0.30785795186E+03 -0.54696898388E+02  0.14221706386E+03  0.34350249268E+03  0.25500000920E-02 0. -1.
</event>
<event>
 5   0  0.4700220E-02  0.7715127E+03  0.7818609E-02  0.9602192E-01
       -2   -1    0    0    0  501  0.00000000000E+00  0.00000000000E+00  0.43653084140E+03  0.43653084141E+03  0.25500000920E-02 0.  1.
        2   -1    0    0  501    0  0.00000000000E+00  0.00000000000E+00 -0.34088765572E+03  0.34088765573E+03  0.25500000920E-02 0. -1.
    10030    2    1    2    0    0  0.00000000000E+00  0.00000000000E+00  0.95643185675E+02  0.77741849714E+03  0.77151273530E+03 0.  0.
        4    1    3    3  502    0  0.23497454271E+03  0.78478332690E+02 -0.25013509007E+03  0.35205263897E+03  0.12699999809E+01 0. -1.
       -4    1    3    3    0  502 -0.23497454271E+03 -0.78478332690E+02  0.34577827574E+03  0.42536585817E+03  0.12699999809E+01 0.  1.
</event>
<event>
 5   0  0.4684283E-02  0.8758712E+03  0.7818609E-02  0.9456257E-01
        2   -1    0    0  501    0  0.00000000000E+00  0.00000000000E+00  0.58741367498E+03  0.58741367499E+03  0.25500000920E-02 0.  1.
       -2   -1    0    0    0  501  0.00000000000E+00  0.00000000000E+00 -0.32649494856E+03  0.32649494857E+03  0.25500000920E-02 0. -1.
    10030    2    1    2    0    0  0.00000000000E+00  0.00000000000E+00  0.26091872642E+03  0.91390862356E+03  0.87587121794E+03 0.  0.
        1    1    3    3  502    0  0.13406867652E+03 -0.32627480585E+03  0.40126450997E+03  0.53426853355E+03  0.50400001928E-02 0.  1.
       -1    1    3    3    0  502 -0.13406867652E+03  0.32627480585E+03 -0.14034578355E+03  0.37964009001E+03  0.50400001928E-02 0. -1.
</event>
<event>
 5   0  0.1786500E-02  0.7261840E+03  0.7818609E-02  0.9673473E-01
       -3   -1    0    0    0  501  0.00000000000E+00  0.00000000000E+00  0.10757179500E+03  0.10757184241E+03  0.10100000352E+00 0. -1.
        3   -1    0    0  501    0  0.00000000000E+00  0.00000000000E+00 -0.12255607425E+04  0.12255607467E+04  0.10100000352E+00 0.  1.
    10030    2    1    2    0    0  0.00000000000E+00  0.00000000000E+00 -0.11179889475E+04  0.13331325891E+04  0.72618400790E+03 0.  0.
        5    1    3    3  502    0  0.34828094293E+03 -0.87289887584E+02 -0.46022585815E+03  0.58373715848E+03  0.46999998093E+01 0. -1.
       -5    1    3    3    0  502 -0.34828094293E+03  0.87289887584E+02 -0.65776308939E+03  0.74939543063E+03  0.46999998093E+01 0.  1.
</event>
<event>
 5   0  0.4700220E-02  0.8464444E+03  0.7818609E-02  0.9495122E-01
       -2   -1    0    0    0  501  0.00000000000E+00  0.00000000000E+00  0.11676353832E+03  0.11676353835E+03  0.25500000920E-02 0.  1.
        2   -1    0    0  501    0  0.00000000000E+00  0.00000000000E+00 -0.15340149492E+04  0.15340149492E+04  0.25500000920E-02 0. -1.
    10030    2    1    2    0    0  0.00000000000E+00  0.00000000000E+00 -0.14172514109E+04  0.16507784876E+04  0.84644435926E+03 0.  0.
        4    1    3    3  502    0 -0.67427607900E+02  0.41554339639E+03 -0.79346953125E+03  0.89823065329E+03  0.12699999809E+01 0.  1.
       -4    1    3    3    0  502  0.67427607900E+02 -0.41554339639E+03 -0.62378187965E+03  0.75254783428E+03  0.12699999809E+01 0. -1.
</event>
<event>
 5   0  0.2759559E-02  0.7379180E+03  0.7818609E-02  0.9654498E-01
        1   -1    0    0  501    0  0.00000000000E+00  0.00000000000E+00  0.81630939104E+03  0.81630939106E+03  0.50400001928E-02 0. -1.
       -1   -1    0    0    0  501  0.00000000000E+00  0.00000000000E+00 -0.16676365681E+03  0.16676365688E+03  0.50400001928E-02 0.  1.
    10030    2    1    2    0    0  0.00000000000E+00  0.00000000000E+00  0.64954573424E+03  0.98307304794E+03  0.73791798780E+03 0.  0.
        3    1    3    3  502    0  0.14744159012E+03  0.30820968408E+03  0.13922253546E+03  0.36893787612E+03  0.10100000352E+00 0.  1.
       -3    1    3    3    0  502 -0.14744159012E+03 -0.30820968408E+03  0.51032319878E+03  0.61413517182E+03  0.10100000352E+00 0. -1.
</event>
<event>
 5   0  0.4663634E-02  0.8053883E+03  0.7818609E-02  0.9552250E-01
       -2   -1    0    0    0  501  0.00000000000E+00  0.00000000000E+00  0.16164684555E+03  0.16164684557E+03  0.25500000920E-02 0.  1.
        2   -1    0    0  501    0  0.00000000000E+00  0.00000000000E+00 -0.10031904852E+04  0.10031904852E+04  0.25500000920E-02 0. -1.
    10030    2    1    2    0    0  0.00000000000E+00  0.00000000000E+00 -0.84154363965E+03  0.11648373308E+04  0.80538829749E+03 0.  0.
        5    1    3    3  502    0  0.25336605469E+03  0.18382419363E+03 -0.54440097005E+02  0.31776013909E+03  0.46999998093E+01 0.  1.
       -5    1    3    3    0  502 -0.25336605469E+03 -0.18382419363E+03 -0.78710354264E+03  0.84707719168E+03  0.46999998093E+01 0. -1.
</event>
<event>
 5   0  0.2759559E-02  0.7450681E+03  0.7818609E-02  0.9643120E-01
       -1   -1    0    0    0  501  0.00000000000E+00  0.00000000000E+00  0.15689690609E+03  0.15689690617E+03  0.50400001928E-02 0.  1.
        1   -1    0    0  501    0  0.00000000000E+00  0.00000000000E+00 -0.88454025659E+03  0.88454025660E+03  0.50400001928E-02 0. -1.
    10030    2    1    2    0    0  0.00000000000E+00  0.00000000000E+00 -0.72764335050E+03  0.10414371628E+04  0.74506813009E+03 0.  0.
        3    1    3    3  502    0 -0.48712148498E+02  0.36931387710E+03 -0.36941385432E+03  0.52462578968E+03  0.10100000352E+00 0. -1.
       -3    1    3    3    0  502  0.48712148498E+02 -0.36931387710E+03 -0.35822949618E+03  0.51681137310E+03  0.10100000352E+00 0.  1.
</event>
<event>
 5   0  0.2759559E-02  0.7973348E+03  0.7818609E-02  0.9563883E-01
       -1   -1    0    0    0  501  0.00000000000E+00  0.00000000000E+00  0.56588047527E+03  0.56588047529E+03  0.50400001928E-02 0.  1.
        1   -1    0    0  501    0  0.00000000000E+00  0.00000000000E+00 -0.28086440543E+03  0.28086440547E+03  0.50400001928E-02 0. -1.
    10030    2    1    2    0    0  0.00000000000E+00  0.00000000000E+00  0.28501606984E+03  0.84674488076E+03  0.79733476848E+03 0.  0.
        3    1    3    3  502    0  0.35814904838E+03 -0.30105366661E+02  0.32570493422E+03  0.48503689378E+03  0.10100000352E+00 0.  1.
       -3    1    3    3    0  502 -0.35814904838E+03  0.30105366661E+02 -0.40688864380E+02  0.36170798698E+03  0.10100000352E+00 0. -1.
</event>
<event>
 5   0  0.4663634E-02  0.8631407E+03  0.7818609E-02  0.9472868E-01
       -2   -1    0    0    0  501  0.00000000000E+00  0.00000000000E+00  0.18310920536E+03  0.18310920538E+03  0.25500000920E-02 0. -1.
        2   -1    0    0  501    0  0.00000000000E+00  0.00000000000E+00 -0.10171688478E+04  0.10171688478E+04  0.25500000920E-02 0.  1.
    10030    2    1    2    0    0  0.00000000000E+00  0.00000000000E+00 -0.83405964239E+03  0.12002780531E+04  0.86314072884E+03 0.  0.
        5    1    3    3  502    0  0.11197723342E+03  0.15416762608E+03  0.12140893945E+03  0.22598402225E+03  0.46999998093E+01 0. -1.
       -5    1    3    3    0  502 -0.11197723342E+03 -0.15416762608E+03 -0.95546858185E+03  0.97429403089E+03  0.46999998093E+01 0.  1.
</event>
<event>
 5   0  0.2635243E-02  0.8370739E+03  0.7818609E-02  0.9507852E-01
        1   -1    0    0  501    0  0.00000000000E+00  0.00000000000E+00  0.95660386903E+03  0.95660386905E+03  0.50400001928E-02 0. -1.
       -1   -1    0    0    0  501  0.00000000000E+00  0.00000000000E+00 -0.18311988496E+03  0.18311988503E+03  0.50400001928E-02 0.  1.
    10030    2    1    2    0    0  0.00000000000E+00  0.00000000000E+00  0.77348398407E+03  0.11397237541E+04  0.83707392863E+03 0.  0.
        1    1    3    3  502    0  0.40286821364E+03 -0.10987244765E+03  0.42521502524E+03  0.59597195406E+03  0.50400001928E-02 0. -1.
       -1    1    3    3    0  502 -0.40286821364E+03  0.10987244765E+03  0.34826895883E+03  0.54375180002E+03  0.50400001928E-02 0.  1.
</event>
<event>
 5   0  0.2689372E-02  0.7637164E+03  0.7818609E-02  0.9614074E-01
        1   -1    0    0  501    0  0.00000000000E+00  0.00000000000E+00  0.81027314579E+03  0.81027314581E+03  0.50400001928E-02 0. -1.
       -1   -1    0    0    0  501  0.00000000000E+00  0.00000000000E+00 -0.17995870234E+03  0.17995870241E+03  0.50400001928E-02 0.  1.
    10030    2    1    2    0    0  0.00000000000E+00  0.00000000000E+00  0.63031444345E+03  0.99023184822E+03  0.76371644974E+03 0.  0.
        4    1    3    3  502    0 -0.20996860206E+03  0.31147338137E+03  0.40415709855E+03  0.55176721030E+03  0.12699999809E+01 0. -1.
       -4    1    3    3    0  502  0.20996860206E+03 -0.31147338137E+03  0.22615734490E+03  0.43846463792E+03  0.12699999809E+01 0.  1.
</event>
<event>
 5   0  0.2606520E-02  0.8148250E+03  0.7818609E-02  0.9538803E-01
        1   -1    0    0  501    0  0.00000000000E+00  0.00000000000E+00  0.33877849278E+03  0.33877849281E+03  0.50400001928E-02 0. -1.
       -1   -1    0    0    0  501  0.00000000000E+00  0.00000000000E+00 -0.48995123533E+03  0.48995123536E+03  0.50400001928E-02 0.  1.
    10030    2    1    2    0    0  0.00000000000E+00  0.00000000000E+00 -0.15117274256E+03  0.82872972817E+03  0.81482498996E+03 0.  0.
        5    1    3    3  502    0 -0.14241712495E+03 -0.33844783120E+03 -0.25504362237E+03  0.44710056053E+03  0.46999998093E+01 0.  1.
       -5    1    3    3    0  502  0.14241712495E+03  0.33844783120E+03  0.10387087981E+03  0.38162916764E+03  0.46999998093E+01 0. -1.
</event>
<event>
 5   0  0.2689372E-02  0.8112659E+03  0.7818609E-02  0.9543852E-01
       -1   -1    0    0    0  501  0.00000000000E+00  0.00000000000E+00  0.68454642721E+03  0.68454642723E+03  0.50400001928E-02 0. -1.
        1   -1    0    0  501    0  0.00000000000E+00  0.00000000000E+00 -0.24036074762E+03  0.24036074767E+03  0.50400001928E-02 0.  1.
    10030    2    1    2    0    0  0.00000000000E+00  0.00000000000E+00  0.44418567959E+03  0.92490717490E+03  0.81126590229E+03 0.  0.
        4    1    3    3  502    0 -0.38214803157E+03  0.46857121330E+02  0.76520470797E+02  0.39254261324E+03  0.12699999809E+01 0.  1.
       -4    1    3    3    0  502  0.38214803157E+03 -0.46857121330E+02  0.36766520880E+03  0.53236456166E+03  0.12699999809E+01 0. -1.
</event>
<event>
 5   0  0.2635243E-02  0.6091875E+03  0.7818609E-02  0.9886526E-01
        1   -1    0    0  501    0  0.00000000000E+00  0.00000000000E+00  0.54087854372E+03  0.54087854374E+03  0.50400001928E-02 0. -1.
       -1   -1    0    0    0  501  0.00000000000E+00  0.00000000000E+00 -0.17153086349E+03  0.17153086356E+03  0.50400001928E-02 0.  1.
    10030    2    1    2    0    0  0.00000000000E+00  0.00000000000E+00  0.36934768023E+03  0.71240940731E+03  0.60918753658E+03 0.  0.
        1    1    3    3  502    0  0.78270320269E+02 -0.14790318744E+02 -0.15913484205E+03  0.17795756388E+03  0.50400001928E-02 0.  1.
       -1    1    3    3    0  502 -0.78270320269E+02  0.14790318744E+02  0.52848252228E+03  0.53445184343E+03  0.50400001928E-02 0. -1.
</event>
<event>
 5   0  0.4700220E-02  0.8008369E+03  0.7818609E-02  0.9558807E-01
       -2   -1    0    0    0  501  0.00000000000E+00  0.00000000000E+00  0.55611807940E+03  0.55611807940E+03  0.25500000920E-02 0. -1.
        2   -1    0    0  501    0  0.00000000000E+00  0.00000000000E+00 -0.28831094844E+03  0.28831094845E+03  0.25500000920E-02 0.  1.
    10030    2    1    2    0    0  0.00000000000E+00  0.00000000000E+00  0.26780713096E+03  0.84442902785E+03  0.80083688956E+03 0.  0.
        4    1    3    3  502    0  0.36225349419E+03 -0.10093739196E+03 -0.11123622776E+02  0.37621974833E+03  0.12699999809E+01 0. -1.
       -4    1    3    3    0  502 -0.36225349419E+03  0.10093739196E+03  0.27893075374E+03  0.46820927952E+03  0.12699999809E+01 0.  1.
</event>
<event>
 5   0  0.2689372E-02  0.8570193E+03  0.7818609E-02  0.9480964E-01
       -1   -1    0    0    0  501  0.00000000000E+00  0.00000000000E+00  0.42795553463E+03  0.42795553466E+03  0.50400001928E-02 0.  1.
        1   -1    0    0  501    0  0.00000000000E+00  0.00000000000E+00 -0.42906451223E+03  0.42906451226E+03  0.50400001928E-02 0. -1.
    10030    2    1    2    0    0  0.00000000000E+00  0.00000000000E+00 -0.11089776000E+01  0.85702004691E+03  0.85701932941E+03 0.  0.
        4    1    3    3  502    0  0.44327334956E+02 -0.35524865337E+03 -0.23603802187E+03  0.42881473741E+03  0.12699999809E+01 0. -1.
       -4    1    3    3    0  502 -0.44327334956E+02  0.35524865337E+03  0.23492904427E+03  0.42820530951E+03  0.12699999809E+01 0.  1.
</event>
<event>
 5   0  0.2689372E-02  0.7917296E+03  0.7818609E-02  0.9572066E-01
        1   -1    0    0  501    0  0.00000000000E+00  0.00000000000E+00  0.27730413657E+03  0.27730413661E+03  0.50400001928E-02 0.  1.
       -1   -1    0    0    0  501  0.00000000000E+00  0.00000000000E+00 -0.56511583224E+03  0.56511583227E+03  0.50400001928E-02 0. -1.
    10030    2    1    2    0    0  0.00000000000E+00  0.00000000000E+00 -0.28781169568E+03  0.84241996888E+03  0.79172964565E+03 0.  0.
        4    1    3    3  502    0  0.31327349029E+03 -0.23327364473E+03 -0.21245474789E+03  0.44462962772E+03  0.12699999809E+01 0. -1.
       -4    1    3    3    0  502 -0.31327349029E+03  0.23327364473E+03 -0.75356947787E+02  0.39779034116E+03  0.12699999809E+01 0.  1.
</event>
<event>
 5   0  0.2759559E-02  0.6592135E+03  0.7818609E-02  0.9789643E-01
       -1   -1    0    0    0  501  0.00000000000E+00  0.00000000000E+00  0.25848552561E+03  0.25848552566E+03  0.50400001928E-02 0. -1.
        1   -1    0    0  501    0  0.00000000000E+00  0.00000000000E+00 -0.42029669381E+03  0.42029669384E+03  0.50400001928E-02 0.  1.
    10030    2    1    2    0    0  0.00000000000E+00  0.00000000000E+00 -0.16181116820E+03  0.67878221950E+03  0.65921350666E+03 0.  0.
        3    1    3    3  502    0 -0.92362279083E+02  0.12156820206E+03  0.21988049715E+03  0.26768836653E+03  0.10100000352E+00 0. -1.
       -3    1    3    3    0  502  0.92362279083E+02 -0.12156820206E+03 -0.38169166535E+03  0.41109385297E+03  0.10100000352E+00 0.  1.
</event>
<event>
 5   0  0.2759559E-02  0.7959759E+03  0.7818609E-02  0.9565860E-01
        1   -1    0    0  501    0  0.00000000000E+00  0.00000000000E+00  0.50378177405E+03  0.50378177407E+03  0.50400001928E-02 0.  1.
       -1   -1    0    0    0  501  0.00000000000E+00  0.00000000000E+00 -0.31441077305E+03  0.31441077309E+03  0.50400001928E-02 0. -1.
    10030    2    1    2    0    0  0.00000000000E+00  0.00000000000E+00  0.18937100099E+03  0.81819254717E+03  0.79597592189E+03 0.  0.
        3    1    3    3  502    0 -0.25029238757E+02  0.29031108310E+03 -0.18396644922E+03  0.34460216541E+03  0.10100000352E+00 0. -1.
       -3    1    3    3    0  502  0.25029238757E+02 -0.29031108310E+03  0.37333745022E+03  0.47359038176E+03  0.10100000352E+00 0.  1.
</event>
<event>
 5   0  0.4700220E-02  0.8018267E+03  0.7818609E-02  0.9557377E-01
        2   -1    0    0  501    0  0.00000000000E+00  0.00000000000E+00  0.60547006294E+03  0.60547006294E+03  0.25500000920E-02 0. -1.
       -2   -1    0    0    0  501  0.00000000000E+00  0.00000000000E+00 -0.26546568680E+03  0.26546568681E+03  0.25500000920E-02 0.  1.
    10030    2    1    2    0    0  0.00000000000E+00  0.00000000000E+00  0.34000437614E+03  0.87093574975E+03  0.80182672966E+03 0.  0.
        4    1    3    3  502    0 -0.11019186409E+03  0.31140586874E+03 -0.76766221468E+02  0.33913202099E+03  0.12699999809E+01 0.  1.
       -4    1    3    3    0  502  0.11019186409E+03 -0.31140586874E+03  0.41677059761E+03  0.53180372877E+03  0.12699999809E+01 0. -1.
</event>
<event>
 5   0  0.2769394E-02  0.7749205E+03  0.7818609E-02  0.9597045E-01
        1   -1    0    0  501    0  0.00000000000E+00  0.00000000000E+00  0.72522454678E+03  0.72522454680E+03  0.50400001928E-02 0.  1.
       -1   -1    0    0    0  501  0.00000000000E+00  0.00000000000E+00 -0.20700544018E+03  0.20700544024E+03  0.50400001928E-02 0. -1.
    10030    2    1    2    0    0  0.00000000000E+00  0.00000000000E+00  0.51821910659E+03  0.93222998704E+03  0.77492045159E+03 0.  0.
        2    1    3    3  502    0  0.20581651907E+03 -0.10509820827E+02  0.65382316376E+03  0.68553309573E+03  0.25500000920E-02 0.  1.
       -2    1    3    3    0  502 -0.20581651907E+03  0.10509820827E+02 -0.13560405717E+03  0.24669689131E+03  0.25500000920E-02 0. -1.
</event>
<event>
 5   0  0.2689372E-02  0.8305935E+03  0.7818609E-02  0.9516760E-01
        1   -1    0    0  501    0  0.00000000000E+00  0.00000000000E+00  0.59173637650E+03  0.59173637652E+03  0.50400001928E-02 0.  1.
       -1   -1    0    0    0  501  0.00000000000E+00  0.00000000000E+00 -0.29146661855E+03  0.29146661859E+03  0.50400001928E-02 0. -1.
    10030    2    1    2    0    0  0.00000000000E+00  0.00000000000E+00  0.30026975795E+03  0.88320299511E+03  0.83059352456E+03 0.  0.
        4    1    3    3  502    0  0.21759026790E+03  0.31570328703E+03 -0.19519273884E+02  0.38392278530E+03  0.12699999809E+01 0.  1.
       -4    1    3    3    0  502 -0.21759026790E+03 -0.31570328703E+03  0.31978903184E+03  0.49928020981E+03  0.12699999809E+01 0. -1.
</event>
<event>
 5   0  0.4700220E-02  0.7880400E+03  0.7818609E-02  0.9577492E-01
        2   -1    0    0  501    0  0.00000000000E+00  0.00000000000E+00  0.17470930485E+03  0.17470930487E+03  0.25500000920E-02 0. -1.
       -2   -1    0    0    0  501  0.00000000000E+00  0.00000000000E+00 -0.88862900505E+03  0.88862900506E+03  0.25500000920E-02 0.  1.
    10030    2    1    2    0    0  0.00000000000E+00  0.00000000000E+00 -0.71391970020E+03  0.10633383099E+04  0.78803998821E+03 0.  0.
        4    1    3    3  502    0  0.25630123910E+03  0.26592769120E+03 -0.17173897138E+03  0.40731283960E+03  0.12699999809E+01 0. -1.
       -4    1    3    3    0  502 -0.25630123910E+03 -0.26592769120E+03 -0.54218072882E+03  0.65602547032E+03  0.12699999809E+01 0.  1.
</event>
<event>
 5   0  0.4663634E-02  0.8048643E+03  0.7818609E-02  0.9553003E-01
       -2   -1    0    0    0  501  0.00000000000E+00  0.00000000000E+00  0.23368638343E+03  0.23368638344E+03  0.25500000920E-02 0.  1.
        2   -1    0    0  501    0  0.00000000000E+00  0.00000000000E+00 -0.69302982624E+03  0.69302982625E+03  0.25500000920E-02 0. -1.
    10030    2    1    2    0    0  0.00000000000E+00  0.00000000000E+00 -0.45934344282E+03  0.92671620969E+03  0.80486429592E+03 0.  0.
        5    1    3    3  502    0  0.18094413578E+03  0.19938865102E+03 -0.57400010604E+03  0.63403061926E+03  0.46999998093E+01 0. -1.
       -5    1    3    3    0  502 -0.18094413578E+03 -0.19938865102E+03  0.11465666322E+03  0.29268559043E+03  0.46999998093E+01 0.  1.
</event>
<event>
 5   0  0.2689372E-02  0.8220596E+03  0.7818609E-02  0.9528624E-01
        1   -1    0    0  501    0  0.00000000000E+00  0.00000000000E+00  0.20528801468E+03  0.20528801474E+03  0.50400001928E-02 0. -1.
       -1   -1    0    0    0  501  0.00000000000E+00  0.00000000000E+00 -0.82296808970E+03  0.82296808972E+03  0.50400001928E-02 0.  1.
    10030    2    1    2    0    0  0.00000000000E+00  0.00000000000E+00 -0.61768007503E+03  0.10282561045E+04  0.82205957282E+03 0.  0.
        4    1    3    3  502    0  0.75191352580E+02  0.26225004475E+03 -0.69338620078E+03  0.74512741313E+03  0.12699999809E+01 0.  1.
       -4    1    3    3    0  502 -0.75191352580E+02 -0.26225004475E+03  0.75706125750E+02  0.28312869132E+03  0.12699999809E+01 0. -1.
</event>
<event>
 5   0  0.4700220E-02  0.7931623E+03  0.7818609E-02  0.9569968E-01
       -2   -1    0    0    0  501  0.00000000000E+00  0.00000000000E+00  0.20386504211E+03  0.20386504213E+03  0.25500000920E-02 0.  1.
        2   -1    0    0  501    0  0.00000000000E+00  0.00000000000E+00 -0.77147405456E+03  0.77147405457E+03  0.25500000920E-02 0. -1.
    10030    2    1    2    0    0  0.00000000000E+00  0.00000000000E+00 -0.56760901245E+03  0.97533909670E+03  0.79316225486E+03 0.  0.
        4    1    3    3  502    0  0.19552344713E+03 -0.15532060855E+03 -0.66266114549E+03  0.70814921906E+03  0.12699999809E+01 0. -1.
       -4    1    3    3    0  502 -0.19552344713E+03  0.15532060855E+03  0.95052133038E+02  0.26718987764E+03  0.12699999809E+01 0.  1.
</event>
<event>
 5   0  0.4590462E-02  0.8250867E+03  0.7818609E-02  0.9524399E-01
        2   -1    0    0  501    0  0.00000000000E+00  0.00000000000E+00  0.22503610023E+04  0.22503610023E+04  0.25500000920E-02 0. -1.
       -2   -1    0    0    0  501  0.00000000000E+00  0.00000000000E+00 -0.75628763954E+02  0.75628763997E+02  0.25500000920E-02 0.  1.
    10030    2    1    2    0    0  0.00000000000E+00  0.00000000000E+00  0.21747322383E+04  0.23259897663E+04  0.82508671327E+03 0.  0.
        3    1    3    3  502    0  0.32212023486E+03 -0.13865858833E+03  0.47487574475E+03  0.59033434000E+03  0.10100000352E+00 0.  1.
       -3    1    3    3    0  502 -0.32212023486E+03  0.13865858833E+03  0.16998564935E+04  0.17356554262E+04  0.10100000352E+00 0. -1.
</event>
<event>
 5   0  0.2606520E-02  0.8009601E+03  0.7818609E-02  0.9558628E-01
       -1   -1    0    0    0  501  0.00000000000E+00  0.00000000000E+00  0.23067600496E+03  0.23067600501E+03  0.50400001928E-02 0. -1.
        1   -1    0    0  501    0  0.00000000000E+00  0.00000000000E+00 -0.69527946763E+03  0.69527946764E+03  0.50400001928E-02 0.  1.
    10030    2    1    2    0    0  0.00000000000E+00  0.00000000000E+00 -0.46460346267E+03  0.92595547266E+03  0.80096014871E+03 0.  0.
        5    1    3    3  502    0  0.80222148628E+02  0.32390640623E+03  0.23631729694E+02  0.33456165616E+03  0.46999998093E+01 0. -1.
       -5    1    3    3    0  502 -0.80222148628E+02 -0.32390640623E+03 -0.48823519236E+03  0.59139381649E+03  0.46999998093E+01 0.  1.
</event>
<event>
 5   0  0.4377843E-02  0.8017218E+03  0.7818609E-02  0.9557528E-01
       -2   -1    0    0    0  501  0.00000000000E+00  0.00000000000E+00  0.91671204299E+03  0.91671204299E+03  0.25500000920E-02 0. -1.
        2   -1    0    0  501    0  0.00000000000E+00  0.00000000000E+00 -0.17528893816E+03  0.17528893818E+03  0.25500000920E-02 0.  1.
    10030    2    1    2    0    0  0.00000000000E+00  0.00000000000E+00  0.74142310483E+03  0.10920009812E+04  0.80172184859E+03 0.  0.
        2    1    3    3  502    0 -0.16200503103E+02  0.22707424025E+03 -0.78697771999E+02  0.24087030994E+03  0.25500000920E-02 0.  1.
       -2    1    3    3    0  502  0.16200503103E+02 -0.22707424025E+03  0.82012087682E+03  0.85113067122E+03  0.25500000920E-02 0. -1.
</event>
<event>
 5   0  0.2606520E-02  0.7773051E+03  0.7818609E-02  0.9593461E-01
       -1   -1    0    0    0  501  0.00000000000E+00  0.00000000000E+00  0.25876589375E+03  0.25876589380E+03  0.50400001928E-02 0.  1.
        1   -1    0    0  501    0  0.00000000000E+00  0.00000000000E+00 -0.58373536017E+03  0.58373536019E+03  0.50400001928E-02 0. -1.
    10030    2    1    2    0    0  0.00000000000E+00  0.00000000000E+00 -0.32496946642E+03  0.84250125399E+03  0.77730509381E+03 0.  0.
        5    1    3    3  502    0  0.30931005092E+03  0.50730933109E+02  0.86529123443E+02  0.32520103687E+03  0.46999998093E+01 0.  1.
       -5    1    3    3    0  502 -0.30931005092E+03 -0.50730933109E+02 -0.41149858986E+03  0.51730021712E+03  0.46999998093E+01 0. -1.
</event>
<event>
 5   0  0.4377843E-02  0.7656535E+03  0.7818609E-02  0.9611108E-01
        2   -1    0    0  501    0  0.00000000000E+00  0.00000000000E+00  0.22818139102E+03  0.22818139103E+03  0.25500000920E-02 0.  1.
       -2   -1    0    0    0  501  0.00000000000E+00  0.00000000000E+00 -0.64227983816E+03  0.64227983816E+03  0.25500000920E-02 0. -1.
    10030    2    1    2    0    0  0.00000000000E+00  0.00000000000E+00 -0.41409844714E+03  0.87046122919E+03  0.76565346444E+03 0.  0.
        2    1    3    3  502    0  0.21083059709E+03 -0.29536694578E+03 -0.34566146556E+03  0.50117164935E+03  0.25500000920E-02 0.  1.
       -2    1    3    3    0  502 -0.21083059709E+03  0.29536694578E+03 -0.68436981576E+02  0.36928957985E+03  0.25500000920E-02 0. -1.
</event>
<event>
 5   0  0.2759559E-02  0.8060938E+03  0.7818609E-02  0.9551238E-01
       -1   -1    0    0    0  501  0.00000000000E+00  0.00000000000E+00  0.95614397056E+02  0.95614397189E+02  0.50400001928E-02 0.  1.
        1   -1    0    0  501    0  0.00000000000E+00  0.00000000000E+00 -0.16989784089E+04  0.16989784089E+04  0.50400001928E-02 0. -1.
    10030    2    1    2    0    0  0.00000000000E+00  0.00000000000E+00 -0.16033640119E+04  0.17945928061E+04  0.80609378191E+03 0.  0.
        3    1    3    3  502    0  0.34963675858E+03 -0.19857878742E+03 -0.74001001765E+03  0.84219607823E+03  0.10100000352E+00 0.  1.
       -3    1    3    3    0  502 -0.34963675858E+03  0.19857878742E+03 -0.86335399423E+03  0.95239672790E+03  0.10100000352E+00 0. -1.
</event>
<event>
 5   0  0.4590462E-02  0.7542676E+03  0.7818609E-02  0.9628679E-01
       -2   -1    0    0    0  501  0.00000000000E+00  0.00000000000E+00  0.85730879658E+02  0.85730879696E+02  0.25500000920E-02 0.  1.
        2   -1    0    0  501    0  0.00000000000E+00  0.00000000000E+00 -0.16590275293E+04  0.16590275293E+04  0.25500000920E-02 0. -1.
    10030    2    1    2    0    0  0.00000000000E+00  0.00000000000E+00 -0.15732966496E+04  0.17447584090E+04  0.75426756392E+03 0.  0.
        3    1    3    3  502    0  0.12601770982E+03  0.35473498280E+03 -0.83901563033E+03  0.91960024431E+03  0.10100000352E+00 0.  1.
       -3    1    3    3    0  502 -0.12601770982E+03 -0.35473498280E+03 -0.73428101927E+03  0.82515816464E+03  0.10100000352E+00 0. -1.
</event>
<event>
 5   0  0.2769394E-02  0.8041231E+03  0.7818609E-02  0.9554068E-01
       -1   -1    0    0    0  501  0.00000000000E+00  0.00000000000E+00  0.91849790805E+02  0.91849790943E+02  0.50400001928E-02 0. -1.
        1   -1    0    0  501    0  0.00000000000E+00  0.00000000000E+00 -0.17599767741E+04  0.17599767741E+04  0.50400001928E-02 0.  1.
    10030    2    1    2    0    0  0.00000000000E+00  0.00000000000E+00 -0.16681269833E+04  0.18518265651E+04  0.80412312157E+03 0.  0.
        2    1    3    3  502    0  0.11405857604E+03  0.77296626503E+02 -0.17039110203E+04  0.17094726942E+04  0.25500000920E-02 0.  1.
       -2    1    3    3    0  502 -0.11405857604E+03 -0.77296626503E+02  0.35784036971E+02  0.14235387085E+03  0.25500000920E-02 0. -1.
</event>
<event>
 5   0  0.2635243E-02  0.7998818E+03  0.7818609E-02  0.9560188E-01
       -1   -1    0    0    0  501  0.00000000000E+00  0.00000000000E+00  0.17734554865E+03  0.17734554872E+03  0.50400001928E-02 0.  1.
        1   -1    0    0  501    0  0.00000000000E+00  0.00000000000E+00 -0.90192699700E+03  0.90192699701E+03  0.50400001928E-02 0. -1.
    10030    2    1    2    0    0  0.00000000000E+00  0.00000000000E+00 -0.72458144834E+03  0.10792725457E+04  0.79988183671E+03 0.  0.
        1    1    3    3  502    0 -0.30568123030E+03  0.25658566028E+03 -0.39735987212E+03  0.56318032957E+03  0.50400001928E-02 0. -1.
       -1    1    3    3    0  502  0.30568123030E+03 -0.25658566028E+03 -0.32722157622E+03  0.51609221617E+03  0.50400001928E-02 0.  1.
</event>
<event>
 5   0  0.4377843E-02  0.7445784E+03  0.7818609E-02  0.9643895E-01
       -2   -1    0    0    0  501  0.00000000000E+00  0.00000000000E+00  0.69017131686E+02  0.69017131733E+02  0.25500000920E-02 0. -1.
        2   -1    0    0  501    0  0.00000000000E+00  0.00000000000E+00 -0.20081863355E+04  0.20081863355E+04  0.25500000920E-02 0.  1.
    10030    2    1    2    0    0  0.00000000000E+00  0.00000000000E+00 -0.19391692038E+04  0.20772034673E+04  0.74457843326E+03 0.  0.
        2    1    3    3  502    0 -0.79445295266E+02  0.19583547902E+02  0.43621700760E+02  0.92724986233E+02  0.25500000920E-02 0. -1.
       -2    1    3    3    0  502  0.79445295266E+02 -0.19583547902E+02 -0.19827909046E+04  0.19844784810E+04  0.25500000920E-02 0.  1.
</event>
<event>
 5   0  0.2759559E-02  0.8043473E+03  0.7818609E-02  0.9553746E-01
       -1   -1    0    0    0  501  0.00000000000E+00  0.00000000000E+00  0.18275253337E+03  0.18275253344E+03  0.50400001928E-02 0. -1.
        1   -1    0    0  501    0  0.00000000000E+00  0.00000000000E+00 -0.88504183864E+03  0.88504183866E+03  0.50400001928E-02 0.  1.
    10030    2    1    2    0    0  0.00000000000E+00  0.00000000000E+00 -0.70228930527E+03  0.10677943721E+04  0.80434728370E+03 0.  0.
        3    1    3    3  502    0  0.31309463870E+03 -0.18310884255E+03 -0.58179313579E+03  0.68559489792E+03  0.10100000352E+00 0.  1.
       -3    1    3    3    0  502 -0.31309463870E+03  0.18310884255E+03 -0.12049616948E+03  0.38219947418E+03  0.10100000352E+00 0. -1.
</event>
<event>
 5   0  0.4700220E-02  0.6624946E+03  0.7818609E-02  0.9783612E-01
       -2   -1    0    0    0  501  0.00000000000E+00  0.00000000000E+00  0.14642004934E+03  0.14642004936E+03  0.25500000920E-02 0. -1.
        2   -1    0    0  501    0  0.00000000000E+00  0.00000000000E+00 -0.74938348378E+03  0.74938348379E+03  0.25500000920E-02 0.  1.
    10030    2    1    2    0    0  0.00000000000E+00  0.00000000000E+00 -0.60296343444E+03  0.89580353315E+03  0.66249457864E+03 0.  0.
        4    1    3    3  502    0  0.52565357850E+02 -0.32352796490E+03 -0.23677951580E+03  0.40435085374E+03  0.12699999809E+01 0. -1.
       -4    1    3    3    0  502 -0.52565357850E+02  0.32352796490E+03 -0.36618391864E+03  0.49145267940E+03  0.12699999809E+01 0.  1.
</event>
<event>
 5   0  0.4590462E-02  0.7906333E+03  0.7818609E-02  0.9573675E-01
       -2   -1    0    0    0  501  0.00000000000E+00  0.00000000000E+00  0.18674754095E+03  0.18674754097E+03  0.25500000920E-02 0.  1.
        2   -1    0    0  501    0  0.00000000000E+00  0.00000000000E+00 -0.83682634437E+03  0.83682634437E+03  0.25500000920E-02 0. -1.
    10030    2    1    2    0    0  0.00000000000E+00  0.00000000000E+00 -0.65007880342E+03  0.10235738853E+04  0.79063332090E+03 0.  0.
        3    1    3    3  502    0 -0.32753796028E+03  0.21662191433E+03 -0.26615056146E+03  0.47438623584E+03  0.10100000352E+00 0. -1.
       -3    1    3    3    0  502  0.32753796028E+03 -0.21662191433E+03 -0.38392824196E+03  0.54918764950E+03  0.10100000352E+00 0.  1.
</event>
<event>
 5   0  0.1786500E-02  0.8013963E+03  0.7818609E-02  0.9557998E-01
        4   -1    0    0  501    0  0.00000000000E+00  0.00000000000E+00  0.17853561228E+03  0.17854012925E+03  0.12699999809E+01 0.  1.
       -4   -1    0    0    0  501  0.00000000000E+00  0.00000000000E+00 -0.89929440163E+03  0.89929529839E+03  0.12699999809E+01 0. -1.
    10030    2    1    2    0    0  0.00000000000E+00  0.00000000000E+00 -0.72075878935E+03  0.10778354276E+04  0.80139626693E+03 0.  0.
        2    1    3    3  502    0  0.85239746162E+02  0.62102568692E+02 -0.88029566856E+03  0.88659066511E+03  0.25500000920E-02 0. -1.
       -2    1    3    3    0  502 -0.85239746162E+02 -0.62102568692E+02  0.15953687920E+03  0.19124476253E+03  0.25500000920E-02 0.  1.
</event>
<event>
 5   0  0.2689372E-02  0.8193725E+03  0.7818609E-02  0.9532392E-01
        1   -1    0    0  501    0  0.00000000000E+00  0.00000000000E+00  0.64447456829E+03  0.64447456831E+03  0.50400001928E-02 0. -1.
       -1   -1    0    0    0  501  0.00000000000E+00  0.00000000000E+00 -0.26043357239E+03  0.26043357244E+03  0.50400001928E-02 0.  1.
    10030    2    1    2    0    0  0.00000000000E+00  0.00000000000E+00  0.38404099590E+03  0.90490814075E+03  0.81937247737E+03 0.  0.
        4    1    3    3  502    0 -0.36666319104E+02 -0.39362835195E+03  0.73312505277E+02  0.40207466315E+03  0.12699999809E+01 0.  1.
       -4    1    3    3    0  502  0.36666319104E+02  0.39362835195E+03  0.31072849062E+03  0.50283347760E+03  0.12699999809E+01 0. -1.
</event>
<event>
 5   0  0.2759559E-02  0.7989810E+03  0.7818609E-02  0.9561493E-01
       -1   -1    0    0    0  501  0.00000000000E+00  0.00000000000E+00  0.13407421017E+03  0.13407421027E+03  0.50400001928E-02 0.  1.
        1   -1    0    0  501    0  0.00000000000E+00  0.00000000000E+00 -0.11903308304E+04  0.11903308304E+04  0.50400001928E-02 0. -1.
    10030    2    1    2    0    0  0.00000000000E+00  0.00000000000E+00 -0.10562566202E+04  0.13244050406E+04  0.79898101603E+03 0.  0.
        3    1    3    3  502    0 -0.30098590920E+03  0.60074700549E+02 -0.95200927461E+03  0.10002615440E+04  0.10100000352E+00 0. -1.
       -3    1    3    3    0  502  0.30098590920E+03 -0.60074700549E+02 -0.10424734559E+03  0.32414349669E+03  0.10100000352E+00 0.  1.
</event>
<event>
 5   0  0.2606520E-02  0.7643366E+03  0.7818609E-02  0.9613123E-01
       -1   -1    0    0    0  501  0.00000000000E+00  0.00000000000E+00  0.25889780080E+03  0.25889780085E+03  0.50400001928E-02 0. -1.
        1   -1    0    0  501    0  0.00000000000E+00  0.00000000000E+00 -0.56413236036E+03  0.56413236038E+03  0.50400001928E-02 0.  1.
    10030    2    1    2    0    0  0.00000000000E+00  0.00000000000E+00 -0.30523455955E+03  0.82303016123E+03  0.76433664700E+03 0.  0.
        5    1    3    3  502    0  0.28141215133E+03  0.65256522519E+00 -0.43099890003E+03  0.51475758040E+03  0.46999998093E+01 0.  1.
       -5    1    3    3    0  502 -0.28141215133E+03 -0.65256522519E+00  0.12576434048E+03  0.30827258083E+03  0.46999998093E+01 0. -1.
</event>
<event>
 5   0  0.4700220E-02  0.7940477E+03  0.7818609E-02  0.9568673E-01
        2   -1    0    0  501    0  0.00000000000E+00  0.00000000000E+00  0.81663565495E+03  0.81663565495E+03  0.25500000920E-02 0. -1.
       -2   -1    0    0    0  501  0.00000000000E+00  0.00000000000E+00 -0.19302111800E+03  0.19302111802E+03  0.25500000920E-02 0.  1.
    10030    2    1    2    0    0  0.00000000000E+00  0.00000000000E+00  0.62361453694E+03  0.10096567730E+04  0.79404767396E+03 0.  0.
        4    1    3    3  502    0  0.13783257307E+03  0.15018123311E+03 -0.12139910245E+03  0.23725845813E+03  0.12699999809E+01 0.  1.
       -4    1    3    3    0  502 -0.13783257307E+03 -0.15018123311E+03  0.74501363940E+03  0.77239831484E+03  0.12699999809E+01 0. -1.
</event>
<event>
 5   0  0.4684283E-02  0.8241593E+03  0.7818609E-02  0.9525691E-01
        2   -1    0    0  501    0  0.00000000000E+00  0.00000000000E+00  0.51191244916E+03  0.51191244917E+03  0.25500000920E-02 0. -1.
       -2   -1    0    0    0  501  0.00000000000E+00  0.00000000000E+00 -0.33171617514E+03  0.33171617515E+03  0.25500000920E-02 0.  1.
    10030    2    1    2    0    0  0.00000000000E+00  0.00000000000E+00  0.18019627403E+03  0.84362862432E+03  0.82415930414E+03 0.  0.
        1    1    3    3  502    0  0.78011704041E+02 -0.18346602345E+03  0.45926163073E+03  0.50066640911E+03  0.50400001928E-02 0. -1.
       -1    1    3    3    0  502 -0.78011704041E+02  0.18346602345E+03 -0.27906535670E+03  0.34296221521E+03  0.50400001928E-02 0.  1.
</event>
<event>
 5   0  0.4663634E-02  0.8059818E+03  0.7818609E-02  0.9551399E-01
       -2   -1    0    0    0  501  0.00000000000E+00  0.00000000000E+00  0.45326503906E+03  0.45326503907E+03  0.25500000920E-02 0.  1.
        2   -1    0    0  501    0  0.00000000000E+00  0.00000000000E+00 -0.35829295264E+03  0.35829295265E+03  0.25500000920E-02 0. -1.
    10030    2    1    2    0    0  0.00000000000E+00  0.00000000000E+00  0.94972086421E+02  0.81155799172E+03  0.80598180918E+03 0.  0.
        5    1    3    3  502    0  0.99826695025E+02 -0.27194356265E+03 -0.23456063297E+03  0.37277265303E+03  0.46999998093E+01 0. -1.
       -5    1    3    3    0  502 -0.99826695025E+02  0.27194356265E+03  0.32953271939E+03  0.43878533870E+03  0.46999998093E+01 0.  1.
</event>
<event>
 5   0  0.4700220E-02  0.7959614E+03  0.7818609E-02  0.9565881E-01
        2   -1    0    0  501    0  0.00000000000E+00  0.00000000000E+00  0.37889223843E+03  0.37889223844E+03  0.25500000920E-02 0.  1.
       -2   -1    0    0    0  501  0.00000000000E+00  0.00000000000E+00 -0.41803080647E+03  0.41803080648E+03  0.25500000920E-02 0. -1.
    10030    2    1    2    0    0  0.00000000000E+00  0.00000000000E+00 -0.39138568037E+02  0.79692304492E+03  0.79596137596E+03 0.  0.
        4    1    3    3  502    0  0.26953367562E+03  0.28500392191E+03 -0.86817221163E+02  0.40176421019E+03  0.12699999809E+01 0. -1.
       -4    1    3    3    0  502 -0.26953367562E+03 -0.28500392191E+03  0.47678653126E+02  0.39515883473E+03  0.12699999809E+01 0.  1.
</event>
<event>
 5   0  0.4377843E-02  0.7783844E+03  0.7818609E-02  0.9591843E-01
       -2   -1    0    0    0  501  0.00000000000E+00  0.00000000000E+00  0.14023265349E+03  0.14023265351E+03  0.25500000920E-02 0. -1.
        2   -1    0    0  501    0  0.00000000000E+00  0.00000000000E+00 -0.10801375490E+04  0.10801375490E+04  0.25500000920E-02 0.  1.
    10030    2    1    2    0    0  0.00000000000E+00  0.00000000000E+00 -0.93990489547E+03  0.12203702025E+04  0.77838436428E+03 0.  0.
        2    1    3    3  502    0  0.16892578934E+03 -0.68274240605E+02  0.69236244942E+02  0.19491267751E+03  0.25500000920E-02 0. -1.
       -2    1    3    3    0  502 -0.16892578934E+03  0.68274240605E+02 -0.10091411404E+04  0.10254575250E+04  0.25500000920E-02 0.  1.
</event>
<event>
 5   0  0.4663634E-02  0.7553028E+03  0.7818609E-02  0.9627068E-01
       -2   -1    0    0    0  501  0.00000000000E+00  0.00000000000E+00  0.92664120007E+02  0.92664120042E+02  0.25500000920E-02 0. -1.
        2   -1    0    0  501    0  0.00000000000E+00  0.00000000000E+00 -0.15391134417E+04  0.15391134417E+04  0.25500000920E-02 0.  1.
    10030    2    1    2    0    0  0.00000000000E+00  0.00000000000E+00 -0.14464493217E+04  0.16317775617E+04  0.75530283383E+03 0.  0.
        5    1    3    3  502    0 -0.86782582094E+02 -0.12955285558E+03 -0.14662466035E+04  0.14745224146E+04  0.46999998093E+01 0.  1.
       -5    1    3    3    0  502  0.86782582094E+02  0.12955285558E+03  0.19797281772E+02  0.15725514716E+03  0.46999998093E+01 0. -1.
</event>
<event>
 5   0  0.4663634E-02  0.8079359E+03  0.7818609E-02  0.9548601E-01
       -2   -1    0    0    0  501  0.00000000000E+00  0.00000000000E+00  0.66321989977E+02  0.66321990026E+02  0.25500000920E-02 0. -1.
        2   -1    0    0  501    0  0.00000000000E+00  0.00000000000E+00 -0.24605731282E+04  0.24605731282E+04  0.25500000920E-02 0.  1.
    10030    2    1    2    0    0  0.00000000000E+00  0.00000000000E+00 -0.23942511382E+04  0.25268951183E+04  0.80793590441E+03 0.  0.
        5    1    3    3  502    0 -0.20179102922E+03 -0.34300279341E+03 -0.14137547331E+04  0.14687052363E+04  0.46999998093E+01 0.  1.
       -5    1    3    3    0  502  0.20179102922E+03  0.34300279341E+03 -0.98049640510E+03  0.10581898819E+04  0.46999998093E+01 0. -1.
</event>
<event>
 5   0  0.2769394E-02  0.7927190E+03  0.7818609E-02  0.9570616E-01
        1   -1    0    0  501    0  0.00000000000E+00  0.00000000000E+00  0.13762833652E+04  0.13762833652E+04  0.50400001928E-02 0. -1.
       -1   -1    0    0    0  501  0.00000000000E+00  0.00000000000E+00 -0.11414863372E+03  0.11414863383E+03  0.50400001928E-02 0.  1.
    10030    2    1    2    0    0  0.00000000000E+00  0.00000000000E+00  0.12621347314E+04  0.14904319990E+04  0.79271903176E+03 0.  0.
        2    1    3    3  502    0  0.11599529850E+03 -0.33842710630E+03  0.31026561012E+03  0.47355312730E+03  0.25500000920E-02 0.  1.
       -2    1    3    3    0  502 -0.11599529850E+03  0.33842710630E+03  0.95186912132E+03  0.10168788717E+04  0.25500000920E-02 0. -1.
</event>
<event>
 5   0  0.2769394E-02  0.8129600E+03  0.7818609E-02  0.9541445E-01
       -1   -1    0    0    0  501  0.00000000000E+00  0.00000000000E+00  0.66747704342E+03  0.66747704344E+03  0.50400001928E-02 0. -1.
        1   -1    0    0  501    0  0.00000000000E+00  0.00000000000E+00 -0.24753809113E+03  0.24753809119E+03  0.50400001928E-02 0.  1.
    10030    2    1    2    0    0  0.00000000000E+00  0.00000000000E+00  0.41993895229E+03  0.91501513463E+03  0.81296000698E+03 0.  0.
        2    1    3    3  502    0 -0.14623787123E+03  0.93505600099E+02 -0.20372739822E+03  0.26764466187E+03  0.25500000920E-02 0.  1.
       -2    1    3    3    0  502  0.14623787123E+03 -0.93505600099E+02  0.62366635051E+03  0.64737047276E+03  0.25500000920E-02 0. -1.
</event>
<event>
 5   0  0.1786500E-02  0.8124805E+03  0.7818609E-02  0.9542126E-01
       -4   -1    0    0    0  501  0.00000000000E+00  0.00000000000E+00  0.42723988970E+03  0.42724177728E+03  0.12699999809E+01 0. -1.
        4   -1    0    0  501    0  0.00000000000E+00  0.00000000000E+00 -0.38626901222E+03  0.38627110000E+03  0.12699999809E+01 0.  1.
    10030    2    1    2    0    0  0.00000000000E+00  0.00000000000E+00  0.40970877486E+02  0.81351287728E+03  0.81248051589E+03 0.  0.
        3    1    3    3  502    0  0.20216327896E+03 -0.83415943482E+02 -0.32229868882E+03  0.38949283177E+03  0.10100000352E+00 0.  1.
       -3    1    3    3    0  502 -0.20216327896E+03  0.83415943482E+02  0.36326956631E+03  0.42402004551E+03  0.10100000352E+00 0. -1.
</event>
<event>
 5   0  0.2606520E-02  0.8320764E+03  0.7818609E-02  0.9514714E-01
       -1   -1    0    0    0  501  0.00000000000E+00  0.00000000000E+00  0.13904049125E+03  0.13904049134E+03  0.50400001928E-02 0. -1.
        1   -1    0    0  501    0  0.00000000000E+00  0.00000000000E+00 -0.12448732049E+04  0.12448732049E+04  0.50400001928E-02 0.  1.
    10030    2    1    2    0    0  0.00000000000E+00  0.00000000000E+00 -0.11058327136E+04  0.13839136962E+04  0.83207639557E+03 0.  0.
        5    1    3    3  502    0 -0.15219277296E+03  0.23959192351E+02 -0.11956305591E+04  0.12055252826E+04  0.46999998093E+01 0.  1.
       -5    1    3    3    0  502  0.15219277296E+03 -0.23959192351E+02  0.89797845546E+02  0.17838841359E+03  0.46999998093E+01 0. -1.
</event>
<event>
 5   0  0.4590462E-02  0.6378686E+03  0.7818609E-02  0.9829813E-01
       -2   -1    0    0    0  501  0.00000000000E+00  0.00000000000E+00  0.67324536461E+02  0.67324536509E+02  0.25500000920E-02 0.  1.
        2   -1    0    0  501    0  0.00000000000E+00  0.00000000000E+00 -0.15108769418E+04  0.15108769418E+04  0.25500000920E-02 0. -1.
    10030    2    1    2    0    0  0.00000000000E+00  0.00000000000E+00 -0.14435524053E+04  0.15782014783E+04  0.63786860652E+03 0.  0.
        3    1    3    3  502    0  0.20814120078E+03  0.22563543061E+03 -0.93583166981E+03  0.98489341121E+03  0.10100000352E+00 0. -1.
       -3    1    3    3    0  502 -0.20814120078E+03 -0.22563543061E+03 -0.50772073552E+03  0.59330806710E+03  0.10100000352E+00 0.  1.
</event>
<event>
 5   0  0.2635243E-02  0.7893157E+03  0.7818609E-02  0.9575612E-01
        1   -1    0    0  501    0  0.00000000000E+00  0.00000000000E+00  0.10743710891E+04  0.10743710891E+04  0.50400001928E-02 0.  1.
       -1   -1    0    0    0  501  0.00000000000E+00  0.00000000000E+00 -0.14497301689E+03  0.14497301697E+03  0.50400001928E-02 0. -1.
    10030    2    1    2    0    0  0.00000000000E+00  0.00000000000E+00  0.92939807219E+03  0.12193441061E+04  0.78931569881E+03 0.  0.
        1    1    3    3  502    0  0.29448808456E+03  0.86857295157E+02  0.84776061521E+03  0.90164598507E+03  0.50400001928E-02 0.  1.
       -1    1    3    3    0  502 -0.29448808456E+03 -0.86857295157E+02  0.81637456981E+02  0.31769812099E+03  0.50400001928E-02 0. -1.
</event>
<event>
 5   0  0.2769394E-02  0.7900796E+03  0.7818609E-02  0.9574489E-01
       -1   -1    0    0    0  501  0.00000000000E+00  0.00000000000E+00  0.30448305315E+03  0.30448305319E+03  0.50400001928E-02 0.  1.
        1   -1    0    0  501    0  0.00000000000E+00  0.00000000000E+00 -0.51252917112E+03  0.51252917114E+03  0.50400001928E-02 0. -1.
    10030    2    1    2    0    0  0.00000000000E+00  0.00000000000E+00 -0.20804611797E+03  0.81701222434E+03  0.79007960834E+03 0.  0.
        2    1    3    3  502    0  0.36845768589E+03 -0.10405128641E+03 -0.33987020312E+01  0.38288286418E+03  0.25500000920E-02 0.  1.
       -2    1    3    3    0  502 -0.36845768589E+03  0.10405128641E+03 -0.20464741594E+03  0.43412936016E+03  0.25500000920E-02 0. -1.
</event>
<event>
 5   0  0.2606520E-02  0.8157227E+03  0.7818609E-02  0.9537534E-01
       -1   -1    0    0    0  501  0.00000000000E+00  0.00000000000E+00  0.29536379725E+03  0.29536379729E+03  0.50400001928E-02 0. -1.
        1   -1    0    0  501    0  0.00000000000E+00  0.00000000000E+00 -0.56320676911E+03  0.56320676913E+03  0.50400001928E-02 0.  1.
    10030    2    1    2    0    0  0.00000000000E+00  0.00000000000E+00 -0.26784297186E+03  0.85857056642E+03  0.81572272247E+03 0.  0.
        5    1    3    3  502    0 -0.22802282927E+03  0.19638210711E+03 -0.42364094011E+03  0.51966727701E+03  0.46999998093E+01 0.  1.
       -5    1    3    3    0  502  0.22802282927E+03 -0.19638210711E+03  0.15579796825E+03  0.33890328941E+03  0.46999998093E+01 0. -1.
</event>
<event>
 5   0  0.4377843E-02  0.7853234E+03  0.7818609E-02  0.9581507E-01
        2   -1    0    0  501    0  0.00000000000E+00  0.00000000000E+00  0.10886461179E+04  0.10886461179E+04  0.25500000920E-02 0.  1.
       -2   -1    0    0    0  501  0.00000000000E+00  0.00000000000E+00 -0.14162839997E+03  0.14162840000E+03  0.25500000920E-02 0. -1.
    10030    2    1    2    0    0  0.00000000000E+00  0.00000000000E+00  0.94701771791E+03  0.12302745179E+04  0.78532339283E+03 0.  0.
        2    1    3    3  502    0  0.32373394117E+03  0.22220102496E+03  0.46959313121E+03  0.61212308324E+03  0.25500000920E-02 0.  1.
       -2    1    3    3    0  502 -0.32373394117E+03 -0.22220102496E+03  0.47742458670E+03  0.61815143464E+03  0.25500000920E-02 0. -1.
</event>
<event>
 5   0  0.4700220E-02  0.8503595E+03  0.7818609E-02  0.9489855E-01
        2   -1    0    0  501    0  0.00000000000E+00  0.00000000000E+00  0.37055433116E+03  0.37055433117E+03  0.25500000920E-02 0. -1.
       -2   -1    0    0    0  501  0.00000000000E+00  0.00000000000E+00 -0.48785777884E+03  0.48785777885E+03  0.25500000920E-02 0.  1.
    10030    2    1    2    0    0  0.00000000000E+00  0.00000000000E+00 -0.11730344768E+03  0.85841211002E+03  0.85035948386E+03 0.  0.
        4    1    3    3  502    0  0.13279104898E+03 -0.18438599764E+03 -0.42142167210E+03  0.47877917397E+03  0.12699999809E+01 0.  1.
       -4    1    3    3    0  502 -0.13279104898E+03  0.18438599764E+03  0.30411822441E+03  0.37963293605E+03  0.12699999809E+01 0. -1.
</event>
<event>
 5   0  0.2759559E-02  0.7967431E+03  0.7818609E-02  0.9564743E-01
        1   -1    0    0  501    0  0.00000000000E+00  0.00000000000E+00  0.53013087405E+03  0.53013087407E+03  0.50400001928E-02 0. -1.
       -1   -1    0    0    0  501  0.00000000000E+00  0.00000000000E+00 -0.29935984892E+03  0.29935984896E+03  0.50400001928E-02 0.  1.
    10030    2    1    2    0    0  0.00000000000E+00  0.00000000000E+00  0.23077102513E+03  0.82949072304E+03  0.79674311642E+03 0.  0.
        3    1    3    3  502    0  0.12925330269E+03  0.28865720747E+03  0.36756111407E+03  0.48490265256E+03  0.10100000352E+00 0. -1.
       -3    1    3    3    0  502 -0.12925330269E+03 -0.28865720747E+03 -0.13679008894E+03  0.34458807048E+03  0.10100000352E+00 0.  1.
</event>
<event>
 5   0  0.4377843E-02  0.8134259E+03  0.7818609E-02  0.9540784E-01
       -2   -1    0    0    0  501  0.00000000000E+00  0.00000000000E+00  0.18355764871E+03  0.18355764873E+03  0.25500000920E-02 0. -1.
        2   -1    0    0  501    0  0.00000000000E+00  0.00000000000E+00 -0.90116339151E+03  0.90116339152E+03  0.25500000920E-02 0.  1.
    10030    2    1    2    0    0  0.00000000000E+00  0.00000000000E+00 -0.71760574280E+03  0.10847210403E+04  0.81342592353E+03 0.  0.
        2    1    3    3  502    0  0.13770954068E+03 -0.65351916020E+02  0.14402609923E+03  0.20971005648E+03  0.25500000920E-02 0. -1.
       -2    1    3    3    0  502 -0.13770954068E+03  0.65351916020E+02 -0.86163184203E+03  0.87501098377E+03  0.25500000920E-02 0.  1.
</event>
<event>
 5   0  0.2606520E-02  0.8205999E+03  0.7818609E-02  0.9530669E-01
        1   -1    0    0  501    0  0.00000000000E+00  0.00000000000E+00  0.19844496042E+03  0.19844496049E+03  0.50400001928E-02 0. -1.
       -1   -1    0    0    0  501  0.00000000000E+00  0.00000000000E+00 -0.84832618462E+03  0.84832618463E+03  0.50400001928E-02 0.  1.
    10030    2    1    2    0    0  0.00000000000E+00  0.00000000000E+00 -0.64988122420E+03  0.10467711451E+04  0.82059991755E+03 0.  0.
        5    1    3    3  502    0  0.15454588301E+03 -0.25112641855E+03  0.38945875881E+02  0.29746895518E+03  0.46999998093E+01 0. -1.
       -5    1    3    3    0  502 -0.15454588301E+03  0.25112641855E+03 -0.68882710008E+03  0.74930218994E+03  0.46999998093E+01 0.  1.
</event>
<event>
 5   0  0.1786500E-02  0.7971348E+03  0.7818609E-02  0.9564174E-01
        3   -1    0    0  501    0  0.00000000000E+00  0.00000000000E+00  0.45395809284E+03  0.45395810408E+03  0.10100000352E+00 0.  1.
       -3   -1    0    0    0  501  0.00000000000E+00  0.00000000000E+00 -0.34993532128E+03  0.34993533586E+03  0.10100000352E+00 0. -1.
    10030    2    1    2    0    0  0.00000000000E+00  0.00000000000E+00  0.10402277156E+03  0.80389343993E+03  0.79713482283E+03 0.  0.
        4    1    3    3  502    0  0.13817242552E+03 -0.34821717935E+03  0.18920727990E+03  0.41969969125E+03  0.12699999809E+01 0.  1.
       -4    1    3    3    0  502 -0.13817242552E+03  0.34821717935E+03 -0.85184508343E+02  0.38419374868E+03  0.12699999809E+01 0. -1.
</event>
<event>
 5   0  0.2689372E-02  0.8440450E+03  0.7818609E-02  0.9498365E-01
       -1   -1    0    0    0  501  0.00000000000E+00  0.00000000000E+00  0.12986238465E+03  0.12986238474E+03  0.50400001928E-02 0. -1.
        1   -1    0    0  501    0  0.00000000000E+00  0.00000000000E+00 -0.13714748976E+04  0.13714748977E+04  0.50400001928E-02 0.  1.
    10030    2    1    2    0    0  0.00000000000E+00  0.00000000000E+00 -0.12416125130E+04  0.15013372824E+04  0.84404502432E+03 0.  0.
        4    1    3    3  502    0 -0.32565515555E+02  0.13106952262E+03  0.90382379131E+02  0.16251252235E+03  0.12699999809E+01 0. -1.
       -4    1    3    3    0  502  0.32565515555E+02 -0.13106952262E+03 -0.13319948921E+04  0.13388247600E+04  0.12699999809E+01 0.  1.
</event>
<event>
 5   0  0.2769394E-02  0.8101243E+03  0.7818609E-02  0.9545477E-01
        1   -1    0    0  501    0  0.00000000000E+00  0.00000000000E+00  0.13830859950E+04  0.13830859950E+04  0.50400001928E-02 0. -1.
       -1   -1    0    0    0  501  0.00000000000E+00  0.00000000000E+00 -0.11862988756E+03  0.11862988767E+03  0.50400001928E-02 0.  1.
    10030    2    1    2    0    0  0.00000000000E+00  0.00000000000E+00  0.12644561075E+04  0.15017158827E+04  0.81012427730E+03 0.  0.
        2    1    3    3  502    0 -0.37730033101E+03  0.12352618225E+03  0.48322723949E+03  0.62539813117E+03  0.25500000920E-02 0.  1.
       -2    1    3    3    0  502  0.37730033101E+03 -0.12352618225E+03  0.78122886797E+03  0.87631775153E+03  0.25500000920E-02 0. -1.
</event>
<event>
 5   0  0.2606520E-02  0.7918772E+03  0.7818609E-02  0.9571850E-01
        1   -1    0    0  501    0  0.00000000000E+00  0.00000000000E+00  0.15692016186E+04  0.15692016186E+04  0.50400001928E-02 0. -1.
       -1   -1    0    0    0  501  0.00000000000E+00  0.00000000000E+00 -0.99902624780E+02  0.99902624907E+02  0.50400001928E-02 0.  1.
    10030    2    1    2    0    0  0.00000000000E+00  0.00000000000E+00  0.14692989938E+04  0.16691042435E+04  0.79187716375E+03 0.  0.
        5    1    3    3  502    0  0.30582971159E+03  0.10921717011E+03  0.25731688186E+03  0.41436007340E+03  0.46999998093E+01 0.  1.
       -5    1    3    3    0  502 -0.30582971159E+03 -0.10921717011E+03  0.12119821120E+04  0.12547441701E+04  0.46999998093E+01 0. -1.
</event>
<event>
 5   0  0.2635243E-02  0.7981061E+03  0.7818609E-02  0.9562763E-01
       -1   -1    0    0    0  501  0.00000000000E+00  0.00000000000E+00  0.16416645498E+03  0.16416645505E+03  0.50400001928E-02 0.  1.
        1   -1    0    0  501    0  0.00000000000E+00  0.00000000000E+00 -0.97001135940E+03  0.97001135941E+03  0.50400001928E-02 0. -1.
    10030    2    1    2    0    0  0.00000000000E+00  0.00000000000E+00 -0.80584490442E+03  0.11341778145E+04  0.79810607368E+03 0.  0.
        1    1    3    3  502    0  0.76231973404E+01 -0.35343774570E+03 -0.13986027939E+03  0.38018055053E+03  0.50400001928E-02 0.  1.
       -1    1    3    3    0  502 -0.76231973404E+01  0.35343774570E+03 -0.66598462503E+03  0.75399726394E+03  0.50400001928E-02 0. -1.
</event>
<event>
 5   0  0.4590462E-02  0.8054642E+03  0.7818609E-02  0.9552141E-01
        2   -1    0    0  501    0  0.00000000000E+00  0.00000000000E+00  0.30754871538E+03  0.30754871539E+03  0.25500000920E-02 0. -1.
       -2   -1    0    0    0  501  0.00000000000E+00  0.00000000000E+00 -0.52737380112E+03  0.52737380113E+03  0.25500000920E-02 0.  1.
    10030    2    1    2    0    0  0.00000000000E+00  0.00000000000E+00 -0.21982508574E+03  0.83492251651E+03  0.80546417690E+03 0.  0.
        3    1    3    3  502    0  0.15519353875E+03  0.36396971447E+03 -0.32106440829E+02  0.39697584468E+03  0.10100000352E+00 0. -1.
       -3    1    3    3    0  502 -0.15519353875E+03 -0.36396971447E+03 -0.18771864491E+03  0.43794667183E+03  0.10100000352E+00 0.  1.
</event>
<event>
 5   0  0.4590462E-02  0.8119797E+03  0.7818609E-02  0.9542837E-01
       -2   -1    0    0    0  501  0.00000000000E+00  0.00000000000E+00  0.13907903477E+03  0.13907903480E+03  0.25500000920E-02 0.  1.
        2   -1    0    0  501    0  0.00000000000E+00  0.00000000000E+00 -0.11851372142E+04  0.11851372142E+04  0.25500000920E-02 0. -1.
    10030    2    1    2    0    0  0.00000000000E+00  0.00000000000E+00 -0.10460581794E+04  0.13242162490E+04  0.81197965452E+03 0.  0.
        3    1    3    3  502    0  0.61606918373E+02  0.32286092918E+03 -0.13437638297E+03  0.35509381082E+03  0.10100000352E+00 0.  1.
       -3    1    3    3    0  502 -0.61606918373E+02 -0.32286092918E+03 -0.91168179645E+03  0.96912243817E+03  0.10100000352E+00 0. -1.
</event>
<event>
 5   0  0.2606520E-02  0.7380714E+03  0.7818609E-02  0.9654253E-01
       -1   -1    0    0    0  501  0.00000000000E+00  0.00000000000E+00  0.53183940387E+02  0.53183940626E+02  0.50400001928E-02 0.  1.
        1   -1    0    0  501    0  0.00000000000E+00  0.00000000000E+00 -0.25606853219E+04  0.25606853219E+04  0.50400001928E-02 0. -1.
    10030    2    1    2    0    0  0.00000000000E+00  0.00000000000E+00 -0.25075013815E+04  0.26138692625E+04  0.73807136736E+03 0.  0.
        5    1    3    3  502    0 -0.15993937514E+02 -0.23358445378E+00 -0.25593509512E+04  0.25594052517E+04  0.46999998093E+01 0. -1.
       -5    1    3    3    0  502  0.15993937514E+02  0.23358445378E+00  0.51849569739E+02  0.54464010862E+02  0.46999998093E+01 0.  1.
</event>
<event>
 5   0  0.2759559E-02  0.1156780E+04  0.7818609E-02  0.9151552E-01
        1   -1    0    0  501    0  0.00000000000E+00  0.00000000000E+00  0.20940950371E+04  0.20940950371E+04  0.50400001928E-02 0.  1.
       -1   -1    0    0    0  501  0.00000000000E+00  0.00000000000E+00 -0.15975148334E+03  0.15975148342E+03  0.50400001928E-02 0. -1.
    10030    2    1    2    0    0  0.00000000000E+00  0.00000000000E+00  0.19343435538E+04  0.22538465206E+04  0.11567796480E+04 0.  0.
        3    1    3    3  502    0 -0.26631714441E+03  0.88405368182E+01 -0.33035972895E+02  0.26850393331E+03  0.10100000352E+00 0. -1.
       -3    1    3    3    0  502  0.26631714441E+03 -0.88405368182E+01  0.19673795267E+04  0.19853425872E+04  0.10100000352E+00 0.  1.
</event>
<event>
 5   0  0.2759559E-02  0.7931990E+03  0.7818609E-02  0.9569914E-01
        1   -1    0    0  501    0  0.00000000000E+00  0.00000000000E+00  0.29820395810E+03  0.29820395815E+03  0.50400001928E-02 0. -1.
       -1   -1    0    0    0  501  0.00000000000E+00  0.00000000000E+00 -0.52746169317E+03  0.52746169319E+03  0.50400001928E-02 0.  1.
    10030    2    1    2    0    0  0.00000000000E+00  0.00000000000E+00 -0.22925773506E+03  0.82566565134E+03  0.79319900322E+03 0.  0.
        3    1    3    3  502    0  0.93257770875E+02 -0.32823962635E+01  0.28661384528E+03  0.30142211674E+03  0.10100000352E+00 0. -1.
       -3    1    3    3    0  502 -0.93257770875E+02  0.32823962635E+01 -0.51587158034E+03  0.52424353459E+03  0.10100000352E+00 0.  1.
</event>
<event>
 5   0  0.4377843E-02  0.8022467E+03  0.7818609E-02  0.9556771E-01
        2   -1    0    0  501    0  0.00000000000E+00  0.00000000000E+00  0.57284880259E+03  0.57284880259E+03  0.25500000920E-02 0.  1.
       -2   -1    0    0    0  501  0.00000000000E+00  0.00000000000E+00 -0.28087677593E+03  0.28087677594E+03  0.25500000920E-02 0. -1.
    10030    2    1    2    0    0  0.00000000000E+00  0.00000000000E+00  0.29197202665E+03  0.85372557853E+03  0.80224665727E+03 0.  0.
        2    1    3    3  502    0 -0.31244421991E+03 -0.16356989643E+02  0.41311345517E+03  0.51821971066E+03  0.25500000920E-02 0.  1.
       -2    1    3    3    0  502  0.31244421991E+03  0.16356989643E+02 -0.12114142852E+03  0.33550586787E+03  0.25500000920E-02 0. -1.
</event>
<event>
 5   0  0.4377843E-02  0.8149674E+03  0.7818609E-02  0.9538602E-01
       -2   -1    0    0    0  501  0.00000000000E+00  0.00000000000E+00  0.10246817885E+03  0.10246817888E+03  0.25500000920E-02 0.  1.
        2   -1    0    0  501    0  0.00000000000E+00  0.00000000000E+00 -0.16204345151E+04  0.16204345151E+04  0.25500000920E-02 0. -1.
    10030    2    1    2    0    0  0.00000000000E+00  0.00000000000E+00 -0.15179663362E+04  0.17229026940E+04  0.81496741954E+03 0.  0.
        2    1    3    3  502    0  0.98362415965E+02  0.25018438503E+03 -0.14063722755E+04  0.14318346164E+04  0.25500000920E-02 0. -1.
       -2    1    3    3    0  502 -0.98362415965E+02 -0.25018438503E+03 -0.11159406074E+03  0.29106807758E+03  0.25500000920E-02 0.  1.
</event>
<event>
 5   0  0.2689372E-02  0.7950247E+03  0.7818609E-02  0.9567247E-01
       -1   -1    0    0    0  501  0.00000000000E+00  0.00000000000E+00  0.25218664900E+03  0.25218664905E+03  0.50400001928E-02 0. -1.
        1   -1    0    0  501    0  0.00000000000E+00  0.00000000000E+00 -0.62658387616E+03  0.62658387618E+03  0.50400001928E-02 0.  1.
    10030    2    1    2    0    0  0.00000000000E+00  0.00000000000E+00 -0.37439722716E+03  0.87877052522E+03  0.79502474949E+03 0.  0.
        4    1    3    3  502    0  0.38967613787E+03 -0.53827898454E+01 -0.10060047249E+03  0.40249041581E+03  0.12699999809E+01 0. -1.
       -4    1    3    3    0  502 -0.38967613787E+03  0.53827898454E+01 -0.27379675467E+03  0.47628010941E+03  0.12699999809E+01 0.  1.
</event>
<event>
 5   0  0.4684283E-02  0.8100839E+03  0.7818609E-02  0.9545535E-01
        2   -1    0    0  501    0  0.00000000000E+00  0.00000000000E+00  0.15916876692E+04  0.15916876692E+04  0.25500000920E-02 0.  1.
       -2   -1    0    0    0  501  0.00000000000E+00  0.00000000000E+00 -0.10307234801E+03  0.10307234804E+03  0.25500000920E-02 0. -1.
    10030    2    1    2    0    0  0.00000000000E+00  0.00000000000E+00  0.14886153212E+04  0.16947600173E+04  0.81008391019E+03 0.  0.
        1    1    3    3  502    0  0.21810985365E+03  0.18650566176E+03  0.13423011396E+04  0.13726356470E+04  0.50400001928E-02 0.  1.
       -1    1    3    3    0  502 -0.21810985365E+03 -0.18650566176E+03  0.14631418162E+03  0.32212437023E+03  0.50400001928E-02 0. -1.
</event>
<event>
 5   0  0.1786500E-02  0.7616337E+03  0.7818609E-02  0.9617274E-01
        3   -1    0    0  501    0  0.00000000000E+00  0.00000000000E+00  0.20051819042E+03  0.20051821585E+03  0.10100000352E+00 0. -1.
       -3   -1    0    0    0  501  0.00000000000E+00  0.00000000000E+00 -0.72323350113E+03  0.72323350818E+03  0.10100000352E+00 0.  1.
    10030    2    1    2    0    0  0.00000000000E+00  0.00000000000E+00 -0.52271531071E+03  0.92375172403E+03  0.76163373849E+03 0.  0.
        4    1    3    3  502    0 -0.27556465142E+03 -0.16156113934E+03 -0.51280808290E+03  0.60416191675E+03  0.12699999809E+01 0.  1.
       -4    1    3    3    0  502  0.27556465142E+03  0.16156113934E+03 -0.99072278039E+01  0.31958980728E+03  0.12699999809E+01 0. -1.
</event>
<event>
 5   0  0.1786500E-02  0.7585013E+03  0.7818609E-02  0.9622107E-01
       -4   -1    0    0    0  501  0.00000000000E+00  0.00000000000E+00  0.71197121650E+03  0.71197234920E+03  0.12699999809E+01 0. -1.
        4   -1    0    0  501    0  0.00000000000E+00  0.00000000000E+00 -0.20201477560E+03  0.20201876760E+03  0.12699999809E+01 0.  1.
    10030    2    1    2    0    0  0.00000000000E+00  0.00000000000E+00  0.50995644090E+03  0.91399111680E+03  0.75850127882E+03 0.  0.
        2    1    3    3  502    0  0.29122690823E+03 -0.11933862714E+03 -0.37116371593E-02  0.31472975714E+03  0.25500000920E-02 0.  1.
       -2    1    3    3    0  502 -0.29122690823E+03  0.11933862714E+03  0.50996015253E+03  0.59926135966E+03  0.25500000920E-02 0. -1.
</event>
<event>
 5   0  0.1786500E-02  0.8226010E+03  0.7818609E-02  0.9527867E-01
       -4   -1    0    0    0  501  0.00000000000E+00  0.00000000000E+00  0.50908897256E+03  0.50909055666E+03  0.12699999809E+01 0. -1.
        4   -1    0    0  501    0  0.00000000000E+00  0.00000000000E+00 -0.33229239620E+03  0.33229482312E+03  0.12699999809E+01 0.  1.
    10030    2    1    2    0    0  0.00000000000E+00  0.00000000000E+00  0.17679657636E+03  0.84138537977E+03  0.82260095301E+03 0.  0.
        2    1    3    3  502    0  0.24908400243E+03  0.70171062115E+01  0.42309529337E+03  0.49102108643E+03  0.25500000920E-02 0. -1.
       -2    1    3    3    0  502 -0.24908400243E+03 -0.70171062115E+01 -0.24629871701E+03  0.35036429334E+03  0.25500000920E-02 0.  1.
</event>
<event>
 5   0  0.1786500E-02  0.5747589E+03  0.7818609E-02  0.9959203E-01
        3   -1    0    0  501    0  0.00000000000E+00  0.00000000000E+00  0.59515620773E+03  0.59515621630E+03  0.10100000352E+00 0.  1.
       -3   -1    0    0    0  501  0.00000000000E+00  0.00000000000E+00 -0.13876513008E+03  0.13876516684E+03  0.10100000352E+00 0. -1.
    10030    2    1    2    0    0  0.00000000000E+00  0.00000000000E+00  0.45639107766E+03  0.73392138314E+03  0.57475888933E+03 0.  0.
        5    1    3    3  502    0  0.53449428242E+02  0.23003804122E+03  0.43719942569E+03  0.49693034683E+03  0.46999998093E+01 0.  1.
       -5    1    3    3    0  502 -0.53449428242E+02 -0.23003804122E+03  0.19191651970E+02  0.23699103631E+03  0.46999998093E+01 0. -1.
</event>
<event>
 5   0  0.4377843E-02  0.8250180E+03  0.7818609E-02  0.9524494E-01
        2   -1    0    0  501    0  0.00000000000E+00  0.00000000000E+00  0.77470421670E+03  0.77470421671E+03  0.25500000920E-02 0. -1.
       -2   -1    0    0    0  501  0.00000000000E+00  0.00000000000E+00 -0.21964988577E+03  0.21964988579E+03  0.25500000920E-02 0.  1.
    10030    2    1    2    0    0  0.00000000000E+00  0.00000000000E+00  0.55505433093E+03  0.99435410249E+03  0.82501804275E+03 0.  0.
        2    1    3    3  502    0 -0.18430867001E+03 -0.23571611518E+03  0.61976744649E+03  0.68821759679E+03  0.25500000920E-02 0. -1.
       -2    1    3    3    0  502  0.18430867001E+03  0.23571611518E+03 -0.64713115558E+02  0.30613650571E+03  0.25500000920E-02 0.  1.
</event>
<event>
 5   0  0.2606520E-02  0.8337896E+03  0.7818609E-02  0.9512356E-01
        1   -1    0    0  501    0  0.00000000000E+00  0.00000000000E+00  0.99656337815E+03  0.99656337816E+03  0.50400001928E-02 0.  1.
       -1   -1    0    0    0  501  0.00000000000E+00  0.00000000000E+00 -0.17440061054E+03  0.17440061061E+03  0.50400001928E-02 0. -1.
    10030    2    1    2    0    0  0.00000000000E+00  0.00000000000E+00  0.82216276760E+03  0.11709639888E+04  0.83378956972E+03 0.  0.
        5    1    3    3  502    0  0.34893173097E+03 -0.19552510792E+03  0.24612856029E+03  0.46966453868E+03  0.46999998093E+01 0. -1.
       -5    1    3    3    0  502 -0.34893173097E+03  0.19552510792E+03  0.57603420732E+03  0.70129945009E+03  0.46999998093E+01 0.  1.
</event>
<event>
 5   0  0.4590462E-02  0.7979211E+03  0.7818609E-02  0.9563031E-01
        2   -1    0    0  501    0  0.00000000000E+00  0.00000000000E+00  0.42379626807E+03  0.42379626808E+03  0.25500000920E-02 0. -1.
       -2   -1    0    0    0  501  0.00000000000E+00  0.00000000000E+00 -0.37558032473E+03  0.37558032473E+03  0.25500000920E-02 0.  1.
    10030    2    1    2    0    0  0.00000000000E+00  0.00000000000E+00  0.48215943343E+02  0.79937659281E+03  0.79792114895E+03 0.  0.
        3    1    3    3  502    0  0.91294396605E+02  0.15094857458E+03 -0.33438463974E+03  0.37806512205E+03  0.10100000352E+00 0.  1.
       -3    1    3    3    0  502 -0.91294396605E+02 -0.15094857458E+03  0.38260058308E+03  0.42131147076E+03  0.10100000352E+00 0. -1.
</event>
<event>
 5   0  0.2759559E-02  0.7427695E+03  0.7818609E-02  0.9646763E-01
       -1   -1    0    0    0  501  0.00000000000E+00  0.00000000000E+00  0.18349343028E+03  0.18349343035E+03  0.50400001928E-02 0. -1.
        1   -1    0    0  501    0  0.00000000000E+00  0.00000000000E+00 -0.75167063710E+03  0.75167063711E+03  0.50400001928E-02 0.  1.
    10030    2    1    2    0    0  0.00000000000E+00  0.00000000000E+00 -0.56817720682E+03  0.93516406746E+03  0.74276947617E+03 0.  0.
        3    1    3    3  502    0  0.58655252731E+02  0.30286893536E+02  0.17604759845E+03  0.18801729100E+03  0.10100000352E+00 0. -1.
       -3    1    3    3    0  502 -0.58655252731E+02 -0.30286893536E+02 -0.74422480527E+03  0.74714677646E+03  0.10100000352E+00 0.  1.
</event>
<event>
 5   0  0.4700220E-02  0.8113497E+03  0.7818609E-02  0.9543733E-01
        2   -1    0    0  501    0  0.00000000000E+00  0.00000000000E+00  0.31629581428E+03  0.31629581429E+03  0.25500000920E-02 0.  1.
       -2   -1    0    0    0  501  0.00000000000E+00  0.00000000000E+00 -0.52031069257E+03  0.52031069258E+03  0.25500000920E-02 0. -1.
    10030    2    1    2    0    0  0.00000000000E+00  0.00000000000E+00 -0.20401487829E+03  0.83660650687E+03  0.81134972532E+03 0.  0.
        4    1    3    3  502    0  0.25880691735E+03 -0.16432661972E+03 -0.37595858175E+03  0.48510898416E+03  0.12699999809E+01 0. -1.
       -4    1    3    3    0  502 -0.25880691735E+03  0.16432661972E+03  0.17194370346E+03  0.35149752271E+03  0.12699999809E+01 0.  1.
</event>
<event>
 5   0  0.2769394E-02  0.8006547E+03  0.7818609E-02  0.9559070E-01
       -1   -1    0    0    0  501  0.00000000000E+00  0.00000000000E+00  0.71365162682E+02  0.71365162860E+02  0.50400001928E-02 0. -1.
        1   -1    0    0  501    0  0.00000000000E+00  0.00000000000E+00 -0.22456614925E+04  0.22456614925E+04  0.50400001928E-02 0.  1.
    10030    2    1    2    0    0  0.00000000000E+00  0.00000000000E+00 -0.21742963298E+04  0.23170266554E+04  0.80065472697E+03 0.  0.
        2    1    3    3  502    0  0.37800530609E+03  0.66003037320E+02 -0.75696800105E+03  0.84867247333E+03  0.25500000920E-02 0. -1.
       -2    1    3    3    0  502 -0.37800530609E+03 -0.66003037320E+02 -0.14173283288E+04  0.14683541821E+04  0.25500000920E-02 0.  1.
</event>
<event>
 5   0  0.2635243E-02  0.8029701E+03  0.7818609E-02  0.9555728E-01
        1   -1    0    0  501    0  0.00000000000E+00  0.00000000000E+00  0.31551116810E+03  0.31551116814E+03  0.50400001928E-02 0.  1.
       -1   -1    0    0    0  501  0.00000000000E+00  0.00000000000E+00 -0.51088602865E+03  0.51088602868E+03  0.50400001928E-02 0. -1.
    10030    2    1    2    0    0  0.00000000000E+00  0.00000000000E+00 -0.19537486055E+03  0.82639719682E+03  0.80297010578E+03 0.  0.
        1    1    3    3  502    0 -0.44791079157E+02 -0.36567458420E+03  0.66549464103E+02  0.37437010230E+03  0.50400001928E-02 0.  1.
       -1    1    3    3    0  502  0.44791079157E+02  0.36567458420E+03 -0.26192432466E+03  0.45202709451E+03  0.50400001928E-02 0. -1.
</event>
<event>
 5   0  0.4663634E-02  0.7990143E+03  0.7818609E-02  0.9561445E-01
        2   -1    0    0  501    0  0.00000000000E+00  0.00000000000E+00  0.12492749274E+04  0.12492749274E+04  0.25500000920E-02 0. -1.
       -2   -1    0    0    0  501  0.00000000000E+00  0.00000000000E+00 -0.12775889122E+03  0.12775889124E+03  0.25500000920E-02 0.  1.
    10030    2    1    2    0    0  0.00000000000E+00  0.00000000000E+00  0.11215160361E+04  0.13770338186E+04  0.79901434170E+03 0.  0.
        5    1    3    3  502    0 -0.23589698000E+03  0.26392424310E+03  0.24166772372E+03  0.42863594105E+03  0.46999998093E+01 0.  1.
       -5    1    3    3    0  502  0.23589698000E+03 -0.26392424310E+03  0.87984831242E+03  0.94839787754E+03  0.46999998093E+01 0. -1.
</event>
<event>
 5   0  0.2606520E-02  0.7982517E+03  0.7818609E-02  0.9562551E-01
       -1   -1    0    0    0  501  0.00000000000E+00  0.00000000000E+00  0.80096886262E+02  0.80096886421E+02  0.50400001928E-02 0.  1.
        1   -1    0    0  501    0  0.00000000000E+00  0.00000000000E+00 -0.19888594283E+04  0.19888594283E+04  0.50400001928E-02 0. -1.
    10030    2    1    2    0    0  0.00000000000E+00  0.00000000000E+00 -0.19087625421E+04  0.20689563148E+04  0.79825170865E+03 0.  0.
        5    1    3    3  502    0  0.17906213967E+03 -0.35507268457E+03 -0.10418731902E+04  0.11151958104E+04  0.46999998093E+01 0.  1.
       -5    1    3    3    0  502 -0.17906213967E+03  0.35507268457E+03 -0.86688935189E+03  0.95376050433E+03  0.46999998093E+01 0. -1.
</event>
<event>
 5   0  0.4590462E-02  0.8090828E+03  0.7818609E-02  0.9546962E-01
        2   -1    0    0  501    0  0.00000000000E+00  0.00000000000E+00  0.10163346937E+04  0.10163346937E+04  0.25500000920E-02 0.  1.
       -2   -1    0    0    0  501  0.00000000000E+00  0.00000000000E+00 -0.16102347534E+03  0.16102347536E+03  0.25500000920E-02 0. -1.
    10030    2    1    2    0    0  0.00000000000E+00  0.00000000000E+00  0.85531121833E+03  0.11773581690E+04  0.80908280045E+03 0.  0.
        3    1    3    3  502    0  0.60142211611E+02 -0.32989144675E+03  0.75695106342E+03  0.82790118666E+03  0.10100000352E+00 0.  1.
       -3    1    3    3    0  502 -0.60142211611E+02  0.32989144675E+03  0.98360154914E+02  0.34945698238E+03  0.10100000352E+00 0. -1.
</event>
<event>
 5   0  0.4684283E-02  0.7989366E+03  0.7818609E-02  0.9561558E-01
       -2   -1    0    0    0  501  0.00000000000E+00  0.00000000000E+00  0.34779147604E+03  0.34779147605E+03  0.25500000920E-02 0.  1.
        2   -1    0    0  501    0  0.00000000000E+00  0.00000000000E+00 -0.45882356438E+03  0.45882356438E+03  0.25500000920E-02 0. -1.
    10030    2    1    2    0    0  0.00000000000E+00  0.00000000000E+00 -0.11103208833E+03  0.80661504044E+03  0.79893660501E+03 0.  0.
        1    1    3    3  502    0  0.31804361103E+03 -0.69507659434E+01 -0.29944702969E+03  0.43688508247E+03  0.50400001928E-02 0. -1.
       -1    1    3    3    0  502 -0.31804361103E+03  0.69507659434E+01  0.18841494136E+03  0.36972995797E+03  0.50400001928E-02 0.  1.
</event>
<event>
 5   0  0.2769394E-02  0.8084825E+03  0.7818609E-02  0.9547820E-01
       -1   -1    0    0    0  501  0.00000000000E+00  0.00000000000E+00  0.37497615563E+03  0.37497615566E+03  0.50400001928E-02 0. -1.
        1   -1    0    0  501    0  0.00000000000E+00  0.00000000000E+00 -0.43579029600E+03  0.43579029603E+03  0.50400001928E-02 0.  1.
    10030    2    1    2    0    0  0.00000000000E+00  0.00000000000E+00 -0.60814140375E+02  0.81076645169E+03  0.80848245468E+03 0.  0.
        2    1    3    3  502    0  0.72452917406E+02 -0.10473711507E+03 -0.41514659439E+03  0.43424184892E+03  0.25500000920E-02 0.  1.
       -2    1    3    3    0  502 -0.72452917406E+02  0.10473711507E+03  0.35433245402E+03  0.37652460277E+03  0.25500000920E-02 0. -1.
</event>
<event>
 5   0  0.2769394E-02  0.8174402E+03  0.7818609E-02  0.9535111E-01
        1   -1    0    0  501    0  0.00000000000E+00  0.00000000000E+00  0.11185418528E+04  0.11185418528E+04  0.50400001928E-02 0. -1.
       -1   -1    0    0    0  501  0.00000000000E+00  0.00000000000E+00 -0.14934811272E+03  0.14934811281E+03  0.50400001928E-02 0.  1.
    10030    2    1    2    0    0  0.00000000000E+00  0.00000000000E+00  0.96919374009E+03  0.12678899656E+04  0.81744018688E+03 0.  0.
        2    1    3    3  502    0  0.20461269413E+03  0.20263099242E+03  0.34721891960E+02  0.29005393202E+03  0.25500000920E-02 0.  1.
       -2    1    3    3    0  502 -0.20461269413E+03 -0.20263099242E+03  0.93447184813E+03  0.97783603362E+03  0.25500000920E-02 0. -1.
</event>
<event>
 5   0  0.4590462E-02  0.7143899E+03  0.7818609E-02  0.9692935E-01
        2   -1    0    0  501    0  0.00000000000E+00  0.00000000000E+00  0.83461729097E+03  0.83461729097E+03  0.25500000920E-02 0. -1.
       -2   -1    0    0    0  501  0.00000000000E+00  0.00000000000E+00 -0.15287033280E+03  0.15287033282E+03  0.25500000920E-02 0.  1.
    10030    2    1    2    0    0  0.00000000000E+00  0.00000000000E+00  0.68174695817E+03  0.98748762379E+03  0.71438987406E+03 0.  0.
        3    1    3    3  502    0  0.19804881470E+03  0.18743131970E+03  0.65980134903E+03  0.71392693113E+03  0.10100000352E+00 0.  1.
       -3    1    3    3    0  502 -0.19804881470E+03 -0.18743131970E+03  0.21945609142E+02  0.27356069266E+03  0.10100000352E+00 0. -1.
</event>
<event>
 5   0  0.4663634E-02  0.4274342E+03  0.7818609E-02  0.1034674E+00
        2   -1    0    0  501    0  0.00000000000E+00  0.00000000000E+00  0.13152406274E+04  0.13152406274E+04  0.25500000920E-02 0.  1.
       -2   -1    0    0    0  501  0.00000000000E+00  0.00000000000E+00 -0.34727490946E+02  0.34727491040E+02  0.25500000920E-02 0. -1.
    10030    2    1    2    0    0  0.00000000000E+00  0.00000000000E+00  0.12805131364E+04  0.13499681184E+04  0.42743423842E+03 0.  0.
        5    1    3    3  502    0  0.19361530617E+00  0.20878706536E+03  0.78363256063E+03  0.81098345004E+03  0.46999998093E+01 0. -1.
       -5    1    3    3    0  502 -0.19361530617E+00 -0.20878706536E+03  0.49688057581E+03  0.53898466840E+03  0.46999998093E+01 0.  1.
</event>
<event>
 5   0  0.2689372E-02  0.7924000E+03  0.7818609E-02  0.9571083E-01
       -1   -1    0    0    0  501  0.00000000000E+00  0.00000000000E+00  0.18406000013E+03  0.18406000020E+03  0.50400001928E-02 0.  1.
        1   -1    0    0  501    0  0.00000000000E+00  0.00000000000E+00 -0.85284377899E+03  0.85284377901E+03  0.50400001928E-02 0. -1.
    10030    2    1    2    0    0  0.00000000000E+00  0.00000000000E+00 -0.66878377886E+03  0.10369037792E+04  0.79239996497E+03 0.  0.
        4    1    3    3  502    0 -0.32551283993E+03 -0.33618057547E+02 -0.42128257051E+02  0.32994724684E+03  0.12699999809E+01 0.  1.
       -4    1    3    3    0  502  0.32551283993E+03  0.33618057547E+02 -0.62665552181E+03  0.70695653237E+03  0.12699999809E+01 0. -1.
</event>
<event>
 5   0  0.2689372E-02  0.7663744E+03  0.7818609E-02  0.9610006E-01
        1   -1    0    0  501    0  0.00000000000E+00  0.00000000000E+00  0.14078639155E+03  0.14078639164E+03  0.50400001928E-02 0.  1.
       -1   -1    0    0    0  501  0.00000000000E+00  0.00000000000E+00 -0.10429446436E+04  0.10429446436E+04  0.50400001928E-02 0. -1.
    10030    2    1    2    0    0  0.00000000000E+00  0.00000000000E+00 -0.90215825206E+03  0.11837310353E+04  0.76637435505E+03 0.  0.
        4    1    3    3  502    0  0.29813175108E+03  0.22583978938E+03 -0.57979651149E+03  0.68996504194E+03  0.12699999809E+01 0. -1.
       -4    1    3    3    0  502 -0.29813175108E+03 -0.22583978938E+03 -0.32236174058E+03  0.49376599332E+03  0.12699999809E+01 0.  1.
</event>
<event>
 5   0  0.2635243E-02  0.7921594E+03  0.7818609E-02  0.9571436E-01
       -1   -1    0    0    0  501  0.00000000000E+00  0.00000000000E+00  0.59040516617E+03  0.59040516619E+03  0.50400001928E-02 0.  1.
        1   -1    0    0  501    0  0.00000000000E+00  0.00000000000E+00 -0.26571436533E+03  0.26571436538E+03  0.50400001928E-02 0. -1.
    10030    2    1    2    0    0  0.00000000000E+00  0.00000000000E+00  0.32469080083E+03  0.85611953157E+03  0.79215941337E+03 0.  0.
        1    1    3    3  502    0 -0.14208650115E+00  0.39812618816E+02 -0.26354637455E+03  0.26653659480E+03  0.50400001928E-02 0. -1.
       -1    1    3    3    0  502  0.14208650115E+00 -0.39812618816E+02  0.58823717538E+03  0.58958293677E+03  0.50400001928E-02 0.  1.
</event>
<event>
 5   0  0.2635243E-02  0.7708290E+03  0.7818609E-02  0.9603228E-01
       -1   -1    0    0    0  501  0.00000000000E+00  0.00000000000E+00  0.85574448738E+02  0.85574448886E+02  0.50400001928E-02 0.  1.
        1   -1    0    0  501    0  0.00000000000E+00  0.00000000000E+00 -0.17358492492E+04  0.17358492492E+04  0.50400001928E-02 0. -1.
    10030    2    1    2    0    0  0.00000000000E+00  0.00000000000E+00 -0.16502748005E+04  0.18214236981E+04  0.77082901537E+03 0.  0.
        1    1    3    3  502    0 -0.82134902408E+02  0.71699181920E+02 -0.16986507567E+04  0.17021460889E+04  0.50400001928E-02 0. -1.
       -1    1    3    3    0  502  0.82134902408E+02 -0.71699181920E+02  0.48375956217E+02  0.11927760916E+03  0.50400001928E-02 0.  1.
</event>
<event>
 5   0  0.2769394E-02  0.8017278E+03  0.7818609E-02  0.9557520E-01
       -1   -1    0    0    0  501  0.00000000000E+00  0.00000000000E+00  0.18466977028E+03  0.18466977035E+03  0.50400001928E-02 0. -1.
        1   -1    0    0  501    0  0.00000000000E+00  0.00000000000E+00 -0.87015787713E+03  0.87015787714E+03  0.50400001928E-02 0.  1.
    10030    2    1    2    0    0  0.00000000000E+00  0.00000000000E+00 -0.68548810684E+03  0.10548276475E+04  0.80172777256E+03 0.  0.
        2    1    3    3  502    0  0.32937040104E+03  0.66259506285E+02 -0.55041146779E+02  0.34044780965E+03  0.25500000920E-02 0. -1.
       -2    1    3    3    0  502 -0.32937040104E+03 -0.66259506285E+02 -0.63044696007E+03  0.71437983784E+03  0.25500000920E-02 0.  1.
</event>
<event>
 5   0  0.2606520E-02  0.7835963E+03  0.7818609E-02  0.9584069E-01
       -1   -1    0    0    0  501  0.00000000000E+00  0.00000000000E+00  0.42946509376E+03  0.42946509379E+03  0.50400001928E-02 0. -1.
        1   -1    0    0  501    0  0.00000000000E+00  0.00000000000E+00 -0.35743482540E+03  0.35743482543E+03  0.50400001928E-02 0.  1.
    10030    2    1    2    0    0  0.00000000000E+00  0.00000000000E+00  0.72030268359E+02  0.78689991922E+03  0.78359627571E+03 0.  0.
        5    1    3    3  502    0 -0.28698856668E+03 -0.59198844522E+02 -0.22511337213E+03  0.36954710243E+03  0.46999998093E+01 0.  1.
       -5    1    3    3    0  502  0.28698856668E+03  0.59198844522E+02  0.29714364049E+03  0.41735281679E+03  0.46999998093E+01 0. -1.
</event>
<event>
 5   0  0.1786500E-02  0.1191105E+04  0.7818609E-02  0.9120678E-01
       -3   -1    0    0    0  501  0.00000000000E+00  0.00000000000E+00  0.43870514891E+03  0.43870516054E+03  0.10100000352E+00 0.  1.
        3   -1    0    0  501    0  0.00000000000E+00  0.00000000000E+00 -0.80847633714E+03  0.80847634345E+03  0.10100000352E+00 0. -1.
    10030    2    1    2    0    0  0.00000000000E+00  0.00000000000E+00 -0.36977118823E+03  0.12471815040E+04  0.11911049376E+04 0.  0.
        5    1    3    3  502    0 -0.54341999224E+03 -0.51422390818E+02 -0.43423806896E+03  0.69752013647E+03  0.46999998093E+01 0. -1.
       -5    1    3    3    0  502  0.54341999224E+03  0.51422390818E+02  0.64466880735E+02  0.54966136753E+03  0.46999998093E+01 0.  1.
</event>
<event>
 5   0  0.2769394E-02  0.8034557E+03  0.7818609E-02  0.9555029E-01
       -1   -1    0    0    0  501  0.00000000000E+00  0.00000000000E+00  0.14941878757E+03  0.14941878765E+03  0.50400001928E-02 0.  1.
        1   -1    0    0  501    0  0.00000000000E+00  0.00000000000E+00 -0.10800867892E+04  0.10800867892E+04  0.50400001928E-02 0. -1.
    10030    2    1    2    0    0  0.00000000000E+00  0.00000000000E+00 -0.93066800167E+03  0.12295055769E+04  0.80345568284E+03 0.  0.
        2    1    3    3  502    0  0.86243338594E+02  0.38820738386E+03 -0.55247048079E+03  0.68071030438E+03  0.25500000920E-02 0.  1.
       -2    1    3    3    0  502 -0.86243338594E+02 -0.38820738386E+03 -0.37819752088E+03  0.54879527252E+03  0.25500000920E-02 0. -1.
</event>
<event>
 5   0  0.4684283E-02  0.8046267E+03  0.7818609E-02  0.9553344E-01
        2   -1    0    0  501    0  0.00000000000E+00  0.00000000000E+00  0.14119349202E+04  0.14119349202E+04  0.25500000920E-02 0. -1.
       -2   -1    0    0    0  501  0.00000000000E+00  0.00000000000E+00 -0.11463419360E+03  0.11463419363E+03  0.25500000920E-02 0.  1.
    10030    2    1    2    0    0  0.00000000000E+00  0.00000000000E+00  0.12973007266E+04  0.15265691138E+04  0.80462667373E+03 0.  0.
        1    1    3    3  502    0  0.38034284354E+03 -0.46742363042E+02  0.41620572321E+03  0.56574970720E+03  0.50400001928E-02 0.  1.
       -1    1    3    3    0  502 -0.38034284354E+03  0.46742363042E+02  0.88109500339E+03  0.96081940664E+03  0.50400001928E-02 0. -1.
</event>
<event>
 5   0  0.4684283E-02  0.7972270E+03  0.7818609E-02  0.9564040E-01
        2   -1    0    0  501    0  0.00000000000E+00  0.00000000000E+00  0.10974324917E+04  0.10974324918E+04  0.25500000920E-02 0.  1.
       -2   -1    0    0    0  501  0.00000000000E+00  0.00000000000E+00 -0.14478587419E+03  0.14478587421E+03  0.25500000920E-02 0. -1.
    10030    2    1    2    0    0  0.00000000000E+00  0.00000000000E+00  0.95264661756E+03  0.12422183660E+04  0.79722700078E+03 0.  0.
        1    1    3    3  502    0 -0.31511256475E+03 -0.12553098640E+03  0.80256924110E+03  0.87130439216E+03  0.50400001928E-02 0.  1.
       -1    1    3    3    0  502  0.31511256475E+03  0.12553098640E+03  0.15007737646E+03  0.37091397380E+03  0.50400001928E-02 0. -1.
</event>
<event>
 5   0  0.4377843E-02  0.8113134E+03  0.7818609E-02  0.9543784E-01
       -2   -1    0    0    0  501  0.00000000000E+00  0.00000000000E+00  0.20908278018E+03  0.20908278019E+03  0.25500000920E-02 0. -1.
        2   -1    0    0  501    0  0.00000000000E+00  0.00000000000E+00 -0.78704404138E+03  0.78704404139E+03  0.25500000920E-02 0.  1.
    10030    2    1    2    0    0  0.00000000000E+00  0.00000000000E+00 -0.57796126121E+03  0.99612682158E+03  0.81131339519E+03 0.  0.
        2    1    3    3  502    0 -0.13001946626E+03 -0.24778074364E+03  0.71617239035E+02  0.28884145731E+03  0.25500000920E-02 0. -1.
       -2    1    3    3    0  502  0.13001946626E+03  0.24778074364E+03 -0.64957850024E+03  0.70728536427E+03  0.25500000920E-02 0.  1.
</event>
<event>
 5   0  0.2689372E-02  0.4106578E+03  0.7818609E-02  0.1040150E+00
       -1   -1    0    0    0  501  0.00000000000E+00  0.00000000000E+00  0.23409291069E+03  0.23409291074E+03  0.50400001928E-02 0. -1.
        1   -1    0    0  501    0  0.00000000000E+00  0.00000000000E+00 -0.18009924825E+03  0.18009924832E+03  0.50400001928E-02 0.  1.
    10030    2    1    2    0    0  0.00000000000E+00  0.00000000000E+00  0.53993662435E+02  0.41419215906E+03  0.41065780042E+03 0.  0.
        4    1    3    3  502    0  0.11610308321E+03 -0.82837449042E+02  0.17597172902E+03  0.22651629348E+03  0.12699999809E+01 0. -1.
       -4    1    3    3    0  502 -0.11610308321E+03  0.82837449042E+02 -0.12197806659E+03  0.18767586559E+03  0.12699999809E+01 0.  1.
</event>
<event>
 5   0  0.2689372E-02  0.7874879E+03  0.7818609E-02  0.9578307E-01
       -1   -1    0    0    0  501  0.00000000000E+00  0.00000000000E+00  0.24126562249E+03  0.24126562254E+03  0.50400001928E-02 0. -1.
        1   -1    0    0  501    0  0.00000000000E+00  0.00000000000E+00 -0.64258759317E+03  0.64258759319E+03  0.50400001928E-02 0.  1.
    10030    2    1    2    0    0  0.00000000000E+00  0.00000000000E+00 -0.40132197069E+03  0.88385321574E+03  0.78748789376E+03 0.  0.
        4    1    3    3  502    0 -0.13935639960E+01 -0.35754329949E+03 -0.15576910639E+02  0.35788742095E+03  0.12699999809E+01 0. -1.
       -4    1    3    3    0  502  0.13935639960E+01  0.35754329949E+03 -0.38574506005E+03  0.52596579478E+03  0.12699999809E+01 0.  1.
</event>
<event>
 5   0  0.2635243E-02  0.8095385E+03  0.7818609E-02  0.9546312E-01
        1   -1    0    0  501    0  0.00000000000E+00  0.00000000000E+00  0.63341030995E+03  0.63341030997E+03  0.50400001928E-02 0.  1.
       -1   -1    0    0    0  501  0.00000000000E+00  0.00000000000E+00 -0.25866038865E+03  0.25866038870E+03  0.50400001928E-02 0. -1.
    10030    2    1    2    0    0  0.00000000000E+00  0.00000000000E+00  0.37474992130E+03  0.89207069867E+03  0.80953852775E+03 0.  0.
        1    1    3    3  502    0  0.65977068805E+02 -0.30577929992E+03 -0.95687149512E+02  0.32712380604E+03  0.50400001928E-02 0. -1.
       -1    1    3    3    0  502 -0.65977068805E+02  0.30577929992E+03  0.47043707081E+03  0.56494689263E+03  0.50400001928E-02 0.  1.
</event>
<event>
 5   0  0.2769394E-02  0.8019027E+03  0.7818609E-02  0.9557267E-01
       -1   -1    0    0    0  501  0.00000000000E+00  0.00000000000E+00  0.39509733293E+03  0.39509733296E+03  0.50400001928E-02 0.  1.
        1   -1    0    0  501    0  0.00000000000E+00  0.00000000000E+00 -0.40689209839E+03  0.40689209842E+03  0.50400001928E-02 0. -1.
    10030    2    1    2    0    0  0.00000000000E+00  0.00000000000E+00 -0.11794765465E+02  0.80198943138E+03  0.80190269457E+03 0.  0.
        2    1    3    3  502    0 -0.33210109349E+02  0.21007652015E+03 -0.34582666980E+03  0.40599401625E+03  0.25500000920E-02 0. -1.
       -2    1    3    3    0  502  0.33210109349E+02 -0.21007652015E+03  0.33403190434E+03  0.39599541513E+03  0.25500000920E-02 0.  1.
</event>
<event>
 5   0  0.2769394E-02  0.8099919E+03  0.7818609E-02  0.9545666E-01
        1   -1    0    0  501    0  0.00000000000E+00  0.00000000000E+00  0.68736517084E+03  0.68736517086E+03  0.50400001928E-02 0. -1.
       -1   -1    0    0    0  501  0.00000000000E+00  0.00000000000E+00 -0.23862383668E+03  0.23862383674E+03  0.50400001928E-02 0.  1.
    10030    2    1    2    0    0  0.00000000000E+00  0.00000000000E+00  0.44874133416E+03  0.92598900760E+03  0.80999188712E+03 0.  0.
        2    1    3    3  502    0  0.24043147522E+03 -0.22610933234E+03 -0.43952126391E+02  0.33296323200E+03  0.25500000920E-02 0.  1.
       -2    1    3    3    0  502 -0.24043147522E+03  0.22610933234E+03  0.49269346055E+03  0.59302577559E+03  0.25500000920E-02 0. -1.
</event>
<event>
 5   0  0.4590462E-02  0.7797683E+03  0.7818609E-02  0.9589772E-01
        2   -1    0    0  501    0  0.00000000000E+00  0.00000000000E+00  0.52046733959E+03  0.52046733959E+03  0.25500000920E-02 0. -1.
       -2   -1    0    0    0  501  0.00000000000E+00  0.00000000000E+00 -0.29206379855E+03  0.29206379856E+03  0.25500000920E-02 0.  1.
    10030    2    1    2    0    0  0.00000000000E+00  0.00000000000E+00  0.22840354104E+03  0.81253113815E+03  0.77976834567E+03 0.  0.
        3    1    3    3  502    0 -0.23337804479E+03  0.14689975514E+03  0.40139925701E+03  0.48699714946E+03  0.10100000352E+00 0. -1.
       -3    1    3    3    0  502  0.23337804479E+03 -0.14689975514E+03 -0.17299571597E+03  0.32553398870E+03  0.10100000352E+00 0.  1.
</event>
<event>
 5   0  0.4684283E-02  0.8085946E+03  0.7818609E-02  0.9547659E-01
        2   -1    0    0  501    0  0.00000000000E+00  0.00000000000E+00  0.31504644142E+03  0.31504644143E+03  0.25500000920E-02 0.  1.
       -2   -1    0    0    0  501  0.00000000000E+00  0.00000000000E+00 -0.51883242503E+03  0.51883242503E+03  0.25500000920E-02 0. -1.
    10030    2    1    2    0    0  0.00000000000E+00  0.00000000000E+00 -0.20378598361E+03  0.83387886646E+03  0.80859460598E+03 0.  0.
        1    1    3    3  502    0  0.24522150855E+03 -0.70719297733E+02 -0.42526049946E+03  0.49596501868E+03  0.50400001928E-02 0. -1.
       -1    1    3    3    0  502 -0.24522150855E+03  0.70719297733E+02  0.22147451585E+03  0.33791384778E+03  0.50400001928E-02 0.  1.
</event>
<event>
 5   0  0.4590462E-02  0.8326181E+03  0.7818609E-02  0.9513968E-01
        2   -1    0    0  501    0  0.00000000000E+00  0.00000000000E+00  0.14017441833E+03  0.14017441836E+03  0.25500000920E-02 0. -1.
       -2   -1    0    0    0  501  0.00000000000E+00  0.00000000000E+00 -0.12364110837E+04  0.12364110837E+04  0.25500000920E-02 0.  1.
    10030    2    1    2    0    0  0.00000000000E+00  0.00000000000E+00 -0.10962366654E+04  0.13765855021E+04  0.83261805048E+03 0.  0.
        3    1    3    3  502    0 -0.39647590638E+03 -0.11407062058E+03 -0.64028925331E+03  0.76169258164E+03  0.10100000352E+00 0.  1.
       -3    1    3    3    0  502  0.39647590638E+03  0.11407062058E+03 -0.45594741206E+03  0.61489292042E+03  0.10100000352E+00 0. -1.
</event>
<event>
 5   0  0.2635243E-02  0.7966183E+03  0.7818609E-02  0.9564925E-01
        1   -1    0    0  501    0  0.00000000000E+00  0.00000000000E+00  0.13697705278E+04  0.13697705278E+04  0.50400001928E-02 0. -1.
       -1   -1    0    0    0  501  0.00000000000E+00  0.00000000000E+00 -0.11582243941E+03  0.11582243952E+03  0.50400001928E-02 0.  1.
    10030    2    1    2    0    0  0.00000000000E+00  0.00000000000E+00  0.12539480884E+04  0.14855929673E+04  0.79661826253E+03 0.  0.
        1    1    3    3  502    0  0.69715638403E+02  0.48325793035E+02 -0.98782037290E+02  0.13020577340E+03  0.50400001928E-02 0.  1.
       -1    1    3    3    0  502 -0.69715638403E+02 -0.48325793035E+02  0.13527301257E+04  0.13553871939E+04  0.50400001928E-02 0. -1.
</event>
<event>
 5   0  0.4377843E-02  0.8137770E+03  0.7818609E-02  0.9540287E-01
        2   -1    0    0  501    0  0.00000000000E+00  0.00000000000E+00  0.59795227404E+03  0.59795227404E+03  0.25500000920E-02 0. -1.
       -2   -1    0    0    0  501  0.00000000000E+00  0.00000000000E+00 -0.27687535505E+03  0.27687535506E+03  0.25500000920E-02 0.  1.
    10030    2    1    2    0    0  0.00000000000E+00  0.00000000000E+00  0.32107691899E+03  0.87482762910E+03  0.81377699201E+03 0.  0.
        2    1    3    3  502    0  0.34046670517E+03 -0.12240625331E+03  0.36066972788E+03  0.51086546252E+03  0.25500000920E-02 0. -1.
       -2    1    3    3    0  502 -0.34046670517E+03  0.12240625331E+03 -0.39592808893E+02  0.36396216658E+03  0.25500000920E-02 0.  1.
</event>
<event>
 5   0  0.4377843E-02  0.7855773E+03  0.7818609E-02  0.9581131E-01
       -2   -1    0    0    0  501  0.00000000000E+00  0.00000000000E+00  0.11653256022E+03  0.11653256024E+03  0.25500000920E-02 0.  1.
        2   -1    0    0  501    0  0.00000000000E+00  0.00000000000E+00 -0.13239468216E+04  0.13239468216E+04  0.25500000920E-02 0. -1.
    10030    2    1    2    0    0  0.00000000000E+00  0.00000000000E+00 -0.12074142613E+04  0.14404793818E+04  0.78557727240E+03 0.  0.
        2    1    3    3  502    0  0.27177634731E+03 -0.16317301942E+02 -0.11228435321E+04  0.11553814240E+04  0.25500000920E-02 0. -1.
       -2    1    3    3    0  502 -0.27177634731E+03  0.16317301942E+02 -0.84570729242E+02  0.28509795782E+03  0.25500000920E-02 0.  1.
</event>
<event>
 5   0  0.2689372E-02  0.7908308E+03  0.7818609E-02  0.9573385E-01
       -1   -1    0    0    0  501  0.00000000000E+00  0.00000000000E+00  0.67926111503E+03  0.67926111505E+03  0.50400001928E-02 0.  1.
        1   -1    0    0  501    0  0.00000000000E+00  0.00000000000E+00 -0.23018150365E+03  0.23018150371E+03  0.50400001928E-02 0. -1.
    10030    2    1    2    0    0  0.00000000000E+00  0.00000000000E+00  0.44907961138E+03  0.90944261876E+03  0.79083081595E+03 0.  0.
        4    1    3    3  502    0  0.25372123814E+03 -0.29148694160E+03  0.32084110001E+03  0.50227455456E+03  0.12699999809E+01 0.  1.
       -4    1    3    3    0  502 -0.25372123814E+03  0.29148694160E+03  0.12823851137E+03  0.40716806420E+03  0.12699999809E+01 0. -1.
</event>
<event>
 5   0  0.2769394E-02  0.7724987E+03  0.7818609E-02  0.9600700E-01
       -1   -1    0    0    0  501  0.00000000000E+00  0.00000000000E+00  0.40497051769E+03  0.40497051772E+03  0.50400001928E-02 0.  1.
        1   -1    0    0  501    0  0.00000000000E+00  0.00000000000E+00 -0.36839360031E+03  0.36839360034E+03  0.50400001928E-02 0. -1.
    10030    2    1    2    0    0  0.00000000000E+00  0.00000000000E+00  0.36576917376E+02  0.77336411806E+03  0.77249866551E+03 0.  0.
        2    1    3    3  502    0 -0.41502628486E+02  0.59917711768E+01 -0.36610808548E+03  0.36850169572E+03  0.25500000920E-02 0. -1.
       -2    1    3    3    0  502  0.41502628486E+02 -0.59917711768E+01  0.40268500285E+03  0.40486242234E+03  0.25500000920E-02 0.  1.
</event>
<event>
 5   0  0.2606520E-02  0.8160877E+03  0.7818609E-02  0.9537018E-01
        1   -1    0    0  501    0  0.00000000000E+00  0.00000000000E+00  0.77323676501E+03  0.77323676503E+03  0.50400001928E-02 0. -1.
       -1   -1    0    0    0  501  0.00000000000E+00  0.00000000000E+00 -0.21532834358E+03  0.21532834363E+03  0.50400001928E-02 0.  1.
    10030    2    1    2    0    0  0.00000000000E+00  0.00000000000E+00  0.55790842143E+03  0.98856510866E+03  0.81608772038E+03 0.  0.
        5    1    3    3  502    0  0.35352343562E+02  0.10673360675E+02  0.77117547890E+03  0.77207345381E+03  0.46999998093E+01 0. -1.
       -5    1    3    3    0  502 -0.35352343562E+02 -0.10673360675E+02 -0.21326705746E+03  0.21649165485E+03  0.46999998093E+01 0.  1.
</event>
<event>
 5   0  0.4700220E-02  0.8468948E+03  0.7818609E-02  0.9494514E-01
       -2   -1    0    0    0  501  0.00000000000E+00  0.00000000000E+00  0.44217078184E+03  0.44217078185E+03  0.25500000920E-02 0. -1.
        2   -1    0    0  501    0  0.00000000000E+00  0.00000000000E+00 -0.40551686915E+03  0.40551686916E+03  0.25500000920E-02 0.  1.
    10030    2    1    2    0    0  0.00000000000E+00  0.00000000000E+00  0.36653912698E+02  0.84768765101E+03  0.84689482485E+03 0.  0.
        4    1    3    3  502    0  0.97850911532E+02  0.40722511981E+03 -0.44173464936E+02  0.42114131476E+03  0.12699999809E+01 0.  1.
       -4    1    3    3    0  502 -0.97850911532E+02 -0.40722511981E+03  0.80827377633E+02  0.42654633625E+03  0.12699999809E+01 0. -1.
</event>
<event>
 5   0  0.2606520E-02  0.7847762E+03  0.7818609E-02  0.9582318E-01
        1   -1    0    0  501    0  0.00000000000E+00  0.00000000000E+00  0.10912994035E+03  0.10912994046E+03  0.50400001928E-02 0. -1.
       -1   -1    0    0    0  501  0.00000000000E+00  0.00000000000E+00 -0.14108725540E+04  0.14108725540E+04  0.50400001928E-02 0.  1.
    10030    2    1    2    0    0  0.00000000000E+00  0.00000000000E+00 -0.13017426137E+04  0.15200024945E+04  0.78477624264E+03 0.  0.
        5    1    3    3  502    0 -0.26934995249E+03 -0.95335319489E+02 -0.13004608011E+03  0.31396224773E+03  0.46999998093E+01 0. -1.
       -5    1    3    3    0  502  0.26934995249E+03  0.95335319489E+02 -0.11716965336E+04  0.12060402468E+04  0.46999998093E+01 0.  1.
</event>
<event>
 5   0  0.4590462E-02  0.8123670E+03  0.7818609E-02  0.9542287E-01
       -2   -1    0    0    0  501  0.00000000000E+00  0.00000000000E+00  0.17945987191E+03  0.17945987193E+03  0.25500000920E-02 0.  1.
        2   -1    0    0  501    0  0.00000000000E+00  0.00000000000E+00 -0.91934215180E+03  0.91934215181E+03  0.25500000920E-02 0. -1.
    10030    2    1    2    0    0  0.00000000000E+00  0.00000000000E+00 -0.73988227989E+03  0.10988020237E+04  0.81236697328E+03 0.  0.
        3    1    3    3  502    0  0.38865402417E+03 -0.11786126320E+03 -0.37868466371E+03  0.55528849493E+03  0.10100000352E+00 0. -1.
       -3    1    3    3    0  502 -0.38865402417E+03  0.11786126320E+03 -0.36119761618E+03  0.54351352881E+03  0.10100000352E+00 0.  1.
</event>
<event>
 5   0  0.2606520E-02  0.6928628E+03  0.7818609E-02  0.9729516E-01
       -1   -1    0    0    0  501  0.00000000000E+00  0.00000000000E+00  0.47160626550E+03  0.47160626553E+03  0.50400001928E-02 0.  1.
        1   -1    0    0  501    0  0.00000000000E+00  0.00000000000E+00 -0.25448077513E+03  0.25448077518E+03  0.50400001928E-02 0. -1.
    10030    2    1    2    0    0  0.00000000000E+00  0.00000000000E+00  0.21712549037E+03  0.72608704071E+03  0.69286283788E+03 0.  0.
        5    1    3    3  502    0  0.13609045945E+03 -0.23481752247E+03 -0.11700940757E+03  0.29558953546E+03  0.46999998093E+01 0. -1.
       -5    1    3    3    0  502 -0.13609045945E+03  0.23481752247E+03  0.33413489793E+03  0.43049750525E+03  0.46999998093E+01 0.  1.
</event>
<event>
 5   0  0.2635243E-02  0.7848521E+03  0.7818609E-02  0.9582206E-01
       -1   -1    0    0    0  501  0.00000000000E+00  0.00000000000E+00  0.13231965129E+03  0.13231965138E+03  0.50400001928E-02 0. -1.
        1   -1    0    0  501    0  0.00000000000E+00  0.00000000000E+00 -0.11638346179E+04  0.11638346179E+04  0.50400001928E-02 0.  1.
    10030    2    1    2    0    0  0.00000000000E+00  0.00000000000E+00 -0.10315149666E+04  0.12961542693E+04  0.78485206468E+03 0.  0.
        1    1    3    3  502    0  0.19374877724E+03  0.12365656851E+03 -0.10410387082E+04  0.10661102793E+04  0.50400001928E-02 0.  1.
       -1    1    3    3    0  502 -0.19374877724E+03 -0.12365656851E+03  0.95237416657E+01  0.23004398992E+03  0.50400001928E-02 0. -1.
</event>
<event>
 5   0  0.2759559E-02  0.7956522E+03  0.7818609E-02  0.9566332E-01
        1   -1    0    0  501    0  0.00000000000E+00  0.00000000000E+00  0.37311588433E+03  0.37311588437E+03  0.50400001928E-02 0. -1.
       -1   -1    0    0    0  501  0.00000000000E+00  0.00000000000E+00 -0.42417282018E+03  0.42417282021E+03  0.50400001928E-02 0.  1.
    10030    2    1    2    0    0  0.00000000000E+00  0.00000000000E+00 -0.51056935849E+02  0.79728870458E+03  0.79565222789E+03 0.  0.
        3    1    3    3  502    0 -0.61712927423E+02  0.38116213314E+03 -0.12149888058E+03  0.40479012505E+03  0.10100000352E+00 0.  1.
       -3    1    3    3    0  502  0.61712927423E+02 -0.38116213314E+03  0.70441944730E+02  0.39249857953E+03  0.10100000352E+00 0. -1.
</event>
<event>
 5   0  0.2606520E-02  0.7980623E+03  0.7818609E-02  0.9562826E-01
        1   -1    0    0  501    0  0.00000000000E+00  0.00000000000E+00  0.20906337194E+03  0.20906337200E+03  0.50400001928E-02 0.  1.
       -1   -1    0    0    0  501  0.00000000000E+00  0.00000000000E+00 -0.76161520385E+03  0.76161520386E+03  0.50400001928E-02 0. -1.
    10030    2    1    2    0    0  0.00000000000E+00  0.00000000000E+00 -0.55255183191E+03  0.97067857586E+03  0.79806225991E+03 0.  0.
        5    1    3    3  502    0  0.91188340377E+02 -0.33202535070E+03 -0.52149606690E+03  0.62492910375E+03  0.46999998093E+01 0. -1.
       -5    1    3    3    0  502 -0.91188340377E+02  0.33202535070E+03 -0.31055765010E+02  0.34574947211E+03  0.46999998093E+01 0.  1.
</event>
<event>
 5   0  0.4700220E-02  0.8067620E+03  0.7818609E-02  0.9550281E-01
       -2   -1    0    0    0  501  0.00000000000E+00  0.00000000000E+00  0.82258084828E+02  0.82258084868E+02  0.25500000920E-02 0.  1.
        2   -1    0    0  501    0  0.00000000000E+00  0.00000000000E+00 -0.19781185581E+04  0.19781185581E+04  0.25500000920E-02 0. -1.
    10030    2    1    2    0    0  0.00000000000E+00  0.00000000000E+00 -0.18958604732E+04  0.20603766429E+04  0.80676203230E+03 0.  0.
        4    1    3    3  502    0  0.15199536807E+02 -0.32564784701E+03 -0.34121702221E+03  0.47191971280E+03  0.12699999809E+01 0.  1.
       -4    1    3    3    0  502 -0.15199536807E+02  0.32564784701E+03 -0.15546434510E+04  0.15884569301E+04  0.12699999809E+01 0. -1.
</event>
<event>
 5   0  0.4590462E-02  0.8017640E+03  0.7818609E-02  0.9557467E-01
        2   -1    0    0  501    0  0.00000000000E+00  0.00000000000E+00  0.41899716342E+03  0.41899716343E+03  0.25500000920E-02 0.  1.
       -2   -1    0    0    0  501  0.00000000000E+00  0.00000000000E+00 -0.38355003454E+03  0.38355003455E+03  0.25500000920E-02 0. -1.
    10030    2    1    2    0    0  0.00000000000E+00  0.00000000000E+00  0.35447128880E+02  0.80254719798E+03  0.80176399647E+03 0.  0.
        3    1    3    3  502    0  0.37702747686E+03 -0.69833200816E+02  0.13479923068E+03  0.40644462973E+03  0.10100000352E+00 0.  1.
       -3    1    3    3    0  502 -0.37702747686E+03  0.69833200816E+02 -0.99352101796E+02  0.39610256825E+03  0.10100000352E+00 0. -1.
</event>
<event>
 5   0  0.4377843E-02  0.8210154E+03  0.7818609E-02  0.9530087E-01
        2   -1    0    0  501    0  0.00000000000E+00  0.00000000000E+00  0.13946070016E+04  0.13946070016E+04  0.25500000920E-02 0. -1.
       -2   -1    0    0    0  501  0.00000000000E+00  0.00000000000E+00 -0.12083446060E+03  0.12083446062E+03  0.25500000920E-02 0.  1.
    10030    2    1    2    0    0  0.00000000000E+00  0.00000000000E+00  0.12737725410E+04  0.15154414622E+04  0.82101543177E+03 0.  0.
        2    1    3    3  502    0  0.13419185290E+03 -0.12434952931E+03 -0.41425310295E+02  0.18758015663E+03  0.25500000920E-02 0.  1.
       -2    1    3    3    0  502 -0.13419185290E+03  0.12434952931E+03  0.13151978512E+04  0.13278613055E+04  0.25500000920E-02 0. -1.
</event>
<event>
 5   0  0.4684283E-02  0.8322407E+03  0.7818609E-02  0.9514488E-01
        2   -1    0    0  501    0  0.00000000000E+00  0.00000000000E+00  0.29413251055E+03  0.29413251056E+03  0.25500000920E-02 0. -1.
       -2   -1    0    0    0  501  0.00000000000E+00  0.00000000000E+00 -0.58870111919E+03  0.58870111920E+03  0.25500000920E-02 0.  1.
    10030    2    1    2    0    0  0.00000000000E+00  0.00000000000E+00 -0.29456860864E+03  0.88283362976E+03  0.83224068192E+03 0.  0.
        1    1    3    3  502    0  0.60623737810E+02  0.21474220362E+03 -0.51987231616E+03  0.56573551836E+03  0.50400001928E-02 0.  1.
       -1    1    3    3    0  502 -0.60623737810E+02 -0.21474220362E+03  0.22530370752E+03  0.31709811139E+03  0.50400001928E-02 0. -1.
</event>
<event>
 5   0  0.4663634E-02  0.8849290E+03  0.7818609E-02  0.9444619E-01
        2   -1    0    0  501    0  0.00000000000E+00  0.00000000000E+00  0.19940758120E+04  0.19940758120E+04  0.25500000920E-02 0. -1.
       -2   -1    0    0    0  501  0.00000000000E+00  0.00000000000E+00 -0.98178227498E+02  0.98178227531E+02  0.25500000920E-02 0.  1.
    10030    2    1    2    0    0  0.00000000000E+00  0.00000000000E+00  0.18958975845E+04  0.20922540395E+04  0.88492898869E+03 0.  0.
        5    1    3    3  502    0  0.10922149859E+03  0.36017871441E+03  0.14978483090E+04  0.15444188838E+04  0.46999998093E+01 0. -1.
       -5    1    3    3    0  502 -0.10922149859E+03 -0.36017871441E+03  0.39804927553E+03  0.54783515570E+03  0.46999998093E+01 0.  1.
</event>
<event>
 5   0  0.4590462E-02  0.7531165E+03  0.7818609E-02  0.9630474E-01
       -2   -1    0    0    0  501  0.00000000000E+00  0.00000000000E+00  0.94844331008E+02  0.94844331042E+02  0.25500000920E-02 0.  1.
        2   -1    0    0  501    0  0.00000000000E+00  0.00000000000E+00 -0.14950403573E+04  0.14950403573E+04  0.25500000920E-02 0. -1.
    10030    2    1    2    0    0  0.00000000000E+00  0.00000000000E+00 -0.14001960263E+04  0.15898846884E+04  0.75311646522E+03 0.  0.
        3    1    3    3  502    0 -0.16579132447E+03  0.25637113819E+03 -0.23478371018E+03  0.38514455017E+03  0.10100000352E+00 0.  1.
       -3    1    3    3    0  502  0.16579132447E+03 -0.25637113819E+03 -0.11654123161E+04  0.12047401382E+04  0.10100000352E+00 0. -1.
</event>
<event>
 5   0  0.2635243E-02  0.7937463E+03  0.7818609E-02  0.9569113E-01
       -1   -1    0    0    0  501  0.00000000000E+00  0.00000000000E+00  0.49294391368E+03  0.49294391371E+03  0.50400001928E-02 0. -1.
        1   -1    0    0  501    0  0.00000000000E+00  0.00000000000E+00 -0.31952579506E+03  0.31952579510E+03  0.50400001928E-02 0.  1.
    10030    2    1    2    0    0  0.00000000000E+00  0.00000000000E+00  0.17341811862E+03  0.81246970881E+03  0.79374629692E+03 0.  0.
        1    1    3    3  502    0  0.65413419656E+02  0.36951843066E+03 -0.45510348340E+02  0.37801319805E+03  0.50400001928E-02 0.  1.
       -1    1    3    3    0  502 -0.65413419656E+02 -0.36951843066E+03  0.21892846696E+03  0.43445651076E+03  0.50400001928E-02 0. -1.
</event>
<event>
 5   0  0.2759559E-02  0.8330529E+03  0.7818609E-02  0.9513369E-01
        1   -1    0    0  501    0  0.00000000000E+00  0.00000000000E+00  0.10542196124E+03  0.10542196136E+03  0.50400001928E-02 0.  1.
       -1   -1    0    0    0  501  0.00000000000E+00  0.00000000000E+00 -0.16457128468E+04  0.16457128468E+04  0.50400001928E-02 0. -1.
    10030    2    1    2    0    0  0.00000000000E+00  0.00000000000E+00 -0.15402908856E+04  0.17511348082E+04  0.83305288200E+03 0.  0.
        3    1    3    3  502    0  0.32338049053E+03 -0.24718217957E+03 -0.95603652594E+03  0.10390764268E+04  0.10100000352E+00 0.  1.
       -3    1    3    3    0  502 -0.32338049053E+03  0.24718217957E+03 -0.58425435962E+03  0.71205838138E+03  0.10100000352E+00 0. -1.
</event>
<event>
 5   0  0.2606520E-02  0.8055550E+03  0.7818609E-02  0.9552011E-01
        1   -1    0    0  501    0  0.00000000000E+00  0.00000000000E+00  0.17340548618E+04  0.17340548618E+04  0.50400001928E-02 0. -1.
       -1   -1    0    0    0  501  0.00000000000E+00  0.00000000000E+00 -0.93555113988E+02  0.93555114124E+02  0.50400001928E-02 0.  1.
    10030    2    1    2    0    0  0.00000000000E+00  0.00000000000E+00  0.16404997478E+04  0.18276099759E+04  0.80555496495E+03 0.  0.
        5    1    3    3  502    0  0.13909049616E+03  0.33866678396E+03  0.12010112474E+04  0.12555841123E+04  0.46999998093E+01 0. -1.
       -5    1    3    3    0  502 -0.13909049616E+03 -0.33866678396E+03  0.43948850044E+03  0.57202586366E+03  0.46999998093E+01 0.  1.
</event>
<event>
 5   0  0.2759559E-02  0.8266658E+03  0.7818609E-02  0.9522202E-01
       -1   -1    0    0    0  501  0.00000000000E+00  0.00000000000E+00  0.31096123420E+03  0.31096123424E+03  0.50400001928E-02 0.  1.
        1   -1    0    0  501    0  0.00000000000E+00  0.00000000000E+00 -0.54940641921E+03  0.54940641923E+03  0.50400001928E-02 0. -1.
    10030    2    1    2    0    0  0.00000000000E+00  0.00000000000E+00 -0.23844518501E+03  0.86036765347E+03  0.82666582903E+03 0.  0.
        3    1    3    3  502    0  0.32808917832E+02 -0.19450877062E+03 -0.49725797929E+03  0.53495382521E+03  0.10100000352E+00 0. -1.
       -3    1    3    3    0  502 -0.32808917832E+02  0.19450877062E+03  0.25881279428E+03  0.32541382826E+03  0.10100000352E+00 0.  1.
</event>
<event>
 5   0  0.4377843E-02  0.8084094E+03  0.7818609E-02  0.9547924E-01
       -2   -1    0    0    0  501  0.00000000000E+00  0.00000000000E+00  0.13949600641E+03  0.13949600643E+03  0.25500000920E-02 0. -1.
        2   -1    0    0  501    0  0.00000000000E+00  0.00000000000E+00 -0.11712267627E+04  0.11712267627E+04  0.25500000920E-02 0.  1.
    10030    2    1    2    0    0  0.00000000000E+00  0.00000000000E+00 -0.10317307563E+04  0.13107227692E+04  0.80840944085E+03 0.  0.
        2    1    3    3  502    0 -0.32981967458E+03  0.16200890701E+03 -0.24285245433E+03  0.44046023461E+03  0.25500000920E-02 0. -1.
       -2    1    3    3    0  502  0.32981967458E+03 -0.16200890701E+03 -0.78887830199E+03  0.87026253455E+03  0.25500000920E-02 0.  1.
</event>
<event>
 5   0  0.4590462E-02  0.8288459E+03  0.7818609E-02  0.9519178E-01
        2   -1    0    0  501    0  0.00000000000E+00  0.00000000000E+00  0.48236983375E+03  0.48236983375E+03  0.25500000920E-02 0. -1.
       -2   -1    0    0    0  501  0.00000000000E+00  0.00000000000E+00 -0.35604708503E+03  0.35604708504E+03  0.25500000920E-02 0.  1.
    10030    2    1    2    0    0  0.00000000000E+00  0.00000000000E+00  0.12632274871E+03  0.83841691880E+03  0.82884588005E+03 0.  0.
        3    1    3    3  502    0 -0.12644677495E+03  0.11730869256E+03 -0.31801386629E+03  0.36177748078E+03  0.10100000352E+00 0.  1.
       -3    1    3    3    0  502  0.12644677495E+03 -0.11730869256E+03  0.44433661500E+03  0.47663943802E+03  0.10100000352E+00 0. -1.
</event>
<event>
 5   0  0.2759559E-02  0.8002145E+03  0.7818609E-02  0.9559707E-01
        1   -1    0    0  501    0  0.00000000000E+00  0.00000000000E+00  0.77651740410E+03  0.77651740412E+03  0.50400001928E-02 0.  1.
       -1   -1    0    0    0  501  0.00000000000E+00  0.00000000000E+00 -0.20615868124E+03  0.20615868130E+03  0.50400001928E-02 0. -1.
    10030    2    1    2    0    0  0.00000000000E+00  0.00000000000E+00  0.57035872287E+03  0.98267608542E+03  0.80021448131E+03 0.  0.
        3    1    3    3  502    0 -0.27282802566E+03 -0.16803635639E+03 -0.90693480751E+01  0.32055204247E+03  0.10100000352E+00 0. -1.
       -3    1    3    3    0  502  0.27282802566E+03  0.16803635639E+03  0.57942807094E+03  0.66212404295E+03  0.10100000352E+00 0.  1.
</event>
<event>
 5   0  0.2769394E-02  0.7693131E+03  0.7818609E-02  0.9605529E-01
        1   -1    0    0  501    0  0.00000000000E+00  0.00000000000E+00  0.95058463208E+03  0.95058463209E+03  0.50400001928E-02 0. -1.
       -1   -1    0    0    0  501  0.00000000000E+00  0.00000000000E+00 -0.15565226505E+03  0.15565226513E+03  0.50400001928E-02 0.  1.
    10030    2    1    2    0    0  0.00000000000E+00  0.00000000000E+00  0.79493236703E+03  0.11062368972E+04  0.76931307322E+03 0.  0.
        2    1    3    3  502    0 -0.32228681543E+03  0.19858870415E+03  0.29936454947E+03  0.48262345395E+03  0.25500000920E-02 0.  1.
       -2    1    3    3    0  502  0.32228681543E+03 -0.19858870415E+03  0.49556781757E+03  0.62361344327E+03  0.25500000920E-02 0. -1.
</event>
<event>
 5   0  0.4377843E-02  0.8007095E+03  0.7818609E-02  0.9558991E-01
        2   -1    0    0  501    0  0.00000000000E+00  0.00000000000E+00  0.12374787026E+04  0.12374787026E+04  0.25500000920E-02 0.  1.
       -2   -1    0    0    0  501  0.00000000000E+00  0.00000000000E+00 -0.12952459607E+03  0.12952459610E+03  0.25500000920E-02 0. -1.
    10030    2    1    2    0    0  0.00000000000E+00  0.00000000000E+00  0.11079541065E+04  0.13670032986E+04  0.80070950816E+03 0.  0.
        2    1    3    3  502    0  0.18662100206E+03 -0.35338968571E+03  0.51313650643E+03  0.65040044789E+03  0.25500000920E-02 0. -1.
       -2    1    3    3    0  502 -0.18662100206E+03  0.35338968571E+03  0.59481760006E+03  0.71660285076E+03  0.25500000920E-02 0.  1.
</event>
<event>
 5   0  0.2689372E-02  0.8094359E+03  0.7818609E-02  0.9546459E-01
        1   -1    0    0  501    0  0.00000000000E+00  0.00000000000E+00  0.53384238014E+03  0.53384238016E+03  0.50400001928E-02 0. -1.
       -1   -1    0    0    0  501  0.00000000000E+00  0.00000000000E+00 -0.30682579376E+03  0.30682579380E+03  0.50400001928E-02 0.  1.
    10030    2    1    2    0    0  0.00000000000E+00  0.00000000000E+00  0.22701658638E+03  0.84066817397E+03  0.80943588272E+03 0.  0.
        4    1    3    3  502    0 -0.78884149332E+02  0.10801648233E+02 -0.29860937024E+03  0.30904458176E+03  0.12699999809E+01 0.  1.
       -4    1    3    3    0  502  0.78884149332E+02 -0.10801648233E+02  0.52562595662E+03  0.53162359221E+03  0.12699999809E+01 0. -1.
</event>
<event>
 5   0  0.1786500E-02  0.8246187E+03  0.7818609E-02  0.9525051E-01
       -3   -1    0    0    0  501  0.00000000000E+00  0.00000000000E+00  0.18196777366E+03  0.18196780169E+03  0.10100000352E+00 0.  1.
        3   -1    0    0  501    0  0.00000000000E+00  0.00000000000E+00 -0.93422565006E+03  0.93422565552E+03  0.10100000352E+00 0. -1.
    10030    2    1    2    0    0  0.00000000000E+00  0.00000000000E+00 -0.75225787641E+03  0.11161934572E+04  0.82461865204E+03 0.  0.
        4    1    3    3  502    0 -0.11355371255E+03  0.19042627005E+03 -0.84666513517E+03  0.87521430175E+03  0.12699999809E+01 0. -1.
       -4    1    3    3    0  502  0.11355371255E+03 -0.19042627005E+03  0.94407258765E+02  0.24097915546E+03  0.12699999809E+01 0.  1.
</event>
<event>
 5   0  0.4684283E-02  0.7880137E+03  0.7818609E-02  0.9577531E-01
       -2   -1    0    0    0  501  0.00000000000E+00  0.00000000000E+00  0.92504488960E+02  0.92504488995E+02  0.25500000920E-02 0. -1.
        2   -1    0    0  501    0  0.00000000000E+00  0.00000000000E+00 -0.16782039858E+04  0.16782039858E+04  0.25500000920E-02 0.  1.
    10030    2    1    2    0    0  0.00000000000E+00  0.00000000000E+00 -0.15856994969E+04  0.17707084748E+04  0.78801371083E+03 0.  0.
        1    1    3    3  502    0  0.36487655747E+03  0.14605286198E+03 -0.73029196568E+03  0.82933268104E+03  0.50400001928E-02 0. -1.
       -1    1    3    3    0  502 -0.36487655747E+03 -0.14605286198E+03 -0.85540753119E+03  0.94137579379E+03  0.50400001928E-02 0.  1.
</event>
<event>
 5   0  0.2689372E-02  0.9249298E+03  0.7818609E-02  0.9394944E-01
        1   -1    0    0  501    0  0.00000000000E+00  0.00000000000E+00  0.44271238282E+03  0.44271238285E+03  0.50400001928E-02 0. -1.
       -1   -1    0    0    0  501  0.00000000000E+00  0.00000000000E+00 -0.48309871868E+03  0.48309871870E+03  0.50400001928E-02 0.  1.
    10030    2    1    2    0    0  0.00000000000E+00  0.00000000000E+00 -0.40386335858E+02  0.92581110155E+03  0.92492980255E+03 0.  0.
        4    1    3    3  502    0 -0.29815504174E+02 -0.36187468460E+03 -0.30687472585E+03  0.47541136072E+03  0.12699999809E+01 0.  1.
       -4    1    3    3    0  502  0.29815504174E+02  0.36187468460E+03  0.26648838999E+03  0.45039974083E+03  0.12699999809E+01 0. -1.
</event>
<event>
 5   0  0.2635243E-02  0.8101777E+03  0.7818609E-02  0.9545401E-01
       -1   -1    0    0    0  501  0.00000000000E+00  0.00000000000E+00  0.40034460925E+03  0.40034460928E+03  0.50400001928E-02 0. -1.
        1   -1    0    0  501    0  0.00000000000E+00  0.00000000000E+00 -0.40988927752E+03  0.40988927755E+03  0.50400001928E-02 0.  1.
    10030    2    1    2    0    0  0.00000000000E+00  0.00000000000E+00 -0.95446682654E+01  0.81023388683E+03  0.81017766612E+03 0.  0.
        1    1    3    3  502    0 -0.16206934705E+03 -0.33081168639E+03 -0.17328956881E+03  0.40710209996E+03  0.50400001928E-02 0. -1.
       -1    1    3    3    0  502  0.16206934705E+03  0.33081168639E+03  0.16374490054E+03  0.40313178687E+03  0.50400001928E-02 0.  1.
</event>
<event>
 5   0  0.2769394E-02  0.8053684E+03  0.7818609E-02  0.9552279E-01
       -1   -1    0    0    0  501  0.00000000000E+00  0.00000000000E+00  0.10667701208E+04  0.10667701208E+04  0.50400001928E-02 0. -1.
        1   -1    0    0  501    0  0.00000000000E+00  0.00000000000E+00 -0.15200515355E+03  0.15200515363E+03  0.50400001928E-02 0.  1.
    10030    2    1    2    0    0  0.00000000000E+00  0.00000000000E+00  0.91476496721E+03  0.12187752744E+04  0.80536837799E+03 0.  0.
        2    1    3    3  502    0 -0.22234241075E+03 -0.15102929466E+03  0.36189575370E+01  0.26881051379E+03  0.25500000920E-02 0.  1.
       -2    1    3    3    0  502  0.22234241075E+03  0.15102929466E+03  0.91114600967E+03  0.94996476061E+03  0.25500000920E-02 0. -1.
</event>
<event>
 5   0  0.4684283E-02  0.7480542E+03  0.7818609E-02  0.9638408E-01
       -2   -1    0    0    0  501  0.00000000000E+00  0.00000000000E+00  0.45940861751E+03  0.45940861752E+03  0.25500000920E-02 0. -1.
        2   -1    0    0  501    0  0.00000000000E+00  0.00000000000E+00 -0.30451381436E+03  0.30451381437E+03  0.25500000920E-02 0.  1.
    10030    2    1    2    0    0  0.00000000000E+00  0.00000000000E+00  0.15489480315E+03  0.76392243189E+03  0.74805419716E+03 0.  0.
        1    1    3    3  502    0 -0.22447288229E+03 -0.90784896535E+02 -0.21367219275E+03  0.32293308642E+03  0.50400001928E-02 0.  1.
       -1    1    3    3    0  502  0.22447288229E+03  0.90784896535E+02  0.36856699590E+03  0.44098934547E+03  0.50400001928E-02 0. -1.
</event>
<event>
 5   0  0.4663634E-02  0.7073055E+03  0.7818609E-02  0.9704820E-01
        2   -1    0    0  501    0  0.00000000000E+00  0.00000000000E+00  0.58365417728E+03  0.58365417729E+03  0.25500000920E-02 0. -1.
       -2   -1    0    0    0  501  0.00000000000E+00  0.00000000000E+00 -0.21428828490E+03  0.21428828491E+03  0.25500000920E-02 0.  1.
    10030    2    1    2    0    0  0.00000000000E+00  0.00000000000E+00  0.36936589239E+03  0.79794246220E+03  0.70730545772E+03 0.  0.
        5    1    3    3  502    0  0.28305072574E+03 -0.10303234321E+03  0.39366318052E+03  0.49570774332E+03  0.46999998093E+01 0.  1.
       -5    1    3    3    0  502 -0.28305072574E+03  0.10303234321E+03 -0.24297288137E+02  0.30223471888E+03  0.46999998093E+01 0. -1.
</event>
<event>
 5   0  0.2606520E-02  0.8066040E+03  0.7818609E-02  0.9550507E-01
        1   -1    0    0  501    0  0.00000000000E+00  0.00000000000E+00  0.41427827207E+03  0.41427827210E+03  0.50400001928E-02 0.  1.
       -1   -1    0    0    0  501  0.00000000000E+00  0.00000000000E+00 -0.39261650849E+03  0.39261650852E+03  0.50400001928E-02 0. -1.
    10030    2    1    2    0    0  0.00000000000E+00  0.00000000000E+00  0.21661763582E+02  0.80689478062E+03  0.80660396415E+03 0.  0.
        5    1    3    3  502    0  0.13187861241E+03  0.74959929943E+02  0.38462244854E+03  0.41348213677E+03  0.46999998093E+01 0.  1.
       -5    1    3    3    0  502 -0.13187861241E+03 -0.74959929943E+02 -0.36296068496E+03  0.39341264384E+03  0.46999998093E+01 0. -1.
</event>
<event>
 5   0  0.4700220E-02  0.8064168E+03  0.7818609E-02  0.9550775E-01
       -2   -1    0    0    0  501  0.00000000000E+00  0.00000000000E+00  0.28815083354E+03  0.28815083355E+03  0.25500000920E-02 0. -1.
        2   -1    0    0  501    0  0.00000000000E+00  0.00000000000E+00 -0.56420797094E+03  0.56420797094E+03  0.25500000920E-02 0.  1.
    10030    2    1    2    0    0  0.00000000000E+00  0.00000000000E+00 -0.27605713740E+03  0.85235880449E+03  0.80641675856E+03 0.  0.
        4    1    3    3  502    0  0.39722611972E+03 -0.67674306364E+02 -0.12282206045E+03  0.42125440456E+03  0.12699999809E+01 0.  1.
       -4    1    3    3    0  502 -0.39722611972E+03  0.67674306364E+02 -0.15323507695E+03  0.43110439993E+03  0.12699999809E+01 0. -1.
</event>
<event>
 5   0  0.2635243E-02  0.8098012E+03  0.7818609E-02  0.9545938E-01
        1   -1    0    0  501    0  0.00000000000E+00  0.00000000000E+00  0.10180831210E+04  0.10180831210E+04  0.50400001928E-02 0.  1.
       -1   -1    0    0    0  501  0.00000000000E+00  0.00000000000E+00 -0.16103254013E+03  0.16103254021E+03  0.50400001928E-02 0. -1.
    10030    2    1    2    0    0  0.00000000000E+00  0.00000000000E+00  0.85705058082E+03  0.11791156612E+04  0.80980123756E+03 0.  0.
        1    1    3    3  502    0 -0.26879185883E+03  0.27614208498E+03  0.24759318567E+03  0.45804574016E+03  0.50400001928E-02 0.  1.
       -1    1    3    3    0  502  0.26879185883E+03 -0.27614208498E+03  0.60945739515E+03  0.72106992102E+03  0.50400001928E-02 0. -1.
</event>
<event>
 5   0  0.2606520E-02  0.8352486E+03  0.7818609E-02  0.9510352E-01
        1   -1    0    0  501    0  0.00000000000E+00  0.00000000000E+00  0.47406996461E+03  0.47406996464E+03  0.50400001928E-02 0.  1.
       -1   -1    0    0    0  501  0.00000000000E+00  0.00000000000E+00 -0.36789940890E+03  0.36789940893E+03  0.50400001928E-02 0. -1.
    10030    2    1    2    0    0  0.00000000000E+00  0.00000000000E+00  0.10617055571E+03  0.84196937357E+03  0.83524860918E+03 0.  0.
        5    1    3    3  502    0 -0.11448393593E+03  0.24278059138E+03  0.37556401244E+03  0.46164857259E+03  0.46999998093E+01 0.  1.
       -5    1    3    3    0  502  0.11448393593E+03 -0.24278059138E+03 -0.26939345673E+03  0.38032080098E+03  0.46999998093E+01 0. -1.
</event>
<event>
 5   0  0.2769394E-02  0.8114751E+03  0.7818609E-02  0.9543554E-01
       -1   -1    0    0    0  501  0.00000000000E+00  0.00000000000E+00  0.85287224105E+02  0.85287224253E+02  0.50400001928E-02 0.  1.
        1   -1    0    0  501    0  0.00000000000E+00  0.00000000000E+00 -0.19302183796E+04  0.19302183796E+04  0.50400001928E-02 0. -1.
    10030    2    1    2    0    0  0.00000000000E+00  0.00000000000E+00 -0.18449311555E+04  0.20155056039E+04  0.81147512019E+03 0.  0.
        2    1    3    3  502    0  0.25711839955E+03  0.18741368233E+03 -0.15478059441E+04  0.15801699277E+04  0.25500000920E-02 0. -1.
       -2    1    3    3    0  502 -0.25711839955E+03 -0.18741368233E+03 -0.29712521141E+03  0.43533567621E+03  0.25500000920E-02 0.  1.
</event>
<event>
 5   0  0.2769394E-02  0.8251318E+03  0.7818609E-02  0.9524336E-01
       -1   -1    0    0    0  501  0.00000000000E+00  0.00000000000E+00  0.21738414796E+03  0.21738414802E+03  0.50400001928E-02 0. -1.
        1   -1    0    0  501    0  0.00000000000E+00  0.00000000000E+00 -0.78299454895E+03  0.78299454897E+03  0.50400001928E-02 0.  1.
    10030    2    1    2    0    0  0.00000000000E+00  0.00000000000E+00 -0.56561040099E+03  0.10003786970E+04  0.82513175414E+03 0.  0.
        2    1    3    3  502    0  0.89757143619E+02  0.18388883881E+03 -0.71713609125E+03  0.74575842151E+03  0.25500000920E-02 0.  1.
       -2    1    3    3    0  502 -0.89757143619E+02 -0.18388883881E+03  0.15152569027E+03  0.25462027548E+03  0.25500000920E-02 0. -1.
</event>
<event>
 5   0  0.2606520E-02  0.7397772E+03  0.7818609E-02  0.9651526E-01
        1   -1    0    0  501    0  0.00000000000E+00  0.00000000000E+00  0.92407077028E+03  0.92407077029E+03  0.50400001928E-02 0. -1.
       -1   -1    0    0    0  501  0.00000000000E+00  0.00000000000E+00 -0.14805964055E+03  0.14805964063E+03  0.50400001928E-02 0.  1.
    10030    2    1    2    0    0  0.00000000000E+00  0.00000000000E+00  0.77601112973E+03  0.10721304109E+04  0.73977722631E+03 0.  0.
        5    1    3    3  502    0  0.32434713553E+03 -0.16684323713E+03  0.29916495608E+03  0.47176211277E+03  0.46999998093E+01 0.  1.
       -5    1    3    3    0  502 -0.32434713553E+03  0.16684323713E+03  0.47684617365E+03  0.60036829815E+03  0.46999998093E+01 0. -1.
</event>
<event>
 5   0  0.2606520E-02  0.8091055E+03  0.7818609E-02  0.9546930E-01
       -1   -1    0    0    0  501  0.00000000000E+00  0.00000000000E+00  0.25679731518E+03  0.25679731523E+03  0.50400001928E-02 0.  1.
        1   -1    0    0  501    0  0.00000000000E+00  0.00000000000E+00 -0.63732332549E+03  0.63732332551E+03  0.50400001928E-02 0. -1.
    10030    2    1    2    0    0  0.00000000000E+00  0.00000000000E+00 -0.38052601031E+03  0.89412064074E+03  0.80910547871E+03 0.  0.
        5    1    3    3  502    0 -0.21678018424E+03 -0.20252487651E+03  0.11364384119E+03  0.31772155502E+03  0.46999998093E+01 0.  1.
       -5    1    3    3    0  502  0.21678018424E+03  0.20252487651E+03 -0.49416985151E+03  0.57639908572E+03  0.46999998093E+01 0. -1.
</event>
<event>
 5   0  0.2769394E-02  0.7761995E+03  0.7818609E-02  0.9595121E-01
       -1   -1    0    0    0  501  0.00000000000E+00  0.00000000000E+00  0.63775806787E+03  0.63775806789E+03  0.50400001928E-02 0.  1.
        1   -1    0    0  501    0  0.00000000000E+00  0.00000000000E+00 -0.23617326798E+03  0.23617326803E+03  0.50400001928E-02 0. -1.
    10030    2    1    2    0    0  0.00000000000E+00  0.00000000000E+00  0.40158479988E+03  0.87393133592E+03  0.77619947720E+03 0.  0.
        2    1    3    3  502    0  0.36021403335E+02 -0.11431935346E+03  0.61639677613E+03  0.62794222799E+03  0.25500000920E-02 0.  1.
       -2    1    3    3    0  502 -0.36021403335E+02  0.11431935346E+03 -0.21481197624E+03  0.24598910793E+03  0.25500000920E-02 0. -1.
</event>
<event>
 5   0  0.2769394E-02  0.6034602E+03  0.7818609E-02  0.9898253E-01
       -1   -1    0    0    0  501  0.00000000000E+00  0.00000000000E+00  0.36555241482E+03  0.36555241486E+03  0.50400001928E-02 0.  1.
        1   -1    0    0  501    0  0.00000000000E+00  0.00000000000E+00 -0.24905058967E+03  0.24905058972E+03  0.50400001928E-02 0. -1.
    10030    2    1    2    0    0  0.00000000000E+00  0.00000000000E+00  0.11650182515E+03  0.61460300458E+03  0.60346017099E+03 0.  0.
        2    1    3    3  502    0 -0.27847840539E+03  0.10785398911E+03  0.10215536530E+03  0.31562386459E+03  0.25500000920E-02 0.  1.
       -2    1    3    3    0  502  0.27847840539E+03 -0.10785398911E+03  0.14346459856E+02  0.29897913999E+03  0.25500000920E-02 0. -1.
</event>
<event>
 5   0  0.1786500E-02  0.8570067E+03  0.7818609E-02  0.9480981E-01
       -4   -1    0    0    0  501  0.00000000000E+00  0.00000000000E+00  0.26569162534E+03  0.26569466061E+03  0.12699999809E+01 0. -1.
        4   -1    0    0  501    0  0.00000000000E+00  0.00000000000E+00 -0.69107609143E+03  0.69107725837E+03  0.12699999809E+01 0.  1.
    10030    2    1    2    0    0  0.00000000000E+00  0.00000000000E+00 -0.42538446609E+03  0.95677191898E+03  0.85700674499E+03 0.  0.
        3    1    3    3  502    0  0.10775931431E+03 -0.12583728225E+03 -0.65387674544E+03  0.67453828642E+03  0.10100000352E+00 0.  1.
       -3    1    3    3    0  502 -0.10775931431E+03  0.12583728225E+03  0.22849227935E+03  0.28223363256E+03  0.10100000352E+00 0. -1.
</event>
<event>
 5   0  0.4684283E-02  0.7830228E+03  0.7818609E-02  0.9584921E-01
       -2   -1    0    0    0  501  0.00000000000E+00  0.00000000000E+00  0.14588236326E+04  0.14588236326E+04  0.25500000920E-02 0. -1.
        2   -1    0    0  501    0  0.00000000000E+00  0.00000000000E+00 -0.10507176553E+03  0.10507176556E+03  0.25500000920E-02 0.  1.
    10030    2    1    2    0    0  0.00000000000E+00  0.00000000000E+00  0.13537518671E+04  0.15638953982E+04  0.78302279585E+03 0.  0.
        1    1    3    3  502    0 -0.94464778343E+02  0.23995647859E+03  0.12652307149E+04  0.12912441551E+04  0.50400001928E-02 0. -1.
       -1    1    3    3    0  502  0.94464778343E+02 -0.23995647859E+03  0.88521152152E+02  0.27265124311E+03  0.50400001928E-02 0.  1.
</event>
<event>
 5   0  0.2606520E-02  0.8517775E+03  0.7818609E-02  0.9487954E-01
        1   -1    0    0  501    0  0.00000000000E+00  0.00000000000E+00  0.82541788247E+03  0.82541788248E+03  0.50400001928E-02 0. -1.
       -1   -1    0    0    0  501  0.00000000000E+00  0.00000000000E+00 -0.21974471965E+03  0.21974471970E+03  0.50400001928E-02 0.  1.
    10030    2    1    2    0    0  0.00000000000E+00  0.00000000000E+00  0.60567316282E+03  0.10451626022E+04  0.85177748553E+03 0.  0.
        5    1    3    3  502    0 -0.41539059880E+03  0.85791529773E+02  0.34955423861E+03  0.54965424758E+03  0.46999998093E+01 0. -1.
       -5    1    3    3    0  502  0.41539059880E+03 -0.85791529773E+02  0.25611892421E+03  0.49550835461E+03  0.46999998093E+01 0.  1.
</event>
<event>
 5   0  0.2769394E-02  0.8055194E+03  0.7818609E-02  0.9552062E-01
        1   -1    0    0  501    0  0.00000000000E+00  0.00000000000E+00  0.94100350818E+03  0.94100350820E+03  0.50400001928E-02 0.  1.
       -1   -1    0    0    0  501  0.00000000000E+00  0.00000000000E+00 -0.17238551277E+03  0.17238551285E+03  0.50400001928E-02 0. -1.
    10030    2    1    2    0    0  0.00000000000E+00  0.00000000000E+00  0.76861799541E+03  0.11133890210E+04  0.80551939102E+03 0.  0.
        2    1    3    3  502    0 -0.32128319380E+03  0.24237103771E+03  0.40610931258E+03  0.57174415984E+03  0.25500000920E-02 0.  1.
       -2    1    3    3    0  502  0.32128319380E+03 -0.24237103771E+03  0.36250868283E+03  0.54164486121E+03  0.25500000920E-02 0. -1.
</event>
<event>
 5   0  0.2635243E-02  0.8139027E+03  0.7818609E-02  0.9540109E-01
        1   -1    0    0  501    0  0.00000000000E+00  0.00000000000E+00  0.26869169620E+03  0.26869169625E+03  0.50400001928E-02 0.  1.
       -1   -1    0    0    0  501  0.00000000000E+00  0.00000000000E+00 -0.61635478501E+03  0.61635478504E+03  0.50400001928E-02 0. -1.
    10030    2    1    2    0    0  0.00000000000E+00  0.00000000000E+00 -0.34766308881E+03  0.88504648128E+03  0.81390272804E+03 0.  0.
        1    1    3    3  502    0  0.26471506668E+03 -0.30903118882E+03 -0.18027122475E+03  0.44505286954E+03  0.50400001928E-02 0. -1.
       -1    1    3    3    0  502 -0.26471506668E+03  0.30903118882E+03 -0.16739186407E+03  0.43999361174E+03  0.50400001928E-02 0.  1.
</event>
<event>
 5   0  0.4663634E-02  0.8078025E+03  0.7818609E-02  0.9548791E-01
        2   -1    0    0  501    0  0.00000000000E+00  0.00000000000E+00  0.52016973159E+03  0.52016973160E+03  0.25500000920E-02 0.  1.
       -2   -1    0    0    0  501  0.00000000000E+00  0.00000000000E+00 -0.31362113760E+03  0.31362113761E+03  0.25500000920E-02 0. -1.
    10030    2    1    2    0    0  0.00000000000E+00  0.00000000000E+00  0.20654859399E+03  0.83379086921E+03  0.80780250798E+03 0.  0.
        5    1    3    3  502    0  0.27898402818E+03 -0.90284225312E+02 -0.18338489074E+03  0.34588356056E+03  0.46999998093E+01 0. -1.
       -5    1    3    3    0  502 -0.27898402818E+03  0.90284225312E+02  0.38993348473E+03  0.48790730865E+03  0.46999998093E+01 0.  1.
</event>
<event>
 5   0  0.4663634E-02  0.8018477E+03  0.7818609E-02  0.9557347E-01
        2   -1    0    0  501    0  0.00000000000E+00  0.00000000000E+00  0.84447633272E+03  0.84447633273E+03  0.25500000920E-02 0. -1.
       -2   -1    0    0    0  501  0.00000000000E+00  0.00000000000E+00 -0.19034272641E+03  0.19034272643E+03  0.25500000920E-02 0.  1.
    10030    2    1    2    0    0  0.00000000000E+00  0.00000000000E+00  0.65413360631E+03  0.10348190592E+04  0.80184768522E+03 0.  0.
        5    1    3    3  502    0  0.22649261251E+03  0.32385465915E+03  0.24013845685E+03  0.46246006556E+03  0.46999998093E+01 0.  1.
       -5    1    3    3    0  502 -0.22649261251E+03 -0.32385465915E+03  0.41399514946E+03  0.57235899360E+03  0.46999998093E+01 0. -1.
</event>
<event>
 5   0  0.4700220E-02  0.7924927E+03  0.7818609E-02  0.9570948E-01
        2   -1    0    0  501    0  0.00000000000E+00  0.00000000000E+00  0.34392771228E+03  0.34392771229E+03  0.25500000920E-02 0.  1.
       -2   -1    0    0    0  501  0.00000000000E+00  0.00000000000E+00 -0.45652374504E+03  0.45652374505E+03  0.25500000920E-02 0. -1.
    10030    2    1    2    0    0  0.00000000000E+00  0.00000000000E+00 -0.11259603276E+03  0.80045145734E+03  0.79249269332E+03 0.  0.
        4    1    3    3  502    0 -0.30803908122E+01 -0.33210453182E+03  0.16198958632E+03  0.36952015890E+03  0.12699999809E+01 0.  1.
       -4    1    3    3    0  502  0.30803908122E+01  0.33210453182E+03 -0.27458561908E+03  0.43093129843E+03  0.12699999809E+01 0. -1.
</event>
<event>
 5   0  0.2606520E-02  0.7969239E+03  0.7818609E-02  0.9564480E-01
       -1   -1    0    0    0  501  0.00000000000E+00  0.00000000000E+00  0.18347081140E+03  0.18347081147E+03  0.50400001928E-02 0. -1.
        1   -1    0    0  501    0  0.00000000000E+00  0.00000000000E+00 -0.86537977228E+03  0.86537977229E+03  0.50400001928E-02 0.  1.
    10030    2    1    2    0    0  0.00000000000E+00  0.00000000000E+00 -0.68190896087E+03  0.10488505838E+04  0.79692390862E+03 0.  0.
        5    1    3    3  502    0 -0.17075325309E+03  0.35861007736E+03 -0.29950226075E+03  0.49747518050E+03  0.46999998093E+01 0.  1.
       -5    1    3    3    0  502  0.17075325309E+03 -0.35861007736E+03 -0.38240670013E+03  0.55137540326E+03  0.46999998093E+01 0. -1.
</event>
<event>
 5   0  0.4377843E-02  0.8093630E+03  0.7818609E-02  0.9546563E-01
       -2   -1    0    0    0  501  0.00000000000E+00  0.00000000000E+00  0.31553718132E+03  0.31553718133E+03  0.25500000920E-02 0. -1.
        2   -1    0    0  501    0  0.00000000000E+00  0.00000000000E+00 -0.51901054837E+03  0.51901054837E+03  0.25500000920E-02 0.  1.
    10030    2    1    2    0    0  0.00000000000E+00  0.00000000000E+00 -0.20347336705E+03  0.83454772970E+03  0.80936302241E+03 0.  0.
        2    1    3    3  502    0 -0.19265374826E+03 -0.21059579488E+03  0.19407175703E+03  0.34515199901E+03  0.25500000920E-02 0. -1.
       -2    1    3    3    0  502  0.19265374826E+03  0.21059579488E+03 -0.39754512408E+03  0.48939573069E+03  0.25500000920E-02 0.  1.
</event>
<event>
 5   0  0.2769394E-02  0.7828138E+03  0.7818609E-02  0.9585232E-01
       -1   -1    0    0    0  501  0.00000000000E+00  0.00000000000E+00  0.51207550589E+03  0.51207550591E+03  0.50400001928E-02 0.  1.
        1   -1    0    0  501    0  0.00000000000E+00  0.00000000000E+00 -0.29917337800E+03  0.29917337804E+03  0.50400001928E-02 0. -1.
    10030    2    1    2    0    0  0.00000000000E+00  0.00000000000E+00  0.21290212789E+03  0.81124888395E+03  0.78281379373E+03 0.  0.
        2    1    3    3  502    0  0.95238861344E+02 -0.22501634480E+03  0.42333006863E+03  0.48878537534E+03  0.25500000920E-02 0.  1.
       -2    1    3    3    0  502 -0.95238861344E+02  0.22501634480E+03 -0.21042794074E+03  0.32246350861E+03  0.25500000920E-02 0. -1.
</event>
<event>
 5   0  0.4377843E-02  0.8092130E+03  0.7818609E-02  0.9546777E-01
        2   -1    0    0  501    0  0.00000000000E+00  0.00000000000E+00  0.10337437170E+04  0.10337437170E+04  0.25500000920E-02 0. -1.
       -2   -1    0    0    0  501  0.00000000000E+00  0.00000000000E+00 -0.15836266878E+03  0.15836266880E+03  0.25500000920E-02 0.  1.
    10030    2    1    2    0    0  0.00000000000E+00  0.00000000000E+00  0.87538104822E+03  0.11921063858E+04  0.80921298524E+03 0.  0.
        2    1    3    3  502    0  0.75087870353E+02 -0.25389568206E+03 -0.13024648395E+02  0.26508648988E+03  0.25500000920E-02 0.  1.
       -2    1    3    3    0  502 -0.75087870353E+02  0.25389568206E+03  0.88840569662E+03  0.92701989592E+03  0.25500000920E-02 0. -1.
</event>
<event>
 5   0  0.2606520E-02  0.7985120E+03  0.7818609E-02  0.9562173E-01
       -1   -1    0    0    0  501  0.00000000000E+00  0.00000000000E+00  0.58559114074E+03  0.58559114076E+03  0.50400001928E-02 0. -1.
        1   -1    0    0  501    0  0.00000000000E+00  0.00000000000E+00 -0.27221273334E+03  0.27221273338E+03  0.50400001928E-02 0.  1.
    10030    2    1    2    0    0  0.00000000000E+00  0.00000000000E+00  0.31337840741E+03  0.85780387415E+03  0.79851202888E+03 0.  0.
        5    1    3    3  502    0  0.32960033849E+03  0.13697858985E+03 -0.35430224312E+02  0.35871563669E+03  0.46999998093E+01 0.  1.
       -5    1    3    3    0  502 -0.32960033849E+03 -0.13697858985E+03  0.34880863172E+03  0.49908823746E+03  0.46999998093E+01 0. -1.
</event>
<event>
 5   0  0.4700220E-02  0.8075475E+03  0.7818609E-02  0.9549156E-01
        2   -1    0    0  501    0  0.00000000000E+00  0.00000000000E+00  0.91616297236E+03  0.91616297236E+03  0.25500000920E-02 0.  1.
       -2   -1    0    0    0  501  0.00000000000E+00  0.00000000000E+00 -0.17795221444E+03  0.17795221446E+03  0.25500000920E-02 0. -1.
    10030    2    1    2    0    0  0.00000000000E+00  0.00000000000E+00  0.73821075792E+03  0.10941151868E+04  0.80754747162E+03 0.  0.
        4    1    3    3  502    0 -0.26739471156E+03  0.29965819804E+03  0.31264405462E+03  0.50896255777E+03  0.12699999809E+01 0.  1.
       -4    1    3    3    0  502  0.26739471156E+03 -0.29965819804E+03  0.42556670329E+03  0.58515262904E+03  0.12699999809E+01 0. -1.
</event>
<event>
 5   0  0.2635243E-02  0.8115506E+03  0.7818609E-02  0.9543447E-01
       -1   -1    0    0    0  501  0.00000000000E+00  0.00000000000E+00  0.96787698628E+03  0.96787698629E+03  0.50400001928E-02 0.  1.
        1   -1    0    0  501    0  0.00000000000E+00  0.00000000000E+00 -0.17011830756E+03  0.17011830763E+03  0.50400001928E-02 0. -1.
    10030    2    1    2    0    0  0.00000000000E+00  0.00000000000E+00  0.79775867872E+03  0.11379952939E+04  0.81155060195E+03 0.  0.
        1    1    3    3  502    0 -0.34448961280E+03 -0.61805135574E+02  0.11095499205E+03  0.36715661291E+03  0.50400001928E-02 0. -1.
       -1    1    3    3    0  502  0.34448961280E+03  0.61805135574E+02  0.68680368666E+03  0.77083868102E+03  0.50400001928E-02 0.  1.
</event>
<event>
 5   0  0.2606520E-02  0.8000416E+03  0.7818609E-02  0.9559957E-01
        1   -1    0    0  501    0  0.00000000000E+00  0.00000000000E+00  0.53039882514E+03  0.53039882516E+03  0.50400001928E-02 0. -1.
       -1   -1    0    0    0  501  0.00000000000E+00  0.00000000000E+00 -0.30169113392E+03  0.30169113396E+03  0.50400001928E-02 0.  1.
    10030    2    1    2    0    0  0.00000000000E+00  0.00000000000E+00  0.22870769122E+03  0.83208995912E+03  0.80004155645E+03 0.  0.
        5    1    3    3  502    0  0.19971187198E+03 -0.33793222204E+03  0.19432016648E+03  0.43802446918E+03  0.46999998093E+01 0.  1.
       -5    1    3    3    0  502 -0.19971187198E+03  0.33793222204E+03  0.34387524739E+02  0.39406548994E+03  0.46999998093E+01 0. -1.
</event>
<event>
 5   0  0.2689372E-02  0.6621256E+03  0.7818609E-02  0.9784289E-01
       -1   -1    0    0    0  501  0.00000000000E+00  0.00000000000E+00  0.72267649141E+02  0.72267649317E+02  0.50400001928E-02 0.  1.
        1   -1    0    0  501    0  0.00000000000E+00  0.00000000000E+00 -0.15166200035E+04  0.15166200035E+04  0.50400001928E-02 0. -1.
    10030    2    1    2    0    0  0.00000000000E+00  0.00000000000E+00 -0.14443523543E+04  0.15888876528E+04  0.66212555437E+03 0.  0.
        4    1    3    3  502    0 -0.18685536184E+03 -0.12697394258E+02 -0.67082739948E+02  0.19894184318E+03  0.12699999809E+01 0.  1.
       -4    1    3    3    0  502  0.18685536184E+03  0.12697394258E+02 -0.13772696144E+04  0.13899458096E+04  0.12699999809E+01 0. -1.
</event>
<event>
 5   0  0.4377843E-02  0.7973057E+03  0.7818609E-02  0.9563925E-01
        2   -1    0    0  501    0  0.00000000000E+00  0.00000000000E+00  0.10577914676E+04  0.10577914676E+04  0.25500000920E-02 0.  1.
       -2   -1    0    0    0  501  0.00000000000E+00  0.00000000000E+00 -0.15024141225E+03  0.15024141227E+03  0.25500000920E-02 0. -1.
    10030    2    1    2    0    0  0.00000000000E+00  0.00000000000E+00  0.90755005539E+03  0.12080328799E+04  0.79730567281E+03 0.  0.
        2    1    3    3  502    0  0.20418828738E+03 -0.33629242813E+03  0.35630250544E+03  0.53078896871E+03  0.25500000920E-02 0. -1.
       -2    1    3    3    0  502 -0.20418828738E+03  0.33629242813E+03  0.55124754995E+03  0.67724391120E+03  0.25500000920E-02 0.  1.
</event>
<event>
 5   0  0.4590462E-02  0.7629742E+03  0.7818609E-02  0.9615213E-01
        2   -1    0    0  501    0  0.00000000000E+00  0.00000000000E+00  0.19997682936E+03  0.19997682938E+03  0.25500000920E-02 0. -1.
       -2   -1    0    0    0  501  0.00000000000E+00  0.00000000000E+00 -0.72774635485E+03  0.72774635485E+03  0.25500000920E-02 0.  1.
    10030    2    1    2    0    0  0.00000000000E+00  0.00000000000E+00 -0.52776952549E+03  0.92772318423E+03  0.76297420306E+03 0.  0.
        3    1    3    3  502    0 -0.42583587181E+02  0.29200245893E+03  0.30092802883E+02  0.29662161908E+03  0.10100000352E+00 0. -1.
       -3    1    3    3    0  502  0.42583587181E+02 -0.29200245893E+03 -0.55786232837E+03  0.63110156515E+03  0.10100000352E+00 0.  1.
</event>
<event>
 5   0  0.2606520E-02  0.8447279E+03  0.7818609E-02  0.9497440E-01
       -1   -1    0    0    0  501  0.00000000000E+00  0.00000000000E+00  0.70595573307E+03  0.70595573309E+03  0.50400001928E-02 0.  1.
        1   -1    0    0  501    0  0.00000000000E+00  0.00000000000E+00 -0.25269476856E+03  0.25269476861E+03  0.50400001928E-02 0. -1.
    10030    2    1    2    0    0  0.00000000000E+00  0.00000000000E+00  0.45326096451E+03  0.95865050170E+03  0.84472793398E+03 0.  0.
        5    1    3    3  502    0  0.64276807992E+02 -0.32897628339E+03 -0.64948335601E+02  0.34146343783E+03  0.46999998093E+01 0. -1.
       -5    1    3    3    0  502 -0.64276807992E+02  0.32897628339E+03  0.51820930012E+03  0.61718706387E+03  0.46999998093E+01 0.  1.
</event>
<event>
 5   0  0.4663634E-02  0.8185629E+03  0.7818609E-02  0.9533530E-01
       -2   -1    0    0    0  501  0.00000000000E+00  0.00000000000E+00  0.25564247319E+03  0.25564247320E+03  0.25500000920E-02 0.  1.
        2   -1    0    0  501    0  0.00000000000E+00  0.00000000000E+00 -0.65525617768E+03  0.65525617769E+03  0.25500000920E-02 0. -1.
    10030    2    1    2    0    0  0.00000000000E+00  0.00000000000E+00 -0.39961370450E+03  0.91089865089E+03  0.81856291106E+03 0.  0.
        5    1    3    3  502    0  0.26490166839E+03 -0.31187246859E+03 -0.19179087011E+03  0.45193269237E+03  0.46999998093E+01 0.  1.
       -5    1    3    3    0  502 -0.26490166839E+03  0.31187246859E+03 -0.20782283439E+03  0.45896595851E+03  0.46999998093E+01 0. -1.
</event>
<event>
 5   0  0.4663634E-02  0.7969422E+03  0.7818609E-02  0.9564454E-01
       -2   -1    0    0    0  501  0.00000000000E+00  0.00000000000E+00  0.40937761409E+03  0.40937761410E+03  0.25500000920E-02 0. -1.
        2   -1    0    0  501    0  0.00000000000E+00  0.00000000000E+00 -0.38785518262E+03  0.38785518262E+03  0.25500000920E-02 0.  1.
    10030    2    1    2    0    0  0.00000000000E+00  0.00000000000E+00  0.21522431475E+02  0.79723279672E+03  0.79694222947E+03 0.  0.
        5    1    3    3  502    0  0.81146762098E+02 -0.26885271766E+03 -0.27199101807E+03  0.39098310028E+03  0.46999998093E+01 0.  1.
       -5    1    3    3    0  502 -0.81146762098E+02  0.26885271766E+03  0.29351344955E+03  0.40624969644E+03  0.46999998093E+01 0. -1.
</event>
<event>
 5   0  0.4663634E-02  0.7998129E+03  0.7818609E-02  0.9560288E-01
       -2   -1    0    0    0  501  0.00000000000E+00  0.00000000000E+00  0.13497737823E+03  0.13497737826E+03  0.25500000920E-02 0. -1.
        2   -1    0    0  501    0  0.00000000000E+00  0.00000000000E+00 -0.11848295475E+04  0.11848295475E+04  0.25500000920E-02 0.  1.
    10030    2    1    2    0    0  0.00000000000E+00  0.00000000000E+00 -0.10498521693E+04  0.13198069258E+04  0.79981294312E+03 0.  0.
        5    1    3    3  502    0 -0.21337283781E+03 -0.16244170030E+03 -0.10144041774E+04  0.10492631695E+04  0.46999998093E+01 0.  1.
       -5    1    3    3    0  502  0.21337283781E+03  0.16244170030E+03 -0.35447991929E+02  0.27054375624E+03  0.46999998093E+01 0. -1.
</event>
<event>
 5   0  0.2689372E-02  0.8040054E+03  0.7818609E-02  0.9554237E-01
       -1   -1    0    0    0  501  0.00000000000E+00  0.00000000000E+00  0.15347192640E+03  0.15347192648E+03  0.50400001928E-02 0.  1.
        1   -1    0    0  501    0  0.00000000000E+00  0.00000000000E+00 -0.10530016048E+04  0.10530016048E+04  0.50400001928E-02 0. -1.
    10030    2    1    2    0    0  0.00000000000E+00  0.00000000000E+00 -0.89952967840E+03  0.12064735313E+04  0.80400543492E+03 0.  0.
        4    1    3    3  502    0 -0.16421689535E+03  0.20694600693E+03 -0.90444451568E+03  0.94223953077E+03  0.12699999809E+01 0. -1.
       -4    1    3    3    0  502  0.16421689535E+03 -0.20694600693E+03  0.49148372795E+01  0.26423400052E+03  0.12699999809E+01 0.  1.
</event>
<event>
 5   0  0.4700220E-02  0.8368735E+03  0.7818609E-02  0.9508126E-01
        2   -1    0    0  501    0  0.00000000000E+00  0.00000000000E+00  0.41969356238E+03  0.41969356239E+03  0.25500000920E-02 0. -1.
       -2   -1    0    0    0  501  0.00000000000E+00  0.00000000000E+00 -0.41718365667E+03  0.41718365668E+03  0.25500000920E-02 0.  1.
    10030    2    1    2    0    0  0.00000000000E+00  0.00000000000E+00  0.25099057131E+01  0.83687721907E+03  0.83687345529E+03 0.  0.
        4    1    3    3  502    0  0.12160020160E+03  0.31502475241E+03  0.24836024967E+03  0.41917971107E+03  0.12699999809E+01 0.  1.
       -4    1    3    3    0  502 -0.12160020160E+03 -0.31502475241E+03 -0.24585034396E+03  0.41769750799E+03  0.12699999809E+01 0. -1.
</event>
<event>
 5   0  0.2635243E-02  0.8063289E+03  0.7818609E-02  0.9550901E-01
       -1   -1    0    0    0  501  0.00000000000E+00  0.00000000000E+00  0.10013139544E+03  0.10013139556E+03  0.50400001928E-02 0. -1.
        1   -1    0    0  501    0  0.00000000000E+00  0.00000000000E+00 -0.16232826487E+04  0.16232826487E+04  0.50400001928E-02 0.  1.
    10030    2    1    2    0    0  0.00000000000E+00  0.00000000000E+00 -0.15231512533E+04  0.17234140443E+04  0.80632885827E+03 0.  0.
        1    1    3    3  502    0 -0.11199103615E+03  0.28284883699E+03 -0.13270518467E+04  0.13614742232E+04  0.50400001928E-02 0.  1.
       -1    1    3    3    0  502  0.11199103615E+03 -0.28284883699E+03 -0.19609940662E+03  0.36193982106E+03  0.50400001928E-02 0. -1.
</event>
<event>
 5   0  0.1786500E-02  0.8195146E+03  0.7818609E-02  0.9532192E-01
        3   -1    0    0  501    0  0.00000000000E+00  0.00000000000E+00  0.25578282702E+03  0.25578284696E+03  0.10100000352E+00 0. -1.
       -3   -1    0    0    0  501  0.00000000000E+00  0.00000000000E+00 -0.65642030671E+03  0.65642031448E+03  0.10100000352E+00 0.  1.
    10030    2    1    2    0    0  0.00000000000E+00  0.00000000000E+00 -0.40063747969E+03  0.91220316144E+03  0.81951462318E+03 0.  0.
        3    1    3    3  502    0 -0.22566918247E+03  0.27722976839E+03 -0.42326754600E+03  0.55402017120E+03  0.10100000352E+00 0.  1.
       -3    1    3    3    0  502  0.22566918247E+03 -0.27722976839E+03  0.22630066306E+02  0.35818299024E+03  0.10100000352E+00 0. -1.
</event>
<event>
 5   0  0.2635243E-02  0.8112197E+03  0.7818609E-02  0.9543917E-01
        1   -1    0    0  501    0  0.00000000000E+00  0.00000000000E+00  0.43122866176E+03  0.43122866179E+03  0.50400001928E-02 0. -1.
       -1   -1    0    0    0  501  0.00000000000E+00  0.00000000000E+00 -0.38151306417E+03  0.38151306420E+03  0.50400001928E-02 0.  1.
    10030    2    1    2    0    0  0.00000000000E+00  0.00000000000E+00  0.49715597592E+02  0.81274172599E+03  0.81121974367E+03 0.  0.
        1    1    3    3  502    0 -0.25491211333E+03 -0.25562594529E+02  0.33990880481E+03  0.42564260522E+03  0.50400001928E-02 0. -1.
       -1    1    3    3    0  502  0.25491211333E+03  0.25562594529E+02 -0.29019320722E+03  0.38709912077E+03  0.50400001928E-02 0.  1.
</event>
<event>
 5   0  0.2769394E-02  0.7880784E+03  0.7818609E-02  0.9577435E-01
        1   -1    0    0  501    0  0.00000000000E+00  0.00000000000E+00  0.10272209597E+04  0.10272209597E+04  0.50400001928E-02 0.  1.
       -1   -1    0    0    0  501  0.00000000000E+00  0.00000000000E+00 -0.15115239063E+03  0.15115239071E+03  0.50400001928E-02 0. -1.
    10030    2    1    2    0    0  0.00000000000E+00  0.00000000000E+00  0.87606856905E+03  0.11783733504E+04  0.78807843218E+03 0.  0.
        2    1    3    3  502    0  0.26870677199E+03 -0.27992509222E+03  0.33546504055E+03  0.51293097002E+03  0.25500000920E-02 0. -1.
       -2    1    3    3    0  502 -0.26870677199E+03  0.27992509222E+03  0.54060352850E+03  0.66544238038E+03  0.25500000920E-02 0.  1.
</event>
<event>
 5   0  0.4700220E-02  0.8101290E+03  0.7818609E-02  0.9545470E-01
        2   -1    0    0  501    0  0.00000000000E+00  0.00000000000E+00  0.18561934673E+04  0.18561934673E+04  0.25500000920E-02 0. -1.
       -2   -1    0    0    0  501  0.00000000000E+00  0.00000000000E+00 -0.88394478262E+02  0.88394478299E+02  0.25500000920E-02 0.  1.
    10030    2    1    2    0    0  0.00000000000E+00  0.00000000000E+00  0.17677989890E+04  0.19445879456E+04  0.81012900980E+03 0.  0.
        4    1    3    3  502    0 -0.10126919917E+03  0.52861928664E+02  0.18167219375E+04  0.18203104255E+04  0.12699999809E+01 0. -1.
       -4    1    3    3    0  502  0.10126919917E+03 -0.52861928664E+02 -0.48922948476E+02  0.12427752006E+03  0.12699999809E+01 0.  1.
</event>
<event>
 5   0  0.2689372E-02  0.7901002E+03  0.7818609E-02  0.9574458E-01
        1   -1    0    0  501    0  0.00000000000E+00  0.00000000000E+00  0.67751584581E+03  0.67751584583E+03  0.50400001928E-02 0. -1.
       -1   -1    0    0    0  501  0.00000000000E+00  0.00000000000E+00 -0.23034825856E+03  0.23034825862E+03  0.50400001928E-02 0.  1.
    10030    2    1    2    0    0  0.00000000000E+00  0.00000000000E+00  0.44716758725E+03  0.90786410445E+03  0.79010023482E+03 0.  0.
        4    1    3    3  502    0 -0.22200966222E+03 -0.77914465611E+02 -0.14105433238E+03  0.27432989566E+03  0.12699999809E+01 0.  1.
       -4    1    3    3    0  502  0.22200966222E+03  0.77914465611E+02  0.58822191963E+03  0.63353420878E+03  0.12699999809E+01 0. -1.
</event>
<event>
 5   0  0.2759559E-02  0.7677095E+03  0.7818609E-02  0.9607969E-01
       -1   -1    0    0    0  501  0.00000000000E+00  0.00000000000E+00  0.26419045069E+03  0.26419045073E+03  0.50400001928E-02 0.  1.
        1   -1    0    0  501    0  0.00000000000E+00  0.00000000000E+00 -0.55772068007E+03  0.55772068009E+03  0.50400001928E-02 0. -1.
    10030    2    1    2    0    0  0.00000000000E+00  0.00000000000E+00 -0.29353022938E+03  0.82191113083E+03  0.76770952281E+03 0.  0.
        3    1    3    3  502    0 -0.24144363764E+03  0.11358281390E+03  0.14866738824E+03  0.30544735765E+03  0.10100000352E+00 0.  1.
       -3    1    3    3    0  502  0.24144363764E+03 -0.11358281390E+03 -0.44219761762E+03  0.51646377317E+03  0.10100000352E+00 0. -1.
</event>
<event>
 5   0  0.4684283E-02  0.8014053E+03  0.7818609E-02  0.9557985E-01
       -2   -1    0    0    0  501  0.00000000000E+00  0.00000000000E+00  0.40948085604E+03  0.40948085604E+03  0.25500000920E-02 0.  1.
        2   -1    0    0  501    0  0.00000000000E+00  0.00000000000E+00 -0.39211262174E+03  0.39211262175E+03  0.25500000920E-02 0. -1.
    10030    2    1    2    0    0  0.00000000000E+00  0.00000000000E+00  0.17368234292E+02  0.80159347779E+03  0.80140529576E+03 0.  0.
        1    1    3    3  502    0 -0.16482277288E+03  0.20820121906E+03 -0.29146686533E+03  0.39429332697E+03  0.50400001928E-02 0. -1.
       -1    1    3    3    0  502  0.16482277288E+03 -0.20820121906E+03  0.30883509962E+03  0.40730015083E+03  0.50400001928E-02 0.  1.
</event>
<event>
 5   0  0.4663634E-02  0.7999151E+03  0.7818609E-02  0.9560140E-01
       -2   -1    0    0    0  501  0.00000000000E+00  0.00000000000E+00  0.29818765696E+03  0.29818765697E+03  0.25500000920E-02 0. -1.
        2   -1    0    0  501    0  0.00000000000E+00  0.00000000000E+00 -0.53646097723E+03  0.53646097723E+03  0.25500000920E-02 0.  1.
    10030    2    1    2    0    0  0.00000000000E+00  0.00000000000E+00 -0.23827332027E+03  0.83464863420E+03  0.79991510013E+03 0.  0.
        5    1    3    3  502    0 -0.24069691518E+03 -0.30341586011E+03 -0.15067391937E+02  0.38761489321E+03  0.46999998093E+01 0. -1.
       -5    1    3    3    0  502  0.24069691518E+03  0.30341586011E+03 -0.22320592833E+03  0.44703374099E+03  0.46999998093E+01 0.  1.
</event>
<event>
 5   0  0.2689372E-02  0.7929809E+03  0.7818609E-02  0.9570233E-01
        1   -1    0    0  501    0  0.00000000000E+00  0.00000000000E+00  0.38109392705E+03  0.38109392708E+03  0.50400001928E-02 0.  1.
       -1   -1    0    0    0  501  0.00000000000E+00  0.00000000000E+00 -0.41250902553E+03  0.41250902556E+03  0.50400001928E-02 0. -1.
    10030    2    1    2    0    0  0.00000000000E+00  0.00000000000E+00 -0.31415098477E+02  0.79360295264E+03  0.79298091908E+03 0.  0.
        4    1    3    3  502    0  0.22871753406E+03  0.25511031623E+03 -0.21538871579E+03  0.40470593722E+03  0.12699999809E+01 0. -1.
       -4    1    3    3    0  502 -0.22871753406E+03 -0.25511031623E+03  0.18397361731E+03  0.38889701542E+03  0.12699999809E+01 0.  1.
</event>
<event>
 5   0  0.4700220E-02  0.7876034E+03  0.7818609E-02  0.9578136E-01
        2   -1    0    0  501    0  0.00000000000E+00  0.00000000000E+00  0.13950779171E+04  0.13950779171E+04  0.25500000920E-02 0. -1.
       -2   -1    0    0    0  501  0.00000000000E+00  0.00000000000E+00 -0.11116209791E+03  0.11116209794E+03  0.25500000920E-02 0.  1.
    10030    2    1    2    0    0  0.00000000000E+00  0.00000000000E+00  0.12839158192E+04  0.15062400150E+04  0.78760342313E+03 0.  0.
        4    1    3    3  502    0 -0.21098107517E+03 -0.32922791495E+03  0.73113030761E+03  0.82913037194E+03  0.12699999809E+01 0.  1.
       -4    1    3    3    0  502  0.21098107517E+03  0.32922791495E+03  0.55278551156E+03  0.67710964308E+03  0.12699999809E+01 0. -1.
</event>
<event>
 5   0  0.4377843E-02  0.8096487E+03  0.7818609E-02  0.9546155E-01
        2   -1    0    0  501    0  0.00000000000E+00  0.00000000000E+00  0.10505025476E+04  0.10505025476E+04  0.25500000920E-02 0. -1.
       -2   -1    0    0    0  501  0.00000000000E+00  0.00000000000E+00 -0.15600414665E+03  0.15600414667E+03  0.25500000920E-02 0.  1.
    10030    2    1    2    0    0  0.00000000000E+00  0.00000000000E+00  0.89449840099E+03  0.12065066943E+04  0.80964869791E+03 0.  0.
        2    1    3    3  502    0 -0.40308624646E+03  0.36870976466E+02  0.43727931096E+03  0.59586171784E+03  0.25500000920E-02 0. -1.
       -2    1    3    3    0  502  0.40308624646E+03 -0.36870976466E+02  0.45721909003E+03  0.61064497647E+03  0.25500000920E-02 0.  1.
</event>
<event>
 5   0  0.2635243E-02  0.7969394E+03  0.7818609E-02  0.9564458E-01
        1   -1    0    0  501    0  0.00000000000E+00  0.00000000000E+00  0.15362249906E+04  0.15362249906E+04  0.50400001928E-02 0. -1.
       -1   -1    0    0    0  501  0.00000000000E+00  0.00000000000E+00 -0.10335602679E+03  0.10335602692E+03  0.50400001928E-02 0.  1.
    10030    2    1    2    0    0  0.00000000000E+00  0.00000000000E+00  0.14328689638E+04  0.16395810175E+04  0.79693942402E+03 0.  0.
        1    1    3    3  502    0 -0.27390712413E+03 -0.10075434395E+03  0.12745846788E+04  0.13075712806E+04  0.50400001928E-02 0. -1.
       -1    1    3    3    0  502  0.27390712413E+03  0.10075434395E+03  0.15828428496E+03  0.33200973685E+03  0.50400001928E-02 0.  1.
</event>
<event>
 5   0  0.4377843E-02  0.6964702E+03  0.7818609E-02  0.9723288E-01
        2   -1    0    0  501    0  0.00000000000E+00  0.00000000000E+00  0.36500540455E+03  0.36500540456E+03  0.25500000920E-02 0. -1.
       -2   -1    0    0    0  501  0.00000000000E+00  0.00000000000E+00 -0.33223535253E+03  0.33223535254E+03  0.25500000920E-02 0.  1.
    10030    2    1    2    0    0  0.00000000000E+00  0.00000000000E+00  0.32770052026E+02  0.69724075710E+03  0.69647024133E+03 0.  0.
        2    1    3    3  502    0  0.16894379422E+03 -0.12626069000E+03 -0.26102067019E+03  0.33558241569E+03  0.25500000920E-02 0.  1.
       -2    1    3    3    0  502 -0.16894379422E+03  0.12626069000E+03  0.29379072222E+03  0.36165834141E+03  0.25500000920E-02 0. -1.
</event>
<event>
 5   0  0.2769394E-02  0.7286011E+03  0.7818609E-02  0.9669533E-01
        1   -1    0    0  501    0  0.00000000000E+00  0.00000000000E+00  0.13090336522E+04  0.13090336522E+04  0.50400001928E-02 0.  1.
       -1   -1    0    0    0  501  0.00000000000E+00  0.00000000000E+00 -0.10138387759E+03  0.10138387772E+03  0.50400001928E-02 0. -1.
    10030    2    1    2    0    0  0.00000000000E+00  0.00000000000E+00  0.12076497746E+04  0.14104175300E+04  0.72860114647E+03 0.  0.
        2    1    3    3  502    0 -0.11219836930E+03 -0.21024314050E+03  0.11372188770E+04  0.11619197160E+04  0.25500000920E-02 0.  1.
       -2    1    3    3    0  502  0.11219836930E+03  0.21024314050E+03  0.70430897639E+02  0.24849781397E+03  0.25500000920E-02 0. -1.
</event>
<event>
 5   0  0.2689372E-02  0.7829184E+03  0.7818609E-02  0.9585076E-01
       -1   -1    0    0    0  501  0.00000000000E+00  0.00000000000E+00  0.29524111085E+03  0.29524111090E+03  0.50400001928E-02 0. -1.
        1   -1    0    0  501    0  0.00000000000E+00  0.00000000000E+00 -0.51903447857E+03  0.51903447859E+03  0.50400001928E-02 0.  1.
    10030    2    1    2    0    0  0.00000000000E+00  0.00000000000E+00 -0.22379336771E+03  0.81427558949E+03  0.78291842755E+03 0.  0.
        4    1    3    3  502    0 -0.26621825041E+03 -0.25437392131E+03 -0.25011189387E+03  0.44512450062E+03  0.12699999809E+01 0.  1.
       -4    1    3    3    0  502  0.26621825041E+03  0.25437392131E+03  0.26318526161E+02  0.36915108887E+03  0.12699999809E+01 0. -1.
</event>
<event>
 5   0  0.4684283E-02  0.8634939E+03  0.7818609E-02  0.9472403E-01
       -2   -1    0    0    0  501  0.00000000000E+00  0.00000000000E+00  0.16521164487E+03  0.16521164489E+03  0.25500000920E-02 0. -1.
        2   -1    0    0  501    0  0.00000000000E+00  0.00000000000E+00 -0.11282826907E+04  0.11282826907E+04  0.25500000920E-02 0.  1.
    10030    2    1    2    0    0  0.00000000000E+00  0.00000000000E+00 -0.96307104581E+03  0.12934943356E+04  0.86349392407E+03 0.  0.
        1    1    3    3  502    0  0.40296608743E+03  0.13553394658E+03 -0.36889478895E+03  0.56288052341E+03  0.50400001928E-02 0. -1.
       -1    1    3    3    0  502 -0.40296608743E+03 -0.13553394658E+03 -0.59417625686E+03  0.73061381217E+03  0.50400001928E-02 0.  1.
</event>
<event>
 5   0  0.4377843E-02  0.7944580E+03  0.7818609E-02  0.9568074E-01
        2   -1    0    0  501    0  0.00000000000E+00  0.00000000000E+00  0.96852529747E+03  0.96852529747E+03  0.25500000920E-02 0. -1.
       -2   -1    0    0    0  501  0.00000000000E+00  0.00000000000E+00 -0.16291870755E+03  0.16291870757E+03  0.25500000920E-02 0.  1.
    10030    2    1    2    0    0  0.00000000000E+00  0.00000000000E+00  0.80560658992E+03  0.11314440050E+04  0.79445802836E+03 0.  0.
        2    1    3    3  502    0  0.33881755888E+03  0.11329513477E+03  0.15548190639E+03  0.38962513907E+03  0.25500000920E-02 0. -1.
       -2    1    3    3    0  502 -0.33881755888E+03 -0.11329513477E+03  0.65012468353E+03  0.74181886597E+03  0.25500000920E-02 0.  1.
</event>
<event>
 5   0  0.2635243E-02  0.8037803E+03  0.7818609E-02  0.9554561E-01
       -1   -1    0    0    0  501  0.00000000000E+00  0.00000000000E+00  0.51575539397E+03  0.51575539399E+03  0.50400001928E-02 0. -1.
        1   -1    0    0  501    0  0.00000000000E+00  0.00000000000E+00 -0.31316333516E+03  0.31316333520E+03  0.50400001928E-02 0.  1.
    10030    2    1    2    0    0  0.00000000000E+00  0.00000000000E+00  0.20259205881E+03  0.82891872919E+03  0.80378026681E+03 0.  0.
        1    1    3    3  502    0  0.33418017637E+03 -0.22007052109E+03  0.13999640926E+03  0.42391793919E+03  0.50400001928E-02 0. -1.
       -1    1    3    3    0  502 -0.33418017637E+03  0.22007052109E+03  0.62595649549E+02  0.40500079000E+03  0.50400001928E-02 0.  1.
</event>
<event>
 5   0  0.2769394E-02  0.8157204E+03  0.7818609E-02  0.9537537E-01
        1   -1    0    0  501    0  0.00000000000E+00  0.00000000000E+00  0.44931091999E+03  0.44931092002E+03  0.50400001928E-02 0. -1.
       -1   -1    0    0    0  501  0.00000000000E+00  0.00000000000E+00 -0.37023350596E+03  0.37023350599E+03  0.50400001928E-02 0.  1.
    10030    2    1    2    0    0  0.00000000000E+00  0.00000000000E+00  0.79077414031E+02  0.81954442601E+03  0.81572043544E+03 0.  0.
        2    1    3    3  502    0 -0.42374472176E+02 -0.35952035837E+02 -0.36641215241E+03  0.37060222640E+03  0.25500000920E-02 0.  1.
       -2    1    3    3    0  502  0.42374472176E+02  0.35952035837E+02  0.44548956644E+03  0.44894219961E+03  0.25500000920E-02 0. -1.
</event>
<event>
 5   0  0.4684283E-02  0.7865994E+03  0.7818609E-02  0.9579619E-01
       -2   -1    0    0    0  501  0.00000000000E+00  0.00000000000E+00  0.25088574580E+03  0.25088574582E+03  0.25500000920E-02 0.  1.
        2   -1    0    0  501    0  0.00000000000E+00  0.00000000000E+00 -0.61655412098E+03  0.61655412099E+03  0.25500000920E-02 0. -1.
    10030    2    1    2    0    0  0.00000000000E+00  0.00000000000E+00 -0.36566837518E+03  0.86743986680E+03  0.78659936557E+03 0.  0.
        1    1    3    3  502    0  0.17721944933E+03  0.26559833020E+03  0.70408579039E+02  0.32696570808E+03  0.50400001928E-02 0.  1.
       -1    1    3    3    0  502 -0.17721944933E+03 -0.26559833020E+03 -0.43607695422E+03  0.54047415873E+03  0.50400001928E-02 0. -1.
</event>
<event>
 5   0  0.2769394E-02  0.8146704E+03  0.7818609E-02  0.9539022E-01
       -1   -1    0    0    0  501  0.00000000000E+00  0.00000000000E+00  0.52616989144E+03  0.52616989146E+03  0.50400001928E-02 0.  1.
        1   -1    0    0  501    0  0.00000000000E+00  0.00000000000E+00 -0.31533915212E+03  0.31533915216E+03  0.50400001928E-02 0. -1.
    10030    2    1    2    0    0  0.00000000000E+00  0.00000000000E+00  0.21083073932E+03  0.84150904362E+03  0.81467040566E+03 0.  0.
        2    1    3    3  502    0 -0.32251743043E+03  0.11225791327E+03 -0.12394158576E+03  0.36329168544E+03  0.25500000920E-02 0. -1.
       -2    1    3    3    0  502  0.32251743043E+03 -0.11225791327E+03  0.33477232508E+03  0.47821735818E+03  0.25500000920E-02 0.  1.
</event>
<event>
 5   0  0.2759559E-02  0.8112067E+03  0.7818609E-02  0.9543936E-01
       -1   -1    0    0    0  501  0.00000000000E+00  0.00000000000E+00  0.16811330810E+03  0.16811330817E+03  0.50400001928E-02 0. -1.
        1   -1    0    0  501    0  0.00000000000E+00  0.00000000000E+00 -0.97859046033E+03  0.97859046035E+03  0.50400001928E-02 0.  1.
    10030    2    1    2    0    0  0.00000000000E+00  0.00000000000E+00 -0.81047715224E+03  0.11467037685E+04  0.81120670512E+03 0.  0.
        3    1    3    3  502    0 -0.38007987252E+03  0.14146745504E+03 -0.41421441415E+03  0.57969590426E+03  0.10100000352E+00 0. -1.
       -3    1    3    3    0  502  0.38007987252E+03 -0.14146745504E+03 -0.39626273809E+03  0.56700786426E+03  0.10100000352E+00 0.  1.
</event>
<event>
 5   0  0.4700220E-02  0.7805990E+03  0.7818609E-02  0.9588532E-01
       -2   -1    0    0    0  501  0.00000000000E+00  0.00000000000E+00  0.18330210632E+03  0.18330210634E+03  0.25500000920E-02 0. -1.
        2   -1    0    0  501    0  0.00000000000E+00  0.00000000000E+00 -0.83105267386E+03  0.83105267387E+03  0.25500000920E-02 0.  1.
    10030    2    1    2    0    0  0.00000000000E+00  0.00000000000E+00 -0.64775056754E+03  0.10143547802E+04  0.78059901511E+03 0.  0.
        4    1    3    3  502    0  0.33524660046E+03  0.10798930151E+03 -0.54240097756E+03  0.64672436611E+03  0.12699999809E+01 0.  1.
       -4    1    3    3    0  502 -0.33524660046E+03 -0.10798930151E+03 -0.10534958998E+03  0.36763041410E+03  0.12699999809E+01 0. -1.
</event>
<event>
 5   0  0.4700220E-02  0.7587561E+03  0.7818609E-02  0.9621713E-01
        2   -1    0    0  501    0  0.00000000000E+00  0.00000000000E+00  0.34117644575E+03  0.34117644576E+03  0.25500000920E-02 0.  1.
       -2   -1    0    0    0  501  0.00000000000E+00  0.00000000000E+00 -0.42185707672E+03  0.42185707673E+03  0.25500000920E-02 0. -1.
    10030    2    1    2    0    0  0.00000000000E+00  0.00000000000E+00 -0.80680630963E+02  0.76303352249E+03  0.75875608217E+03 0.  0.
        4    1    3    3  502    0  0.33131641470E+03 -0.74883069807E+02  0.12957386078E+03  0.36355060046E+03  0.12699999809E+01 0.  1.
       -4    1    3    3    0  502 -0.33131641470E+03  0.74883069807E+02 -0.21025449174E+03  0.39948292203E+03  0.12699999809E+01 0. -1.
</event>
<event>
 5   0  0.4700220E-02  0.8068913E+03  0.7818609E-02  0.9550095E-01
       -2   -1    0    0    0  501  0.00000000000E+00  0.00000000000E+00  0.15729781321E+03  0.15729781323E+03  0.25500000920E-02 0.  1.
        2   -1    0    0  501    0  0.00000000000E+00  0.00000000000E+00 -0.10347785780E+04  0.10347785780E+04  0.25500000920E-02 0. -1.
    10030    2    1    2    0    0  0.00000000000E+00  0.00000000000E+00 -0.87748076475E+03  0.11920763912E+04  0.80689133712E+03 0.  0.
        4    1    3    3  502    0  0.17781485947E+03  0.26724068400E+03 -0.79980858470E+03  0.86181848002E+03  0.12699999809E+01 0. -1.
       -4    1    3    3    0  502 -0.17781485947E+03 -0.26724068400E+03 -0.77672180049E+02  0.33025791117E+03  0.12699999809E+01 0.  1.
</event>
<event>
 5   0  0.4590462E-02  0.8144413E+03  0.7818609E-02  0.9539346E-01
        2   -1    0    0  501    0  0.00000000000E+00  0.00000000000E+00  0.97642665821E+03  0.97642665822E+03  0.25500000920E-02 0.  1.
       -2   -1    0    0    0  501  0.00000000000E+00  0.00000000000E+00 -0.16983216683E+03  0.16983216685E+03  0.25500000920E-02 0. -1.
    10030    2    1    2    0    0  0.00000000000E+00  0.00000000000E+00  0.80659449138E+03  0.11462588251E+04  0.81444129348E+03 0.  0.
        3    1    3    3  502    0  0.34297503809E+03  0.17666895334E+03  0.21987426197E+03  0.44405911443E+03  0.10100000352E+00 0. -1.
       -3    1    3    3    0  502 -0.34297503809E+03 -0.17666895334E+03  0.58672022941E+03  0.70219971064E+03  0.10100000352E+00 0.  1.
</event>
<event>
 5   0  0.2635243E-02  0.8707246E+03  0.7818609E-02  0.9462936E-01
        1   -1    0    0  501    0  0.00000000000E+00  0.00000000000E+00  0.14981457134E+04  0.14981457134E+04  0.50400001928E-02 0.  1.
       -1   -1    0    0    0  501  0.00000000000E+00  0.00000000000E+00 -0.12651661925E+03  0.12651661935E+03  0.50400001928E-02 0. -1.
    10030    2    1    2    0    0  0.00000000000E+00  0.00000000000E+00  0.13716290941E+04  0.16246623327E+04  0.87072459683E+03 0.  0.
        1    1    3    3  502    0 -0.26836343924E+03  0.32933185755E+03  0.50819429540E+03  0.66237440306E+03  0.50400001928E-02 0. -1.
       -1    1    3    3    0  502  0.26836343924E+03 -0.32933185755E+03  0.86343479873E+03  0.96228792968E+03  0.50400001928E-02 0.  1.
</event>
<event>
 5   0  0.4377843E-02  0.7382063E+03  0.7818609E-02  0.9654037E-01
       -2   -1    0    0    0  501  0.00000000000E+00  0.00000000000E+00  0.11043541690E+03  0.11043541693E+03  0.25500000920E-02 0.  1.
        2   -1    0    0  501    0  0.00000000000E+00  0.00000000000E+00 -0.12336361129E+04  0.12336361129E+04  0.25500000920E-02 0. -1.
    10030    2    1    2    0    0  0.00000000000E+00  0.00000000000E+00 -0.11232006960E+04  0.13440715299E+04  0.73820625426E+03 0.  0.
        2    1    3    3  502    0  0.60140117056E+02  0.35258787872E+03 -0.39570358052E+03  0.53340075885E+03  0.25500000920E-02 0.  1.
       -2    1    3    3    0  502 -0.60140117056E+02 -0.35258787872E+03 -0.72749711550E+03  0.81067077100E+03  0.25500000920E-02 0. -1.
</event>
<event>
 5   0  0.4684283E-02  0.8426144E+03  0.7818609E-02  0.9500304E-01
       -2   -1    0    0    0  501  0.00000000000E+00  0.00000000000E+00  0.12176142206E+03  0.12176142209E+03  0.25500000920E-02 0.  1.
        2   -1    0    0  501    0  0.00000000000E+00  0.00000000000E+00 -0.14577667216E+04  0.14577667216E+04  0.25500000920E-02 0. -1.
    10030    2    1    2    0    0  0.00000000000E+00  0.00000000000E+00 -0.13360052995E+04  0.15795281437E+04  0.84261438175E+03 0.  0.
        1    1    3    3  502    0 -0.21670594499E+03  0.33872793199E+03 -0.90364318611E+03  0.98907486387E+03  0.50400001928E-02 0. -1.
       -1    1    3    3    0  502  0.21670594499E+03 -0.33872793199E+03 -0.43236211342E+03  0.59045327982E+03  0.50400001928E-02 0.  1.
</event>
<event>
 5   0  0.2769394E-02  0.8077339E+03  0.7818609E-02  0.9548890E-01
        1   -1    0    0  501    0  0.00000000000E+00  0.00000000000E+00  0.65145590647E+03  0.65145590649E+03  0.50400001928E-02 0.  1.
       -1   -1    0    0    0  501  0.00000000000E+00  0.00000000000E+00 -0.25037535406E+03  0.25037535411E+03  0.50400001928E-02 0. -1.
    10030    2    1    2    0    0  0.00000000000E+00  0.00000000000E+00  0.40108055241E+03  0.90183126061E+03  0.80773387516E+03 0.  0.
        2    1    3    3  502    0  0.38284955958E+03  0.37966601829E+02  0.33770689879E+03  0.51191913192E+03  0.25500000920E-02 0.  1.
       -2    1    3    3    0  502 -0.38284955958E+03 -0.37966601829E+02  0.63373653615E+02  0.38991212869E+03  0.25500000920E-02 0. -1.
</event>
<event>
 5   0  0.2769394E-02  0.7193699E+03  0.7818609E-02  0.9684669E-01
        1   -1    0    0  501    0  0.00000000000E+00  0.00000000000E+00  0.11947258266E+04  0.11947258266E+04  0.50400001928E-02 0.  1.
       -1   -1    0    0    0  501  0.00000000000E+00  0.00000000000E+00 -0.10828699754E+03  0.10828699766E+03  0.50400001928E-02 0. -1.
    10030    2    1    2    0    0  0.00000000000E+00  0.00000000000E+00  0.10864388291E+04  0.13030128243E+04  0.71936992634E+03 0.  0.
        2    1    3    3  502    0  0.13081752344E+03 -0.31160294471E+03  0.76626741426E+03  0.83748156383E+03  0.25500000920E-02 0.  1.
       -2    1    3    3    0  502 -0.13081752344E+03  0.31160294471E+03  0.32017141482E+03  0.46553126046E+03  0.25500000920E-02 0. -1.
</event>
<event>
 5   0  0.4684283E-02  0.7944487E+03  0.7818609E-02  0.9568087E-01
        2   -1    0    0  501    0  0.00000000000E+00  0.00000000000E+00  0.89335411864E+03  0.89335411865E+03  0.25500000920E-02 0.  1.
       -2   -1    0    0    0  501  0.00000000000E+00  0.00000000000E+00 -0.17662332802E+03  0.17662332804E+03  0.25500000920E-02 0. -1.
    10030    2    1    2    0    0  0.00000000000E+00  0.00000000000E+00  0.71673079062E+03  0.10699774467E+04  0.79444868317E+03 0.  0.
        1    1    3    3  502    0 -0.26358416140E+02  0.39236801155E+03  0.28289847107E+03  0.48443675288E+03  0.50400001928E-02 0.  1.
       -1    1    3    3    0  502  0.26358416140E+02 -0.39236801155E+03  0.43383231955E+03  0.58554069380E+03  0.50400001928E-02 0. -1.
</event>
<event>
 5   0  0.4700220E-02  0.7982573E+03  0.7818609E-02  0.9562543E-01
       -2   -1    0    0    0  501  0.00000000000E+00  0.00000000000E+00  0.30125122005E+03  0.30125122006E+03  0.25500000920E-02 0.  1.
        2   -1    0    0  501    0  0.00000000000E+00  0.00000000000E+00 -0.52880673700E+03  0.52880673700E+03  0.25500000920E-02 0. -1.
    10030    2    1    2    0    0  0.00000000000E+00  0.00000000000E+00 -0.22755551695E+03  0.83005795706E+03  0.79825728859E+03 0.  0.
        4    1    3    3  502    0 -0.16284826873E+03 -0.24976417696E+02  0.26424101921E+03  0.31139734939E+03  0.12699999809E+01 0.  1.
       -4    1    3    3    0  502  0.16284826873E+03  0.24976417696E+02 -0.49179653616E+03  0.51866060767E+03  0.12699999809E+01 0. -1.
</event>
<event>
 5   0  0.4700220E-02  0.7701980E+03  0.7818609E-02  0.9604185E-01
       -2   -1    0    0    0  501  0.00000000000E+00  0.00000000000E+00  0.14473509501E+03  0.14473509503E+03  0.25500000920E-02 0.  1.
        2   -1    0    0  501    0  0.00000000000E+00  0.00000000000E+00 -0.10246392487E+04  0.10246392487E+04  0.25500000920E-02 0. -1.
    10030    2    1    2    0    0  0.00000000000E+00  0.00000000000E+00 -0.87990415372E+03  0.11693743438E+04  0.77019804992E+03 0.  0.
        4    1    3    3  502    0 -0.24024427122E+03 -0.27858518778E+03 -0.26702414303E+03  0.45456630162E+03  0.12699999809E+01 0.  1.
       -4    1    3    3    0  502  0.24024427122E+03  0.27858518778E+03 -0.61288001069E+03  0.71480804214E+03  0.12699999809E+01 0. -1.
</event>
<event>
 5   0  0.2759559E-02  0.7915735E+03  0.7818609E-02  0.9572295E-01
       -1   -1    0    0    0  501  0.00000000000E+00  0.00000000000E+00  0.59381471521E+03  0.59381471523E+03  0.50400001928E-02 0.  1.
        1   -1    0    0  501    0  0.00000000000E+00  0.00000000000E+00 -0.26379803999E+03  0.26379804003E+03  0.50400001928E-02 0. -1.
    10030    2    1    2    0    0  0.00000000000E+00  0.00000000000E+00  0.33001667522E+03  0.85761275526E+03  0.79157351652E+03 0.  0.
        3    1    3    3  502    0 -0.98599633611E+02  0.21340209998E+03  0.50998237261E+03  0.56155531749E+03  0.10100000352E+00 0.  1.
       -3    1    3    3    0  502  0.98599633611E+02 -0.21340209998E+03 -0.17996569739E+03  0.29605743777E+03  0.10100000352E+00 0. -1.
</event>
<event>
 5   0  0.1786500E-02  0.8202478E+03  0.7818609E-02  0.9531163E-01
        3   -1    0    0  501    0  0.00000000000E+00  0.00000000000E+00  0.14957212802E+04  0.14957212836E+04  0.10100000352E+00 0. -1.
       -3   -1    0    0    0  501  0.00000000000E+00  0.00000000000E+00 -0.11245516149E+03  0.11245520684E+03  0.10100000352E+00 0.  1.
    10030    2    1    2    0    0  0.00000000000E+00  0.00000000000E+00  0.13832661187E+04  0.16081764905E+04  0.82024780969E+03 0.  0.
        1    1    3    3  502    0  0.35191251056E+03 -0.19979267470E+03  0.56096113878E+03  0.69169135255E+03  0.50400001928E-02 0.  1.
       -1    1    3    3    0  502 -0.35191251056E+03  0.19979267470E+03  0.82230497997E+03  0.91648513793E+03  0.50400001928E-02 0. -1.
</event>
<event>
 5   0  0.2759559E-02  0.8396362E+03  0.7818609E-02  0.9504353E-01
        1   -1    0    0  501    0  0.00000000000E+00  0.00000000000E+00  0.95722825077E+03  0.95722825078E+03  0.50400001928E-02 0. -1.
       -1   -1    0    0    0  501  0.00000000000E+00  0.00000000000E+00 -0.18412248058E+03  0.18412248065E+03  0.50400001928E-02 0.  1.
    10030    2    1    2    0    0  0.00000000000E+00  0.00000000000E+00  0.77310577019E+03  0.11413507314E+04  0.83963620708E+03 0.  0.
        3    1    3    3  502    0 -0.25386511680E+03  0.16826612758E+03 -0.62145035231E+01  0.30463029638E+03  0.10100000352E+00 0.  1.
       -3    1    3    3    0  502  0.25386511680E+03 -0.16826612758E+03  0.77932027371E+03  0.83672043505E+03  0.10100000352E+00 0. -1.
</event>
<event>
 5   0  0.4377843E-02  0.8162154E+03  0.7818609E-02  0.9536838E-01
        2   -1    0    0  501    0  0.00000000000E+00  0.00000000000E+00  0.62614634826E+03  0.62614634826E+03  0.25500000920E-02 0.  1.
       -2   -1    0    0    0  501  0.00000000000E+00  0.00000000000E+00 -0.26599517728E+03  0.26599517729E+03  0.25500000920E-02 0. -1.
    10030    2    1    2    0    0  0.00000000000E+00  0.00000000000E+00  0.36015117098E+03  0.89214152555E+03  0.81621543459E+03 0.  0.
        2    1    3    3  502    0 -0.30503454821E+03 -0.92637982754E+02  0.45857976134E+03  0.55850091224E+03  0.25500000920E-02 0.  1.
       -2    1    3    3    0  502  0.30503454821E+03  0.92637982754E+02 -0.98428590360E+02  0.33364061332E+03  0.25500000920E-02 0. -1.
</event>
<event>
 5   0  0.2769394E-02  0.7893577E+03  0.7818609E-02  0.9575550E-01
       -1   -1    0    0    0  501  0.00000000000E+00  0.00000000000E+00  0.34015528208E+03  0.34015528212E+03  0.50400001928E-02 0. -1.
        1   -1    0    0  501    0  0.00000000000E+00  0.00000000000E+00 -0.45794201728E+03  0.45794201731E+03  0.50400001928E-02 0.  1.
    10030    2    1    2    0    0  0.00000000000E+00  0.00000000000E+00 -0.11778673521E+03  0.79809729943E+03  0.78935770368E+03 0.  0.
        2    1    3    3  502    0  0.25289048696E+03 -0.29314202458E+03 -0.13646011085E+03  0.41049629332E+03  0.25500000920E-02 0. -1.
       -2    1    3    3    0  502 -0.25289048696E+03  0.29314202458E+03  0.18673375641E+02  0.38760100611E+03  0.25500000920E-02 0.  1.
</event>
<event>
 5   0  0.2769394E-02  0.8232140E+03  0.7818609E-02  0.9527011E-01
       -1   -1    0    0    0  501  0.00000000000E+00  0.00000000000E+00  0.65672489612E+03  0.65672489614E+03  0.50400001928E-02 0.  1.
        1   -1    0    0  501    0  0.00000000000E+00  0.00000000000E+00 -0.25797762272E+03  0.25797762277E+03  0.50400001928E-02 0. -1.
    10030    2    1    2    0    0  0.00000000000E+00  0.00000000000E+00  0.39874727340E+03  0.91470251891E+03  0.82321401230E+03 0.  0.
        2    1    3    3  502    0 -0.68350783063E+02 -0.37630915249E+03  0.30349765289E+02  0.38366849760E+03  0.25500000920E-02 0.  1.
       -2    1    3    3    0  502  0.68350783063E+02  0.37630915249E+03  0.36839750811E+03  0.53103402130E+03  0.25500000920E-02 0. -1.
</event>
<event>
 5   0  0.2635243E-02  0.7972569E+03  0.7818609E-02  0.9563996E-01
        1   -1    0    0  501    0  0.00000000000E+00  0.00000000000E+00  0.32797507390E+03  0.32797507394E+03  0.50400001928E-02 0. -1.
       -1   -1    0    0    0  501  0.00000000000E+00  0.00000000000E+00 -0.48450220125E+03  0.48450220128E+03  0.50400001928E-02 0.  1.
    10030    2    1    2    0    0  0.00000000000E+00  0.00000000000E+00 -0.15652712734E+03  0.81247727522E+03  0.79725691038E+03 0.  0.
        1    1    3    3  502    0  0.20460076460E+03 -0.48081226851E+02  0.26692310643E+03  0.33973698948E+03  0.50400001928E-02 0. -1.
       -1    1    3    3    0  502 -0.20460076460E+03  0.48081226851E+02 -0.42345023378E+03  0.47274028574E+03  0.50400001928E-02 0.  1.
</event>
<event>
 5   0  0.4377843E-02  0.8015979E+03  0.7818609E-02  0.9557707E-01
       -2   -1    0    0    0  501  0.00000000000E+00  0.00000000000E+00  0.66072853386E+02  0.66072853435E+02  0.25500000920E-02 0. -1.
        2   -1    0    0  501    0  0.00000000000E+00  0.00000000000E+00 -0.24312528405E+04  0.24312528405E+04  0.25500000920E-02 0.  1.
    10030    2    1    2    0    0  0.00000000000E+00  0.00000000000E+00 -0.23651799871E+04  0.24973256939E+04  0.80159793547E+03 0.  0.
        2    1    3    3  502    0  0.11556273696E+03 -0.52951891025E+02  0.16076997393E+01  0.12712684076E+03  0.25500000920E-02 0. -1.
       -2    1    3    3    0  502 -0.11556273696E+03  0.52951891025E+02 -0.23667876868E+04  0.23701988532E+04  0.25500000920E-02 0.  1.
</event>
<event>
 5   0  0.4700220E-02  0.7956864E+03  0.7818609E-02  0.9566282E-01
        2   -1    0    0  501    0  0.00000000000E+00  0.00000000000E+00  0.57963883454E+03  0.57963883454E+03  0.25500000920E-02 0.  1.
       -2   -1    0    0    0  501  0.00000000000E+00  0.00000000000E+00 -0.27306524208E+03  0.27306524209E+03  0.25500000920E-02 0. -1.
    10030    2    1    2    0    0  0.00000000000E+00  0.00000000000E+00  0.30657359246E+03  0.85270407663E+03  0.79568641732E+03 0.  0.
        4    1    3    3  502    0  0.29270515844E+03  0.42205817752E+02 -0.13190317440E+03  0.32381738857E+03  0.12699999809E+01 0. -1.
       -4    1    3    3    0  502 -0.29270515844E+03 -0.42205817752E+02  0.43847676686E+03  0.52888668806E+03  0.12699999809E+01 0.  1.
</event>
<event>
 5   0  0.2635243E-02  0.8026270E+03  0.7818609E-02  0.9556222E-01
       -1   -1    0    0    0  501  0.00000000000E+00  0.00000000000E+00  0.23762360671E+03  0.23762360676E+03  0.50400001928E-02 0. -1.
        1   -1    0    0  501    0  0.00000000000E+00  0.00000000000E+00 -0.67776308020E+03  0.67776308022E+03  0.50400001928E-02 0.  1.
    10030    2    1    2    0    0  0.00000000000E+00  0.00000000000E+00 -0.44013947349E+03  0.91538668698E+03  0.80262695604E+03 0.  0.
        1    1    3    3  502    0 -0.22142699420E+03  0.22640463885E+03  0.61063608630E+02  0.32251781125E+03  0.50400001928E-02 0. -1.
       -1    1    3    3    0  502  0.22142699420E+03 -0.22640463885E+03 -0.50120308212E+03  0.59286887573E+03  0.50400001928E-02 0.  1.
</event>
<event>
 5   0  0.4684283E-02  0.8634756E+03  0.7818609E-02  0.9472427E-01
        2   -1    0    0  501    0  0.00000000000E+00  0.00000000000E+00  0.14918018731E+04  0.14918018731E+04  0.25500000920E-02 0. -1.
       -2   -1    0    0    0  501  0.00000000000E+00  0.00000000000E+00 -0.12494790265E+03  0.12494790267E+03  0.25500000920E-02 0.  1.
    10030    2    1    2    0    0  0.00000000000E+00  0.00000000000E+00  0.13668539704E+04  0.16167497758E+04  0.86347557054E+03 0.  0.
        1    1    3    3  502    0  0.43516474942E+02 -0.41420722007E+03  0.89638612825E+03  0.98841762211E+03  0.50400001928E-02 0. -1.
       -1    1    3    3    0  502 -0.43516474942E+02  0.41420722007E+03  0.47046784219E+03  0.62833215365E+03  0.50400001928E-02 0.  1.
</event>
<event>
 5   0  0.2769394E-02  0.7987150E+03  0.7818609E-02  0.9561879E-01
       -1   -1    0    0    0  501  0.00000000000E+00  0.00000000000E+00  0.37267343376E+03  0.37267343380E+03  0.50400001928E-02 0.  1.
        1   -1    0    0  501    0  0.00000000000E+00  0.00000000000E+00 -0.42795223026E+03  0.42795223029E+03  0.50400001928E-02 0. -1.
    10030    2    1    2    0    0  0.00000000000E+00  0.00000000000E+00 -0.55278796491E+02  0.80062566408E+03  0.79871503595E+03 0.  0.
        2    1    3    3  502    0  0.83668131589E+02 -0.27643459539E+03  0.24882824701E+03  0.38122426246E+03  0.25500000920E-02 0.  1.
       -2    1    3    3    0  502 -0.83668131589E+02  0.27643459539E+03 -0.30410704350E+03  0.41940140162E+03  0.25500000920E-02 0. -1.
</event>
<event>
 5   0  0.2635243E-02  0.8136836E+03  0.7818609E-02  0.9540419E-01
        1   -1    0    0  501    0  0.00000000000E+00  0.00000000000E+00  0.76642114221E+03  0.76642114222E+03  0.50400001928E-02 0. -1.
       -1   -1    0    0    0  501  0.00000000000E+00  0.00000000000E+00 -0.21596512778E+03  0.21596512784E+03  0.50400001928E-02 0.  1.
    10030    2    1    2    0    0  0.00000000000E+00  0.00000000000E+00  0.55045601442E+03  0.98238627007E+03  0.81368357474E+03 0.  0.
        1    1    3    3  502    0  0.12405846208E+02 -0.41729217116E+02  0.76360092696E+03  0.76484090389E+03  0.50400001928E-02 0. -1.
       -1    1    3    3    0  502 -0.12405846208E+02  0.41729217116E+02 -0.21314491254E+03  0.21754536618E+03  0.50400001928E-02 0.  1.
</event>
<event>
 5   0  0.2635243E-02  0.5388806E+03  0.7818609E-02  0.1004101E+00
        1   -1    0    0  501    0  0.00000000000E+00  0.00000000000E+00  0.40678224898E+03  0.40678224901E+03  0.50400001928E-02 0. -1.
       -1   -1    0    0    0  501  0.00000000000E+00  0.00000000000E+00 -0.17846916201E+03  0.17846916208E+03  0.50400001928E-02 0.  1.
    10030    2    1    2    0    0  0.00000000000E+00  0.00000000000E+00  0.22831308697E+03  0.58525141110E+03  0.53888064403E+03 0.  0.
        1    1    3    3  502    0 -0.14787918732E+03 -0.16927659650E+03 -0.47206050540E+02  0.22967636230E+03  0.50400001928E-02 0.  1.
       -1    1    3    3    0  502  0.14787918732E+03  0.16927659650E+03  0.27551913751E+03  0.35557504880E+03  0.50400001928E-02 0. -1.
</event>
<event>
 5   0  0.2635243E-02  0.8342320E+03  0.7818609E-02  0.9511748E-01
       -1   -1    0    0    0  501  0.00000000000E+00  0.00000000000E+00  0.10396091013E+04  0.10396091013E+04  0.50400001928E-02 0.  1.
        1   -1    0    0  501    0  0.00000000000E+00  0.00000000000E+00 -0.16735688509E+03  0.16735688517E+03  0.50400001928E-02 0. -1.
    10030    2    1    2    0    0  0.00000000000E+00  0.00000000000E+00  0.87225221617E+03  0.12069659864E+04  0.83423196044E+03 0.  0.
        1    1    3    3  502    0 -0.15035034050E+03  0.31463564647E+03  0.76726590237E+03  0.84279165864E+03  0.50400001928E-02 0.  1.
       -1    1    3    3    0  502  0.15035034050E+03 -0.31463564647E+03  0.10498631380E+03  0.36417432780E+03  0.50400001928E-02 0. -1.
</event>
<event>
 5   0  0.2635243E-02  0.7968999E+03  0.7818609E-02  0.9564515E-01
       -1   -1    0    0    0  501  0.00000000000E+00  0.00000000000E+00  0.18050543324E+03  0.18050543331E+03  0.50400001928E-02 0. -1.
        1   -1    0    0  501    0  0.00000000000E+00  0.00000000000E+00 -0.87954339626E+03  0.87954339627E+03  0.50400001928E-02 0.  1.
    10030    2    1    2    0    0  0.00000000000E+00  0.00000000000E+00 -0.69903796302E+03  0.10600488296E+04  0.79689989796E+03 0.  0.
        1    1    3    3  502    0  0.27824913189E+03 -0.25635146133E+03 -0.18324886781E+03  0.42037935095E+03  0.50400001928E-02 0. -1.
       -1    1    3    3    0  502 -0.27824913189E+03  0.25635146133E+03 -0.51578909521E+03  0.63966947863E+03  0.50400001928E-02 0.  1.
</event>
<event>
 5   0  0.2769394E-02  0.8011438E+03  0.7818609E-02  0.9558363E-01
        1   -1    0    0  501    0  0.00000000000E+00  0.00000000000E+00  0.10457607629E+04  0.10457607629E+04  0.50400001928E-02 0. -1.
       -1   -1    0    0    0  501  0.00000000000E+00  0.00000000000E+00 -0.15343646502E+03  0.15343646511E+03  0.50400001928E-02 0.  1.
    10030    2    1    2    0    0  0.00000000000E+00  0.00000000000E+00  0.89232429788E+03  0.11991972280E+04  0.80114376931E+03 0.  0.
        2    1    3    3  502    0  0.13430538994E+03 -0.10615542115E+02  0.10108307050E+04  0.10197692591E+04  0.25500000920E-02 0. -1.
       -2    1    3    3    0  502 -0.13430538994E+03  0.10615542115E+02 -0.11850640715E+03  0.17942796895E+03  0.25500000920E-02 0.  1.
</event>
<event>
 5   0  0.2689372E-02  0.8136323E+03  0.7818609E-02  0.9540492E-01
       -1   -1    0    0    0  501  0.00000000000E+00  0.00000000000E+00  0.82486313160E+02  0.82486313314E+02  0.50400001928E-02 0.  1.
        1   -1    0    0  501    0  0.00000000000E+00  0.00000000000E+00 -0.20063861022E+04  0.20063861022E+04  0.50400001928E-02 0. -1.
    10030    2    1    2    0    0  0.00000000000E+00  0.00000000000E+00 -0.19238997890E+04  0.20888724155E+04  0.81363233100E+03 0.  0.
        4    1    3    3  502    0 -0.24862829695E+03  0.27620465492E+03 -0.13868642859E+04  0.14357921861E+04  0.12699999809E+01 0. -1.
       -4    1    3    3    0  502  0.24862829695E+03 -0.27620465492E+03 -0.53703550314E+03  0.65308022935E+03  0.12699999809E+01 0.  1.
</event>
<event>
 5   0  0.4377843E-02  0.7101371E+03  0.7818609E-02  0.9700052E-01
        2   -1    0    0  501    0  0.00000000000E+00  0.00000000000E+00  0.13740879615E+04  0.13740879615E+04  0.25500000920E-02 0. -1.
       -2   -1    0    0    0  501  0.00000000000E+00  0.00000000000E+00 -0.91750811273E+02  0.91750811308E+02  0.25500000920E-02 0.  1.
    10030    2    1    2    0    0  0.00000000000E+00  0.00000000000E+00  0.12823371502E+04  0.14658387728E+04  0.71013712832E+03 0.  0.
        2    1    3    3  502    0  0.17302647467E+03 -0.21198828821E+02  0.12796797308E+04  0.12914982636E+04  0.25500000920E-02 0. -1.
       -2    1    3    3    0  502 -0.17302647467E+03  0.21198828821E+02  0.26574193948E+01  0.17434050925E+03  0.25500000920E-02 0.  1.
</event>
<event>
 5   0  0.2769394E-02  0.5864208E+03  0.7818609E-02  0.9933986E-01
        1   -1    0    0  501    0  0.00000000000E+00  0.00000000000E+00  0.15049475244E+03  0.15049475252E+03  0.50400001928E-02 0.  1.
       -1   -1    0    0    0  501  0.00000000000E+00  0.00000000000E+00 -0.57126475580E+03  0.57126475582E+03  0.50400001928E-02 0. -1.
    10030    2    1    2    0    0  0.00000000000E+00  0.00000000000E+00 -0.42077000336E+03  0.72175950834E+03  0.58642083196E+03 0.  0.
        2    1    3    3  502    0 -0.25522869777E+03 -0.24281966292E+02 -0.35279577266E+02  0.25879712253E+03  0.25500000920E-02 0.  1.
       -2    1    3    3    0  502  0.25522869777E+03  0.24281966292E+02 -0.38549042610E+03  0.46296238581E+03  0.25500000920E-02 0. -1.
</event>
<event>
 5   0  0.2606520E-02  0.7963672E+03  0.7818609E-02  0.9565290E-01
        1   -1    0    0  501    0  0.00000000000E+00  0.00000000000E+00  0.28599788299E+03  0.28599788304E+03  0.50400001928E-02 0.  1.
       -1   -1    0    0    0  501  0.00000000000E+00  0.00000000000E+00 -0.55437541642E+03  0.55437541644E+03  0.50400001928E-02 0. -1.
    10030    2    1    2    0    0  0.00000000000E+00  0.00000000000E+00 -0.26837753343E+03  0.84037329948E+03  0.79636724068E+03 0.  0.
        5    1    3    3  502    0  0.24405363095E+03  0.10887592524E+03 -0.44564552610E+03  0.51965196700E+03  0.46999998093E+01 0. -1.
       -5    1    3    3    0  502 -0.24405363095E+03 -0.10887592524E+03  0.17726799267E+03  0.32072133247E+03  0.46999998093E+01 0.  1.
</event>
<event>
 5   0  0.4684283E-02  0.8005667E+03  0.7818609E-02  0.9559197E-01
       -2   -1    0    0    0  501  0.00000000000E+00  0.00000000000E+00  0.40562695969E+03  0.40562695970E+03  0.25500000920E-02 0. -1.
        2   -1    0    0  501    0  0.00000000000E+00  0.00000000000E+00 -0.39501017927E+03  0.39501017927E+03  0.25500000920E-02 0.  1.
    10030    2    1    2    0    0  0.00000000000E+00  0.00000000000E+00  0.10616780423E+02  0.80063713897E+03  0.80056674442E+03 0.  0.
        1    1    3    3  502    0  0.55279731867E+02  0.20161796843E+03 -0.33607353170E+03  0.39579170366E+03  0.50400001928E-02 0.  1.
       -1    1    3    3    0  502 -0.55279731867E+02 -0.20161796843E+03  0.34669031212E+03  0.40484543531E+03  0.50400001928E-02 0. -1.
</event>
<event>
 5   0  0.4684283E-02  0.7997338E+03  0.7818609E-02  0.9560403E-01
       -2   -1    0    0    0  501  0.00000000000E+00  0.00000000000E+00  0.63829829717E+03  0.63829829718E+03  0.25500000920E-02 0.  1.
        2   -1    0    0  501    0  0.00000000000E+00  0.00000000000E+00 -0.25049969039E+03  0.25049969041E+03  0.25500000920E-02 0. -1.
    10030    2    1    2    0    0  0.00000000000E+00  0.00000000000E+00  0.38779860678E+03  0.88879798758E+03  0.79973377027E+03 0.  0.
        1    1    3    3  502    0 -0.79344981804E+02  0.26465303074E+03 -0.12735443993E+03  0.30423018623E+03  0.50400001928E-02 0. -1.
       -1    1    3    3    0  502  0.79344981804E+02 -0.26465303074E+03  0.51515304671E+03  0.58456780135E+03  0.50400001928E-02 0.  1.
</event>
<event>
 5   0  0.4377843E-02  0.7774904E+03  0.7818609E-02  0.9593183E-01
        2   -1    0    0  501    0  0.00000000000E+00  0.00000000000E+00  0.98771662116E+03  0.98771662116E+03  0.25500000920E-02 0. -1.
       -2   -1    0    0    0  501  0.00000000000E+00  0.00000000000E+00 -0.15300220471E+03  0.15300220473E+03  0.25500000920E-02 0.  1.
    10030    2    1    2    0    0  0.00000000000E+00  0.00000000000E+00  0.83471441645E+03  0.11407188259E+04  0.77749037467E+03 0.  0.
        2    1    3    3  502    0 -0.17048511335E+02  0.37577016533E+03  0.27338684719E+03  0.46500993227E+03  0.25500000920E-02 0.  1.
       -2    1    3    3    0  502  0.17048511335E+02 -0.37577016533E+03  0.56132756926E+03  0.67570889362E+03  0.25500000920E-02 0. -1.
</event>
<event>
 5   0  0.4663634E-02  0.7710798E+03  0.7818609E-02  0.9602848E-01
        2   -1    0    0  501    0  0.00000000000E+00  0.00000000000E+00  0.41793214182E+03  0.41793214183E+03  0.25500000920E-02 0.  1.
       -2   -1    0    0    0  501  0.00000000000E+00  0.00000000000E+00 -0.35565822346E+03  0.35565822347E+03  0.25500000920E-02 0. -1.
    10030    2    1    2    0    0  0.00000000000E+00  0.00000000000E+00  0.62273918358E+02  0.77359036530E+03  0.77107977044E+03 0.  0.
        5    1    3    3  502    0  0.27062958828E+02  0.15995230842E+03  0.38199231553E+03  0.41503899074E+03  0.46999998093E+01 0.  1.
       -5    1    3    3    0  502 -0.27062958828E+02 -0.15995230842E+03 -0.31971839718E+03  0.35855137456E+03  0.46999998093E+01 0. -1.
</event>
<event>
 5   0  0.2689372E-02  0.7727141E+03  0.7818609E-02  0.9600374E-01
        1   -1    0    0  501    0  0.00000000000E+00  0.00000000000E+00  0.30994220246E+03  0.30994220250E+03  0.50400001928E-02 0.  1.
       -1   -1    0    0    0  501  0.00000000000E+00  0.00000000000E+00 -0.48161160297E+03  0.48161160300E+03  0.50400001928E-02 0. -1.
    10030    2    1    2    0    0  0.00000000000E+00  0.00000000000E+00 -0.17166940051E+03  0.79155380550E+03  0.77271407644E+03 0.  0.
        4    1    3    3  502    0  0.24800466959E+03  0.98240314599E+02 -0.37213537122E+03  0.45786878357E+03  0.12699999809E+01 0. -1.
       -4    1    3    3    0  502 -0.24800466959E+03 -0.98240314599E+02  0.20046597071E+03  0.33368502194E+03  0.12699999809E+01 0.  1.
</event>
<event>
 5   0  0.4684283E-02  0.8041063E+03  0.7818609E-02  0.9554092E-01
        2   -1    0    0  501    0  0.00000000000E+00  0.00000000000E+00  0.39039904132E+03  0.39039904133E+03  0.25500000920E-02 0.  1.
       -2   -1    0    0    0  501  0.00000000000E+00  0.00000000000E+00 -0.41405519083E+03  0.41405519084E+03  0.25500000920E-02 0. -1.
    10030    2    1    2    0    0  0.00000000000E+00  0.00000000000E+00 -0.23656149508E+02  0.80445423217E+03  0.80410633516E+03 0.  0.
        1    1    3    3  502    0 -0.14068772481E+03 -0.20513967180E+03  0.30417474117E+03  0.39293459259E+03  0.50400001928E-02 0.  1.
       -1    1    3    3    0  502  0.14068772481E+03  0.20513967180E+03 -0.32783089068E+03  0.41151963959E+03  0.50400001928E-02 0. -1.
</event>
<event>
 5   0  0.2635243E-02  0.8594314E+03  0.7818609E-02  0.9477765E-01
        1   -1    0    0  501    0  0.00000000000E+00  0.00000000000E+00  0.58862837777E+03  0.58862837779E+03  0.50400001928E-02 0. -1.
       -1   -1    0    0    0  501  0.00000000000E+00  0.00000000000E+00 -0.31370488057E+03  0.31370488061E+03  0.50400001928E-02 0.  1.
    10030    2    1    2    0    0  0.00000000000E+00  0.00000000000E+00  0.27492349720E+03  0.90233325839E+03  0.85943142827E+03 0.  0.
        1    1    3    3  502    0  0.15126575426E+03 -0.13451204050E+03  0.53543608612E+03  0.57242171500E+03  0.50400001928E-02 0. -1.
       -1    1    3    3    0  502 -0.15126575426E+03  0.13451204050E+03 -0.26051258892E+03  0.32991154340E+03  0.50400001928E-02 0.  1.
</event>
<event>
 5   0  0.1786500E-02  0.8071694E+03  0.7818609E-02  0.9549697E-01
        4   -1    0    0  501    0  0.00000000000E+00  0.00000000000E+00  0.89813292701E+03  0.89813382492E+03  0.12699999809E+01 0. -1.
       -4   -1    0    0    0  501  0.00000000000E+00  0.00000000000E+00 -0.18135146149E+03  0.18135590833E+03  0.12699999809E+01 0.  1.
    10030    2    1    2    0    0  0.00000000000E+00  0.00000000000E+00  0.71678146551E+03  0.10794897333E+04  0.80716938426E+03 0.  0.
        5    1    3    3  502    0  0.75857952927E+02  0.39502730485E+03  0.31490000072E+03  0.51086700916E+03  0.46999998093E+01 0.  1.
       -5    1    3    3    0  502 -0.75857952927E+02 -0.39502730485E+03  0.40188146480E+03  0.56862272409E+03  0.46999998093E+01 0. -1.
</event>
<event>
 5   0  0.2635243E-02  0.8655831E+03  0.7818609E-02  0.9469657E-01
       -1   -1    0    0    0  501  0.00000000000E+00  0.00000000000E+00  0.17974817607E+03  0.17974817614E+03  0.50400001928E-02 0. -1.
        1   -1    0    0  501    0  0.00000000000E+00  0.00000000000E+00 -0.10420607878E+04  0.10420607878E+04  0.50400001928E-02 0.  1.
    10030    2    1    2    0    0  0.00000000000E+00  0.00000000000E+00 -0.86231261172E+03  0.12218089639E+04  0.86558310060E+03 0.  0.
        1    1    3    3  502    0 -0.32652149972E+03 -0.65579877280E+02 -0.82129327196E+03  0.88625033071E+03  0.50400001928E-02 0.  1.
       -1    1    3    3    0  502  0.32652149972E+03  0.65579877280E+02 -0.41019339758E+02  0.33555863324E+03  0.50400001928E-02 0. -1.
</event>
<event>
 5   0  0.2606520E-02  0.8051815E+03  0.7818609E-02  0.9552547E-01
        1   -1    0    0  501    0  0.00000000000E+00  0.00000000000E+00  0.16972975945E+04  0.16972975945E+04  0.50400001928E-02 0. -1.
       -1   -1    0    0    0  501  0.00000000000E+00  0.00000000000E+00 -0.95492562169E+02  0.95492562302E+02  0.50400001928E-02 0.  1.
    10030    2    1    2    0    0  0.00000000000E+00  0.00000000000E+00  0.16018050323E+04  0.17927901568E+04  0.80518146076E+03 0.  0.
        5    1    3    3  502    0 -0.37196898516E+03 -0.10266800072E+03  0.10562845806E+04  0.11245714071E+04  0.46999998093E+01 0. -1.
       -5    1    3    3    0  502  0.37196898516E+03  0.10266800072E+03  0.54552045168E+03  0.66821874973E+03  0.46999998093E+01 0.  1.
</event>
<event>
 5   0  0.2769394E-02  0.8187219E+03  0.7818609E-02  0.9533306E-01
        1   -1    0    0  501    0  0.00000000000E+00  0.00000000000E+00  0.80195623890E+03  0.80195623891E+03  0.50400001928E-02 0. -1.
       -1   -1    0    0    0  501  0.00000000000E+00  0.00000000000E+00 -0.20895950942E+03  0.20895950948E+03  0.50400001928E-02 0.  1.
    10030    2    1    2    0    0  0.00000000000E+00  0.00000000000E+00  0.59299672948E+03  0.10109157484E+04  0.81872188757E+03 0.  0.
        2    1    3    3  502    0  0.22000992769E+03 -0.34506240724E+03  0.28390943050E+03  0.49807328568E+03  0.25500000920E-02 0. -1.
       -2    1    3    3    0  502 -0.22000992769E+03  0.34506240724E+03  0.30908729898E+03  0.51284246272E+03  0.25500000920E-02 0.  1.
</event>
<event>
 5   0  0.4684283E-02  0.8134523E+03  0.7818609E-02  0.9540747E-01
        2   -1    0    0  501    0  0.00000000000E+00  0.00000000000E+00  0.21769105129E+03  0.21769105130E+03  0.25500000920E-02 0.  1.
       -2   -1    0    0    0  501  0.00000000000E+00  0.00000000000E+00 -0.75991257423E+03  0.75991257423E+03  0.25500000920E-02 0. -1.
    10030    2    1    2    0    0  0.00000000000E+00  0.00000000000E+00 -0.54222152294E+03  0.97760362553E+03  0.81345231496E+03 0.  0.
        1    1    3    3  502    0 -0.16129936377E+03 -0.24035358183E+02 -0.71890026059E+03  0.73716535994E+03  0.50400001928E-02 0. -1.
       -1    1    3    3    0  502  0.16129936377E+03  0.24035358183E+02  0.17667873765E+03  0.24043826559E+03  0.50400001928E-02 0.  1.
</event>
<event>
 5   0  0.4590462E-02  0.8196509E+03  0.7818609E-02  0.9532001E-01
        2   -1    0    0  501    0  0.00000000000E+00  0.00000000000E+00  0.24729090806E+03  0.24729090807E+03  0.25500000920E-02 0. -1.
       -2   -1    0    0    0  501  0.00000000000E+00  0.00000000000E+00 -0.67918759763E+03  0.67918759764E+03  0.25500000920E-02 0.  1.
    10030    2    1    2    0    0  0.00000000000E+00  0.00000000000E+00 -0.43189668957E+03  0.92647850571E+03  0.81965094466E+03 0.  0.
        3    1    3    3  502    0  0.31433097088E+03  0.23687674939E+03 -0.34503590568E+03  0.52341602962E+03  0.10100000352E+00 0. -1.
       -3    1    3    3    0  502 -0.31433097088E+03 -0.23687674939E+03 -0.86860783898E+02  0.40306247609E+03  0.10100000352E+00 0.  1.
</event>
<event>
 5   0  0.2635243E-02  0.7784903E+03  0.7818609E-02  0.9591684E-01
       -1   -1    0    0    0  501  0.00000000000E+00  0.00000000000E+00  0.56138282837E+03  0.56138282840E+03  0.50400001928E-02 0. -1.
        1   -1    0    0  501    0  0.00000000000E+00  0.00000000000E+00 -0.26989033008E+03  0.26989033012E+03  0.50400001928E-02 0.  1.
    10030    2    1    2    0    0  0.00000000000E+00  0.00000000000E+00  0.29149249830E+03  0.83127315852E+03  0.77849032590E+03 0.  0.
        1    1    3    3  502    0 -0.28566211562E+03 -0.57744748348E+02 -0.12976826535E+03  0.31902523878E+03  0.50400001928E-02 0.  1.
       -1    1    3    3    0  502  0.28566211562E+03  0.57744748348E+02  0.42126076364E+03  0.51224791974E+03  0.50400001928E-02 0. -1.
</event>
<event>
 5   0  0.2769394E-02  0.7978217E+03  0.7818609E-02  0.9563175E-01
        1   -1    0    0  501    0  0.00000000000E+00  0.00000000000E+00  0.66675300999E+03  0.66675301001E+03  0.50400001928E-02 0.  1.
       -1   -1    0    0    0  501  0.00000000000E+00  0.00000000000E+00 -0.23866388715E+03  0.23866388721E+03  0.50400001928E-02 0. -1.
    10030    2    1    2    0    0  0.00000000000E+00  0.00000000000E+00  0.42808912284E+03  0.90541689722E+03  0.79782169730E+03 0.  0.
        2    1    3    3  502    0  0.29744568994E+03  0.23046790750E+03  0.36434608020E+03  0.52377233701E+03  0.25500000920E-02 0.  1.
       -2    1    3    3    0  502 -0.29744568994E+03 -0.23046790750E+03  0.63743042637E+02  0.38164456021E+03  0.25500000920E-02 0. -1.
</event>
<event>
 5   0  0.1786500E-02  0.8400585E+03  0.7818609E-02  0.9503778E-01
       -3   -1    0    0    0  501  0.00000000000E+00  0.00000000000E+00  0.49965016768E+03  0.49965017788E+03  0.10100000352E+00 0. -1.
        3   -1    0    0  501    0  0.00000000000E+00  0.00000000000E+00 -0.35309617472E+03  0.35309618916E+03  0.10100000352E+00 0.  1.
    10030    2    1    2    0    0  0.00000000000E+00  0.00000000000E+00  0.14655399296E+03  0.85274636705E+03  0.84005850609E+03 0.  0.
        4    1    3    3  502    0  0.26716529872E+03 -0.20915629179E+03 -0.17804941753E+03  0.38317993060E+03  0.12699999809E+01 0.  1.
       -4    1    3    3    0  502 -0.26716529872E+03  0.20915629179E+03  0.32460341049E+03  0.46956643644E+03  0.12699999809E+01 0. -1.
</event>
<event>
 5   0  0.2689372E-02  0.7905036E+03  0.7818609E-02  0.9573865E-01
       -1   -1    0    0    0  501  0.00000000000E+00  0.00000000000E+00  0.46683617687E+03  0.46683617690E+03  0.50400001928E-02 0. -1.
        1   -1    0    0  501    0  0.00000000000E+00  0.00000000000E+00 -0.33464412932E+03  0.33464412936E+03  0.50400001928E-02 0.  1.
    10030    2    1    2    0    0  0.00000000000E+00  0.00000000000E+00  0.13219204756E+03  0.80148030626E+03  0.79050360143E+03 0.  0.
        4    1    3    3  502    0  0.19945244254E+02  0.13339320690E+03 -0.31058784743E+03  0.33861184901E+03  0.12699999809E+01 0.  1.
       -4    1    3    3    0  502 -0.19945244254E+02 -0.13339320690E+03  0.44277989499E+03  0.46286845725E+03  0.12699999809E+01 0. -1.
</event>
<event>
 5   0  0.2769394E-02  0.7868302E+03  0.7818609E-02  0.9579278E-01
       -1   -1    0    0    0  501  0.00000000000E+00  0.00000000000E+00  0.26622133333E+03  0.26622133338E+03  0.50400001928E-02 0. -1.
        1   -1    0    0  501    0  0.00000000000E+00  0.00000000000E+00 -0.58137887195E+03  0.58137887198E+03  0.50400001928E-02 0.  1.
    10030    2    1    2    0    0  0.00000000000E+00  0.00000000000E+00 -0.31515753862E+03  0.84760020535E+03  0.78683024469E+03 0.  0.
        2    1    3    3  502    0  0.12717146910E+03 -0.76008237168E+00  0.24346818615E+03  0.27468148454E+03  0.25500000920E-02 0. -1.
       -2    1    3    3    0  502 -0.12717146910E+03  0.76008237168E+00 -0.55862572477E+03  0.57291872081E+03  0.25500000920E-02 0.  1.
</event>
<event>
 5   0  0.2759559E-02  0.8599769E+03  0.7818609E-02  0.9477043E-01
        1   -1    0    0  501    0  0.00000000000E+00  0.00000000000E+00  0.74597167155E+03  0.74597167156E+03  0.50400001928E-02 0. -1.
       -1   -1    0    0    0  501  0.00000000000E+00  0.00000000000E+00 -0.24785133866E+03  0.24785133871E+03  0.50400001928E-02 0.  1.
    10030    2    1    2    0    0  0.00000000000E+00  0.00000000000E+00  0.49812033288E+03  0.99382301028E+03  0.85997692395E+03 0.  0.
        3    1    3    3  502    0  0.19108647164E+03 -0.86742593505E+02  0.68277409916E+03  0.71429601557E+03  0.10100000352E+00 0. -1.
       -3    1    3    3    0  502 -0.19108647164E+03  0.86742593505E+02 -0.18465376628E+03  0.27952699471E+03  0.10100000352E+00 0.  1.
</event>
<event>
 5   0  0.4684283E-02  0.7972357E+03  0.7818609E-02  0.9564027E-01
       -2   -1    0    0    0  501  0.00000000000E+00  0.00000000000E+00  0.27366898062E+03  0.27366898063E+03  0.25500000920E-02 0.  1.
        2   -1    0    0  501    0  0.00000000000E+00  0.00000000000E+00 -0.58061458667E+03  0.58061458668E+03  0.25500000920E-02 0. -1.
    10030    2    1    2    0    0  0.00000000000E+00  0.00000000000E+00 -0.30694560606E+03  0.85428356730E+03  0.79723572944E+03 0.  0.
        1    1    3    3  502    0 -0.38891687360E+03  0.40851202545E+01 -0.24703132772E+03  0.46075752807E+03  0.50400001928E-02 0. -1.
       -1    1    3    3    0  502  0.38891687360E+03 -0.40851202545E+01 -0.59914278339E+02  0.39352603923E+03  0.50400001928E-02 0.  1.
</event>
<event>
 5   0  0.2606520E-02  0.7935560E+03  0.7818609E-02  0.9569392E-01
        1   -1    0    0  501    0  0.00000000000E+00  0.00000000000E+00  0.15226224432E+04  0.15226224432E+04  0.50400001928E-02 0. -1.
       -1   -1    0    0    0  501  0.00000000000E+00  0.00000000000E+00 -0.10339581944E+03  0.10339581956E+03  0.50400001928E-02 0.  1.
    10030    2    1    2    0    0  0.00000000000E+00  0.00000000000E+00  0.14192266238E+04  0.16260182628E+04  0.79355603535E+03 0.  0.
        5    1    3    3  502    0  0.29059249620E+03  0.12061995053E+03  0.21436907533E+03  0.38074842320E+03  0.46999998093E+01 0.  1.
       -5    1    3    3    0  502 -0.29059249620E+03 -0.12061995053E+03  0.12048575484E+04  0.12452698396E+04  0.46999998093E+01 0. -1.
</event>
<event>
 5   0  0.4377843E-02  0.7625876E+03  0.7818609E-02  0.9615807E-01
        2   -1    0    0  501    0  0.00000000000E+00  0.00000000000E+00  0.10931855111E+04  0.10931855111E+04  0.25500000920E-02 0. -1.
       -2   -1    0    0    0  501  0.00000000000E+00  0.00000000000E+00 -0.13299202690E+03  0.13299202693E+03  0.25500000920E-02 0.  1.
    10030    2    1    2    0    0  0.00000000000E+00  0.00000000000E+00  0.96019348415E+03  0.12261775380E+04  0.76258758687E+03 0.  0.
        2    1    3    3  502    0 -0.24626111357E+03 -0.24645197765E+03  0.23098974591E+03  0.41801839202E+03  0.25500000920E-02 0. -1.
       -2    1    3    3    0  502  0.24626111357E+03  0.24645197765E+03  0.72920373824E+03  0.80815914597E+03  0.25500000920E-02 0.  1.
</event>
<event>
 5   0  0.2769394E-02  0.8154020E+03  0.7818609E-02  0.9537987E-01
       -1   -1    0    0    0  501  0.00000000000E+00  0.00000000000E+00  0.20503615708E+03  0.20503615715E+03  0.50400001928E-02 0. -1.
        1   -1    0    0  501    0  0.00000000000E+00  0.00000000000E+00 -0.81068669722E+03  0.81068669723E+03  0.50400001928E-02 0.  1.
    10030    2    1    2    0    0  0.00000000000E+00  0.00000000000E+00 -0.60565054013E+03  0.10157228544E+04  0.81540195005E+03 0.  0.
        2    1    3    3  502    0 -0.89295237854E+02 -0.65081290714E+02 -0.79167926362E+03  0.79935303237E+03  0.25500000920E-02 0.  1.
       -2    1    3    3    0  502  0.89295237854E+02  0.65081290714E+02  0.18602872349E+03  0.21636982201E+03  0.25500000920E-02 0. -1.
</event>
<event>
 5   0  0.4590462E-02  0.7855321E+03  0.7818609E-02  0.9581198E-01
       -2   -1    0    0    0  501  0.00000000000E+00  0.00000000000E+00  0.28570891318E+03  0.28570891319E+03  0.25500000920E-02 0. -1.
        2   -1    0    0  501    0  0.00000000000E+00  0.00000000000E+00 -0.53993830111E+03  0.53993830112E+03  0.25500000920E-02 0.  1.
    10030    2    1    2    0    0  0.00000000000E+00  0.00000000000E+00 -0.25422938794E+03  0.82564721431E+03  0.78553213862E+03 0.  0.
        3    1    3    3  502    0  0.36003174127E+03  0.12327505628E+03 -0.24963159444E+02  0.38136958945E+03  0.10100000352E+00 0.  1.
       -3    1    3    3    0  502 -0.36003174127E+03 -0.12327505628E+03 -0.22926622849E+03  0.44427762486E+03  0.10100000352E+00 0. -1.
</event>
<event>
 5   0  0.2635243E-02  0.4802749E+03  0.7818609E-02  0.1019060E+00
        1   -1    0    0  501    0  0.00000000000E+00  0.00000000000E+00  0.74801972773E+03  0.74801972775E+03  0.50400001928E-02 0. -1.
       -1   -1    0    0    0  501  0.00000000000E+00  0.00000000000E+00 -0.77091542199E+02  0.77091542363E+02  0.50400001928E-02 0.  1.
    10030    2    1    2    0    0  0.00000000000E+00  0.00000000000E+00  0.67092818553E+03  0.82511127011E+03  0.48027489829E+03 0.  0.
        1    1    3    3  502    0 -0.12788087655E+03  0.19804144764E+03  0.25688449699E+03  0.34865968851E+03  0.50400001928E-02 0. -1.
       -1    1    3    3    0  502  0.12788087655E+03 -0.19804144764E+03  0.41404368854E+03  0.47645158161E+03  0.50400001928E-02 0.  1.
</event>
<event>
 5   0  0.4590462E-02  0.8332925E+03  0.7818609E-02  0.9513040E-01
        2   -1    0    0  501    0  0.00000000000E+00  0.00000000000E+00  0.56599110062E+03  0.56599110062E+03  0.25500000920E-02 0.  1.
       -2   -1    0    0    0  501  0.00000000000E+00  0.00000000000E+00 -0.30670816637E+03  0.30670816638E+03  0.25500000920E-02 0. -1.
    10030    2    1    2    0    0  0.00000000000E+00  0.00000000000E+00  0.25928293425E+03  0.87269926701E+03  0.83329248805E+03 0.  0.
        3    1    3    3  502    0 -0.25991189937E+03  0.16051478589E+03  0.42636842591E+03  0.52450856689E+03  0.10100000352E+00 0.  1.
       -3    1    3    3    0  502  0.25991189937E+03 -0.16051478589E+03 -0.16708549166E+03  0.34819070012E+03  0.10100000352E+00 0. -1.
</event>
<event>
 5   0  0.2759559E-02  0.8054265E+03  0.7818609E-02  0.9552196E-01
       -1   -1    0    0    0  501  0.00000000000E+00  0.00000000000E+00  0.22437976737E+03  0.22437976742E+03  0.50400001928E-02 0. -1.
        1   -1    0    0  501    0  0.00000000000E+00  0.00000000000E+00 -0.72278335217E+03  0.72278335219E+03  0.50400001928E-02 0.  1.
    10030    2    1    2    0    0  0.00000000000E+00  0.00000000000E+00 -0.49840358480E+03  0.94716311961E+03  0.80542649684E+03 0.  0.
        3    1    3    3  502    0 -0.94134915798E+02 -0.28563730244E+03 -0.56415274220E+03  0.63931086152E+03  0.10100000352E+00 0.  1.
       -3    1    3    3    0  502  0.94134915798E+02  0.28563730244E+03  0.65749157400E+02  0.30785225810E+03  0.10100000352E+00 0. -1.
</event>
<event>
 5   0  0.2606520E-02  0.7611824E+03  0.7818609E-02  0.9617969E-01
        1   -1    0    0  501    0  0.00000000000E+00  0.00000000000E+00  0.10397589487E+04  0.10397589487E+04  0.50400001928E-02 0.  1.
       -1   -1    0    0    0  501  0.00000000000E+00  0.00000000000E+00 -0.13931079182E+03  0.13931079191E+03  0.50400001928E-02 0. -1.
    10030    2    1    2    0    0  0.00000000000E+00  0.00000000000E+00  0.90044815688E+03  0.11790697406E+04  0.76118235005E+03 0.  0.
        5    1    3    3  502    0 -0.22373095211E+03 -0.15207910003E+02  0.92650179968E+03  0.95326517521E+03  0.46999998093E+01 0.  1.
       -5    1    3    3    0  502  0.22373095211E+03  0.15207910003E+02 -0.26053642801E+02  0.22580456541E+03  0.46999998093E+01 0. -1.
</event>
<event>
 5   0  0.2759559E-02  0.7985623E+03  0.7818609E-02  0.9562100E-01
        1   -1    0    0  501    0  0.00000000000E+00  0.00000000000E+00  0.45365017705E+03  0.45365017708E+03  0.50400001928E-02 0. -1.
       -1   -1    0    0    0  501  0.00000000000E+00  0.00000000000E+00 -0.35142814830E+03  0.35142814833E+03  0.50400001928E-02 0.  1.
    10030    2    1    2    0    0  0.00000000000E+00  0.00000000000E+00  0.10222202876E+03  0.80507832541E+03  0.79856231246E+03 0.  0.
        3    1    3    3  502    0  0.12104306622E+03  0.61820854540E+01  0.43465686755E+03  0.45123856747E+03  0.10100000352E+00 0. -1.
       -3    1    3    3    0  502 -0.12104306622E+03 -0.61820854540E+01 -0.33243483879E+03  0.35383975795E+03  0.10100000352E+00 0.  1.
</event>
<event>
 5   0  0.4663634E-02  0.7994246E+03  0.7818609E-02  0.9560850E-01
       -2   -1    0    0    0  501  0.00000000000E+00  0.00000000000E+00  0.49906075328E+03  0.49906075328E+03  0.25500000920E-02 0.  1.
        2   -1    0    0  501    0  0.00000000000E+00  0.00000000000E+00 -0.32014122281E+03  0.32014122282E+03  0.25500000920E-02 0. -1.
    10030    2    1    2    0    0  0.00000000000E+00  0.00000000000E+00  0.17891953047E+03  0.81920197610E+03  0.79942459261E+03 0.  0.
        5    1    3    3  502    0 -0.26286000445E+01 -0.57247183439E+01 -0.32006203303E+03  0.32015851843E+03  0.46999998093E+01 0. -1.
       -5    1    3    3    0  502  0.26286000445E+01  0.57247183439E+01  0.49898156350E+03  0.49904345767E+03  0.46999998093E+01 0.  1.
</event>
<event>
 5   0  0.4684283E-02  0.7995447E+03  0.7818609E-02  0.9560676E-01
        2   -1    0    0  501    0  0.00000000000E+00  0.00000000000E+00  0.79485799690E+03  0.79485799690E+03  0.25500000920E-02 0. -1.
       -2   -1    0    0    0  501  0.00000000000E+00  0.00000000000E+00 -0.20106475815E+03  0.20106475817E+03  0.25500000920E-02 0.  1.
    10030    2    1    2    0    0  0.00000000000E+00  0.00000000000E+00  0.59379323875E+03  0.99592275507E+03  0.79954469774E+03 0.  0.
        1    1    3    3  502    0  0.18312327133E+02  0.12600950434E+03  0.76892321638E+03  0.77939505338E+03  0.50400001928E-02 0. -1.
       -1    1    3    3    0  502 -0.18312327133E+02 -0.12600950434E+03 -0.17512997763E+03  0.21652770169E+03  0.50400001928E-02 0.  1.
</event>
<event>
 5   0  0.4684283E-02  0.8041018E+03  0.7818609E-02  0.9554099E-01
       -2   -1    0    0    0  501  0.00000000000E+00  0.00000000000E+00  0.29074583527E+03  0.29074583528E+03  0.25500000920E-02 0. -1.
        2   -1    0    0  501    0  0.00000000000E+00  0.00000000000E+00 -0.55596647904E+03  0.55596647905E+03  0.25500000920E-02 0.  1.
    10030    2    1    2    0    0  0.00000000000E+00  0.00000000000E+00 -0.26522064377E+03  0.84671231433E+03  0.80410183021E+03 0.  0.
        1    1    3    3  502    0 -0.13065904493E+03 -0.13974028518E+03  0.23974656337E+03  0.30672063510E+03  0.50400001928E-02 0. -1.
       -1    1    3    3    0  502  0.13065904493E+03  0.13974028518E+03 -0.50496720714E+03  0.53999167923E+03  0.50400001928E-02 0.  1.
</event>
<event>
 5   0  0.2769394E-02  0.8245414E+03  0.7818609E-02  0.9525158E-01
       -1   -1    0    0    0  501  0.00000000000E+00  0.00000000000E+00  0.27626416260E+03  0.27626416264E+03  0.50400001928E-02 0.  1.
        1   -1    0    0  501    0  0.00000000000E+00  0.00000000000E+00 -0.61523406556E+03  0.61523406558E+03  0.50400001928E-02 0. -1.
    10030    2    1    2    0    0  0.00000000000E+00  0.00000000000E+00 -0.33896990297E+03  0.89149822822E+03  0.82454138514E+03 0.  0.
        2    1    3    3  502    0 -0.15099713764E+03  0.11602807066E+03  0.22586436994E+03  0.29542742319E+03  0.25500000920E-02 0.  1.
       -2    1    3    3    0  502  0.15099713764E+03 -0.11602807066E+03 -0.56483427291E+03  0.59607080504E+03  0.25500000920E-02 0. -1.
</event>
<event>
 5   0  0.1786500E-02  0.8203483E+03  0.7818609E-02  0.9531022E-01
        4   -1    0    0  501    0  0.00000000000E+00  0.00000000000E+00  0.18859403870E+04  0.18859408146E+04  0.12699999809E+01 0.  1.
       -4   -1    0    0    0  501  0.00000000000E+00  0.00000000000E+00 -0.89204028259E+02  0.89213068312E+02  0.12699999809E+01 0. -1.
    10030    2    1    2    0    0  0.00000000000E+00  0.00000000000E+00  0.17967363587E+04  0.19751538829E+04  0.82034829091E+03 0.  0.
        1    1    3    3  502    0  0.25862959027E+03 -0.23682132253E+03  0.38609196339E+03  0.52157512210E+03  0.50400001928E-02 0.  1.
       -1    1    3    3    0  502 -0.25862959027E+03  0.23682132253E+03  0.14106443953E+04  0.14535787608E+04  0.50400001928E-02 0. -1.
</event>
<event>
 5   0  0.4377843E-02  0.7439183E+03  0.7818609E-02  0.9644940E-01
        2   -1    0    0  501    0  0.00000000000E+00  0.00000000000E+00  0.60117196497E+03  0.60117196498E+03  0.25500000920E-02 0.  1.
       -2   -1    0    0    0  501  0.00000000000E+00  0.00000000000E+00 -0.23013983049E+03  0.23013983050E+03  0.25500000920E-02 0. -1.
    10030    2    1    2    0    0  0.00000000000E+00  0.00000000000E+00  0.37103213449E+03  0.83131179548E+03  0.74391831305E+03 0.  0.
        2    1    3    3  502    0  0.32891363407E+03 -0.11916792650E+02 -0.81251223004E+01  0.32922971653E+03  0.25500000920E-02 0. -1.
       -2    1    3    3    0  502 -0.32891363407E+03  0.11916792650E+02  0.37915725679E+03  0.50208207895E+03  0.25500000920E-02 0.  1.
</event>
<event>
 5   0  0.2606520E-02  0.9148095E+03  0.7818609E-02  0.9407256E-01
       -1   -1    0    0    0  501  0.00000000000E+00  0.00000000000E+00  0.32002925079E+03  0.32002925083E+03  0.50400001928E-02 0. -1.
        1   -1    0    0  501    0  0.00000000000E+00  0.00000000000E+00 -0.65374989606E+03  0.65374989608E+03  0.50400001928E-02 0.  1.
    10030    2    1    2    0    0  0.00000000000E+00  0.00000000000E+00 -0.33372064527E+03  0.97377914691E+03  0.91480946534E+03 0.  0.
        5    1    3    3  502    0 -0.41186954942E+03 -0.19752793437E+03 -0.19166909388E+03  0.49539170577E+03  0.46999998093E+01 0.  1.
       -5    1    3    3    0  502  0.41186954942E+03  0.19752793437E+03 -0.14205155139E+03  0.47838744115E+03  0.46999998093E+01 0. -1.
</event>
<event>
 5   0  0.2689372E-02  0.8048483E+03  0.7818609E-02  0.9553026E-01
        1   -1    0    0  501    0  0.00000000000E+00  0.00000000000E+00  0.14280524236E+04  0.14280524236E+04  0.50400001928E-02 0. -1.
       -1   -1    0    0    0  501  0.00000000000E+00  0.00000000000E+00 -0.11340284957E+03  0.11340284968E+03  0.50400001928E-02 0.  1.
    10030    2    1    2    0    0  0.00000000000E+00  0.00000000000E+00  0.13146495740E+04  0.15414552733E+04  0.80484834414E+03 0.  0.
        4    1    3    3  502    0 -0.14640684125E+03  0.19959517710E+03  0.12649947608E+04  0.12889866391E+04  0.12699999809E+01 0. -1.
       -4    1    3    3    0  502  0.14640684125E+03 -0.19959517710E+03  0.49654813184E+02  0.25246863420E+03  0.12699999809E+01 0.  1.
</event>
<event>
 5   0  0.2759559E-02  0.8066057E+03  0.7818609E-02  0.9550505E-01
       -1   -1    0    0    0  501  0.00000000000E+00  0.00000000000E+00  0.15058246084E+03  0.15058246093E+03  0.50400001928E-02 0. -1.
        1   -1    0    0  501    0  0.00000000000E+00  0.00000000000E+00 -0.10801601309E+04  0.10801601309E+04  0.50400001928E-02 0.  1.
    10030    2    1    2    0    0  0.00000000000E+00  0.00000000000E+00 -0.92957767006E+03  0.12307425918E+04  0.80660565501E+03 0.  0.
        3    1    3    3  502    0 -0.93528854057E+02  0.35446495375E+03 -0.72129209889E+03  0.80910775062E+03  0.10100000352E+00 0.  1.
       -3    1    3    3    0  502  0.93528854057E+02 -0.35446495375E+03 -0.20828557117E+03  0.42163484123E+03  0.10100000352E+00 0. -1.
</event>
<event>
 5   0  0.2606520E-02  0.7793094E+03  0.7818609E-02  0.9590458E-01
       -1   -1    0    0    0  501  0.00000000000E+00  0.00000000000E+00  0.44335702709E+03  0.44335702712E+03  0.50400001928E-02 0.  1.
        1   -1    0    0  501    0  0.00000000000E+00  0.00000000000E+00 -0.34245714246E+03  0.34245714250E+03  0.50400001928E-02 0. -1.
    10030    2    1    2    0    0  0.00000000000E+00  0.00000000000E+00  0.10089988463E+03  0.78581416962E+03  0.77930938815E+03 0.  0.
        5    1    3    3  502    0 -0.13287674509E+03  0.32251987659E+03  0.22548858899E+03  0.41538234670E+03  0.46999998093E+01 0.  1.
       -5    1    3    3    0  502  0.13287674509E+03 -0.32251987659E+03 -0.12458870436E+03  0.37043182292E+03  0.46999998093E+01 0. -1.
</event>
<event>
 5   0  0.4377843E-02  0.7596269E+03  0.7818609E-02  0.9620367E-01
       -2   -1    0    0    0  501  0.00000000000E+00  0.00000000000E+00  0.18020273777E+03  0.18020273779E+03  0.25500000920E-02 0.  1.
        2   -1    0    0  501    0  0.00000000000E+00  0.00000000000E+00 -0.80053318664E+03  0.80053318665E+03  0.25500000920E-02 0. -1.
    10030    2    1    2    0    0  0.00000000000E+00  0.00000000000E+00 -0.62033044888E+03  0.98073592443E+03  0.75962693980E+03 0.  0.
        2    1    3    3  502    0  0.28701720149E+03  0.22405818007E+03 -0.44968105870E+03  0.57861385791E+03  0.25500000920E-02 0. -1.
       -2    1    3    3    0  502 -0.28701720149E+03 -0.22405818007E+03 -0.17064939018E+03  0.40212206652E+03  0.25500000920E-02 0.  1.
</event>
<event>
 5   0  0.4377843E-02  0.7716724E+03  0.7818609E-02  0.9601950E-01
        2   -1    0    0  501    0  0.00000000000E+00  0.00000000000E+00  0.50274213962E+03  0.50274213963E+03  0.25500000920E-02 0. -1.
       -2   -1    0    0    0  501  0.00000000000E+00  0.00000000000E+00 -0.29611520185E+03  0.29611520186E+03  0.25500000920E-02 0.  1.
    10030    2    1    2    0    0  0.00000000000E+00  0.00000000000E+00  0.20662693778E+03  0.79885734149E+03  0.77167244388E+03 0.  0.
        2    1    3    3  502    0  0.24933204144E+03 -0.78511430448E+01 -0.20140528022E+03  0.32061221787E+03  0.25500000920E-02 0.  1.
       -2    1    3    3    0  502 -0.24933204144E+03  0.78511430448E+01  0.40803221800E+03  0.47824512362E+03  0.25500000920E-02 0. -1.
</event>
<event>
 5   0  0.2689372E-02  0.7567478E+03  0.7818609E-02  0.9624823E-01
        1   -1    0    0  501    0  0.00000000000E+00  0.00000000000E+00  0.33319395681E+03  0.33319395685E+03  0.50400001928E-02 0. -1.
       -1   -1    0    0    0  501  0.00000000000E+00  0.00000000000E+00 -0.42968010700E+03  0.42968010703E+03  0.50400001928E-02 0.  1.
    10030    2    1    2    0    0  0.00000000000E+00  0.00000000000E+00 -0.96486150187E+02  0.76287406388E+03  0.75674781808E+03 0.  0.
        4    1    3    3  502    0  0.18805426082E+03 -0.32349760107E+03  0.83370352044E+01  0.37428093990E+03  0.12699999809E+01 0. -1.
       -4    1    3    3    0  502 -0.18805426082E+03  0.32349760107E+03 -0.10482318539E+03  0.38859312399E+03  0.12699999809E+01 0.  1.
</event>
<event>
 5   0  0.2635243E-02  0.8084342E+03  0.7818609E-02  0.9547888E-01
       -1   -1    0    0    0  501  0.00000000000E+00  0.00000000000E+00  0.53100362722E+03  0.53100362725E+03  0.50400001928E-02 0.  1.
        1   -1    0    0  501    0  0.00000000000E+00  0.00000000000E+00 -0.30770314116E+03  0.30770314120E+03  0.50400001928E-02 0. -1.
    10030    2    1    2    0    0  0.00000000000E+00  0.00000000000E+00  0.22330048607E+03  0.83870676844E+03  0.80843424987E+03 0.  0.
        1    1    3    3  502    0 -0.19897183490E+03 -0.57725773525E+02 -0.24843379289E+03  0.32348323834E+03  0.50400001928E-02 0. -1.
       -1    1    3    3    0  502  0.19897183490E+03  0.57725773525E+02  0.47173427895E+03  0.51522353011E+03  0.50400001928E-02 0.  1.
</event>
<event>
 5   0  0.2635243E-02  0.7799956E+03  0.7818609E-02  0.9589433E-01
       -1   -1    0    0    0  501  0.00000000000E+00  0.00000000000E+00  0.19142704181E+03  0.19142704188E+03  0.50400001928E-02 0.  1.
        1   -1    0    0  501    0  0.00000000000E+00  0.00000000000E+00 -0.79454966901E+03  0.79454966903E+03  0.50400001928E-02 0. -1.
    10030    2    1    2    0    0  0.00000000000E+00  0.00000000000E+00 -0.60312262720E+03  0.98597671091E+03  0.77999562243E+03 0.  0.
        1    1    3    3  502    0 -0.26611497718E+03 -0.17525324604E+03 -0.17305174670E+02  0.31910868121E+03  0.50400001928E-02 0.  1.
       -1    1    3    3    0  502  0.26611497718E+03  0.17525324604E+03 -0.58581745253E+03  0.66686802970E+03  0.50400001928E-02 0. -1.
</event>
<event>
 5   0  0.1786500E-02  0.7985371E+03  0.7818609E-02  0.9562137E-01
       -3   -1    0    0    0  501  0.00000000000E+00  0.00000000000E+00  0.10125472506E+04  0.10125472557E+04  0.10100000352E+00 0.  1.
        3   -1    0    0  501    0  0.00000000000E+00  0.00000000000E+00 -0.15743990869E+03  0.15743994109E+03  0.10100000352E+00 0. -1.
    10030    2    1    2    0    0  0.00000000000E+00  0.00000000000E+00  0.85510734195E+03  0.11699871968E+04  0.79853708388E+03 0.  0.
        1    1    3    3  502    0  0.19266974578E+03  0.12583331983E+03  0.90560955261E+03  0.93438981005E+03  0.50400001928E-02 0.  1.
       -1    1    3    3    0  502 -0.19266974578E+03 -0.12583331983E+03 -0.50502210666E+02  0.23559738671E+03  0.50400001928E-02 0. -1.
</event>
<event>
 5   0  0.2606520E-02  0.8017153E+03  0.7818609E-02  0.9557538E-01
        1   -1    0    0  501    0  0.00000000000E+00  0.00000000000E+00  0.54541766540E+03  0.54541766543E+03  0.50400001928E-02 0.  1.
       -1   -1    0    0    0  501  0.00000000000E+00  0.00000000000E+00 -0.29461245784E+03  0.29461245788E+03  0.50400001928E-02 0. -1.
    10030    2    1    2    0    0  0.00000000000E+00  0.00000000000E+00  0.25080520756E+03  0.84003012331E+03  0.80171525864E+03 0.  0.
        5    1    3    3  502    0  0.28882518186E+03 -0.15322753503E+02  0.41617167297E+03  0.50682908740E+03  0.46999998093E+01 0.  1.
       -5    1    3    3    0  502 -0.28882518186E+03  0.15322753503E+02 -0.16536646541E+03  0.33320103591E+03  0.46999998093E+01 0. -1.
</event>
<event>
 5   0  0.4684283E-02  0.7916836E+03  0.7818609E-02  0.9572133E-01
        2   -1    0    0  501    0  0.00000000000E+00  0.00000000000E+00  0.13771552554E+04  0.13771552554E+04  0.25500000920E-02 0. -1.
       -2   -1    0    0    0  501  0.00000000000E+00  0.00000000000E+00 -0.11377855798E+03  0.11377855801E+03  0.25500000920E-02 0.  1.
    10030    2    1    2    0    0  0.00000000000E+00  0.00000000000E+00  0.12633766974E+04  0.14909338134E+04  0.79168362141E+03 0.  0.
        1    1    3    3  502    0 -0.10157466555E+03 -0.22054933099E+03  0.42948293548E+02  0.24658462244E+03  0.50400001928E-02 0.  1.
       -1    1    3    3    0  502  0.10157466555E+03  0.22054933099E+03  0.12204284039E+04  0.12443491910E+04  0.50400001928E-02 0. -1.
</event>
<event>
 5   0  0.4590462E-02  0.5480210E+03  0.7818609E-02  0.1001953E+00
        2   -1    0    0  501    0  0.00000000000E+00  0.00000000000E+00  0.34153741560E+03  0.34153741561E+03  0.25500000920E-02 0.  1.
       -2   -1    0    0    0  501  0.00000000000E+00  0.00000000000E+00 -0.21983467570E+03  0.21983467572E+03  0.25500000920E-02 0. -1.
    10030    2    1    2    0    0  0.00000000000E+00  0.00000000000E+00  0.12170273990E+03  0.56137209133E+03  0.54802104706E+03 0.  0.
        3    1    3    3  502    0 -0.10800789631E+02 -0.24436190710E+03  0.18736056034E+03  0.30811262303E+03  0.10100000352E+00 0.  1.
       -3    1    3    3    0  502  0.10800789631E+02  0.24436190710E+03 -0.65657820433E+02  0.25325946830E+03  0.10100000352E+00 0. -1.
</event>
<event>
 5   0  0.4684283E-02  0.8550419E+03  0.7818609E-02  0.9483595E-01
       -2   -1    0    0    0  501  0.00000000000E+00  0.00000000000E+00  0.10544608590E+03  0.10544608593E+03  0.25500000920E-02 0.  1.
        2   -1    0    0  501    0  0.00000000000E+00  0.00000000000E+00 -0.17333423453E+04  0.17333423453E+04  0.25500000920E-02 0. -1.
    10030    2    1    2    0    0  0.00000000000E+00  0.00000000000E+00 -0.16278962594E+04  0.18387884312E+04  0.85504190742E+03 0.  0.
        1    1    3    3  502    0  0.35029704803E+03  0.16089943346E+02 -0.13398700912E+04  0.13849977507E+04  0.50400001928E-02 0. -1.
       -1    1    3    3    0  502 -0.35029704803E+03 -0.16089943346E+02 -0.28802616820E+03  0.45379068052E+03  0.50400001928E-02 0.  1.
</event>
<event>
 5   0  0.1786500E-02  0.8043914E+03  0.7818609E-02  0.9553682E-01
       -3   -1    0    0    0  501  0.00000000000E+00  0.00000000000E+00  0.14164693138E+03  0.14164696739E+03  0.10100000352E+00 0. -1.
        3   -1    0    0  501    0  0.00000000000E+00  0.00000000000E+00 -0.11420040460E+04  0.11420040505E+04  0.10100000352E+00 0.  1.
    10030    2    1    2    0    0  0.00000000000E+00  0.00000000000E+00 -0.10003571146E+04  0.12836510179E+04  0.80439143386E+03 0.  0.
        5    1    3    3  502    0 -0.28801769054E+03 -0.25560055702E+03 -0.31508270448E+03  0.49757917508E+03  0.46999998093E+01 0. -1.
       -5    1    3    3    0  502  0.28801769054E+03  0.25560055702E+03 -0.68527441014E+03  0.78607184277E+03  0.46999998093E+01 0.  1.
</event>
<event>
 5   0  0.4590462E-02  0.7998103E+03  0.7818609E-02  0.9560292E-01
        2   -1    0    0  501    0  0.00000000000E+00  0.00000000000E+00  0.79678377605E+03  0.79678377606E+03  0.25500000920E-02 0.  1.
       -2   -1    0    0    0  501  0.00000000000E+00  0.00000000000E+00 -0.20071205646E+03  0.20071205648E+03  0.25500000920E-02 0. -1.
    10030    2    1    2    0    0  0.00000000000E+00  0.00000000000E+00  0.59607171959E+03  0.99749583253E+03  0.79981025314E+03 0.  0.
        3    1    3    3  502    0  0.12661407528E+03 -0.87510360544E+02 -0.16229313604E+03  0.22366997892E+03  0.10100000352E+00 0. -1.
       -3    1    3    3    0  502 -0.12661407528E+03  0.87510360544E+02  0.75836485563E+03  0.77382585362E+03  0.10100000352E+00 0.  1.
</event>
<event>
 5   0  0.4663634E-02  0.8127677E+03  0.7818609E-02  0.9541718E-01
       -2   -1    0    0    0  501  0.00000000000E+00  0.00000000000E+00  0.48499619382E+03  0.48499619383E+03  0.25500000920E-02 0.  1.
        2   -1    0    0  501    0  0.00000000000E+00  0.00000000000E+00 -0.34051366338E+03  0.34051366339E+03  0.25500000920E-02 0. -1.
    10030    2    1    2    0    0  0.00000000000E+00  0.00000000000E+00  0.14448253044E+03  0.82550985722E+03  0.81276769299E+03 0.  0.
        5    1    3    3  502    0  0.10469196986E+03  0.10290585320E+03 -0.31261302188E+03  0.34539689434E+03  0.46999998093E+01 0. -1.
       -5    1    3    3    0  502 -0.10469196986E+03 -0.10290585320E+03  0.45709555232E+03  0.48011296288E+03  0.46999998093E+01 0.  1.
</event>
<event>
 5   0  0.1786500E-02  0.7847278E+03  0.7818609E-02  0.9582390E-01
        4   -1    0    0  501    0  0.00000000000E+00  0.00000000000E+00  0.11140382047E+04  0.11140389286E+04  0.12699999809E+01 0.  1.
       -4   -1    0    0    0  501  0.00000000000E+00  0.00000000000E+00 -0.13818676818E+03  0.13819260400E+03  0.12699999809E+01 0. -1.
    10030    2    1    2    0    0  0.00000000000E+00  0.00000000000E+00  0.97585143648E+03  0.12522315326E+04  0.78472784138E+03 0.  0.
        1    1    3    3  502    0 -0.34314720763E+03  0.37520707354E+02  0.78557374236E+03  0.85806987728E+03  0.50400001928E-02 0. -1.
       -1    1    3    3    0  502  0.34314720763E+03 -0.37520707354E+02  0.19027769412E+03  0.39416165527E+03  0.50400001928E-02 0.  1.
</event>
<event>
 5   0  0.2635243E-02  0.8020136E+03  0.7818609E-02  0.9557107E-01
       -1   -1    0    0    0  501  0.00000000000E+00  0.00000000000E+00  0.13882519416E+03  0.13882519425E+03  0.50400001928E-02 0. -1.
        1   -1    0    0  501    0  0.00000000000E+00  0.00000000000E+00 -0.11583377016E+04  0.11583377017E+04  0.50400001928E-02 0.  1.
    10030    2    1    2    0    0  0.00000000000E+00  0.00000000000E+00 -0.10195125075E+04  0.12971628959E+04  0.80201360687E+03 0.  0.
        1    1    3    3  502    0  0.32798795786E+03 -0.74945603155E+02 -0.86267757083E+03  0.92596195125E+03  0.50400001928E-02 0.  1.
       -1    1    3    3    0  502 -0.32798795786E+03  0.74945603155E+02 -0.15683493665E+03  0.37120094465E+03  0.50400001928E-02 0. -1.
</event>
<event>
 5   0  0.4684283E-02  0.8025304E+03  0.7818609E-02  0.9556362E-01
        2   -1    0    0  501    0  0.00000000000E+00  0.00000000000E+00  0.14394462055E+04  0.14394462055E+04  0.25500000920E-02 0. -1.
       -2   -1    0    0    0  501  0.00000000000E+00  0.00000000000E+00 -0.11185812520E+03  0.11185812523E+03  0.25500000920E-02 0.  1.
    10030    2    1    2    0    0  0.00000000000E+00  0.00000000000E+00  0.13275880803E+04  0.15513043308E+04  0.80253038298E+03 0.  0.
        1    1    3    3  502    0 -0.22139622842E+02 -0.35536169669E+03  0.10214890640E+04  0.10817633781E+04  0.50400001928E-02 0. -1.
       -1    1    3    3    0  502  0.22139622842E+02  0.35536169669E+03  0.30609901636E+03  0.46954095265E+03  0.50400001928E-02 0.  1.
</event>
<event>
 5   0  0.2759559E-02  0.7907718E+03  0.7818609E-02  0.9573471E-01
        1   -1    0    0  501    0  0.00000000000E+00  0.00000000000E+00  0.55736968864E+03  0.55736968866E+03  0.50400001928E-02 0. -1.
       -1   -1    0    0    0  501  0.00000000000E+00  0.00000000000E+00 -0.28047810533E+03  0.28047810537E+03  0.50400001928E-02 0.  1.
    10030    2    1    2    0    0  0.00000000000E+00  0.00000000000E+00  0.27689158331E+03  0.83784779403E+03  0.79077176041E+03 0.  0.
        3    1    3    3  502    0  0.10593608488E+03 -0.17205443857E+03 -0.22164664154E+03  0.29992070255E+03  0.10100000352E+00 0.  1.
       -3    1    3    3    0  502 -0.10593608488E+03  0.17205443857E+03  0.49853822485E+03  0.53792709148E+03  0.10100000352E+00 0. -1.
</event>
<event>
 5   0  0.2769394E-02  0.7717182E+03  0.7818609E-02  0.9601881E-01
       -1   -1    0    0    0  501  0.00000000000E+00  0.00000000000E+00  0.32785957360E+03  0.32785957364E+03  0.50400001928E-02 0. -1.
        1   -1    0    0  501    0  0.00000000000E+00  0.00000000000E+00 -0.45411895754E+03  0.45411895757E+03  0.50400001928E-02 0.  1.
    10030    2    1    2    0    0  0.00000000000E+00  0.00000000000E+00 -0.12625938394E+03  0.78197853121E+03  0.77171820714E+03 0.  0.
        2    1    3    3  502    0 -0.21495375700E+03 -0.30335917462E+03 -0.16772682150E+03  0.40787766932E+03  0.25500000920E-02 0.  1.
       -2    1    3    3    0  502  0.21495375700E+03  0.30335917462E+03  0.41467437562E+02  0.37410086188E+03  0.25500000920E-02 0. -1.
</event>
<event>
 5   0  0.2689372E-02  0.7956868E+03  0.7818609E-02  0.9566281E-01
       -1   -1    0    0    0  501  0.00000000000E+00  0.00000000000E+00  0.34651354952E+03  0.34651354956E+03  0.50400001928E-02 0. -1.
        1   -1    0    0  501    0  0.00000000000E+00  0.00000000000E+00 -0.45677682454E+03  0.45677682457E+03  0.50400001928E-02 0.  1.
    10030    2    1    2    0    0  0.00000000000E+00  0.00000000000E+00 -0.11026327502E+03  0.80329037413E+03  0.79568676962E+03 0.  0.
        4    1    3    3  502    0 -0.11321133583E+03  0.37738505729E+03  0.54478619077E+00  0.39400278898E+03  0.12699999809E+01 0.  1.
       -4    1    3    3    0  502  0.11321133583E+03 -0.37738505729E+03 -0.11080806121E+03  0.40928758515E+03  0.12699999809E+01 0. -1.
</event>
<event>
 5   0  0.4700220E-02  0.8067910E+03  0.7818609E-02  0.9550239E-01
       -2   -1    0    0    0  501  0.00000000000E+00  0.00000000000E+00  0.17969406265E+03  0.17969406267E+03  0.25500000920E-02 0. -1.
        2   -1    0    0  501    0  0.00000000000E+00  0.00000000000E+00 -0.90558330336E+03  0.90558330337E+03  0.25500000920E-02 0.  1.
    10030    2    1    2    0    0  0.00000000000E+00  0.00000000000E+00 -0.72588924072E+03  0.10852773660E+04  0.80679103332E+03 0.  0.
        4    1    3    3  502    0 -0.11669798212E+03 -0.32862125410E+03 -0.90181896966E+02  0.36020096490E+03  0.12699999809E+01 0. -1.
       -4    1    3    3    0  502  0.11669798212E+03  0.32862125410E+03 -0.63570734375E+03  0.72507640113E+03  0.12699999809E+01 0.  1.
</event>
<event>
 5   0  0.2606520E-02  0.8134811E+03  0.7818609E-02  0.9540706E-01
        1   -1    0    0  501    0  0.00000000000E+00  0.00000000000E+00  0.10779065653E+04  0.10779065653E+04  0.50400001928E-02 0. -1.
       -1   -1    0    0    0  501  0.00000000000E+00  0.00000000000E+00 -0.15348070609E+03  0.15348070618E+03  0.50400001928E-02 0.  1.
    10030    2    1    2    0    0  0.00000000000E+00  0.00000000000E+00  0.92442585923E+03  0.12313872715E+04  0.81348106507E+03 0.  0.
        5    1    3    3  502    0  0.93816458466E+02  0.23367428798E+03 -0.21257368891E+02  0.25274328175E+03  0.46999998093E+01 0.  1.
       -5    1    3    3    0  502 -0.93816458466E+02 -0.23367428798E+03  0.94568322812E+03  0.97864398976E+03  0.46999998093E+01 0. -1.
</event>
<event>
 5   0  0.2606520E-02  0.5078047E+03  0.7818609E-02  0.1011762E+00
        1   -1    0    0  501    0  0.00000000000E+00  0.00000000000E+00  0.54531568650E+03  0.54531568652E+03  0.50400001928E-02 0. -1.
       -1   -1    0    0    0  501  0.00000000000E+00  0.00000000000E+00 -0.11821848917E+03  0.11821848928E+03  0.50400001928E-02 0.  1.
    10030    2    1    2    0    0  0.00000000000E+00  0.00000000000E+00  0.42709719733E+03  0.66353417579E+03  0.50780467355E+03 0.  0.
        5    1    3    3  502    0 -0.69345138597E+02 -0.21761581502E+02  0.53137355562E+03  0.53634155190E+03  0.46999998093E+01 0. -1.
       -5    1    3    3    0  502  0.69345138597E+02  0.21761581502E+02 -0.10427635830E+03  0.12719262390E+03  0.46999998093E+01 0.  1.
</event>
<event>
 5   0  0.2606520E-02  0.7887503E+03  0.7818609E-02  0.9576445E-01
        1   -1    0    0  501    0  0.00000000000E+00  0.00000000000E+00  0.39404576902E+03  0.39404576905E+03  0.50400001928E-02 0. -1.
       -1   -1    0    0    0  501  0.00000000000E+00  0.00000000000E+00 -0.39470482784E+03  0.39470482787E+03  0.50400001928E-02 0.  1.
    10030    2    1    2    0    0  0.00000000000E+00  0.00000000000E+00 -0.65905882169E+00  0.78875059692E+03  0.78875032158E+03 0.  0.
        5    1    3    3  502    0 -0.23188716952E+03  0.11281471312E+03  0.29801745098E+03  0.39412600773E+03  0.46999998093E+01 0. -1.
       -5    1    3    3    0  502  0.23188716952E+03 -0.11281471312E+03 -0.29867650980E+03  0.39462458919E+03  0.46999998093E+01 0.  1.
</event>
<event>
 5   0  0.4663634E-02  0.7977793E+03  0.7818609E-02  0.9563237E-01
        2   -1    0    0  501    0  0.00000000000E+00  0.00000000000E+00  0.13825344671E+04  0.13825344671E+04  0.25500000920E-02 0.  1.
       -2   -1    0    0    0  501  0.00000000000E+00  0.00000000000E+00 -0.11508787529E+03  0.11508787532E+03  0.25500000920E-02 0. -1.
    10030    2    1    2    0    0  0.00000000000E+00  0.00000000000E+00  0.12674465918E+04  0.14976223424E+04  0.79777930371E+03 0.  0.
        5    1    3    3  502    0  0.89899828680E+02  0.38719286156E+03  0.57172968408E+03  0.69634561311E+03  0.46999998093E+01 0.  1.
       -5    1    3    3    0  502 -0.89899828680E+02 -0.38719286156E+03  0.69571690772E+03  0.80127672930E+03  0.46999998093E+01 0. -1.
</event>
<event>
 5   0  0.4684283E-02  0.7780375E+03  0.7818609E-02  0.9592362E-01
        2   -1    0    0  501    0  0.00000000000E+00  0.00000000000E+00  0.16778114060E+04  0.16778114060E+04  0.25500000920E-02 0. -1.
       -2   -1    0    0    0  501  0.00000000000E+00  0.00000000000E+00 -0.90198222416E+02  0.90198222452E+02  0.25500000920E-02 0.  1.
    10030    2    1    2    0    0  0.00000000000E+00  0.00000000000E+00  0.15876131836E+04  0.17680096285E+04  0.77803754770E+03 0.  0.
        1    1    3    3  502    0 -0.38806167059E+02  0.33897966181E+03  0.12184619296E+04  0.12653310253E+04  0.50400001928E-02 0. -1.
       -1    1    3    3    0  502  0.38806167059E+02 -0.33897966181E+03  0.36915125404E+03  0.50267860320E+03  0.50400001928E-02 0.  1.
</event>
<event>
 5   0  0.2769394E-02  0.8252146E+03  0.7818609E-02  0.9524220E-01
        1   -1    0    0  501    0  0.00000000000E+00  0.00000000000E+00  0.49037788952E+03  0.49037788954E+03  0.50400001928E-02 0. -1.
       -1   -1    0    0    0  501  0.00000000000E+00  0.00000000000E+00 -0.34717063049E+03  0.34717063052E+03  0.50400001928E-02 0.  1.
    10030    2    1    2    0    0  0.00000000000E+00  0.00000000000E+00  0.14320725903E+03  0.83754852007E+03  0.82521464143E+03 0.  0.
        2    1    3    3  502    0  0.17111574134E+03  0.24841326413E+03 -0.21412682684E+03  0.36991897047E+03  0.25500000920E-02 0.  1.
       -2    1    3    3    0  502 -0.17111574134E+03 -0.24841326413E+03  0.35733408587E+03  0.46762954960E+03  0.25500000920E-02 0. -1.
</event>
<event>
 5   0  0.1786500E-02  0.8219509E+03  0.7818609E-02  0.9528776E-01
       -4   -1    0    0    0  501  0.00000000000E+00  0.00000000000E+00  0.33111067565E+03  0.33111311123E+03  0.12699999809E+01 0. -1.
        4   -1    0    0  501    0  0.00000000000E+00  0.00000000000E+00 -0.51009877307E+03  0.51010035403E+03  0.12699999809E+01 0.  1.
    10030    2    1    2    0    0  0.00000000000E+00  0.00000000000E+00 -0.17898809742E+03  0.84121346526E+03  0.82195094447E+03 0.  0.
        4    1    3    3  502    0  0.17352539406E+03 -0.24136744286E+02 -0.46996640462E+03  0.50156124170E+03  0.12699999809E+01 0.  1.
       -4    1    3    3    0  502 -0.17352539406E+03  0.24136744286E+02  0.29097830720E+03  0.33965222356E+03  0.12699999809E+01 0. -1.
</event>
<event>
 5   0  0.4684283E-02  0.7703773E+03  0.7818609E-02  0.9603913E-01
       -2   -1    0    0    0  501  0.00000000000E+00  0.00000000000E+00  0.33044687199E+03  0.33044687200E+03  0.25500000920E-02 0. -1.
        2   -1    0    0  501    0  0.00000000000E+00  0.00000000000E+00 -0.44899889101E+03  0.44899889101E+03  0.25500000920E-02 0.  1.
    10030    2    1    2    0    0  0.00000000000E+00  0.00000000000E+00 -0.11855201902E+03  0.77944576301E+03  0.77037725580E+03 0.  0.
        1    1    3    3  502    0 -0.23546705958E+02 -0.37795027758E+03  0.12047921609E+02  0.37887466545E+03  0.50400001928E-02 0. -1.
       -1    1    3    3    0  502  0.23546705958E+02  0.37795027758E+03 -0.13059994063E+03  0.40057109756E+03  0.50400001928E-02 0.  1.
</event>
<event>
 5   0  0.1786500E-02  0.7166105E+03  0.7818609E-02  0.9689240E-01
       -3   -1    0    0    0  501  0.00000000000E+00  0.00000000000E+00  0.68172869041E+03  0.68172869789E+03  0.10100000352E+00 0.  1.
        3   -1    0    0  501    0  0.00000000000E+00  0.00000000000E+00 -0.18831922679E+03  0.18831925387E+03  0.10100000352E+00 0. -1.
    10030    2    1    2    0    0  0.00000000000E+00  0.00000000000E+00  0.49340946362E+03  0.87004795177E+03  0.71661045177E+03 0.  0.
        4    1    3    3  502    0 -0.27705931137E+03  0.21475151403E+03  0.33675371003E+03  0.48609129689E+03  0.12699999809E+01 0. -1.
       -4    1    3    3    0  502  0.27705931137E+03 -0.21475151403E+03  0.15665575359E+03  0.38395665488E+03  0.12699999809E+01 0.  1.
</event>
<event>
 5   0  0.4684283E-02  0.8041200E+03  0.7818609E-02  0.9554073E-01
        2   -1    0    0  501    0  0.00000000000E+00  0.00000000000E+00  0.74923634353E+03  0.74923634353E+03  0.25500000920E-02 0.  1.
       -2   -1    0    0    0  501  0.00000000000E+00  0.00000000000E+00 -0.21575601606E+03  0.21575601608E+03  0.25500000920E-02 0. -1.
    10030    2    1    2    0    0  0.00000000000E+00  0.00000000000E+00  0.53348032747E+03  0.96499235961E+03  0.80412001238E+03 0.  0.
        1    1    3    3  502    0 -0.11899961621E+03  0.25871426582E+03  0.60735069037E+03  0.67079716839E+03  0.50400001928E-02 0.  1.
       -1    1    3    3    0  502  0.11899961621E+03 -0.25871426582E+03 -0.73870362903E+02  0.29419519122E+03  0.50400001928E-02 0. -1.
</event>
<event>
 5   0  0.4590462E-02  0.8135560E+03  0.7818609E-02  0.9540600E-01
        2   -1    0    0  501    0  0.00000000000E+00  0.00000000000E+00  0.76167264828E+03  0.76167264829E+03  0.25500000920E-02 0.  1.
       -2   -1    0    0    0  501  0.00000000000E+00  0.00000000000E+00 -0.21724338218E+03  0.21724338219E+03  0.25500000920E-02 0. -1.
    10030    2    1    2    0    0  0.00000000000E+00  0.00000000000E+00  0.54442926610E+03  0.97891603048E+03  0.81355600233E+03 0.  0.
        3    1    3    3  502    0  0.12502950367E+03  0.22264092492E+02 -0.19277840038E+03  0.23084970967E+03  0.10100000352E+00 0. -1.
       -3    1    3    3    0  502 -0.12502950367E+03 -0.22264092492E+02  0.73720766648E+03  0.74806632081E+03  0.10100000352E+00 0.  1.
</event>
<event>
 5   0  0.2689372E-02  0.7812619E+03  0.7818609E-02  0.9587543E-01
       -1   -1    0    0    0  501  0.00000000000E+00  0.00000000000E+00  0.21211165850E+03  0.21211165856E+03  0.50400001928E-02 0. -1.
        1   -1    0    0  501    0  0.00000000000E+00  0.00000000000E+00 -0.71939723014E+03  0.71939723016E+03  0.50400001928E-02 0.  1.
    10030    2    1    2    0    0  0.00000000000E+00  0.00000000000E+00 -0.50728557164E+03  0.93150888872E+03  0.78126190139E+03 0.  0.
        4    1    3    3  502    0  0.71104720716E+02 -0.35157921777E+03 -0.69211165805E+02  0.36531578948E+03  0.12699999809E+01 0. -1.
       -4    1    3    3    0  502 -0.71104720716E+02  0.35157921777E+03 -0.43807440584E+03  0.56619309924E+03  0.12699999809E+01 0.  1.
</event>
<event>
 5   0  0.2689372E-02  0.7993517E+03  0.7818609E-02  0.9560956E-01
       -1   -1    0    0    0  501  0.00000000000E+00  0.00000000000E+00  0.84012650490E+02  0.84012650642E+02  0.50400001928E-02 0. -1.
        1   -1    0    0  501    0  0.00000000000E+00  0.00000000000E+00 -0.19013895624E+04  0.19013895624E+04  0.50400001928E-02 0.  1.
    10030    2    1    2    0    0  0.00000000000E+00  0.00000000000E+00 -0.18173769119E+04  0.19854022131E+04  0.79935167957E+03 0.  0.
        4    1    3    3  502    0 -0.21302149403E+03 -0.11007372484E+03 -0.11448607107E+03  0.26571235423E+03  0.12699999809E+01 0. -1.
       -4    1    3    3    0  502  0.21302149403E+03  0.11007372484E+03 -0.17028908408E+04  0.17196898588E+04  0.12699999809E+01 0.  1.
</event>
<event>
 5   0  0.2635243E-02  0.8009647E+03  0.7818609E-02  0.9558622E-01
        1   -1    0    0  501    0  0.00000000000E+00  0.00000000000E+00  0.55322611966E+03  0.55322611969E+03  0.50400001928E-02 0. -1.
       -1   -1    0    0    0  501  0.00000000000E+00  0.00000000000E+00 -0.28991056987E+03  0.28991056991E+03  0.50400001928E-02 0.  1.
    10030    2    1    2    0    0  0.00000000000E+00  0.00000000000E+00  0.26331554980E+03  0.84313668960E+03  0.80096466750E+03 0.  0.
        1    1    3    3  502    0 -0.11082204928E+03  0.21718379767E+03  0.46608927897E+03  0.52601287491E+03  0.50400001928E-02 0. -1.
       -1    1    3    3    0  502  0.11082204928E+03 -0.21718379767E+03 -0.20277372917E+03  0.31712381469E+03  0.50400001928E-02 0.  1.
</event>
<event>
 5   0  0.4663634E-02  0.8073091E+03  0.7818609E-02  0.9549497E-01
        2   -1    0    0  501    0  0.00000000000E+00  0.00000000000E+00  0.53527191276E+03  0.53527191276E+03  0.25500000920E-02 0. -1.
       -2   -1    0    0    0  501  0.00000000000E+00  0.00000000000E+00 -0.30440044868E+03  0.30440044870E+03  0.25500000920E-02 0.  1.
    10030    2    1    2    0    0  0.00000000000E+00  0.00000000000E+00  0.23087146407E+03  0.83967236146E+03  0.80730913638E+03 0.  0.
        5    1    3    3  502    0  0.33917935861E+02  0.36371454901E+03 -0.63133196186E+02  0.37073789932E+03  0.46999998093E+01 0.  1.
       -5    1    3    3    0  502 -0.33917935861E+02 -0.36371454901E+03  0.29400466026E+03  0.46893446214E+03  0.46999998093E+01 0. -1.
</event>
<event>
 5   0  0.2635243E-02  0.8101742E+03  0.7818609E-02  0.9545406E-01
       -1   -1    0    0    0  501  0.00000000000E+00  0.00000000000E+00  0.75882536693E+03  0.75882536695E+03  0.50400001928E-02 0. -1.
        1   -1    0    0  501    0  0.00000000000E+00  0.00000000000E+00 -0.21624945859E+03  0.21624945865E+03  0.50400001928E-02 0.  1.
    10030    2    1    2    0    0  0.00000000000E+00  0.00000000000E+00  0.54257590834E+03  0.97507482559E+03  0.81017424002E+03 0.  0.
        1    1    3    3  502    0  0.16614643246E+03  0.44400152262E+02  0.71270819105E+03  0.73316367623E+03  0.50400001928E-02 0. -1.
       -1    1    3    3    0  502 -0.16614643246E+03 -0.44400152262E+02 -0.17013228270E+03  0.24191114936E+03  0.50400001928E-02 0.  1.
</event>
<event>
 5   0  0.1786500E-02  0.7905918E+03  0.7818609E-02  0.9573736E-01
        3   -1    0    0  501    0  0.00000000000E+00  0.00000000000E+00  0.15755186959E+03  0.15755190196E+03  0.10100000352E+00 0.  1.
       -3   -1    0    0    0  501  0.00000000000E+00  0.00000000000E+00 -0.99179286890E+03  0.99179287404E+03  0.10100000352E+00 0. -1.
    10030    2    1    2    0    0  0.00000000000E+00  0.00000000000E+00 -0.83424099931E+03  0.11493447760E+04  0.79059178418E+03 0.  0.
        4    1    3    3  502    0  0.31540528894E+02  0.21154653135E+03  0.66160566370E+02  0.22388741218E+03  0.12699999809E+01 0.  1.
       -4    1    3    3    0  502 -0.31540528894E+02 -0.21154653135E+03 -0.90040156568E+03  0.92545736383E+03  0.12699999809E+01 0. -1.
</event>
<event>
 5   0  0.4663634E-02  0.8092745E+03  0.7818609E-02  0.9546689E-01
       -2   -1    0    0    0  501  0.00000000000E+00  0.00000000000E+00  0.15818803581E+03  0.15818803583E+03  0.25500000920E-02 0. -1.
        2   -1    0    0  501    0  0.00000000000E+00  0.00000000000E+00 -0.10350422732E+04  0.10350422732E+04  0.25500000920E-02 0.  1.
    10030    2    1    2    0    0  0.00000000000E+00  0.00000000000E+00 -0.87685423739E+03  0.11932303090E+04  0.80927450025E+03 0.  0.
        5    1    3    3  502    0  0.13882265908E+03 -0.14920308064E+03  0.76945375900E+02  0.21788981348E+03  0.46999998093E+01 0. -1.
       -5    1    3    3    0  502 -0.13882265908E+03  0.14920308064E+03 -0.95379961329E+03  0.97534049555E+03  0.46999998093E+01 0.  1.
</event>
<event>
 5   0  0.4684283E-02  0.8444677E+03  0.7818609E-02  0.9497792E-01
       -2   -1    0    0    0  501  0.00000000000E+00  0.00000000000E+00  0.99659029709E+02  0.99659029741E+02  0.25500000920E-02 0.  1.
        2   -1    0    0  501    0  0.00000000000E+00  0.00000000000E+00 -0.17889140760E+04  0.17889140760E+04  0.25500000920E-02 0. -1.
    10030    2    1    2    0    0  0.00000000000E+00  0.00000000000E+00 -0.16892550463E+04  0.18885731057E+04  0.84446774024E+03 0.  0.
        1    1    3    3  502    0 -0.34201546754E+03 -0.21427747563E+03 -0.11220863908E+04  0.11924626975E+04  0.50400001928E-02 0.  1.
       -1    1    3    3    0  502  0.34201546754E+03  0.21427747563E+03 -0.56716865549E+03  0.69611040819E+03  0.50400001928E-02 0. -1.
</event>
<event>
 5   0  0.4700220E-02  0.7915555E+03  0.7818609E-02  0.9572321E-01
       -2   -1    0    0    0  501  0.00000000000E+00  0.00000000000E+00  0.50864031290E+03  0.50864031291E+03  0.25500000920E-02 0.  1.
        2   -1    0    0  501    0  0.00000000000E+00  0.00000000000E+00 -0.30795837718E+03  0.30795837719E+03  0.25500000920E-02 0. -1.
    10030    2    1    2    0    0  0.00000000000E+00  0.00000000000E+00  0.20068193573E+03  0.81659869009E+03  0.79155554533E+03 0.  0.
        4    1    3    3  502    0  0.24659288656E+03 -0.30696742179E+03  0.59057625735E+02  0.39815382178E+03  0.12699999809E+01 0.  1.
       -4    1    3    3    0  502 -0.24659288656E+03  0.30696742179E+03  0.14162430999E+03  0.41844486832E+03  0.12699999809E+01 0. -1.
</event>
<event>
 5   0  0.4663634E-02  0.8059405E+03  0.7818609E-02  0.9551458E-01
       -2   -1    0    0    0  501  0.00000000000E+00  0.00000000000E+00  0.18714879278E+03  0.18714879279E+03  0.25500000920E-02 0. -1.
        2   -1    0    0  501    0  0.00000000000E+00  0.00000000000E+00 -0.86767876108E+03  0.86767876108E+03  0.25500000920E-02 0.  1.
    10030    2    1    2    0    0  0.00000000000E+00  0.00000000000E+00 -0.68052996830E+03  0.10548275539E+04  0.80594052551E+03 0.  0.
        5    1    3    3  502    0  0.35110527913E+03 -0.12997670126E+03 -0.53524812964E+03  0.65320862685E+03  0.46999998093E+01 0. -1.
       -5    1    3    3    0  502 -0.35110527913E+03  0.12997670126E+03 -0.14528183866E+03  0.40161892703E+03  0.46999998093E+01 0.  1.
</event>
<event>
 5   0  0.2689372E-02  0.7989813E+03  0.7818609E-02  0.9561493E-01
        1   -1    0    0  501    0  0.00000000000E+00  0.00000000000E+00  0.10089643109E+04  0.10089643109E+04  0.50400001928E-02 0.  1.
       -1   -1    0    0    0  501  0.00000000000E+00  0.00000000000E+00 -0.15817486681E+03  0.15817486689E+03  0.50400001928E-02 0. -1.
    10030    2    1    2    0    0  0.00000000000E+00  0.00000000000E+00  0.85078944410E+03  0.11671391778E+04  0.79898134032E+03 0.  0.
        4    1    3    3  502    0  0.19759114092E+03 -0.22761593038E+03  0.80838742212E+03  0.86275321378E+03  0.12699999809E+01 0.  1.
       -4    1    3    3    0  502 -0.19759114092E+03  0.22761593038E+03  0.42402021974E+02  0.30438596403E+03  0.12699999809E+01 0. -1.
</event>
<event>
 5   0  0.4684283E-02  0.6703890E+03  0.7818609E-02  0.9769255E-01
        2   -1    0    0  501    0  0.00000000000E+00  0.00000000000E+00  0.38100911231E+03  0.38100911232E+03  0.25500000920E-02 0. -1.
       -2   -1    0    0    0  501  0.00000000000E+00  0.00000000000E+00 -0.29488890414E+03  0.29488890415E+03  0.25500000920E-02 0.  1.
    10030    2    1    2    0    0  0.00000000000E+00  0.00000000000E+00  0.86120208168E+02  0.67589801647E+03  0.67038902021E+03 0.  0.
        1    1    3    3  502    0  0.23870094461E+03 -0.16266369486E+03 -0.12838948993E+03  0.31610359019E+03  0.50400001928E-02 0.  1.
       -1    1    3    3    0  502 -0.23870094461E+03  0.16266369486E+03  0.21450969810E+03  0.35979442628E+03  0.50400001928E-02 0. -1.
</event>
<event>
 5   0  0.2689372E-02  0.8257577E+03  0.7818609E-02  0.9523464E-01
        1   -1    0    0  501    0  0.00000000000E+00  0.00000000000E+00  0.14450278301E+04  0.14450278301E+04  0.50400001928E-02 0. -1.
       -1   -1    0    0    0  501  0.00000000000E+00  0.00000000000E+00 -0.11796931588E+03  0.11796931599E+03  0.50400001928E-02 0.  1.
    10030    2    1    2    0    0  0.00000000000E+00  0.00000000000E+00  0.13270585142E+04  0.15629971461E+04  0.82575769966E+03 0.  0.
        4    1    3    3  502    0  0.36226160629E+03 -0.67472817289E+02  0.10160243759E+04  0.10807836036E+04  0.12699999809E+01 0. -1.
       -4    1    3    3    0  502 -0.36226160629E+03  0.67472817289E+02  0.31103413827E+03  0.48221354246E+03  0.12699999809E+01 0.  1.
</event>
<event>
 5   0  0.2769394E-02  0.7720392E+03  0.7818609E-02  0.9601395E-01
        1   -1    0    0  501    0  0.00000000000E+00  0.00000000000E+00  0.50568837062E+03  0.50568837065E+03  0.50400001928E-02 0.  1.
       -1   -1    0    0    0  501  0.00000000000E+00  0.00000000000E+00 -0.29466988082E+03  0.29466988087E+03  0.50400001928E-02 0. -1.
    10030    2    1    2    0    0  0.00000000000E+00  0.00000000000E+00  0.21101848980E+03  0.80035825151E+03  0.77203920090E+03 0.  0.
        2    1    3    3  502    0  0.35743724613E+03 -0.34858409731E+02  0.25224495805E+03  0.43886673662E+03  0.25500000920E-02 0.  1.
       -2    1    3    3    0  502 -0.35743724613E+03  0.34858409731E+02 -0.41226468253E+02  0.36149151489E+03  0.25500000920E-02 0. -1.
</event>
<event>
 5   0  0.1786500E-02  0.7781705E+03  0.7818609E-02  0.9592163E-01
       -4   -1    0    0    0  501  0.00000000000E+00  0.00000000000E+00  0.21714172344E+03  0.21714543734E+03  0.12699999809E+01 0. -1.
        4   -1    0    0  501    0  0.00000000000E+00  0.00000000000E+00 -0.69717193372E+03  0.69717309046E+03  0.12699999809E+01 0.  1.
    10030    2    1    2    0    0  0.00000000000E+00  0.00000000000E+00 -0.48003021028E+03  0.91431852780E+03  0.77817052597E+03 0.  0.
        5    1    3    3  502    0 -0.12759776889E+03  0.13672303664E+03 -0.64086539770E+03  0.66761135951E+03  0.46999998093E+01 0.  1.
       -5    1    3    3    0  502  0.12759776889E+03 -0.13672303664E+03  0.16083518742E+03  0.24670716829E+03  0.46999998093E+01 0. -1.
</event>
<event>
 5   0  0.2635243E-02  0.8112187E+03  0.7818609E-02  0.9543919E-01
       -1   -1    0    0    0  501  0.00000000000E+00  0.00000000000E+00  0.15173142706E+03  0.15173142714E+03  0.50400001928E-02 0. -1.
        1   -1    0    0  501    0  0.00000000000E+00  0.00000000000E+00 -0.10842772394E+04  0.10842772394E+04  0.50400001928E-02 0.  1.
    10030    2    1    2    0    0  0.00000000000E+00  0.00000000000E+00 -0.93254581236E+03  0.12360086666E+04  0.81121867071E+03 0.  0.
        1    1    3    3  502    0  0.17770456451E+03 -0.15595077615E+03  0.35881444935E+02  0.23913810852E+03  0.50400001928E-02 0. -1.
       -1    1    3    3    0  502 -0.17770456451E+03  0.15595077615E+03 -0.96842725729E+03  0.99687055806E+03  0.50400001928E-02 0.  1.
</event>
<event>
 5   0  0.2689372E-02  0.7592430E+03  0.7818609E-02  0.9620960E-01
        1   -1    0    0  501    0  0.00000000000E+00  0.00000000000E+00  0.20066073826E+04  0.20066073826E+04  0.50400001928E-02 0.  1.
       -1   -1    0    0    0  501  0.00000000000E+00  0.00000000000E+00 -0.71818969012E+02  0.71818969188E+02  0.50400001928E-02 0. -1.
    10030    2    1    2    0    0  0.00000000000E+00  0.00000000000E+00  0.19347884136E+04  0.20784263518E+04  0.75924297459E+03 0.  0.
        4    1    3    3  502    0 -0.99283653432E+02 -0.29266732280E+03  0.36390492982E+03  0.47743043107E+03  0.12699999809E+01 0. -1.
       -4    1    3    3    0  502  0.99283653432E+02  0.29266732280E+03  0.15708834837E+04  0.16009959207E+04  0.12699999809E+01 0.  1.
</event>
<event>
 5   0  0.4700220E-02  0.8104902E+03  0.7818609E-02  0.9544956E-01
       -2   -1    0    0    0  501  0.00000000000E+00  0.00000000000E+00  0.10804719654E+03  0.10804719657E+03  0.25500000920E-02 0. -1.
        2   -1    0    0  501    0  0.00000000000E+00  0.00000000000E+00 -0.15199247180E+04  0.15199247180E+04  0.25500000920E-02 0.  1.
    10030    2    1    2    0    0  0.00000000000E+00  0.00000000000E+00 -0.14118775215E+04  0.16279719146E+04  0.81049023377E+03 0.  0.
        4    1    3    3  502    0 -0.24495897997E+03  0.40737934747E+02 -0.13491932971E+04  0.13718559133E+04  0.12699999809E+01 0.  1.
       -4    1    3    3    0  502  0.24495897997E+03 -0.40737934747E+02 -0.62684224374E+02  0.25611600122E+03  0.12699999809E+01 0. -1.
</event>
<event>
 5   0  0.4377843E-02  0.7989225E+03  0.7818609E-02  0.9561578E-01
       -2   -1    0    0    0  501  0.00000000000E+00  0.00000000000E+00  0.13578620495E+03  0.13578620498E+03  0.25500000920E-02 0. -1.
        2   -1    0    0  501    0  0.00000000000E+00  0.00000000000E+00 -0.11751508934E+04  0.11751508934E+04  0.25500000920E-02 0.  1.
    10030    2    1    2    0    0  0.00000000000E+00  0.00000000000E+00 -0.10393646884E+04  0.13109370983E+04  0.79892247452E+03 0.  0.
        2    1    3    3  502    0  0.23909886657E+02  0.20176532733E+03  0.44667230864E+02  0.20802906410E+03  0.25500000920E-02 0. -1.
       -2    1    3    3    0  502 -0.23909886657E+02 -0.20176532733E+03 -0.10840319193E+04  0.11029080342E+04  0.25500000920E-02 0.  1.
</event>
<event>
 5   0  0.2606520E-02  0.7915912E+03  0.7818609E-02  0.9572269E-01
        1   -1    0    0  501    0  0.00000000000E+00  0.00000000000E+00  0.24463062917E+03  0.24463062922E+03  0.50400001928E-02 0. -1.
       -1   -1    0    0    0  501  0.00000000000E+00  0.00000000000E+00 -0.64037015759E+03  0.64037015761E+03  0.50400001928E-02 0.  1.
    10030    2    1    2    0    0  0.00000000000E+00  0.00000000000E+00 -0.39573952842E+03  0.88500078682E+03  0.79159119394E+03 0.  0.
        5    1    3    3  502    0  0.15993010176E+03  0.31361024407E+03 -0.40004910597E+03  0.53290749650E+03  0.46999998093E+01 0.  1.
       -5    1    3    3    0  502 -0.15993010176E+03 -0.31361024407E+03  0.43095775499E+01  0.35209329033E+03  0.46999998093E+01 0. -1.
</event>
<event>
 5   0  0.4377843E-02  0.8392279E+03  0.7818609E-02  0.9504910E-01
       -2   -1    0    0    0  501  0.00000000000E+00  0.00000000000E+00  0.23984055330E+03  0.23984055331E+03  0.25500000920E-02 0. -1.
        2   -1    0    0  501    0  0.00000000000E+00  0.00000000000E+00 -0.73413722662E+03  0.73413722663E+03  0.25500000920E-02 0.  1.
    10030    2    1    2    0    0  0.00000000000E+00  0.00000000000E+00 -0.49429667332E+03  0.97397777994E+03  0.83922792766E+03 0.  0.
        2    1    3    3  502    0 -0.23841428548E+03  0.21354247301E+03  0.67777774107E+02  0.32716293490E+03  0.25500000920E-02 0. -1.
       -2    1    3    3    0  502  0.23841428548E+03 -0.21354247301E+03 -0.56207444743E+03  0.64681484504E+03  0.25500000920E-02 0.  1.
</event>
<event>
 5   0  0.2606520E-02  0.8210880E+03  0.7818609E-02  0.9529985E-01
       -1   -1    0    0    0  501  0.00000000000E+00  0.00000000000E+00  0.69266963920E+03  0.69266963922E+03  0.50400001928E-02 0. -1.
        1   -1    0    0  501    0  0.00000000000E+00  0.00000000000E+00 -0.24332865309E+03  0.24332865314E+03  0.50400001928E-02 0.  1.
    10030    2    1    2    0    0  0.00000000000E+00  0.00000000000E+00  0.44934098611E+03  0.93599829236E+03  0.82108798645E+03 0.  0.
        5    1    3    3  502    0  0.27324216360E+03 -0.17744005680E+03  0.50937947887E+03  0.60467825925E+03  0.46999998093E+01 0. -1.
       -5    1    3    3    0  502 -0.27324216360E+03  0.17744005680E+03 -0.60038492755E+02  0.33132003310E+03  0.46999998093E+01 0.  1.
</event>
<event>
 5   0  0.4684283E-02  0.7927022E+03  0.7818609E-02  0.9570641E-01
        2   -1    0    0  501    0  0.00000000000E+00  0.00000000000E+00  0.53583818319E+03  0.53583818320E+03  0.25500000920E-02 0.  1.
       -2   -1    0    0    0  501  0.00000000000E+00  0.00000000000E+00 -0.29317469879E+03  0.29317469880E+03  0.25500000920E-02 0. -1.
    10030    2    1    2    0    0  0.00000000000E+00  0.00000000000E+00  0.24266348440E+03  0.82901288200E+03  0.79270220881E+03 0.  0.
        1    1    3    3  502    0 -0.20933237654E+03  0.22359468055E+03  0.38440880256E+03  0.49151271861E+03  0.50400001928E-02 0.  1.
       -1    1    3    3    0  502  0.20933237654E+03 -0.22359468055E+03 -0.14174531817E+03  0.33750016339E+03  0.50400001928E-02 0. -1.
</event>
<event>
 5   0  0.4700220E-02  0.7708303E+03  0.7818609E-02  0.9603226E-01
       -2   -1    0    0    0  501  0.00000000000E+00  0.00000000000E+00  0.69072191291E+02  0.69072191338E+02  0.25500000920E-02 0. -1.
        2   -1    0    0  501    0  0.00000000000E+00  0.00000000000E+00 -0.21505738038E+04  0.21505738038E+04  0.25500000920E-02 0.  1.
    10030    2    1    2    0    0  0.00000000000E+00  0.00000000000E+00 -0.20815016125E+04  0.22196459951E+04  0.77083031910E+03 0.  0.
        4    1    3    3  502    0 -0.25305029926E+03  0.35984100732E+02 -0.18714100935E+04  0.18887844399E+04  0.12699999809E+01 0.  1.
       -4    1    3    3    0  502  0.25305029926E+03 -0.35984100732E+02 -0.21009151894E+03  0.33086155517E+03  0.12699999809E+01 0. -1.
</event>
<event>
 5   0  0.2759559E-02  0.7810410E+03  0.7818609E-02  0.9587872E-01
       -1   -1    0    0    0  501  0.00000000000E+00  0.00000000000E+00  0.11079802885E+03  0.11079802896E+03  0.50400001928E-02 0. -1.
        1   -1    0    0  501    0  0.00000000000E+00  0.00000000000E+00 -0.13764347102E+04  0.13764347103E+04  0.50400001928E-02 0.  1.
    10030    2    1    2    0    0  0.00000000000E+00  0.00000000000E+00 -0.12656366814E+04  0.14872327392E+04  0.78104097927E+03 0.  0.
        3    1    3    3  502    0  0.11171638982E+03  0.58179642385E+02  0.71056344846E+02  0.14461824535E+03  0.10100000352E+00 0. -1.
       -3    1    3    3    0  502 -0.11171638982E+03 -0.58179642385E+02 -0.13366930262E+04  0.13426144939E+04  0.10100000352E+00 0.  1.
</event>
<event>
 5   0  0.4700220E-02  0.7746706E+03  0.7818609E-02  0.9597422E-01
        2   -1    0    0  501    0  0.00000000000E+00  0.00000000000E+00  0.38047871605E+03  0.38047871606E+03  0.25500000920E-02 0. -1.
       -2   -1    0    0    0  501  0.00000000000E+00  0.00000000000E+00 -0.39431545041E+03  0.39431545041E+03  0.25500000920E-02 0.  1.
    10030    2    1    2    0    0  0.00000000000E+00  0.00000000000E+00 -0.13836734353E+02  0.77479416648E+03  0.77467060431E+03 0.  0.
        4    1    3    3  502    0 -0.71601938015E+02 -0.36941415509E+03  0.84929650752E+02  0.38575680679E+03  0.12699999809E+01 0. -1.
       -4    1    3    3    0  502  0.71601938015E+02  0.36941415509E+03 -0.98766385105E+02  0.38903735969E+03  0.12699999809E+01 0.  1.
</event>
<event>
 5   0  0.4663634E-02  0.8293649E+03  0.7818609E-02  0.9518459E-01
        2   -1    0    0  501    0  0.00000000000E+00  0.00000000000E+00  0.91638577801E+03  0.91638577801E+03  0.25500000920E-02 0.  1.
       -2   -1    0    0    0  501  0.00000000000E+00  0.00000000000E+00 -0.18765189637E+03  0.18765189639E+03  0.25500000920E-02 0. -1.
    10030    2    1    2    0    0  0.00000000000E+00  0.00000000000E+00  0.72873388164E+03  0.11040376744E+04  0.82936488727E+03 0.  0.
        5    1    3    3  502    0  0.40163995585E+02  0.40785388141E+03  0.44836356339E+03  0.60746185897E+03  0.46999998093E+01 0.  1.
       -5    1    3    3    0  502 -0.40163995585E+02 -0.40785388141E+03  0.28037031824E+03  0.49657581543E+03  0.46999998093E+01 0. -1.
</event>
<event>
 5   0  0.4684283E-02  0.6676611E+03  0.7818609E-02  0.9774192E-01
        2   -1    0    0  501    0  0.00000000000E+00  0.00000000000E+00  0.10534843239E+04  0.10534843239E+04  0.25500000920E-02 0. -1.
       -2   -1    0    0    0  501  0.00000000000E+00  0.00000000000E+00 -0.10578501184E+03  0.10578501187E+03  0.25500000920E-02 0.  1.
    10030    2    1    2    0    0  0.00000000000E+00  0.00000000000E+00  0.94769931209E+03  0.11592693358E+04  0.66766114668E+03 0.  0.
        1    1    3    3  502    0 -0.98166820931E+02  0.23163391016E+02 -0.78695477004E+02  0.12793062785E+03  0.50400001928E-02 0.  1.
       -1    1    3    3    0  502  0.98166820931E+02 -0.23163391016E+02  0.10263947891E+04  0.10313387080E+04  0.50400001928E-02 0. -1.
</event>
<event>
 5   0  0.2689372E-02  0.6882802E+03  0.7818609E-02  0.9737487E-01
       -1   -1    0    0    0  501  0.00000000000E+00  0.00000000000E+00  0.63189918246E+03  0.63189918248E+03  0.50400001928E-02 0.  1.
        1   -1    0    0  501    0  0.00000000000E+00  0.00000000000E+00 -0.18742295855E+03  0.18742295862E+03  0.50400001928E-02 0. -1.
    10030    2    1    2    0    0  0.00000000000E+00  0.00000000000E+00  0.44447622390E+03  0.81932214110E+03  0.68828021712E+03 0.  0.
        4    1    3    3  502    0  0.39842770262E+02 -0.98251903719E+02  0.61197038869E+03  0.62108795872E+03  0.12699999809E+01 0.  1.
       -4    1    3    3    0  502 -0.39842770262E+02  0.98251903719E+02 -0.16749416479E+03  0.19823418238E+03  0.12699999809E+01 0. -1.
</event>
<event>
 5   0  0.4684283E-02  0.8013897E+03  0.7818609E-02  0.9558008E-01
       -2   -1    0    0    0  501  0.00000000000E+00  0.00000000000E+00  0.24123548221E+03  0.24123548222E+03  0.25500000920E-02 0.  1.
        2   -1    0    0  501    0  0.00000000000E+00  0.00000000000E+00 -0.66555862495E+03  0.66555862496E+03  0.25500000920E-02 0. -1.
    10030    2    1    2    0    0  0.00000000000E+00  0.00000000000E+00 -0.42432314274E+03  0.90679410718E+03  0.80138968258E+03 0.  0.
        1    1    3    3  502    0 -0.11020191669E+02 -0.39135064276E+02  0.23889548332E+03  0.24233045590E+03  0.50400001928E-02 0.  1.
       -1    1    3    3    0  502  0.11020191669E+02  0.39135064276E+02 -0.66321862607E+03  0.66446365128E+03  0.50400001928E-02 0. -1.
</event>
<event>
 5   0  0.2769394E-02  0.7642695E+03  0.7818609E-02  0.9613226E-01
       -1   -1    0    0    0  501  0.00000000000E+00  0.00000000000E+00  0.30003105639E+03  0.30003105643E+03  0.50400001928E-02 0. -1.
        1   -1    0    0  501    0  0.00000000000E+00  0.00000000000E+00 -0.48670622468E+03  0.48670622471E+03  0.50400001928E-02 0.  1.
    10030    2    1    2    0    0  0.00000000000E+00  0.00000000000E+00 -0.18667516830E+03  0.78673728114E+03  0.76426954085E+03 0.  0.
        2    1    3    3  502    0  0.21878886080E+03  0.21564128321E+02 -0.41508554528E+03  0.46971223866E+03  0.25500000920E-02 0.  1.
       -2    1    3    3    0  502 -0.21878886080E+03 -0.21564128321E+02  0.22841037698E+03  0.31702504248E+03  0.25500000920E-02 0. -1.
</event>
<event>
 5   0  0.4590462E-02  0.6753171E+03  0.7818609E-02  0.9760400E-01
        2   -1    0    0  501    0  0.00000000000E+00  0.00000000000E+00  0.27683689202E+03  0.27683689203E+03  0.25500000920E-02 0. -1.
       -2   -1    0    0    0  501  0.00000000000E+00  0.00000000000E+00 -0.41184291406E+03  0.41184291407E+03  0.25500000920E-02 0.  1.
    10030    2    1    2    0    0  0.00000000000E+00  0.00000000000E+00 -0.13500602205E+03  0.68867980610E+03  0.67531714723E+03 0.  0.
        3    1    3    3  502    0  0.22136210359E+03 -0.13725576438E+03  0.15162783055E+03  0.30138237334E+03  0.10100000352E+00 0. -1.
       -3    1    3    3    0  502 -0.22136210359E+03  0.13725576438E+03 -0.28663385260E+03  0.38729743276E+03  0.10100000352E+00 0.  1.
</event>
<event>
 5   0  0.2689372E-02  0.8336813E+03  0.7818609E-02  0.9512505E-01
        1   -1    0    0  501    0  0.00000000000E+00  0.00000000000E+00  0.65886871088E+03  0.65886871090E+03  0.50400001928E-02 0. -1.
       -1   -1    0    0    0  501  0.00000000000E+00  0.00000000000E+00 -0.26371888758E+03  0.26371888763E+03  0.50400001928E-02 0.  1.
    10030    2    1    2    0    0  0.00000000000E+00  0.00000000000E+00  0.39514982330E+03  0.92258759853E+03  0.83368129049E+03 0.  0.
        4    1    3    3  502    0 -0.35209780408E+03  0.20199572953E+03  0.92709915528E+02  0.41637949004E+03  0.12699999809E+01 0.  1.
       -4    1    3    3    0  502  0.35209780408E+03 -0.20199572953E+03  0.30243990777E+03  0.50620810849E+03  0.12699999809E+01 0. -1.
</event>
<event>
 5   0  0.2689372E-02  0.8840797E+03  0.7818609E-02  0.9445704E-01
       -1   -1    0    0    0  501  0.00000000000E+00  0.00000000000E+00  0.92651961024E+02  0.92651961161E+02  0.50400001928E-02 0. -1.
        1   -1    0    0  501    0  0.00000000000E+00  0.00000000000E+00 -0.21089592181E+04  0.21089592181E+04  0.50400001928E-02 0.  1.
    10030    2    1    2    0    0  0.00000000000E+00  0.00000000000E+00 -0.20163072570E+04  0.22016111792E+04  0.88407965123E+03 0.  0.
        4    1    3    3  502    0 -0.10777929056E+03 -0.41086241986E+03 -0.13128784700E+04  0.13798825289E+04  0.12699999809E+01 0.  1.
       -4    1    3    3    0  502  0.10777929056E+03  0.41086241986E+03 -0.70342878702E+03  0.82172865037E+03  0.12699999809E+01 0. -1.
</event>
<event>
 5   0  0.4684283E-02  0.7942366E+03  0.7818609E-02  0.9568397E-01
       -2   -1    0    0    0  501  0.00000000000E+00  0.00000000000E+00  0.90192197346E+02  0.90192197382E+02  0.25500000920E-02 0. -1.
        2   -1    0    0  501    0  0.00000000000E+00  0.00000000000E+00 -0.17485207870E+04  0.17485207870E+04  0.25500000920E-02 0.  1.
    10030    2    1    2    0    0  0.00000000000E+00  0.00000000000E+00 -0.16583285896E+04  0.18387129844E+04  0.79423656908E+03 0.  0.
        1    1    3    3  502    0  0.30761910360E+02  0.38415396649E+03 -0.60732351571E+03  0.71927909595E+03  0.50400001928E-02 0.  1.
       -1    1    3    3    0  502 -0.30761910360E+02 -0.38415396649E+03 -0.10510050739E+04  0.11194338884E+04  0.50400001928E-02 0. -1.
</event>
<event>
 5   0  0.4700220E-02  0.8118131E+03  0.7818609E-02  0.9543074E-01
        2   -1    0    0  501    0  0.00000000000E+00  0.00000000000E+00  0.15993403504E+03  0.15993403506E+03  0.25500000920E-02 0. -1.
       -2   -1    0    0    0  501  0.00000000000E+00  0.00000000000E+00 -0.10301754496E+04  0.10301754496E+04  0.25500000920E-02 0.  1.
    10030    2    1    2    0    0  0.00000000000E+00  0.00000000000E+00 -0.87024141458E+03  0.11901094847E+04  0.81181307324E+03 0.  0.
        4    1    3    3  502    0 -0.60096010422E+02  0.26224822149E+02 -0.10223574620E+04  0.10244587179E+04  0.12699999809E+01 0.  1.
       -4    1    3    3    0  502  0.60096010422E+02 -0.26224822149E+02  0.15211604738E+03  0.16565076678E+03  0.12699999809E+01 0. -1.
</event>
<event>
 5   0  0.2606520E-02  0.8104343E+03  0.7818609E-02  0.9545035E-01
        1   -1    0    0  501    0  0.00000000000E+00  0.00000000000E+00  0.14433028295E+04  0.14433028295E+04  0.50400001928E-02 0. -1.
       -1   -1    0    0    0  501  0.00000000000E+00  0.00000000000E+00 -0.11376749656E+03  0.11376749667E+03  0.50400001928E-02 0.  1.
    10030    2    1    2    0    0  0.00000000000E+00  0.00000000000E+00  0.13295353329E+04  0.15570703262E+04  0.81043432745E+03 0.  0.
        5    1    3    3  502    0 -0.11427781981E+03  0.22696369516E+03  0.12711341073E+04  0.12962931566E+04  0.46999998093E+01 0. -1.
       -5    1    3    3    0  502  0.11427781981E+03 -0.22696369516E+03  0.58401225608E+02  0.26077716958E+03  0.46999998093E+01 0.  1.
</event>
<event>
 5   0  0.4684283E-02  0.7800732E+03  0.7818609E-02  0.9589317E-01
        2   -1    0    0  501    0  0.00000000000E+00  0.00000000000E+00  0.80242385686E+03  0.80242385686E+03  0.25500000920E-02 0.  1.
       -2   -1    0    0    0  501  0.00000000000E+00  0.00000000000E+00 -0.18958627254E+03  0.18958627255E+03  0.25500000920E-02 0. -1.
    10030    2    1    2    0    0  0.00000000000E+00  0.00000000000E+00  0.61283758432E+03  0.99201012942E+03  0.78007319664E+03 0.  0.
        1    1    3    3  502    0  0.21500068165E+03  0.30901295984E+02 -0.10555405136E+03  0.24149915318E+03  0.50400001928E-02 0. -1.
       -1    1    3    3    0  502 -0.21500068165E+03 -0.30901295984E+02  0.71839163568E+03  0.75051097623E+03  0.50400001928E-02 0.  1.
</event>
<event>
 5   0  0.4590462E-02  0.7725437E+03  0.7818609E-02  0.9600632E-01
       -2   -1    0    0    0  501  0.00000000000E+00  0.00000000000E+00  0.10583606155E+03  0.10583606158E+03  0.25500000920E-02 0. -1.
        2   -1    0    0  501    0  0.00000000000E+00  0.00000000000E+00 -0.14097835502E+04  0.14097835502E+04  0.25500000920E-02 0.  1.
    10030    2    1    2    0    0  0.00000000000E+00  0.00000000000E+00 -0.13039474887E+04  0.15156196118E+04  0.77254369099E+03 0.  0.
        3    1    3    3  502    0 -0.52585167623E+02 -0.54075995971E+02 -0.13951949738E+04  0.13972324210E+04  0.10100000352E+00 0.  1.
       -3    1    3    3    0  502  0.52585167623E+02  0.54075995971E+02  0.91247485149E+02  0.11838719078E+03  0.10100000352E+00 0. -1.
</event>
<event>
 5   0  0.2635243E-02  0.8023270E+03  0.7818609E-02  0.9556655E-01
       -1   -1    0    0    0  501  0.00000000000E+00  0.00000000000E+00  0.34780550158E+03  0.34780550162E+03  0.50400001928E-02 0. -1.
        1   -1    0    0  501    0  0.00000000000E+00  0.00000000000E+00 -0.46270727364E+03  0.46270727367E+03  0.50400001928E-02 0.  1.
    10030    2    1    2    0    0  0.00000000000E+00  0.00000000000E+00 -0.11490177206E+03  0.81051277528E+03  0.80232695435E+03 0.  0.
        1    1    3    3  502    0  0.36322969208E+03  0.11316258409E+03  0.71089429039E+02  0.38703396052E+03  0.50400001928E-02 0.  1.
       -1    1    3    3    0  502 -0.36322969208E+03 -0.11316258409E+03 -0.18599120109E+03  0.42347881477E+03  0.50400001928E-02 0. -1.
</event>
<event>
 5   0  0.2689372E-02  0.7946388E+03  0.7818609E-02  0.9567810E-01
        1   -1    0    0  501    0  0.00000000000E+00  0.00000000000E+00  0.88702465939E+03  0.88702465940E+03  0.50400001928E-02 0. -1.
       -1   -1    0    0    0  501  0.00000000000E+00  0.00000000000E+00 -0.17796879504E+03  0.17796879511E+03  0.50400001928E-02 0.  1.
    10030    2    1    2    0    0  0.00000000000E+00  0.00000000000E+00  0.70905586435E+03  0.10649934545E+04  0.79463881064E+03 0.  0.
        4    1    3    3  502    0 -0.13059025018E+03  0.37461290214E+03  0.32539673488E+03  0.51310163502E+03  0.12699999809E+01 0.  1.
       -4    1    3    3    0  502  0.13059025018E+03 -0.37461290214E+03  0.38365912947E+03  0.55189181949E+03  0.12699999809E+01 0. -1.
</event>
<event>
 5   0  0.2759559E-02  0.8093894E+03  0.7818609E-02  0.9546525E-01
        1   -1    0    0  501    0  0.00000000000E+00  0.00000000000E+00  0.29772735138E+03  0.29772735142E+03  0.50400001928E-02 0. -1.
       -1   -1    0    0    0  501  0.00000000000E+00  0.00000000000E+00 -0.55009329493E+03  0.55009329496E+03  0.50400001928E-02 0.  1.
    10030    2    1    2    0    0  0.00000000000E+00  0.00000000000E+00 -0.25236594356E+03  0.84782064637E+03  0.80938944826E+03 0.  0.
        3    1    3    3  502    0  0.90427511926E+02 -0.14422358065E+03 -0.51076746771E+03  0.53838739992E+03  0.10100000352E+00 0.  1.
       -3    1    3    3    0  502 -0.90427511926E+02  0.14422358065E+03  0.25840152415E+03  0.30943324645E+03  0.10100000352E+00 0. -1.
</event>
<event>
 5   0  0.2606520E-02  0.7164857E+03  0.7818609E-02  0.9689447E-01
        1   -1    0    0  501    0  0.00000000000E+00  0.00000000000E+00  0.29981802208E+03  0.29981802213E+03  0.50400001928E-02 0. -1.
       -1   -1    0    0    0  501  0.00000000000E+00  0.00000000000E+00 -0.42805283130E+03  0.42805283133E+03  0.50400001928E-02 0.  1.
    10030    2    1    2    0    0  0.00000000000E+00  0.00000000000E+00 -0.12823480922E+03  0.72787085346E+03  0.71648573818E+03 0.  0.
        5    1    3    3  502    0 -0.10031814092E+03 -0.17921432918E+01 -0.41345503836E+03  0.42548102181E+03  0.46999998093E+01 0.  1.
       -5    1    3    3    0  502  0.10031814092E+03  0.17921432918E+01  0.28522022914E+03  0.30238983165E+03  0.46999998093E+01 0. -1.
</event>
<event>
 5   0  0.1786500E-02  0.7903262E+03  0.7818609E-02  0.9574126E-01
        3   -1    0    0  501    0  0.00000000000E+00  0.00000000000E+00  0.11765804567E+04  0.11765804610E+04  0.10100000352E+00 0.  1.
       -3   -1    0    0    0  501  0.00000000000E+00  0.00000000000E+00 -0.13271836752E+03  0.13271840595E+03  0.10100000352E+00 0. -1.
    10030    2    1    2    0    0  0.00000000000E+00  0.00000000000E+00  0.10438620892E+04  0.13092988670E+04  0.79032617434E+03 0.  0.
        1    1    3    3  502    0 -0.15797400285E+03  0.80894275429E+02  0.11068367771E+04  0.11209760571E+04  0.50400001928E-02 0.  1.
       -1    1    3    3    0  502  0.15797400285E+03 -0.80894275429E+02 -0.62974687948E+02  0.18832280988E+03  0.50400001928E-02 0. -1.
</event>
<event>
 5   0  0.2759559E-02  0.7953549E+03  0.7818609E-02  0.9566765E-01
        1   -1    0    0  501    0  0.00000000000E+00  0.00000000000E+00  0.14882026115E+04  0.14882026115E+04  0.50400001928E-02 0. -1.
       -1   -1    0    0    0  501  0.00000000000E+00  0.00000000000E+00 -0.10626735991E+03  0.10626736003E+03  0.50400001928E-02 0.  1.
    10030    2    1    2    0    0  0.00000000000E+00  0.00000000000E+00  0.13819352516E+04  0.15944699716E+04  0.79535492113E+03 0.  0.
        3    1    3    3  502    0  0.38933258012E+03  0.26661520036E+02  0.84438703236E+03  0.93020436745E+03  0.10100000352E+00 0. -1.
       -3    1    3    3    0  502 -0.38933258012E+03 -0.26661520036E+02  0.53754821927E+03  0.66426560413E+03  0.10100000352E+00 0.  1.
</event>
<event>
 5   0  0.4700220E-02  0.7842423E+03  0.7818609E-02  0.9583110E-01
       -2   -1    0    0    0  501  0.00000000000E+00  0.00000000000E+00  0.97675483432E+02  0.97675483465E+02  0.25500000920E-02 0. -1.
        2   -1    0    0  501    0  0.00000000000E+00  0.00000000000E+00 -0.15741818909E+04  0.15741818909E+04  0.25500000920E-02 0.  1.
    10030    2    1    2    0    0  0.00000000000E+00  0.00000000000E+00 -0.14765064075E+04  0.16718573744E+04  0.78424225144E+03 0.  0.
        4    1    3    3  502    0 -0.29708018801E+02  0.14218984055E+03  0.38197386493E+02  0.15020376284E+03  0.12699999809E+01 0. -1.
       -4    1    3    3    0  502  0.29708018801E+02 -0.14218984055E+03 -0.15147037940E+04  0.15216536115E+04  0.12699999809E+01 0.  1.
</event>
<event>
 5   0  0.4684283E-02  0.7863705E+03  0.7818609E-02  0.9579957E-01
       -2   -1    0    0    0  501  0.00000000000E+00  0.00000000000E+00  0.14566241277E+03  0.14566241279E+03  0.25500000920E-02 0. -1.
        2   -1    0    0  501    0  0.00000000000E+00  0.00000000000E+00 -0.10613215462E+04  0.10613215462E+04  0.25500000920E-02 0.  1.
    10030    2    1    2    0    0  0.00000000000E+00  0.00000000000E+00 -0.91565913339E+03  0.12069839590E+04  0.78637054155E+03 0.  0.
        1    1    3    3  502    0 -0.26837102094E+03  0.32096841241E+02 -0.89612148640E+03  0.93599515518E+03  0.50400001928E-02 0.  1.
       -1    1    3    3    0  502  0.26837102094E+03 -0.32096841241E+02 -0.19537646984E+02  0.27098880378E+03  0.50400001928E-02 0. -1.
</event>
<event>
 5   0  0.2769394E-02  0.7814668E+03  0.7818609E-02  0.9587237E-01
        1   -1    0    0  501    0  0.00000000000E+00  0.00000000000E+00  0.30270221838E+03  0.30270221843E+03  0.50400001928E-02 0.  1.
       -1   -1    0    0    0  501  0.00000000000E+00  0.00000000000E+00 -0.50436564704E+03  0.50436564707E+03  0.50400001928E-02 0. -1.
    10030    2    1    2    0    0  0.00000000000E+00  0.00000000000E+00 -0.20166342866E+03  0.80706786549E+03  0.78146682658E+03 0.  0.
        2    1    3    3  502    0  0.20453330386E+03  0.82524623973E+02  0.23226894942E+03  0.32030149987E+03  0.25500000920E-02 0.  1.
       -2    1    3    3    0  502 -0.20453330386E+03 -0.82524623973E+02 -0.43393237807E+03  0.48676636562E+03  0.25500000920E-02 0. -1.
</event>
<event>
 5   0  0.4663634E-02  0.8038709E+03  0.7818609E-02  0.9554431E-01
       -2   -1    0    0    0  501  0.00000000000E+00  0.00000000000E+00  0.20103910698E+03  0.20103910700E+03  0.25500000920E-02 0.  1.
        2   -1    0    0  501    0  0.00000000000E+00  0.00000000000E+00 -0.80358547845E+03  0.80358547845E+03  0.25500000920E-02 0. -1.
    10030    2    1    2    0    0  0.00000000000E+00  0.00000000000E+00 -0.60254637147E+03  0.10046245855E+04  0.80387090252E+03 0.  0.
        5    1    3    3  502    0 -0.55776036919E+01  0.40080777032E+03 -0.33775253817E+03  0.52419161139E+03  0.46999998093E+01 0.  1.
       -5    1    3    3    0  502  0.55776036919E+01 -0.40080777032E+03 -0.26479383329E+03  0.48043297406E+03  0.46999998093E+01 0. -1.
</event>
<event>
 5   0  0.2769394E-02  0.7582511E+03  0.7818609E-02  0.9622494E-01
        1   -1    0    0  501    0  0.00000000000E+00  0.00000000000E+00  0.27180248301E+03  0.27180248306E+03  0.50400001928E-02 0.  1.
       -1   -1    0    0    0  501  0.00000000000E+00  0.00000000000E+00 -0.52882580571E+03  0.52882580573E+03  0.50400001928E-02 0. -1.
    10030    2    1    2    0    0  0.00000000000E+00  0.00000000000E+00 -0.25702332270E+03  0.80062828879E+03  0.75825105895E+03 0.  0.
        2    1    3    3  502    0  0.27829512823E+03  0.22632416357E+03  0.10891399816E+01  0.35870878389E+03  0.25500000920E-02 0.  1.
       -2    1    3    3    0  502 -0.27829512823E+03 -0.22632416357E+03 -0.25811246268E+03  0.44191950490E+03  0.25500000920E-02 0. -1.
</event>
<event>
 5   0  0.4377843E-02  0.8249967E+03  0.7818609E-02  0.9524524E-01
       -2   -1    0    0    0  501  0.00000000000E+00  0.00000000000E+00  0.12851338079E+03  0.12851338082E+03  0.25500000920E-02 0.  1.
        2   -1    0    0  501    0  0.00000000000E+00  0.00000000000E+00 -0.13240247023E+04  0.13240247023E+04  0.25500000920E-02 0. -1.
    10030    2    1    2    0    0  0.00000000000E+00  0.00000000000E+00 -0.11955113215E+04  0.14525380831E+04  0.82499670487E+03 0.  0.
        2    1    3    3  502    0 -0.27038708566E+03  0.16917530429E+03 -0.10583134002E+04  0.11053310422E+04  0.25500000920E-02 0. -1.
       -2    1    3    3    0  502  0.27038708566E+03 -0.16917530429E+03 -0.13719792127E+03  0.34720704095E+03  0.25500000920E-02 0.  1.
</event>
<event>
 5   0  0.4590462E-02  0.6889510E+03  0.7818609E-02  0.9736316E-01
       -2   -1    0    0    0  501  0.00000000000E+00  0.00000000000E+00  0.23651058092E+03  0.23651058094E+03  0.25500000920E-02 0.  1.
        2   -1    0    0  501    0  0.00000000000E+00  0.00000000000E+00 -0.50172538476E+03  0.50172538477E+03  0.25500000920E-02 0. -1.
    10030    2    1    2    0    0  0.00000000000E+00  0.00000000000E+00 -0.26521480383E+03  0.73823596570E+03  0.68895097713E+03 0.  0.
        3    1    3    3  502    0  0.54633916300E+02 -0.35899711688E+02  0.22980273406E+03  0.23892040703E+03  0.10100000352E+00 0.  1.
       -3    1    3    3    0  502 -0.54633916300E+02  0.35899711688E+02 -0.49501753790E+03  0.49931555868E+03  0.10100000352E+00 0. -1.
</event>
<event>
 5   0  0.1786500E-02  0.7980150E+03  0.7818609E-02  0.9562895E-01
       -3   -1    0    0    0  501  0.00000000000E+00  0.00000000000E+00  0.14754181597E+03  0.14754185054E+03  0.10100000352E+00 0.  1.
        3   -1    0    0  501    0  0.00000000000E+00  0.00000000000E+00 -0.10790633297E+04  0.10790633345E+04  0.10100000352E+00 0. -1.
    10030    2    1    2    0    0  0.00000000000E+00  0.00000000000E+00 -0.93152151376E+03  0.12266051850E+04  0.79801500568E+03 0.  0.
        4    1    3    3  502    0  0.24958492232E+03  0.19541383100E+03 -0.83824645143E+03  0.89617962766E+03  0.12699999809E+01 0. -1.
       -4    1    3    3    0  502 -0.24958492232E+03 -0.19541383100E+03 -0.93275062335E+02  0.33042555735E+03  0.12699999809E+01 0.  1.
</event>
<event>
 5   0  0.4684283E-02  0.7901968E+03  0.7818609E-02  0.9574316E-01
       -2   -1    0    0    0  501  0.00000000000E+00  0.00000000000E+00  0.13828382020E+03  0.13828382023E+03  0.25500000920E-02 0.  1.
        2   -1    0    0  501    0  0.00000000000E+00  0.00000000000E+00 -0.11288576637E+04  0.11288576637E+04  0.25500000920E-02 0. -1.
    10030    2    1    2    0    0  0.00000000000E+00  0.00000000000E+00 -0.99057384350E+03  0.12671414839E+04  0.79019681149E+03 0.  0.
        1    1    3    3  502    0 -0.30590109957E+03 -0.23681155575E+03 -0.62404881343E+03  0.73422892699E+03  0.50400001928E-02 0. -1.
       -1    1    3    3    0  502  0.30590109957E+03  0.23681155575E+03 -0.36652503007E+03  0.53291255695E+03  0.50400001928E-02 0.  1.
</event>
<event>
 5   0  0.4700220E-02  0.8056425E+03  0.7818609E-02  0.9551885E-01
        2   -1    0    0  501    0  0.00000000000E+00  0.00000000000E+00  0.60275653335E+03  0.60275653335E+03  0.25500000920E-02 0. -1.
       -2   -1    0    0    0  501  0.00000000000E+00  0.00000000000E+00 -0.26920484455E+03  0.26920484456E+03  0.25500000920E-02 0.  1.
    10030    2    1    2    0    0  0.00000000000E+00  0.00000000000E+00  0.33355168879E+03  0.87196137792E+03  0.80564254821E+03 0.  0.
        4    1    3    3  502    0  0.30849775046E+03  0.14504007143E+03 -0.65496447137E+02  0.34712948859E+03  0.12699999809E+01 0.  1.
       -4    1    3    3    0  502 -0.30849775046E+03 -0.14504007143E+03  0.39904813593E+03  0.52483188932E+03  0.12699999809E+01 0. -1.
</event>
<event>
 5   0  0.2606520E-02  0.7863564E+03  0.7818609E-02  0.9579978E-01
       -1   -1    0    0    0  501  0.00000000000E+00  0.00000000000E+00  0.16062486222E+03  0.16062486230E+03  0.50400001928E-02 0. -1.
        1   -1    0    0  501    0  0.00000000000E+00  0.00000000000E+00 -0.96242314656E+03  0.96242314658E+03  0.50400001928E-02 0.  1.
    10030    2    1    2    0    0  0.00000000000E+00  0.00000000000E+00 -0.80179828434E+03  0.11230480089E+04  0.78635637053E+03 0.  0.
        5    1    3    3  502    0 -0.11529586458E+03  0.32142526376E+03 -0.67915227501E+03  0.76018237235E+03  0.46999998093E+01 0.  1.
       -5    1    3    3    0  502  0.11529586458E+03 -0.32142526376E+03 -0.12264600933E+03  0.36286563653E+03  0.46999998093E+01 0. -1.
</event>
<event>
 5   0  0.2689372E-02  0.6458496E+03  0.7818609E-02  0.9814598E-01
        1   -1    0    0  501    0  0.00000000000E+00  0.00000000000E+00  0.59918175086E+03  0.59918175089E+03  0.50400001928E-02 0. -1.
       -1   -1    0    0    0  501  0.00000000000E+00  0.00000000000E+00 -0.17403807148E+03  0.17403807155E+03  0.50400001928E-02 0.  1.
    10030    2    1    2    0    0  0.00000000000E+00  0.00000000000E+00  0.42514367938E+03  0.77321982244E+03  0.64584963087E+03 0.  0.
        4    1    3    3  502    0 -0.25906980129E+03  0.18921170673E+03  0.25673248991E+03  0.41089100279E+03  0.12699999809E+01 0.  1.
       -4    1    3    3    0  502  0.25906980129E+03 -0.18921170673E+03  0.16841118948E+03  0.36232881964E+03  0.12699999809E+01 0. -1.
</event>
<event>
 5   0  0.2606520E-02  0.7769186E+03  0.7818609E-02  0.9594041E-01
        1   -1    0    0  501    0  0.00000000000E+00  0.00000000000E+00  0.26334909475E+04  0.26334909475E+04  0.50400001928E-02 0.  1.
       -1   -1    0    0    0  501  0.00000000000E+00  0.00000000000E+00 -0.57300610130E+02  0.57300610351E+02  0.50400001928E-02 0. -1.
    10030    2    1    2    0    0  0.00000000000E+00  0.00000000000E+00  0.25761903373E+04  0.26907915578E+04  0.77691862731E+03 0.  0.
        5    1    3    3  502    0  0.15779008249E+03 -0.33978964044E+03  0.16433922250E+04  0.16855606797E+04  0.46999998093E+01 0. -1.
       -5    1    3    3    0  502 -0.15779008249E+03  0.33978964044E+03  0.93279811234E+03  0.10052308781E+04  0.46999998093E+01 0.  1.
</event>
<event>
 5   0  0.4590462E-02  0.7971394E+03  0.7818609E-02  0.9564167E-01
        2   -1    0    0  501    0  0.00000000000E+00  0.00000000000E+00  0.15852007186E+04  0.15852007186E+04  0.25500000920E-02 0. -1.
       -2   -1    0    0    0  501  0.00000000000E+00  0.00000000000E+00 -0.10021304682E+03  0.10021304685E+03  0.25500000920E-02 0.  1.
    10030    2    1    2    0    0  0.00000000000E+00  0.00000000000E+00  0.14849876718E+04  0.16854137655E+04  0.79713937015E+03 0.  0.
        3    1    3    3  502    0  0.29841471820E+01 -0.32125023664E+03  0.24373133334E+03  0.40325623706E+03  0.10100000352E+00 0.  1.
       -3    1    3    3    0  502 -0.29841471820E+01  0.32125023664E+03  0.12412563385E+04  0.12821575284E+04  0.10100000352E+00 0. -1.
</event>
<event>
 5   0  0.4377843E-02  0.8055637E+03  0.7818609E-02  0.9551999E-01
       -2   -1    0    0    0  501  0.00000000000E+00  0.00000000000E+00  0.11279994127E+03  0.11279994130E+03  0.25500000920E-02 0. -1.
        2   -1    0    0  501    0  0.00000000000E+00  0.00000000000E+00 -0.14382383850E+04  0.14382383850E+04  0.25500000920E-02 0.  1.
    10030    2    1    2    0    0  0.00000000000E+00  0.00000000000E+00 -0.13254384437E+04  0.15510383263E+04  0.80556366696E+03 0.  0.
        2    1    3    3  502    0  0.32274493623E+02 -0.30825565078E+03 -0.11580020600E+04  0.11987626789E+04  0.25500000920E-02 0.  1.
       -2    1    3    3    0  502 -0.32274493623E+02  0.30825565078E+03 -0.16743638367E+03  0.35227564741E+03  0.25500000920E-02 0. -1.
</event>
<event>
 5   0  0.4663634E-02  0.7798424E+03  0.7818609E-02  0.9589662E-01
       -2   -1    0    0    0  501  0.00000000000E+00  0.00000000000E+00  0.55967282164E+03  0.55967282165E+03  0.25500000920E-02 0. -1.
        2   -1    0    0  501    0  0.00000000000E+00  0.00000000000E+00 -0.27165612740E+03  0.27165612741E+03  0.25500000920E-02 0.  1.
    10030    2    1    2    0    0  0.00000000000E+00  0.00000000000E+00  0.28801669424E+03  0.83132894906E+03  0.77984242343E+03 0.  0.
        5    1    3    3  502    0 -0.27935093450E+02 -0.15302249421E+03  0.52513191650E+03  0.54770600956E+03  0.46999998093E+01 0. -1.
       -5    1    3    3    0  502  0.27935093450E+02  0.15302249421E+03 -0.23711522226E+03  0.28362293950E+03  0.46999998093E+01 0.  1.
</event>
<event>
 5   0  0.2689372E-02  0.8006135E+03  0.7818609E-02  0.9559129E-01
       -1   -1    0    0    0  501  0.00000000000E+00  0.00000000000E+00  0.94958127678E+03  0.94958127679E+03  0.50400001928E-02 0. -1.
        1   -1    0    0  501    0  0.00000000000E+00  0.00000000000E+00 -0.16875386511E+03  0.16875386519E+03  0.50400001928E-02 0.  1.
    10030    2    1    2    0    0  0.00000000000E+00  0.00000000000E+00  0.78082741167E+03  0.11183351420E+04  0.80061354159E+03 0.  0.
        4    1    3    3  502    0  0.24574427907E+03 -0.26321629622E+03  0.14618166114E+03  0.38864348733E+03  0.12699999809E+01 0.  1.
       -4    1    3    3    0  502 -0.24574427907E+03  0.26321629622E+03  0.63464575053E+03  0.72969165465E+03  0.12699999809E+01 0. -1.
</event>
<event>
 5   0  0.2635243E-02  0.7964915E+03  0.7818609E-02  0.9565109E-01
       -1   -1    0    0    0  501  0.00000000000E+00  0.00000000000E+00  0.12534514451E+03  0.12534514461E+03  0.50400001928E-02 0. -1.
        1   -1    0    0  501    0  0.00000000000E+00  0.00000000000E+00 -0.12653036118E+04  0.12653036118E+04  0.50400001928E-02 0.  1.
    10030    2    1    2    0    0  0.00000000000E+00  0.00000000000E+00 -0.11399584673E+04  0.13906487564E+04  0.79649146674E+03 0.  0.
        1    1    3    3  502    0  0.89791373872E+02 -0.17351252057E+03 -0.11758844769E+04  0.11920039382E+04  0.50400001928E-02 0.  1.
       -1    1    3    3    0  502 -0.89791373872E+02  0.17351252057E+03  0.35926009616E+02  0.19864481822E+03  0.50400001928E-02 0. -1.
</event>
<event>
 5   0  0.4377843E-02  0.7795656E+03  0.7818609E-02  0.9590075E-01
        2   -1    0    0  501    0  0.00000000000E+00  0.00000000000E+00  0.10192821299E+04  0.10192821299E+04  0.25500000920E-02 0.  1.
       -2   -1    0    0    0  501  0.00000000000E+00  0.00000000000E+00 -0.14905649553E+03  0.14905649556E+03  0.25500000920E-02 0. -1.
    10030    2    1    2    0    0  0.00000000000E+00  0.00000000000E+00  0.87022563438E+03  0.11683386255E+04  0.77956557713E+03 0.  0.
        2    1    3    3  502    0 -0.32472203407E+03 -0.17599956066E+03  0.62176250364E+03  0.72319351193E+03  0.25500000920E-02 0. -1.
       -2    1    3    3    0  502  0.32472203407E+03  0.17599956066E+03  0.24846313074E+03  0.44514511354E+03  0.25500000920E-02 0.  1.
</event>
<event>
 5   0  0.1786500E-02  0.6776591E+03  0.7818609E-02  0.9756220E-01
       -3   -1    0    0    0  501  0.00000000000E+00  0.00000000000E+00  0.26338791104E+03  0.26338793041E+03  0.10100000352E+00 0. -1.
        3   -1    0    0  501    0  0.00000000000E+00  0.00000000000E+00 -0.43587968620E+03  0.43587969790E+03  0.10100000352E+00 0.  1.
    10030    2    1    2    0    0  0.00000000000E+00  0.00000000000E+00 -0.17249177516E+03  0.69926762831E+03  0.67765906140E+03 0.  0.
        2    1    3    3  502    0 -0.32496861947E+02 -0.27814382238E+03  0.11058618403E+03  0.30108028176E+03  0.25500000920E-02 0. -1.
       -2    1    3    3    0  502  0.32496861947E+02  0.27814382238E+03 -0.28307795919E+03  0.39818734654E+03  0.25500000920E-02 0.  1.
</event>
<event>
 5   0  0.2689372E-02  0.7886587E+03  0.7818609E-02  0.9576580E-01
       -1   -1    0    0    0  501  0.00000000000E+00  0.00000000000E+00  0.94235799955E+03  0.94235799956E+03  0.50400001928E-02 0.  1.
        1   -1    0    0  501    0  0.00000000000E+00  0.00000000000E+00 -0.16500694754E+03  0.16500694762E+03  0.50400001928E-02 0. -1.
    10030    2    1    2    0    0  0.00000000000E+00  0.00000000000E+00  0.77735105200E+03  0.11073649472E+04  0.78865865125E+03 0.  0.
        4    1    3    3  502    0 -0.86540746248E+02  0.37041574628E+03  0.53457401810E+03  0.65610069317E+03  0.12699999809E+01 0.  1.
       -4    1    3    3    0  502  0.86540746248E+02 -0.37041574628E+03  0.24277703390E+03  0.45126425401E+03  0.12699999809E+01 0. -1.
</event>
<event>
 5   0  0.4700220E-02  0.7926071E+03  0.7818609E-02  0.9570780E-01
        2   -1    0    0  501    0  0.00000000000E+00  0.00000000000E+00  0.16387611722E+04  0.16387611722E+04  0.25500000920E-02 0. -1.
       -2   -1    0    0    0  501  0.00000000000E+00  0.00000000000E+00 -0.95838549683E+02  0.95838549716E+02  0.25500000920E-02 0.  1.
    10030    2    1    2    0    0  0.00000000000E+00  0.00000000000E+00  0.15429226225E+04  0.17345997219E+04  0.79260707554E+03 0.  0.
        4    1    3    3  502    0  0.19363217846E+03  0.21145454045E+01  0.14752462462E+02  0.19420901083E+03  0.12699999809E+01 0.  1.
       -4    1    3    3    0  502 -0.19363217846E+03 -0.21145454045E+01  0.15281701600E+04  0.15403907111E+04  0.12699999809E+01 0. -1.
</event>
<event>
 5   0  0.2606520E-02  0.7920115E+03  0.7818609E-02  0.9571653E-01
        1   -1    0    0  501    0  0.00000000000E+00  0.00000000000E+00  0.12715244198E+04  0.12715244198E+04  0.50400001928E-02 0. -1.
       -1   -1    0    0    0  501  0.00000000000E+00  0.00000000000E+00 -0.12333272013E+03  0.12333272023E+03  0.50400001928E-02 0.  1.
    10030    2    1    2    0    0  0.00000000000E+00  0.00000000000E+00  0.11481916996E+04  0.13948571400E+04  0.79201152890E+03 0.  0.
        5    1    3    3  502    0 -0.22774066881E+03 -0.22210833824E+03  0.98937274379E+03  0.10392682244E+04  0.46999998093E+01 0. -1.
       -5    1    3    3    0  502  0.22774066881E+03  0.22210833824E+03  0.15881895584E+03  0.35558891557E+03  0.46999998093E+01 0.  1.
</event>
<event>
 5   0  0.4663634E-02  0.7764744E+03  0.7818609E-02  0.9594708E-01
        2   -1    0    0  501    0  0.00000000000E+00  0.00000000000E+00  0.61040375372E+03  0.61040375373E+03  0.25500000920E-02 0. -1.
       -2   -1    0    0    0  501  0.00000000000E+00  0.00000000000E+00 -0.24693181771E+03  0.24693181772E+03  0.25500000920E-02 0.  1.
    10030    2    1    2    0    0  0.00000000000E+00  0.00000000000E+00  0.36347193602E+03  0.85733557145E+03  0.77647436133E+03 0.  0.
        5    1    3    3  502    0 -0.12447192427E+03 -0.36577486140E+03  0.22336521680E+03  0.44631672525E+03  0.46999998093E+01 0. -1.
       -5    1    3    3    0  502  0.12447192427E+03  0.36577486140E+03  0.14010671921E+03  0.41101884620E+03  0.46999998093E+01 0.  1.
</event>
<event>
 5   0  0.4684283E-02  0.4292746E+03  0.7818609E-02  0.1034089E+00
       -2   -1    0    0    0  501  0.00000000000E+00  0.00000000000E+00  0.65991378178E+02  0.65991378227E+02  0.25500000920E-02 0.  1.
        2   -1    0    0  501    0  0.00000000000E+00  0.00000000000E+00 -0.69810907294E+03  0.69810907295E+03  0.25500000920E-02 0. -1.
    10030    2    1    2    0    0  0.00000000000E+00  0.00000000000E+00 -0.63211769476E+03  0.76410045117E+03  0.42927464338E+03 0.  0.
        1    1    3    3  502    0  0.14657709354E+03 -0.62427892617E+02 -0.57207358175E+03  0.59384364027E+03  0.50400001928E-02 0. -1.
       -1    1    3    3    0  502 -0.14657709354E+03  0.62427892617E+02 -0.60044113018E+02  0.17025681091E+03  0.50400001928E-02 0.  1.
</event>
<event>
 5   0  0.2635243E-02  0.8025463E+03  0.7818609E-02  0.9556339E-01
       -1   -1    0    0    0  501  0.00000000000E+00  0.00000000000E+00  0.27032795296E+03  0.27032795300E+03  0.50400001928E-02 0. -1.
        1   -1    0    0  501    0  0.00000000000E+00  0.00000000000E+00 -0.59564734047E+03  0.59564734049E+03  0.50400001928E-02 0.  1.
    10030    2    1    2    0    0  0.00000000000E+00  0.00000000000E+00 -0.32531938751E+03  0.86597529349E+03  0.80254626349E+03 0.  0.
        1    1    3    3  502    0 -0.20264437338E+03 -0.27002284932E+03  0.71376559697E+02  0.34506766658E+03  0.50400001928E-02 0. -1.
       -1    1    3    3    0  502  0.20264437338E+03  0.27002284932E+03 -0.39669594721E+03  0.52090762691E+03  0.50400001928E-02 0.  1.
</event>
<event>
 5   0  0.1786500E-02  0.7997613E+03  0.7818609E-02  0.9560363E-01
       -3   -1    0    0    0  501  0.00000000000E+00  0.00000000000E+00  0.13585103163E+03  0.13585106917E+03  0.10100000352E+00 0. -1.
        3   -1    0    0  501    0  0.00000000000E+00  0.00000000000E+00 -0.11770576284E+04  0.11770576327E+04  0.10100000352E+00 0.  1.
    10030    2    1    2    0    0  0.00000000000E+00  0.00000000000E+00 -0.10412065968E+04  0.13129087019E+04  0.79976126586E+03 0.  0.
        3    1    3    3  502    0  0.13427353395E+02 -0.39416384390E+03 -0.41221769075E+03  0.57049878564E+03  0.10100000352E+00 0.  1.
       -3    1    3    3    0  502 -0.13427353395E+02  0.39416384390E+03 -0.62898890601E+03  0.74240991625E+03  0.10100000352E+00 0. -1.
</event>
<event>
 5   0  0.2769394E-02  0.8105680E+03  0.7818609E-02  0.9544845E-01
       -1   -1    0    0    0  501  0.00000000000E+00  0.00000000000E+00  0.89628565797E+02  0.89628565939E+02  0.50400001928E-02 0.  1.
        1   -1    0    0  501    0  0.00000000000E+00  0.00000000000E+00 -0.18326200152E+04  0.18326200152E+04  0.50400001928E-02 0. -1.
    10030    2    1    2    0    0  0.00000000000E+00  0.00000000000E+00 -0.17429914494E+04  0.19222485811E+04  0.81056795830E+03 0.  0.
        2    1    3    3  502    0 -0.22777982884E+03 -0.16083582210E+03 -0.15689832326E+04  0.15935683846E+04  0.25500000920E-02 0. -1.
       -2    1    3    3    0  502  0.22777982884E+03  0.16083582210E+03 -0.17400821678E+03  0.32868019656E+03  0.25500000920E-02 0.  1.
</event>
<event>
 5   0  0.2689372E-02  0.7950850E+03  0.7818609E-02  0.9567159E-01
       -1   -1    0    0    0  501  0.00000000000E+00  0.00000000000E+00  0.11509610772E+03  0.11509610783E+03  0.50400001928E-02 0. -1.
        1   -1    0    0  501    0  0.00000000000E+00  0.00000000000E+00 -0.13731135805E+04  0.13731135805E+04  0.50400001928E-02 0.  1.
    10030    2    1    2    0    0  0.00000000000E+00  0.00000000000E+00 -0.12580174727E+04  0.14882096883E+04  0.79508497322E+03 0.  0.
        4    1    3    3  502    0 -0.25792991113E+03 -0.51188685629E+01 -0.11951489990E+04  0.12226760751E+04  0.12699999809E+01 0.  1.
       -4    1    3    3    0  502  0.25792991113E+03  0.51188685629E+01 -0.62868473767E+02  0.26553361325E+03  0.12699999809E+01 0. -1.
</event>
<event>
 5   0  0.2689372E-02  0.8269492E+03  0.7818609E-02  0.9521808E-01
       -1   -1    0    0    0  501  0.00000000000E+00  0.00000000000E+00  0.83515156881E+02  0.83515157033E+02  0.50400001928E-02 0.  1.
        1   -1    0    0  501    0  0.00000000000E+00  0.00000000000E+00 -0.20470684927E+04  0.20470684927E+04  0.50400001928E-02 0. -1.
    10030    2    1    2    0    0  0.00000000000E+00  0.00000000000E+00 -0.19635533358E+04  0.21305836497E+04  0.82694920395E+03 0.  0.
        4    1    3    3  502    0  0.25706476365E+03 -0.23163150770E+03 -0.39865754062E+03  0.52788719975E+03  0.12699999809E+01 0. -1.
       -4    1    3    3    0  502 -0.25706476365E+03  0.23163150770E+03 -0.15648957952E+04  0.16026964500E+04  0.12699999809E+01 0.  1.
</event>
<event>
 5   0  0.2635243E-02  0.7923462E+03  0.7818609E-02  0.9571162E-01
        1   -1    0    0  501    0  0.00000000000E+00  0.00000000000E+00  0.97641172236E+03  0.97641172237E+03  0.50400001928E-02 0.  1.
       -1   -1    0    0    0  501  0.00000000000E+00  0.00000000000E+00 -0.16074479965E+03  0.16074479972E+03  0.50400001928E-02 0. -1.
    10030    2    1    2    0    0  0.00000000000E+00  0.00000000000E+00  0.81566692271E+03  0.11371565221E+04  0.79234615348E+03 0.  0.
        1    1    3    3  502    0  0.16165410060E+03  0.24754378737E+03  0.29362629246E+02  0.29710627547E+03  0.50400001928E-02 0. -1.
       -1    1    3    3    0  502 -0.16165410060E+03 -0.24754378737E+03  0.78630429347E+03  0.84005024662E+03  0.50400001928E-02 0.  1.
</event>
<event>
 5   0  0.4663634E-02  0.7871227E+03  0.7818609E-02  0.9578846E-01
        2   -1    0    0  501    0  0.00000000000E+00  0.00000000000E+00  0.46821116921E+03  0.46821116921E+03  0.25500000920E-02 0. -1.
       -2   -1    0    0    0  501  0.00000000000E+00  0.00000000000E+00 -0.33081344488E+03  0.33081344489E+03  0.25500000920E-02 0.  1.
    10030    2    1    2    0    0  0.00000000000E+00  0.00000000000E+00  0.13739772433E+03  0.79902461410E+03  0.78712273457E+03 0.  0.
        5    1    3    3  502    0  0.25838407870E+03  0.26970104665E+03  0.19453892687E+03  0.42115136324E+03  0.46999998093E+01 0. -1.
       -5    1    3    3    0  502 -0.25838407870E+03 -0.26970104665E+03 -0.57141202539E+02  0.37787325086E+03  0.46999998093E+01 0.  1.
</event>
<event>
 5   0  0.4377843E-02  0.8036708E+03  0.7818609E-02  0.9554719E-01
        2   -1    0    0  501    0  0.00000000000E+00  0.00000000000E+00  0.26095298217E+04  0.26095298217E+04  0.25500000920E-02 0. -1.
       -2   -1    0    0    0  501  0.00000000000E+00  0.00000000000E+00 -0.61877697148E+02  0.61877697201E+02  0.25500000920E-02 0.  1.
    10030    2    1    2    0    0  0.00000000000E+00  0.00000000000E+00  0.25476521246E+04  0.26714075189E+04  0.80367081839E+03 0.  0.
        2    1    3    3  502    0 -0.39086214167E+03 -0.82637223807E+02  0.14175512839E+04  0.14727707789E+04  0.25500000920E-02 0. -1.
       -2    1    3    3    0  502  0.39086214167E+03  0.82637223807E+02  0.11301008406E+04  0.11986367400E+04  0.25500000920E-02 0.  1.
</event>
<event>
 5   0  0.2769394E-02  0.8071317E+03  0.7818609E-02  0.9549751E-01
       -1   -1    0    0    0  501  0.00000000000E+00  0.00000000000E+00  0.61176663656E+03  0.61176663658E+03  0.50400001928E-02 0.  1.
        1   -1    0    0  501    0  0.00000000000E+00  0.00000000000E+00 -0.26622145660E+03  0.26622145665E+03  0.50400001928E-02 0. -1.
    10030    2    1    2    0    0  0.00000000000E+00  0.00000000000E+00  0.34554517996E+03  0.87798809324E+03  0.80713172436E+03 0.  0.
        2    1    3    3  502    0  0.31598653482E+03  0.23588087109E+03  0.79335920928E+02  0.40222066567E+03  0.25500000920E-02 0. -1.
       -2    1    3    3    0  502 -0.31598653482E+03 -0.23588087109E+03  0.26620925903E+03  0.47576742757E+03  0.25500000920E-02 0.  1.
</event>
<event>
 5   0  0.2635243E-02  0.8528656E+03  0.7818609E-02  0.9486499E-01
        1   -1    0    0  501    0  0.00000000000E+00  0.00000000000E+00  0.88677873881E+03  0.88677873882E+03  0.50400001928E-02 0.  1.
       -1   -1    0    0    0  501  0.00000000000E+00  0.00000000000E+00 -0.20506236713E+03  0.20506236719E+03  0.50400001928E-02 0. -1.
    10030    2    1    2    0    0  0.00000000000E+00  0.00000000000E+00  0.68171637168E+03  0.10918411060E+04  0.85286563383E+03 0.  0.
        1    1    3    3  502    0  0.24271362450E+03 -0.34952447666E+03  0.37632891147E+03  0.56806752498E+03  0.50400001928E-02 0. -1.
       -1    1    3    3    0  502 -0.24271362450E+03  0.34952447666E+03  0.30538746021E+03  0.52377358103E+03  0.50400001928E-02 0.  1.
</event>
<event>
 5   0  0.2759559E-02  0.8364422E+03  0.7818609E-02  0.9508717E-01
        1   -1    0    0  501    0  0.00000000000E+00  0.00000000000E+00  0.88132311773E+03  0.88132311774E+03  0.50400001928E-02 0. -1.
       -1   -1    0    0    0  501  0.00000000000E+00  0.00000000000E+00 -0.19846171378E+03  0.19846171384E+03  0.50400001928E-02 0.  1.
    10030    2    1    2    0    0  0.00000000000E+00  0.00000000000E+00  0.68286140395E+03  0.10797848316E+04  0.83644221888E+03 0.  0.
        3    1    3    3  502    0  0.68771160120E+02  0.23024696980E+03  0.78330791795E+03  0.81933780829E+03  0.10100000352E+00 0. -1.
       -3    1    3    3    0  502 -0.68771160120E+02 -0.23024696980E+03 -0.10044651400E+03  0.26044702330E+03  0.10100000352E+00 0.  1.
</event>
<event>
 5   0  0.2635243E-02  0.8119673E+03  0.7818609E-02  0.9542855E-01
       -1   -1    0    0    0  501  0.00000000000E+00  0.00000000000E+00  0.12673288305E+03  0.12673288315E+03  0.50400001928E-02 0. -1.
        1   -1    0    0  501    0  0.00000000000E+00  0.00000000000E+00 -0.13005521771E+04  0.13005521771E+04  0.50400001928E-02 0.  1.
    10030    2    1    2    0    0  0.00000000000E+00  0.00000000000E+00 -0.11738192941E+04  0.14272850603E+04  0.81196730733E+03 0.  0.
        1    1    3    3  502    0  0.13047711358E+03  0.71237067497E+02 -0.12509894474E+04  0.12597910916E+04  0.50400001928E-02 0.  1.
       -1    1    3    3    0  502 -0.13047711358E+03 -0.71237067497E+02  0.77170153328E+02  0.16749396868E+03  0.50400001928E-02 0. -1.
</event>
<event>
 5   0  0.2689372E-02  0.8587828E+03  0.7818609E-02  0.9478624E-01
       -1   -1    0    0    0  501  0.00000000000E+00  0.00000000000E+00  0.42808042677E+03  0.42808042680E+03  0.50400001928E-02 0. -1.
        1   -1    0    0  501    0  0.00000000000E+00  0.00000000000E+00 -0.43070637251E+03  0.43070637254E+03  0.50400001928E-02 0.  1.
    10030    2    1    2    0    0  0.00000000000E+00  0.00000000000E+00 -0.26259457433E+01  0.85878679933E+03  0.85878278460E+03 0.  0.
        4    1    3    3  502    0  0.30661921795E+03  0.27908468208E+03 -0.11299048582E+03  0.42973488033E+03  0.12699999809E+01 0. -1.
       -4    1    3    3    0  502 -0.30661921795E+03 -0.27908468208E+03  0.11036454007E+03  0.42905191900E+03  0.12699999809E+01 0.  1.
</event>
<event>
 5   0  0.2689372E-02  0.8117629E+03  0.7818609E-02  0.9543145E-01
        1   -1    0    0  501    0  0.00000000000E+00  0.00000000000E+00  0.52570721552E+03  0.52570721555E+03  0.50400001928E-02 0.  1.
       -1   -1    0    0    0  501  0.00000000000E+00  0.00000000000E+00 -0.31336786609E+03  0.31336786613E+03  0.50400001928E-02 0. -1.
    10030    2    1    2    0    0  0.00000000000E+00  0.00000000000E+00  0.21233934943E+03  0.83907508168E+03  0.81176289234E+03 0.  0.
        4    1    3    3  502    0 -0.17694862605E+03  0.22448787678E+03  0.40401838131E+03  0.49491220273E+03  0.12699999809E+01 0.  1.
       -4    1    3    3    0  502  0.17694862605E+03 -0.22448787678E+03 -0.19167903188E+03  0.34416287894E+03  0.12699999809E+01 0. -1.
</event>
<event>
 5   0  0.2759559E-02  0.7891583E+03  0.7818609E-02  0.9575844E-01
        1   -1    0    0  501    0  0.00000000000E+00  0.00000000000E+00  0.15669760595E+04  0.15669760595E+04  0.50400001928E-02 0. -1.
       -1   -1    0    0    0  501  0.00000000000E+00  0.00000000000E+00 -0.99358701900E+02  0.99358702028E+02  0.50400001928E-02 0.  1.
    10030    2    1    2    0    0  0.00000000000E+00  0.00000000000E+00  0.14676173576E+04  0.16663347615E+04  0.78915830426E+03 0.  0.
        3    1    3    3  502    0 -0.68538159031E+02  0.38364737941E+03  0.60347541808E+03  0.71837690762E+03  0.10100000352E+00 0.  1.
       -3    1    3    3    0  502  0.68538159031E+02 -0.38364737941E+03  0.86414193952E+03  0.94795785392E+03  0.10100000352E+00 0. -1.
</event>
<event>
 5   0  0.4377843E-02  0.7877596E+03  0.7818609E-02  0.9577906E-01
        2   -1    0    0  501    0  0.00000000000E+00  0.00000000000E+00  0.10525724096E+04  0.10525724096E+04  0.25500000920E-02 0.  1.
       -2   -1    0    0    0  501  0.00000000000E+00  0.00000000000E+00 -0.14739252470E+03  0.14739252472E+03  0.25500000920E-02 0. -1.
    10030    2    1    2    0    0  0.00000000000E+00  0.00000000000E+00  0.90517988487E+03  0.11999649343E+04  0.78775962041E+03 0.  0.
        2    1    3    3  502    0 -0.79412956184E+02 -0.35249437728E+03  0.69141987600E+03  0.78014110811E+03  0.25500000920E-02 0.  1.
       -2    1    3    3    0  502  0.79412956184E+02  0.35249437728E+03  0.21376000887E+03  0.41982382618E+03  0.25500000920E-02 0. -1.
</event>
<event>
 5   0  0.2606520E-02  0.7908825E+03  0.7818609E-02  0.9573309E-01
        1   -1    0    0  501    0  0.00000000000E+00  0.00000000000E+00  0.64995393427E+03  0.64995393429E+03  0.50400001928E-02 0. -1.
       -1   -1    0    0    0  501  0.00000000000E+00  0.00000000000E+00 -0.24059208279E+03  0.24059208284E+03  0.50400001928E-02 0.  1.
    10030    2    1    2    0    0  0.00000000000E+00  0.00000000000E+00  0.40936185148E+03  0.89054601713E+03  0.79088247116E+03 0.  0.
        5    1    3    3  502    0 -0.30385249995E+03  0.25265517505E+03  0.18913124147E+03  0.43812520551E+03  0.46999998093E+01 0. -1.
       -5    1    3    3    0  502  0.30385249995E+03 -0.25265517505E+03  0.22023061001E+03  0.45242081162E+03  0.46999998093E+01 0.  1.
</event>
<event>
 5   0  0.4684283E-02  0.8033856E+03  0.7818609E-02  0.9555129E-01
        2   -1    0    0  501    0  0.00000000000E+00  0.00000000000E+00  0.30233213294E+03  0.30233213295E+03  0.25500000920E-02 0. -1.
       -2   -1    0    0    0  501  0.00000000000E+00  0.00000000000E+00 -0.53370811168E+03  0.53370811168E+03  0.25500000920E-02 0.  1.
    10030    2    1    2    0    0  0.00000000000E+00  0.00000000000E+00 -0.23137597874E+03  0.83604024464E+03  0.80338561545E+03 0.  0.
        1    1    3    3  502    0 -0.24144841170E+03 -0.31987816098E+03 -0.14395333612E+03  0.42584261927E+03  0.50400001928E-02 0. -1.
       -1    1    3    3    0  502  0.24144841170E+03  0.31987816098E+03 -0.87422642616E+02  0.41019762536E+03  0.50400001928E-02 0.  1.
</event>
<event>
 5   0  0.2759559E-02  0.7797208E+03  0.7818609E-02  0.9589843E-01
       -1   -1    0    0    0  501  0.00000000000E+00  0.00000000000E+00  0.34103804495E+03  0.34103804499E+03  0.50400001928E-02 0. -1.
        1   -1    0    0  501    0  0.00000000000E+00  0.00000000000E+00 -0.44567210281E+03  0.44567210284E+03  0.50400001928E-02 0.  1.
    10030    2    1    2    0    0  0.00000000000E+00  0.00000000000E+00 -0.10463405786E+03  0.78671014783E+03  0.77972082865E+03 0.  0.
        3    1    3    3  502    0  0.36738145072E+03  0.23859866437E+02 -0.18173492146E+03  0.41056791818E+03  0.10100000352E+00 0. -1.
       -3    1    3    3    0  502 -0.36738145072E+03 -0.23859866437E+02  0.77100863594E+02  0.37614222965E+03  0.10100000352E+00 0.  1.
</event>
<event>
 5   0  0.4684283E-02  0.8233259E+03  0.7818609E-02  0.9526854E-01
        2   -1    0    0  501    0  0.00000000000E+00  0.00000000000E+00  0.11399595611E+04  0.11399595611E+04  0.25500000920E-02 0.  1.
       -2   -1    0    0    0  501  0.00000000000E+00  0.00000000000E+00 -0.14865999826E+03  0.14865999829E+03  0.25500000920E-02 0. -1.
    10030    2    1    2    0    0  0.00000000000E+00  0.00000000000E+00  0.99129956279E+03  0.12886195593E+04  0.82332590481E+03 0.  0.
        1    1    3    3  502    0 -0.22288464774E+03 -0.12849114438E+03  0.99863894321E+03  0.10312454990E+04  0.50400001928E-02 0.  1.
       -1    1    3    3    0  502  0.22288464774E+03  0.12849114438E+03 -0.73393804224E+01  0.25737406030E+03  0.50400001928E-02 0. -1.
</event>
<event>
 5   0  0.2635243E-02  0.7975727E+03  0.7818609E-02  0.9563537E-01
       -1   -1    0    0    0  501  0.00000000000E+00  0.00000000000E+00  0.15902644606E+03  0.15902644614E+03  0.50400001928E-02 0. -1.
        1   -1    0    0  501    0  0.00000000000E+00  0.00000000000E+00 -0.10000258978E+04  0.10000258978E+04  0.50400001928E-02 0.  1.
    10030    2    1    2    0    0  0.00000000000E+00  0.00000000000E+00 -0.84099945172E+03  0.11590523439E+04  0.79757272907E+03 0.  0.
        1    1    3    3  502    0 -0.62244604648E+02  0.37200115036E+03 -0.60869830849E+03  0.71608161369E+03  0.50400001928E-02 0.  1.
       -1    1    3    3    0  502  0.62244604648E+02 -0.37200115036E+03 -0.23230114322E+03  0.44297073023E+03  0.50400001928E-02 0. -1.
</event>
<event>
 5   0  0.4663634E-02  0.8340241E+03  0.7818609E-02  0.9512034E-01
       -2   -1    0    0    0  501  0.00000000000E+00  0.00000000000E+00  0.28909270978E+03  0.28909270979E+03  0.25500000920E-02 0. -1.
        2   -1    0    0  501    0  0.00000000000E+00  0.00000000000E+00 -0.60153386743E+03  0.60153386743E+03  0.25500000920E-02 0.  1.
    10030    2    1    2    0    0  0.00000000000E+00  0.00000000000E+00 -0.31244115765E+03  0.89062657722E+03  0.83402411420E+03 0.  0.
        5    1    3    3  502    0  0.39407934965E+03  0.13291249220E+03 -0.18848184381E+03  0.45663087921E+03  0.46999998093E+01 0.  1.
       -5    1    3    3    0  502 -0.39407934965E+03 -0.13291249220E+03 -0.12395931383E+03  0.43399569801E+03  0.46999998093E+01 0. -1.
</event>
<event>
 5   0  0.2769394E-02  0.7900527E+03  0.7818609E-02  0.9574528E-01
        1   -1    0    0  501    0  0.00000000000E+00  0.00000000000E+00  0.96692328362E+03  0.96692328363E+03  0.50400001928E-02 0. -1.
       -1   -1    0    0    0  501  0.00000000000E+00  0.00000000000E+00 -0.16138385415E+03  0.16138385423E+03  0.50400001928E-02 0.  1.
    10030    2    1    2    0    0  0.00000000000E+00  0.00000000000E+00  0.80553942947E+03  0.11283071379E+04  0.79005267225E+03 0.  0.
        2    1    3    3  502    0 -0.23870341402E+02 -0.39235057978E+03  0.45876007330E+03  0.60412711867E+03  0.25500000920E-02 0.  1.
       -2    1    3    3    0  502  0.23870341402E+02  0.39235057978E+03  0.34677935616E+03  0.52418001919E+03  0.25500000920E-02 0. -1.
</event>
<event>
 5   0  0.4590462E-02  0.8232917E+03  0.7818609E-02  0.9526902E-01
        2   -1    0    0  501    0  0.00000000000E+00  0.00000000000E+00  0.16077232846E+04  0.16077232846E+04  0.25500000920E-02 0.  1.
       -2   -1    0    0    0  501  0.00000000000E+00  0.00000000000E+00 -0.10539893015E+03  0.10539893018E+03  0.25500000920E-02 0. -1.
    10030    2    1    2    0    0  0.00000000000E+00  0.00000000000E+00  0.15023243544E+04  0.17131222147E+04  0.82329172036E+03 0.  0.
        3    1    3    3  502    0  0.31624579820E+03 -0.22078589139E+03  0.10505002481E+04  0.11190659481E+04  0.10100000352E+00 0.  1.
       -3    1    3    3    0  502 -0.31624579820E+03  0.22078589139E+03  0.45182410630E+03  0.59405626665E+03  0.10100000352E+00 0. -1.
</event>
<event>
 5   0  0.4377843E-02  0.7898024E+03  0.7818609E-02  0.9574896E-01
       -2   -1    0    0    0  501  0.00000000000E+00  0.00000000000E+00  0.98962118470E+02  0.98962118502E+02  0.25500000920E-02 0.  1.
        2   -1    0    0  501    0  0.00000000000E+00  0.00000000000E+00 -0.15758247876E+04  0.15758247876E+04  0.25500000920E-02 0. -1.
    10030    2    1    2    0    0  0.00000000000E+00  0.00000000000E+00 -0.14768626691E+04  0.16747869061E+04  0.78980240401E+03 0.  0.
        2    1    3    3  502    0 -0.34557724246E+03  0.11276504263E+03 -0.41124372205E+03  0.54887246631E+03  0.25500000920E-02 0. -1.
       -2    1    3    3    0  502  0.34557724246E+03 -0.11276504263E+03 -0.10656189471E+04  0.11259144398E+04  0.25500000920E-02 0.  1.
</event>
<event>
 5   0  0.1786500E-02  0.6996360E+03  0.7818609E-02  0.9717855E-01
        4   -1    0    0  501    0  0.00000000000E+00  0.00000000000E+00  0.40913514810E+03  0.40913711921E+03  0.12699999809E+01 0. -1.
       -4   -1    0    0    0  501  0.00000000000E+00  0.00000000000E+00 -0.29909668851E+03  0.29909938478E+03  0.12699999809E+01 0.  1.
    10030    2    1    2    0    0  0.00000000000E+00  0.00000000000E+00  0.11003845959E+03  0.70823650399E+03  0.69963596463E+03 0.  0.
        5    1    3    3  502    0 -0.90615149703E+02  0.76066949356E+02  0.38823622331E+03  0.40589006052E+03  0.46999998093E+01 0. -1.
       -5    1    3    3    0  502  0.90615149703E+02 -0.76066949356E+02 -0.27819776372E+03  0.30234644347E+03  0.46999998093E+01 0.  1.
</event>
<event>
 5   0  0.1786500E-02  0.8039813E+03  0.7818609E-02  0.9554272E-01
        4   -1    0    0  501    0  0.00000000000E+00  0.00000000000E+00  0.43697078168E+03  0.43697262722E+03  0.12699999809E+01 0. -1.
       -4   -1    0    0    0  501  0.00000000000E+00  0.00000000000E+00 -0.36980699761E+03  0.36980917834E+03  0.12699999809E+01 0.  1.
    10030    2    1    2    0    0  0.00000000000E+00  0.00000000000E+00  0.67163784071E+02  0.80678180556E+03  0.80398128578E+03 0.  0.
        2    1    3    3  502    0  0.28131838184E+03  0.25496227937E+03  0.16614306759E+03  0.41442648899E+03  0.25500000920E-02 0.  1.
       -2    1    3    3    0  502 -0.28131838184E+03 -0.25496227937E+03 -0.98979283523E+02  0.39235531657E+03  0.25500000920E-02 0. -1.
</event>
<event>
 5   0  0.4663634E-02  0.7908662E+03  0.7818609E-02  0.9573333E-01
       -2   -1    0    0    0  501  0.00000000000E+00  0.00000000000E+00  0.39781916050E+03  0.39781916050E+03  0.25500000920E-02 0. -1.
        2   -1    0    0  501    0  0.00000000000E+00  0.00000000000E+00 -0.39306135572E+03  0.39306135573E+03  0.25500000920E-02 0.  1.
    10030    2    1    2    0    0  0.00000000000E+00  0.00000000000E+00  0.47578047770E+01  0.79088051623E+03  0.79086620502E+03 0.  0.
        5    1    3    3  502    0 -0.20374213394E+03  0.23041894018E+03 -0.24610397015E+03  0.39394542676E+03  0.46999998093E+01 0. -1.
       -5    1    3    3    0  502  0.20374213394E+03 -0.23041894018E+03  0.25086177493E+03  0.39693508948E+03  0.46999998093E+01 0.  1.
</event>
<event>
 5   0  0.4590462E-02  0.7897533E+03  0.7818609E-02  0.9574968E-01
       -2   -1    0    0    0  501  0.00000000000E+00  0.00000000000E+00  0.19612744051E+03  0.19612744053E+03  0.25500000920E-02 0. -1.
        2   -1    0    0  501    0  0.00000000000E+00  0.00000000000E+00 -0.79503198391E+03  0.79503198392E+03  0.25500000920E-02 0.  1.
    10030    2    1    2    0    0  0.00000000000E+00  0.00000000000E+00 -0.59890454340E+03  0.99115942444E+03  0.78975334919E+03 0.  0.
        3    1    3    3  502    0  0.16708383490E+03 -0.88651522265E+02 -0.73447965662E+03  0.75844345634E+03  0.10100000352E+00 0.  1.
       -3    1    3    3    0  502 -0.16708383490E+03  0.88651522265E+02  0.13557511321E+03  0.23271596810E+03  0.10100000352E+00 0. -1.
</event>
<event>
 5   0  0.4684283E-02  0.7838061E+03  0.7818609E-02  0.9583758E-01
        2   -1    0    0  501    0  0.00000000000E+00  0.00000000000E+00  0.11540345382E+04  0.11540345382E+04  0.25500000920E-02 0.  1.
       -2   -1    0    0    0  501  0.00000000000E+00  0.00000000000E+00 -0.13308786419E+03  0.13308786421E+03  0.25500000920E-02 0. -1.
    10030    2    1    2    0    0  0.00000000000E+00  0.00000000000E+00  0.10209466740E+04  0.12871224024E+04  0.78380607780E+03 0.  0.
        1    1    3    3  502    0  0.21164354038E+03  0.32492587777E+03  0.41731617928E+03  0.56966885797E+03  0.50400001928E-02 0. -1.
       -1    1    3    3    0  502 -0.21164354038E+03 -0.32492587777E+03  0.60363049469E+03  0.71745354440E+03  0.50400001928E-02 0.  1.
</event>
<event>
 5   0  0.2606520E-02  0.7932965E+03  0.7818609E-02  0.9569771E-01
       -1   -1    0    0    0  501  0.00000000000E+00  0.00000000000E+00  0.93903125189E+02  0.93903125324E+02  0.50400001928E-02 0.  1.
        1   -1    0    0  501    0  0.00000000000E+00  0.00000000000E+00 -0.16754481972E+04  0.16754481972E+04  0.50400001928E-02 0. -1.
    10030    2    1    2    0    0  0.00000000000E+00  0.00000000000E+00 -0.15815450720E+04  0.17693513225E+04  0.79329646900E+03 0.  0.
        5    1    3    3  502    0  0.30901966356E+03  0.17795444320E+03 -0.40351566502E+03  0.53852383257E+03  0.46999998093E+01 0.  1.
       -5    1    3    3    0  502 -0.30901966356E+03 -0.17795444320E+03 -0.11780294070E+04  0.12308274899E+04  0.46999998093E+01 0. -1.
</event>
<event>
 5   0  0.2635243E-02  0.7953673E+03  0.7818609E-02  0.9566747E-01
        1   -1    0    0  501    0  0.00000000000E+00  0.00000000000E+00  0.40854685056E+03  0.40854685059E+03  0.50400001928E-02 0. -1.
       -1   -1    0    0    0  501  0.00000000000E+00  0.00000000000E+00 -0.38710932573E+03  0.38710932576E+03  0.50400001928E-02 0.  1.
    10030    2    1    2    0    0  0.00000000000E+00  0.00000000000E+00  0.21437524831E+02  0.79565617635E+03  0.79536732614E+03 0.  0.
        1    1    3    3  502    0 -0.18368735927E+03  0.16009273189E+03 -0.30369072900E+03  0.38935688984E+03  0.50400001928E-02 0.  1.
       -1    1    3    3    0  502  0.18368735927E+03 -0.16009273189E+03  0.32512825383E+03  0.40629928651E+03  0.50400001928E-02 0. -1.
</event>
<event>
 5   0  0.1786500E-02  0.8024433E+03  0.7818609E-02  0.9556487E-01
        3   -1    0    0  501    0  0.00000000000E+00  0.00000000000E+00  0.62661457327E+03  0.62661458141E+03  0.10100000352E+00 0. -1.
       -3   -1    0    0    0  501  0.00000000000E+00  0.00000000000E+00 -0.25690242179E+03  0.25690244164E+03  0.10100000352E+00 0.  1.
    10030    2    1    2    0    0  0.00000000000E+00  0.00000000000E+00  0.36971215148E+03  0.88351702305E+03  0.80244330334E+03 0.  0.
        1    1    3    3  502    0  0.19186229729E+03 -0.15429406569E+03 -0.16394923179E+03  0.29579917251E+03  0.50400001928E-02 0.  1.
       -1    1    3    3    0  502 -0.19186229729E+03  0.15429406569E+03  0.53366138327E+03  0.58771785054E+03  0.50400001928E-02 0. -1.
</event>
<event>
 5   0  0.4377843E-02  0.7966534E+03  0.7818609E-02  0.9564874E-01
       -2   -1    0    0    0  501  0.00000000000E+00  0.00000000000E+00  0.13045504415E+03  0.13045504418E+03  0.25500000920E-02 0.  1.
        2   -1    0    0  501    0  0.00000000000E+00  0.00000000000E+00 -0.12162362038E+04  0.12162362038E+04  0.25500000920E-02 0. -1.
    10030    2    1    2    0    0  0.00000000000E+00  0.00000000000E+00 -0.10857811597E+04  0.13466912480E+04  0.79665336927E+03 0.  0.
        2    1    3    3  502    0  0.13744247662E+03  0.32493948106E+03 -0.23032886110E+03  0.42134010608E+03  0.25500000920E-02 0. -1.
       -2    1    3    3    0  502 -0.13744247662E+03 -0.32493948106E+03 -0.85545229858E+03  0.92535114194E+03  0.25500000920E-02 0.  1.
</event>
<event>
 5   0  0.2769394E-02  0.8042918E+03  0.7818609E-02  0.9553826E-01
        1   -1    0    0  501    0  0.00000000000E+00  0.00000000000E+00  0.48200463226E+03  0.48200463228E+03  0.50400001928E-02 0.  1.
       -1   -1    0    0    0  501  0.00000000000E+00  0.00000000000E+00 -0.33551820914E+03  0.33551820918E+03  0.50400001928E-02 0. -1.
    10030    2    1    2    0    0  0.00000000000E+00  0.00000000000E+00  0.14648642312E+03  0.81752284146E+03  0.80429181529E+03 0.  0.
        2    1    3    3  502    0  0.84530871513E+02  0.11448433984E+02 -0.32621641007E+03  0.33718493603E+03  0.25500000920E-02 0. -1.
       -2    1    3    3    0  502 -0.84530871513E+02 -0.11448433984E+02  0.47270283319E+03  0.48033790543E+03  0.25500000920E-02 0.  1.
</event>
<event>
 5   0  0.4590462E-02  0.7794677E+03  0.7818609E-02  0.9590222E-01
       -2   -1    0    0    0  501  0.00000000000E+00  0.00000000000E+00  0.12643733928E+03  0.12643733930E+03  0.25500000920E-02 0. -1.
        2   -1    0    0  501    0  0.00000000000E+00  0.00000000000E+00 -0.12013260168E+04  0.12013260168E+04  0.25500000920E-02 0.  1.
    10030    2    1    2    0    0  0.00000000000E+00  0.00000000000E+00 -0.10748886775E+04  0.13277633561E+04  0.77946767780E+03 0.  0.
        3    1    3    3  502    0  0.24974797512E+03 -0.29787108392E+03 -0.58535934453E+03  0.70267119348E+03  0.10100000352E+00 0.  1.
       -3    1    3    3    0  502 -0.24974797512E+03  0.29787108392E+03 -0.48952933299E+03  0.62509216262E+03  0.10100000352E+00 0. -1.
</event>
<event>
 5   0  0.4663634E-02  0.8719081E+03  0.7818609E-02  0.9461395E-01
       -2   -1    0    0    0  501  0.00000000000E+00  0.00000000000E+00  0.13134069064E+03  0.13134069067E+03  0.25500000920E-02 0. -1.
        2   -1    0    0  501    0  0.00000000000E+00  0.00000000000E+00 -0.14470453522E+04  0.14470453522E+04  0.25500000920E-02 0.  1.
    10030    2    1    2    0    0  0.00000000000E+00  0.00000000000E+00 -0.13157046615E+04  0.15783860428E+04  0.87190810517E+03 0.  0.
        5    1    3    3  502    0  0.24441464541E+03 -0.31740427761E+03 -0.34666624535E+03  0.52979578141E+03  0.46999998093E+01 0. -1.
       -5    1    3    3    0  502 -0.24441464541E+03  0.31740427761E+03 -0.96903841617E+03  0.10485902614E+04  0.46999998093E+01 0.  1.
</event>
<event>
 5   0  0.1786500E-02  0.8088781E+03  0.7818609E-02  0.9547255E-01
       -3   -1    0    0    0  501  0.00000000000E+00  0.00000000000E+00  0.28855707144E+03  0.28855708912E+03  0.10100000352E+00 0. -1.
        3   -1    0    0  501    0  0.00000000000E+00  0.00000000000E+00 -0.56685810112E+03  0.56685811012E+03  0.10100000352E+00 0.  1.
    10030    2    1    2    0    0  0.00000000000E+00  0.00000000000E+00 -0.27830102968E+03  0.85541519923E+03  0.80887805012E+03 0.  0.
        1    1    3    3  502    0 -0.24914783666E+03  0.24660951431E+03 -0.35244740977E+03  0.49710167344E+03  0.50400001928E-02 0.  1.
       -1    1    3    3    0  502  0.24914783666E+03 -0.24660951431E+03  0.74146380089E+02  0.35831352579E+03  0.50400001928E-02 0. -1.
</event>
<event>
 5   0  0.2759559E-02  0.9034041E+03  0.7818609E-02  0.9421336E-01
        1   -1    0    0  501    0  0.00000000000E+00  0.00000000000E+00  0.73688180089E+03  0.73688180091E+03  0.50400001928E-02 0. -1.
       -1   -1    0    0    0  501  0.00000000000E+00  0.00000000000E+00 -0.27688937512E+03  0.27688937517E+03  0.50400001928E-02 0.  1.
    10030    2    1    2    0    0  0.00000000000E+00  0.00000000000E+00  0.45999242577E+03  0.10137711761E+04  0.90340409877E+03 0.  0.
        3    1    3    3  502    0  0.44911552608E+03  0.47620968173E+02  0.22114467295E+03  0.50286925632E+03  0.10100000352E+00 0.  1.
       -3    1    3    3    0  502 -0.44911552608E+03 -0.47620968173E+02  0.23884775282E+03  0.51090191975E+03  0.10100000352E+00 0. -1.
</event>
<event>
 5   0  0.2606520E-02  0.7978199E+03  0.7818609E-02  0.9563178E-01
        1   -1    0    0  501    0  0.00000000000E+00  0.00000000000E+00  0.65722527858E+02  0.65722528051E+02  0.50400001928E-02 0. -1.
       -1   -1    0    0    0  501  0.00000000000E+00  0.00000000000E+00 -0.24212269967E+04  0.24212269967E+04  0.50400001928E-02 0.  1.
    10030    2    1    2    0    0  0.00000000000E+00  0.00000000000E+00 -0.23555044689E+04  0.24869495248E+04  0.79781992702E+03 0.  0.
        5    1    3    3  502    0 -0.81436177739E+00  0.79168524145E+02 -0.23964017800E+04  0.23977138903E+04  0.46999998093E+01 0.  1.
       -5    1    3    3    0  502  0.81436177739E+00 -0.79168524145E+02  0.40897311173E+02  0.89235634473E+02  0.46999998093E+01 0. -1.
</event>
<event>
 5   0  0.4684283E-02  0.7974666E+03  0.7818609E-02  0.9563691E-01
       -2   -1    0    0    0  501  0.00000000000E+00  0.00000000000E+00  0.84504386582E+02  0.84504386621E+02  0.25500000920E-02 0. -1.
        2   -1    0    0  501    0  0.00000000000E+00  0.00000000000E+00 -0.18814201016E+04  0.18814201016E+04  0.25500000920E-02 0.  1.
    10030    2    1    2    0    0  0.00000000000E+00  0.00000000000E+00 -0.17969157150E+04  0.19659244882E+04  0.79746661780E+03 0.  0.
        1    1    3    3  502    0  0.14782530509E+03  0.34280831042E+03 -0.12437494756E+04  0.12985694500E+04  0.50400001928E-02 0.  1.
       -1    1    3    3    0  502 -0.14782530509E+03 -0.34280831042E+03 -0.55316623943E+03  0.66735503819E+03  0.50400001928E-02 0. -1.
</event>
<event>
 5   0  0.4700220E-02  0.7934796E+03  0.7818609E-02  0.9569503E-01
        2   -1    0    0  501    0  0.00000000000E+00  0.00000000000E+00  0.13730693887E+04  0.13730693887E+04  0.25500000920E-02 0.  1.
       -2   -1    0    0    0  501  0.00000000000E+00  0.00000000000E+00 -0.11463547433E+03  0.11463547435E+03  0.25500000920E-02 0. -1.
    10030    2    1    2    0    0  0.00000000000E+00  0.00000000000E+00  0.12584339144E+04  0.14877048631E+04  0.79347957928E+03 0.  0.
        4    1    3    3  502    0 -0.30619200170E+02  0.29810573693E+03  0.11166808280E+04  0.11561929987E+04  0.12699999809E+01 0.  1.
       -4    1    3    3    0  502  0.30619200170E+02 -0.29810573693E+03  0.14175308644E+03  0.33151186439E+03  0.12699999809E+01 0. -1.
</event>
<event>
 5   0  0.1786500E-02  0.8088666E+03  0.7818609E-02  0.9547271E-01
        4   -1    0    0  501    0  0.00000000000E+00  0.00000000000E+00  0.12576594460E+04  0.12576600873E+04  0.12699999809E+01 0.  1.
       -4   -1    0    0    0  501  0.00000000000E+00  0.00000000000E+00 -0.13005233306E+03  0.13005853388E+03  0.12699999809E+01 0. -1.
    10030    2    1    2    0    0  0.00000000000E+00  0.00000000000E+00  0.11276071130E+04  0.13877186211E+04  0.80886659607E+03 0.  0.
        3    1    3    3  502    0 -0.17191590629E+02 -0.40321791299E+03  0.60874025917E+03  0.73037315769E+03  0.10100000352E+00 0.  1.
       -3    1    3    3    0  502  0.17191590629E+02  0.40321791299E+03  0.51886685380E+03  0.65734546345E+03  0.10100000352E+00 0. -1.
</event>
<event>
 5   0  0.2689372E-02  0.6772836E+03  0.7818609E-02  0.9756889E-01
        1   -1    0    0  501    0  0.00000000000E+00  0.00000000000E+00  0.22235551192E+03  0.22235551198E+03  0.50400001928E-02 0. -1.
       -1   -1    0    0    0  501  0.00000000000E+00  0.00000000000E+00 -0.51574282356E+03  0.51574282358E+03  0.50400001928E-02 0.  1.
    10030    2    1    2    0    0  0.00000000000E+00  0.00000000000E+00 -0.29338731163E+03  0.73809833556E+03  0.67728357305E+03 0.  0.
        4    1    3    3  502    0 -0.23669620548E+03 -0.23014960631E+03 -0.64541021188E+02  0.33639424979E+03  0.12699999809E+01 0.  1.
       -4    1    3    3    0  502  0.23669620548E+03  0.23014960631E+03 -0.22884629045E+03  0.40170408577E+03  0.12699999809E+01 0. -1.
</event>
<event>
 5   0  0.4663634E-02  0.7976498E+03  0.7818609E-02  0.9563425E-01
       -2   -1    0    0    0  501  0.00000000000E+00  0.00000000000E+00  0.23781634582E+03  0.23781634583E+03  0.25500000920E-02 0. -1.
        2   -1    0    0  501    0  0.00000000000E+00  0.00000000000E+00 -0.66884095932E+03  0.66884095933E+03  0.25500000920E-02 0.  1.
    10030    2    1    2    0    0  0.00000000000E+00  0.00000000000E+00 -0.43102461350E+03  0.90665730516E+03  0.79764983016E+03 0.  0.
        5    1    3    3  502    0  0.24449110369E+03  0.60919603406E+02 -0.56687129110E+03  0.62036460935E+03  0.46999998093E+01 0.  1.
       -5    1    3    3    0  502 -0.24449110369E+03 -0.60919603406E+02  0.13584667760E+03  0.28629269581E+03  0.46999998093E+01 0. -1.
</event>
<event>
 5   0  0.2635243E-02  0.7812284E+03  0.7818609E-02  0.9587593E-01
       -1   -1    0    0    0  501  0.00000000000E+00  0.00000000000E+00  0.14457408503E+03  0.14457408512E+03  0.50400001928E-02 0.  1.
        1   -1    0    0  501    0  0.00000000000E+00  0.00000000000E+00 -0.10553721290E+04  0.10553721290E+04  0.50400001928E-02 0. -1.
    10030    2    1    2    0    0  0.00000000000E+00  0.00000000000E+00 -0.91079804399E+03  0.11999462141E+04  0.78122841724E+03 0.  0.
        1    1    3    3  502    0  0.30313347879E+03  0.98016188436E+01 -0.83349033864E+03  0.88695666316E+03  0.50400001928E-02 0. -1.
       -1    1    3    3    0  502 -0.30313347879E+03 -0.98016188436E+01 -0.77307705348E+02  0.31298955098E+03  0.50400001928E-02 0.  1.
</event>
<event>
 5   0  0.4663634E-02  0.9378469E+03  0.7818609E-02  0.9379470E-01
        2   -1    0    0  501    0  0.00000000000E+00  0.00000000000E+00  0.48217162900E+03  0.48217162900E+03  0.25500000920E-02 0.  1.
       -2   -1    0    0    0  501  0.00000000000E+00  0.00000000000E+00 -0.45603927719E+03  0.45603927720E+03  0.25500000920E-02 0. -1.
    10030    2    1    2    0    0  0.00000000000E+00  0.00000000000E+00  0.26132351804E+02  0.93821090620E+03  0.93784689833E+03 0.  0.
        5    1    3    3  502    0  0.38041274387E+03 -0.20995053322E+03  0.18941286677E+03  0.47401730579E+03  0.46999998093E+01 0.  1.
       -5    1    3    3    0  502 -0.38041274387E+03  0.20995053322E+03 -0.16328051497E+03  0.46419360041E+03  0.46999998093E+01 0. -1.
</event>
<event>
 5   0  0.2769394E-02  0.9410694E+03  0.7818609E-02  0.9375650E-01
        1   -1    0    0  501    0  0.00000000000E+00  0.00000000000E+00  0.42731376149E+03  0.42731376152E+03  0.50400001928E-02 0. -1.
       -1   -1    0    0    0  501  0.00000000000E+00  0.00000000000E+00 -0.51812727520E+03  0.51812727523E+03  0.50400001928E-02 0.  1.
    10030    2    1    2    0    0  0.00000000000E+00  0.00000000000E+00 -0.90813513713E+02  0.94544103675E+03  0.94106942342E+03 0.  0.
        2    1    3    3  502    0  0.24840699738E+03  0.31555270158E+03 -0.29174647926E+03  0.49638246543E+03  0.25500000920E-02 0.  1.
       -2    1    3    3    0  502 -0.24840699738E+03 -0.31555270158E+03  0.20093296555E+03  0.44905857132E+03  0.25500000920E-02 0. -1.
</event>
<event>
 5   0  0.4684283E-02  0.7375228E+03  0.7818609E-02  0.9655131E-01
        2   -1    0    0  501    0  0.00000000000E+00  0.00000000000E+00  0.23722157625E+03  0.23722157627E+03  0.25500000920E-02 0.  1.
       -2   -1    0    0    0  501  0.00000000000E+00  0.00000000000E+00 -0.57324032299E+03  0.57324032299E+03  0.25500000920E-02 0. -1.
    10030    2    1    2    0    0  0.00000000000E+00  0.00000000000E+00 -0.33601874673E+03  0.81046189926E+03  0.73752280778E+03 0.  0.
        1    1    3    3  502    0 -0.61124869515E+02 -0.30633696151E+03  0.47347574503E+02  0.31594362867E+03  0.50400001928E-02 0.  1.
       -1    1    3    3    0  502  0.61124869515E+02  0.30633696151E+03 -0.38336632124E+03  0.49451827059E+03  0.50400001928E-02 0. -1.
</event>
<event>
 5   0  0.4377843E-02  0.7387775E+03  0.7818609E-02  0.9653123E-01
       -2   -1    0    0    0  501  0.00000000000E+00  0.00000000000E+00  0.29548801943E+03  0.29548801944E+03  0.25500000920E-02 0. -1.
        2   -1    0    0  501    0  0.00000000000E+00  0.00000000000E+00 -0.46177189488E+03  0.46177189489E+03  0.25500000920E-02 0.  1.
    10030    2    1    2    0    0  0.00000000000E+00  0.00000000000E+00 -0.16628387545E+03  0.75725991433E+03  0.73877753798E+03 0.  0.
        2    1    3    3  502    0  0.35672862284E+03 -0.56971152555E+02 -0.40956065194E+01  0.36127246861E+03  0.25500000920E-02 0.  1.
       -2    1    3    3    0  502 -0.35672862284E+03  0.56971152555E+02 -0.16218826893E+03  0.39598744571E+03  0.25500000920E-02 0. -1.
</event>
<event>
 5   0  0.2606520E-02  0.7843344E+03  0.7818609E-02  0.9582973E-01
        1   -1    0    0  501    0  0.00000000000E+00  0.00000000000E+00  0.72249611076E+03  0.72249611078E+03  0.50400001928E-02 0.  1.
       -1   -1    0    0    0  501  0.00000000000E+00  0.00000000000E+00 -0.21286635985E+03  0.21286635991E+03  0.50400001928E-02 0. -1.
    10030    2    1    2    0    0  0.00000000000E+00  0.00000000000E+00  0.50962975091E+03  0.93536247069E+03  0.78433441118E+03 0.  0.
        5    1    3    3  502    0 -0.15379087290E+03 -0.91089990029E+01 -0.17523073068E+03  0.23337203222E+03  0.46999998093E+01 0. -1.
       -5    1    3    3    0  502  0.15379087290E+03  0.91089990029E+01  0.68486048159E+03  0.70199043847E+03  0.46999998093E+01 0.  1.
</event>
<event>
 5   0  0.2689372E-02  0.8057549E+03  0.7818609E-02  0.9551724E-01
        1   -1    0    0  501    0  0.00000000000E+00  0.00000000000E+00  0.11747442237E+04  0.11747442237E+04  0.50400001928E-02 0.  1.
       -1   -1    0    0    0  501  0.00000000000E+00  0.00000000000E+00 -0.13816646364E+03  0.13816646373E+03  0.50400001928E-02 0. -1.
    10030    2    1    2    0    0  0.00000000000E+00  0.00000000000E+00  0.10365777600E+04  0.13129106874E+04  0.80575493826E+03 0.  0.
        4    1    3    3  502    0 -0.35060533897E+03 -0.12033764801E+03  0.26115373846E+03  0.45344033925E+03  0.12699999809E+01 0. -1.
       -4    1    3    3    0  502  0.35060533897E+03  0.12033764801E+03  0.77542402156E+03  0.85947034816E+03  0.12699999809E+01 0.  1.
</event>
<event>
 5   0  0.1786500E-02  0.7864286E+03  0.7818609E-02  0.9579872E-01
       -3   -1    0    0    0  501  0.00000000000E+00  0.00000000000E+00  0.36655858298E+03  0.36655859689E+03  0.10100000352E+00 0.  1.
        3   -1    0    0  501    0  0.00000000000E+00  0.00000000000E+00 -0.42180839010E+03  0.42180840219E+03  0.10100000352E+00 0. -1.
    10030    2    1    2    0    0  0.00000000000E+00  0.00000000000E+00 -0.55249807119E+02  0.78836699908E+03  0.78642862617E+03 0.  0.
        4    1    3    3  502    0 -0.52908945107E+01 -0.20414257679E+03  0.30922966228E+03  0.37057628385E+03  0.12699999809E+01 0.  1.
       -4    1    3    3    0  502  0.52908945107E+01  0.20414257679E+03 -0.36447946939E+03  0.41779071523E+03  0.12699999809E+01 0. -1.
</event>
<event>
 5   0  0.4700220E-02  0.6949530E+03  0.7818609E-02  0.9725902E-01
        2   -1    0    0  501    0  0.00000000000E+00  0.00000000000E+00  0.16075433307E+04  0.16075433307E+04  0.25500000920E-02 0.  1.
       -2   -1    0    0    0  501  0.00000000000E+00  0.00000000000E+00 -0.75108344563E+02  0.75108344607E+02  0.25500000920E-02 0. -1.
    10030    2    1    2    0    0  0.00000000000E+00  0.00000000000E+00  0.15324349861E+04  0.16826516753E+04  0.69495300105E+03 0.  0.
        4    1    3    3  502    0 -0.34444548427E+03 -0.31348525089E+02  0.68544495889E+03  0.76776417357E+03  0.12699999809E+01 0.  1.
       -4    1    3    3    0  502  0.34444548427E+03  0.31348525089E+02  0.84699002721E+03  0.91488750169E+03  0.12699999809E+01 0. -1.
</event>
<event>
 5   0  0.4663634E-02  0.7832408E+03  0.7818609E-02  0.9584597E-01
       -2   -1    0    0    0  501  0.00000000000E+00  0.00000000000E+00  0.14027626946E+03  0.14027626948E+03  0.25500000920E-02 0. -1.
        2   -1    0    0  501    0  0.00000000000E+00  0.00000000000E+00 -0.10933176279E+04  0.10933176279E+04  0.25500000920E-02 0.  1.
    10030    2    1    2    0    0  0.00000000000E+00  0.00000000000E+00 -0.95304135843E+03  0.12335938974E+04  0.78324075019E+03 0.  0.
        5    1    3    3  502    0  0.26377450221E+03  0.18859733120E+03 -0.82229571867E+03  0.88393341395E+03  0.46999998093E+01 0.  1.
       -5    1    3    3    0  502 -0.26377450221E+03 -0.18859733120E+03 -0.13074563977E+03  0.34966048343E+03  0.46999998093E+01 0. -1.
</event>
<event>
 5   0  0.2635243E-02  0.7846295E+03  0.7818609E-02  0.9582536E-01
       -1   -1    0    0    0  501  0.00000000000E+00  0.00000000000E+00  0.11902824348E+03  0.11902824358E+03  0.50400001928E-02 0. -1.
        1   -1    0    0  501    0  0.00000000000E+00  0.00000000000E+00 -0.12930617461E+04  0.12930617461E+04  0.50400001928E-02 0.  1.
    10030    2    1    2    0    0  0.00000000000E+00  0.00000000000E+00 -0.11740335027E+04  0.14120899897E+04  0.78462951367E+03 0.  0.
        1    1    3    3  502    0  0.29395696822E+02 -0.32299213066E+03 -0.18976661600E+03  0.37576507559E+03  0.50400001928E-02 0. -1.
       -1    1    3    3    0  502 -0.29395696822E+02  0.32299213066E+03 -0.98426688665E+03  0.10363249141E+04  0.50400001928E-02 0.  1.
</event>
<event>
 5   0  0.4700220E-02  0.7850816E+03  0.7818609E-02  0.9581866E-01
       -2   -1    0    0    0  501  0.00000000000E+00  0.00000000000E+00  0.19337196438E+03  0.19337196440E+03  0.25500000920E-02 0.  1.
        2   -1    0    0  501    0  0.00000000000E+00  0.00000000000E+00 -0.79684902686E+03  0.79684902686E+03  0.25500000920E-02 0. -1.
    10030    2    1    2    0    0  0.00000000000E+00  0.00000000000E+00 -0.60347706248E+03  0.99022099126E+03  0.78508155411E+03 0.  0.
        4    1    3    3  502    0  0.18984331094E+03 -0.90180574456E+02  0.11642208838E+03  0.24026804673E+03  0.12699999809E+01 0.  1.
       -4    1    3    3    0  502 -0.18984331094E+03  0.90180574456E+02 -0.71989915085E+03  0.74995294453E+03  0.12699999809E+01 0. -1.
</event>
<event>
 5   0  0.1786500E-02  0.7948073E+03  0.7818609E-02  0.9567564E-01
        3   -1    0    0  501    0  0.00000000000E+00  0.00000000000E+00  0.31702504479E+03  0.31702506087E+03  0.10100000352E+00 0.  1.
       -3   -1    0    0    0  501  0.00000000000E+00  0.00000000000E+00 -0.49816147348E+03  0.49816148372E+03  0.10100000352E+00 0. -1.
    10030    2    1    2    0    0  0.00000000000E+00  0.00000000000E+00 -0.18113642870E+03  0.81518654459E+03  0.79480733306E+03 0.  0.
        4    1    3    3  502    0 -0.29407631573E+03 -0.18171946251E+03 -0.29161785978E+03  0.45226699147E+03  0.12699999809E+01 0. -1.
       -4    1    3    3    0  502  0.29407631573E+03  0.18171946251E+03  0.11048143108E+03  0.36291955313E+03  0.12699999809E+01 0.  1.
</event>
<event>
 5   0  0.2759559E-02  0.8921056E+03  0.7818609E-02  0.9435504E-01
       -1   -1    0    0    0  501  0.00000000000E+00  0.00000000000E+00  0.22413938966E+03  0.22413938972E+03  0.50400001928E-02 0. -1.
        1   -1    0    0  501    0  0.00000000000E+00  0.00000000000E+00 -0.88767576314E+03  0.88767576316E+03  0.50400001928E-02 0.  1.
    10030    2    1    2    0    0  0.00000000000E+00  0.00000000000E+00 -0.66353637348E+03  0.11118151529E+04  0.89210560767E+03 0.  0.
        3    1    3    3  502    0 -0.26368971232E+03 -0.16740543177E+03  0.65102188859E+02  0.31905351928E+03  0.10100000352E+00 0. -1.
       -3    1    3    3    0  502  0.26368971232E+03  0.16740543177E+03 -0.72863856234E+03  0.79276163359E+03  0.10100000352E+00 0.  1.
</event>
<event>
 5   0  0.2769394E-02  0.8239836E+03  0.7818609E-02  0.9525936E-01
       -1   -1    0    0    0  501  0.00000000000E+00  0.00000000000E+00  0.41291157817E+03  0.41291157820E+03  0.50400001928E-02 0. -1.
        1   -1    0    0  501    0  0.00000000000E+00  0.00000000000E+00 -0.41107404149E+03  0.41107404152E+03  0.50400001928E-02 0.  1.
    10030    2    1    2    0    0  0.00000000000E+00  0.00000000000E+00  0.18375366776E+01  0.82398561972E+03  0.82398357081E+03 0.  0.
        2    1    3    3  502    0  0.25177385240E+03  0.11885624717E+02 -0.32497449423E+03  0.41126604860E+03  0.25500000920E-02 0.  1.
       -2    1    3    3    0  502 -0.25177385240E+03 -0.11885624717E+02  0.32681203091E+03  0.41271957111E+03  0.25500000920E-02 0. -1.
</event>
<event>
 5   0  0.2769394E-02  0.7907808E+03  0.7818609E-02  0.9573458E-01
       -1   -1    0    0    0  501  0.00000000000E+00  0.00000000000E+00  0.23898309389E+03  0.23898309394E+03  0.50400001928E-02 0. -1.
        1   -1    0    0  501    0  0.00000000000E+00  0.00000000000E+00 -0.65416169689E+03  0.65416169691E+03  0.50400001928E-02 0.  1.
    10030    2    1    2    0    0  0.00000000000E+00  0.00000000000E+00 -0.41517860300E+03  0.89314479085E+03  0.79078084514E+03 0.  0.
        2    1    3    3  502    0  0.34698847965E+03 -0.87900267909E+02 -0.17902359508E+02  0.35839636799E+03  0.25500000920E-02 0. -1.
       -2    1    3    3    0  502 -0.34698847965E+03  0.87900267909E+02 -0.39727624349E+03  0.53474842286E+03  0.25500000920E-02 0.  1.
</event>
<event>
 5   0  0.2635243E-02  0.6619204E+03  0.7818609E-02  0.9784665E-01
       -1   -1    0    0    0  501  0.00000000000E+00  0.00000000000E+00  0.59009317044E+02  0.59009317259E+02  0.50400001928E-02 0. -1.
        1   -1    0    0  501    0  0.00000000000E+00  0.00000000000E+00 -0.18562263139E+04  0.18562263139E+04  0.50400001928E-02 0.  1.
    10030    2    1    2    0    0  0.00000000000E+00  0.00000000000E+00 -0.17972169969E+04  0.19152356312E+04  0.66192037973E+03 0.  0.
        1    1    3    3  502    0  0.18063630733E+03 -0.61115136718E+02 -0.11593015100E+03  0.22316884952E+03  0.50400001928E-02 0. -1.
       -1    1    3    3    0  502 -0.18063630733E+03  0.61115136718E+02 -0.16812868459E+04  0.16920667817E+04  0.50400001928E-02 0.  1.
</event>
<event>
 5   0  0.2606520E-02  0.7444470E+03  0.7818609E-02  0.9644103E-01
        1   -1    0    0  501    0  0.00000000000E+00  0.00000000000E+00  0.26676156753E+03  0.26676156757E+03  0.50400001928E-02 0.  1.
       -1   -1    0    0    0  501  0.00000000000E+00  0.00000000000E+00 -0.51937897750E+03  0.51937897753E+03  0.50400001928E-02 0. -1.
    10030    2    1    2    0    0  0.00000000000E+00  0.00000000000E+00 -0.25261740998E+03  0.78614054510E+03  0.74444704367E+03 0.  0.
        5    1    3    3  502    0 -0.13857992530E+03 -0.10269369806E+02 -0.49092664973E+03  0.51023614245E+03  0.46999998093E+01 0. -1.
       -5    1    3    3    0  502  0.13857992530E+03  0.10269369806E+02  0.23830923975E+03  0.27590440265E+03  0.46999998093E+01 0.  1.
</event>
<event>
 5   0  0.2769394E-02  0.7895693E+03  0.7818609E-02  0.9575239E-01
       -1   -1    0    0    0  501  0.00000000000E+00  0.00000000000E+00  0.29202437900E+03  0.29202437905E+03  0.50400001928E-02 0.  1.
        1   -1    0    0  501    0  0.00000000000E+00  0.00000000000E+00 -0.53370521530E+03  0.53370521532E+03  0.50400001928E-02 0. -1.
    10030    2    1    2    0    0  0.00000000000E+00  0.00000000000E+00 -0.24168083630E+03  0.82572959437E+03  0.78956933602E+03 0.  0.
        2    1    3    3  502    0  0.71675167974E+02 -0.20229944201E+03 -0.46736495602E+03  0.51428824220E+03  0.25500000920E-02 0. -1.
       -2    1    3    3    0  502 -0.71675167974E+02  0.20229944201E+03  0.22568411972E+03  0.31144135217E+03  0.25500000920E-02 0.  1.
</event>
<event>
 5   0  0.4700220E-02  0.8612830E+03  0.7818609E-02  0.9475317E-01
       -2   -1    0    0    0  501  0.00000000000E+00  0.00000000000E+00  0.11366193697E+03  0.11366193700E+03  0.25500000920E-02 0.  1.
        2   -1    0    0  501    0  0.00000000000E+00  0.00000000000E+00 -0.16316111854E+04  0.16316111854E+04  0.25500000920E-02 0. -1.
    10030    2    1    2    0    0  0.00000000000E+00  0.00000000000E+00 -0.15179492485E+04  0.17452731224E+04  0.86128296802E+03 0.  0.
        4    1    3    3  502    0  0.70167814593E+01  0.13418258829E+03  0.70093911047E+02  0.15155517638E+03  0.12699999809E+01 0.  1.
       -4    1    3    3    0  502 -0.70167814593E+01 -0.13418258829E+03 -0.15880431595E+04  0.15937179461E+04  0.12699999809E+01 0. -1.
</event>
<event>
 5   0  0.4700220E-02  0.8073462E+03  0.7818609E-02  0.9549444E-01
       -2   -1    0    0    0  501  0.00000000000E+00  0.00000000000E+00  0.70808373124E+02  0.70808373170E+02  0.25500000920E-02 0. -1.
        2   -1    0    0  501    0  0.00000000000E+00  0.00000000000E+00 -0.23013091283E+04  0.23013091283E+04  0.25500000920E-02 0.  1.
    10030    2    1    2    0    0  0.00000000000E+00  0.00000000000E+00 -0.22305007552E+04  0.23721175015E+04  0.80734615992E+03 0.  0.
        4    1    3    3  502    0 -0.22539022868E+03  0.20945050246E+03 -0.18830067092E+04  0.19079795984E+04  0.12699999809E+01 0.  1.
       -4    1    3    3    0  502  0.22539022868E+03 -0.20945050246E+03 -0.34749404597E+03  0.46413790305E+03  0.12699999809E+01 0. -1.
</event>
<event>
 5   0  0.4684283E-02  0.8242473E+03  0.7818609E-02  0.9525568E-01
        2   -1    0    0  501    0  0.00000000000E+00  0.00000000000E+00  0.22377262377E+03  0.22377262378E+03  0.25500000920E-02 0. -1.
       -2   -1    0    0    0  501  0.00000000000E+00  0.00000000000E+00 -0.75901105619E+03  0.75901105619E+03  0.25500000920E-02 0.  1.
    10030    2    1    2    0    0  0.00000000000E+00  0.00000000000E+00 -0.53523843242E+03  0.98278367997E+03  0.82424728212E+03 0.  0.
        1    1    3    3  502    0 -0.23193079281E+03  0.28458782671E+03 -0.49088888463E+03  0.61298778197E+03  0.50400001928E-02 0.  1.
       -1    1    3    3    0  502  0.23193079281E+03 -0.28458782671E+03 -0.44349547795E+02  0.36979589801E+03  0.50400001928E-02 0. -1.
</event>
<event>
 5   0  0.2689372E-02  0.7702123E+03  0.7818609E-02  0.9604163E-01
       -1   -1    0    0    0  501  0.00000000000E+00  0.00000000000E+00  0.11595892480E+03  0.11595892491E+03  0.50400001928E-02 0.  1.
        1   -1    0    0  501    0  0.00000000000E+00  0.00000000000E+00 -0.12789592454E+04  0.12789592454E+04  0.50400001928E-02 0. -1.
    10030    2    1    2    0    0  0.00000000000E+00  0.00000000000E+00 -0.11630003206E+04  0.13949181703E+04  0.77021227996E+03 0.  0.
        4    1    3    3  502    0 -0.17753691570E+03 -0.12309841870E+03 -0.11588708087E+04  0.11788366050E+04  0.12699999809E+01 0. -1.
       -4    1    3    3    0  502  0.17753691570E+03  0.12309841870E+03 -0.41295119410E+01  0.21608156537E+03  0.12699999809E+01 0.  1.
</event>
<event>
 5   0  0.2689372E-02  0.8104083E+03  0.7818609E-02  0.9545072E-01
        1   -1    0    0  501    0  0.00000000000E+00  0.00000000000E+00  0.39266567888E+03  0.39266567891E+03  0.50400001928E-02 0.  1.
       -1   -1    0    0    0  501  0.00000000000E+00  0.00000000000E+00 -0.41814304012E+03  0.41814304015E+03  0.50400001928E-02 0. -1.
    10030    2    1    2    0    0  0.00000000000E+00  0.00000000000E+00 -0.25477361239E+02  0.81080871907E+03  0.81040834335E+03 0.  0.
        4    1    3    3  502    0  0.87167169491E+02  0.72409260491E+02  0.37648769626E+03  0.39317402607E+03  0.12699999809E+01 0.  1.
       -4    1    3    3    0  502 -0.87167169491E+02 -0.72409260491E+02 -0.40196505750E+03  0.41763469299E+03  0.12699999809E+01 0. -1.
</event>
<event>
 5   0  0.4663634E-02  0.8186315E+03  0.7818609E-02  0.9533434E-01
        2   -1    0    0  501    0  0.00000000000E+00  0.00000000000E+00  0.14011573358E+04  0.14011573358E+04  0.25500000920E-02 0.  1.
       -2   -1    0    0    0  501  0.00000000000E+00  0.00000000000E+00 -0.11957214084E+03  0.11957214086E+03  0.25500000920E-02 0. -1.
    10030    2    1    2    0    0  0.00000000000E+00  0.00000000000E+00  0.12815851950E+04  0.15207294767E+04  0.81863149785E+03 0.  0.
        5    1    3    3  502    0  0.39135075605E+02 -0.40400360014E+03  0.54307906980E+03  0.67801727789E+03  0.46999998093E+01 0.  1.
       -5    1    3    3    0  502 -0.39135075605E+02  0.40400360014E+03  0.73850612519E+03  0.84271219880E+03  0.46999998093E+01 0. -1.
</event>
<event>
 5   0  0.2606520E-02  0.7028567E+03  0.7818609E-02  0.9712359E-01
       -1   -1    0    0    0  501  0.00000000000E+00  0.00000000000E+00  0.83278131768E+02  0.83278131921E+02  0.50400001928E-02 0.  1.
        1   -1    0    0  501    0  0.00000000000E+00  0.00000000000E+00 -0.14830050863E+04  0.14830050863E+04  0.50400001928E-02 0. -1.
    10030    2    1    2    0    0  0.00000000000E+00  0.00000000000E+00 -0.13997269546E+04  0.15662832183E+04  0.70285672258E+03 0.  0.
        5    1    3    3  502    0  0.30327826059E+03  0.11548928329E+03 -0.39952351199E+03  0.51473935592E+03  0.46999998093E+01 0.  1.
       -5    1    3    3    0  502 -0.30327826059E+03 -0.11548928329E+03 -0.10002034426E+04  0.10515438623E+04  0.46999998093E+01 0. -1.
</event>
<event>
 5   0  0.2606520E-02  0.8222076E+03  0.7818609E-02  0.9528417E-01
        1   -1    0    0  501    0  0.00000000000E+00  0.00000000000E+00  0.83895566259E+03  0.83895566260E+03  0.50400001928E-02 0. -1.
       -1   -1    0    0    0  501  0.00000000000E+00  0.00000000000E+00 -0.20144846344E+03  0.20144846351E+03  0.50400001928E-02 0.  1.
    10030    2    1    2    0    0  0.00000000000E+00  0.00000000000E+00  0.63750719914E+03  0.10404041261E+04  0.82220758733E+03 0.  0.
        5    1    3    3  502    0 -0.49838021216E+02 -0.40525078608E+03  0.37907132178E+03  0.55716172246E+03  0.46999998093E+01 0.  1.
       -5    1    3    3    0  502  0.49838021216E+02  0.40525078608E+03  0.25843587737E+03  0.48324240365E+03  0.46999998093E+01 0. -1.
</event>
<event>
 5   0  0.4377843E-02  0.7975314E+03  0.7818609E-02  0.9563597E-01
        2   -1    0    0  501    0  0.00000000000E+00  0.00000000000E+00  0.47759820486E+03  0.47759820487E+03  0.25500000920E-02 0.  1.
       -2   -1    0    0    0  501  0.00000000000E+00  0.00000000000E+00 -0.33294533129E+03  0.33294533130E+03  0.25500000920E-02 0. -1.
    10030    2    1    2    0    0  0.00000000000E+00  0.00000000000E+00  0.14465287357E+03  0.81054353617E+03  0.79753142270E+03 0.  0.
        2    1    3    3  502    0 -0.11520892701E+03 -0.12654305984E+03  0.43838043371E+03  0.47059924301E+03  0.25500000920E-02 0.  1.
       -2    1    3    3    0  502  0.11520892701E+03  0.12654305984E+03 -0.29372756014E+03  0.33994429316E+03  0.25500000920E-02 0. -1.
</event>
<event>
 5   0  0.2759559E-02  0.7978020E+03  0.7818609E-02  0.9563204E-01
        1   -1    0    0  501    0  0.00000000000E+00  0.00000000000E+00  0.62237448454E+03  0.62237448456E+03  0.50400001928E-02 0.  1.
       -1   -1    0    0    0  501  0.00000000000E+00  0.00000000000E+00 -0.25566921558E+03  0.25566921563E+03  0.50400001928E-02 0. -1.
    10030    2    1    2    0    0  0.00000000000E+00  0.00000000000E+00  0.36670526896E+03  0.87804370019E+03  0.79780197115E+03 0.  0.
        3    1    3    3  502    0  0.30524428822E+03  0.46370190526E+02 -0.94633792740E+02  0.32292388420E+03  0.10100000352E+00 0. -1.
       -3    1    3    3    0  502 -0.30524428822E+03 -0.46370190526E+02  0.46133906170E+03  0.55511981599E+03  0.10100000352E+00 0.  1.
</event>
<event>
 5   0  0.4590462E-02  0.7960538E+03  0.7818609E-02  0.9565747E-01
        2   -1    0    0  501    0  0.00000000000E+00  0.00000000000E+00  0.33752830237E+03  0.33752830238E+03  0.25500000920E-02 0. -1.
       -2   -1    0    0    0  501  0.00000000000E+00  0.00000000000E+00 -0.46936924308E+03  0.46936924309E+03  0.25500000920E-02 0.  1.
    10030    2    1    2    0    0  0.00000000000E+00  0.00000000000E+00 -0.13184094071E+03  0.80689754547E+03  0.79605377660E+03 0.  0.
        3    1    3    3  502    0  0.31106545501E+03  0.14083196871E+03 -0.27323039339E+03  0.43732164225E+03  0.10100000352E+00 0.  1.
       -3    1    3    3    0  502 -0.31106545501E+03 -0.14083196871E+03  0.14138945268E+03  0.36957590322E+03  0.10100000352E+00 0. -1.
</event>
<event>
 5   0  0.1786500E-02  0.7902298E+03  0.7818609E-02  0.9574268E-01
        3   -1    0    0  501    0  0.00000000000E+00  0.00000000000E+00  0.64487901537E+03  0.64487902327E+03  0.10100000352E+00 0.  1.
       -3   -1    0    0    0  501  0.00000000000E+00  0.00000000000E+00 -0.24208537217E+03  0.24208539324E+03  0.10100000352E+00 0. -1.
    10030    2    1    2    0    0  0.00000000000E+00  0.00000000000E+00  0.40279364319E+03  0.88696441652E+03  0.79022981289E+03 0.  0.
        4    1    3    3  502    0  0.28119997828E+03 -0.25689438698E+03  0.83431121482E+02  0.38991091133E+03  0.12699999809E+01 0. -1.
       -4    1    3    3    0  502 -0.28119997828E+03  0.25689438698E+03  0.31936252171E+03  0.49705350519E+03  0.12699999809E+01 0.  1.
</event>
<event>
 5   0  0.4700220E-02  0.7808370E+03  0.7818609E-02  0.9588177E-01
        2   -1    0    0  501    0  0.00000000000E+00  0.00000000000E+00  0.51834917736E+03  0.51834917737E+03  0.25500000920E-02 0.  1.
       -2   -1    0    0    0  501  0.00000000000E+00  0.00000000000E+00 -0.29406163018E+03  0.29406163019E+03  0.25500000920E-02 0. -1.
    10030    2    1    2    0    0  0.00000000000E+00  0.00000000000E+00  0.22428754718E+03  0.81241080756E+03  0.78083699734E+03 0.  0.
        4    1    3    3  502    0  0.15737070309E+02  0.38198705053E+03  0.19448445502E+03  0.42893773242E+03  0.12699999809E+01 0.  1.
       -4    1    3    3    0  502 -0.15737070309E+02 -0.38198705053E+03  0.29803092155E+02  0.38347307514E+03  0.12699999809E+01 0. -1.
</event>
<event>
 5   0  0.4700220E-02  0.7112156E+03  0.7818609E-02  0.9698242E-01
        2   -1    0    0  501    0  0.00000000000E+00  0.00000000000E+00  0.27931830056E+03  0.27931830058E+03  0.25500000920E-02 0. -1.
       -2   -1    0    0    0  501  0.00000000000E+00  0.00000000000E+00 -0.45273400121E+03  0.45273400122E+03  0.25500000920E-02 0.  1.
    10030    2    1    2    0    0  0.00000000000E+00  0.00000000000E+00 -0.17341570065E+03  0.73205230180E+03  0.71121555617E+03 0.  0.
        4    1    3    3  502    0  0.26361821349E+03  0.22735186083E+03 -0.11973150220E+02  0.34832226506E+03  0.12699999809E+01 0. -1.
       -4    1    3    3    0  502 -0.26361821349E+03 -0.22735186083E+03 -0.16144255043E+03  0.38373003674E+03  0.12699999809E+01 0.  1.
</event>
<event>
 5   0  0.2769394E-02  0.7899249E+03  0.7818609E-02  0.9574716E-01
       -1   -1    0    0    0  501  0.00000000000E+00  0.00000000000E+00  0.10600692940E+04  0.10600692940E+04  0.50400001928E-02 0.  1.
        1   -1    0    0  501    0  0.00000000000E+00  0.00000000000E+00 -0.14715577779E+03  0.14715577788E+03  0.50400001928E-02 0. -1.
    10030    2    1    2    0    0  0.00000000000E+00  0.00000000000E+00  0.91291351618E+03  0.12072250719E+04  0.78992486105E+03 0.  0.
        2    1    3    3  502    0 -0.10793122777E+03  0.17413157228E+03 -0.59604550298E+02  0.21336273530E+03  0.25500000920E-02 0. -1.
       -2    1    3    3    0  502  0.10793122777E+03 -0.17413157228E+03  0.97251806648E+03  0.99386233656E+03  0.25500000920E-02 0.  1.
</event>
<event>
 5   0  0.4684283E-02  0.7945635E+03  0.7818609E-02  0.9567920E-01
        2   -1    0    0  501    0  0.00000000000E+00  0.00000000000E+00  0.85948048702E+03  0.85948048703E+03  0.25500000920E-02 0.  1.
       -2   -1    0    0    0  501  0.00000000000E+00  0.00000000000E+00 -0.18363743943E+03  0.18363743945E+03  0.25500000920E-02 0. -1.
    10030    2    1    2    0    0  0.00000000000E+00  0.00000000000E+00  0.67584304760E+03  0.10431179265E+04  0.79456351763E+03 0.  0.
        1    1    3    3  502    0  0.71415224224E+02 -0.11039510017E+03  0.83008954277E+03  0.84043789862E+03  0.50400001928E-02 0.  1.
       -1    1    3    3    0  502 -0.71415224224E+02  0.11039510017E+03 -0.15424649517E+03  0.20268002785E+03  0.50400001928E-02 0. -1.
</event>
<event>
 5   0  0.2635243E-02  0.7865649E+03  0.7818609E-02  0.9579670E-01
        1   -1    0    0  501    0  0.00000000000E+00  0.00000000000E+00  0.68358312255E+03  0.68358312257E+03  0.50400001928E-02 0. -1.
       -1   -1    0    0    0  501  0.00000000000E+00  0.00000000000E+00 -0.22626523295E+03  0.22626523300E+03  0.50400001928E-02 0.  1.
    10030    2    1    2    0    0  0.00000000000E+00  0.00000000000E+00  0.45731788961E+03  0.90984835557E+03  0.78656492293E+03 0.  0.
        1    1    3    3  502    0 -0.74179911054E+02  0.13745038963E+03  0.64616843976E+03  0.66477734723E+03  0.50400001928E-02 0. -1.
       -1    1    3    3    0  502  0.74179911054E+02 -0.13745038963E+03 -0.18885055015E+03  0.24507100835E+03  0.50400001928E-02 0.  1.
</event>
<event>
 5   0  0.2606520E-02  0.8026363E+03  0.7818609E-02  0.9556209E-01
        1   -1    0    0  501    0  0.00000000000E+00  0.00000000000E+00  0.31586338955E+03  0.31586338959E+03  0.50400001928E-02 0.  1.
       -1   -1    0    0    0  501  0.00000000000E+00  0.00000000000E+00 -0.50989210316E+03  0.50989210319E+03  0.50400001928E-02 0. -1.
    10030    2    1    2    0    0  0.00000000000E+00  0.00000000000E+00 -0.19402871362E+03  0.82575549277E+03  0.80263627637E+03 0.  0.
        5    1    3    3  502    0 -0.23159237086E+03 -0.22190064840E+03  0.15109436185E+03  0.35457935668E+03  0.46999998093E+01 0.  1.
       -5    1    3    3    0  502  0.23159237086E+03  0.22190064840E+03 -0.34512307547E+03  0.47117613609E+03  0.46999998093E+01 0. -1.
</event>
<event>
 5   0  0.4684283E-02  0.6447210E+03  0.7818609E-02  0.9816736E-01
       -2   -1    0    0    0  501  0.00000000000E+00  0.00000000000E+00  0.48625330984E+03  0.48625330985E+03  0.25500000920E-02 0. -1.
        2   -1    0    0  501    0  0.00000000000E+00  0.00000000000E+00 -0.21370811810E+03  0.21370811811E+03  0.25500000920E-02 0.  1.
    10030    2    1    2    0    0  0.00000000000E+00  0.00000000000E+00  0.27254519174E+03  0.69996142796E+03  0.64472096219E+03 0.  0.
        1    1    3    3  502    0  0.29138191509E+03 -0.12412825682E+03  0.20145900685E+03  0.37536245956E+03  0.50400001928E-02 0. -1.
       -1    1    3    3    0  502 -0.29138191509E+03  0.12412825682E+03  0.71086184898E+02  0.32459896841E+03  0.50400001928E-02 0.  1.
</event>
<event>
 5   0  0.2606520E-02  0.8063122E+03  0.7818609E-02  0.9550925E-01
       -1   -1    0    0    0  501  0.00000000000E+00  0.00000000000E+00  0.79707713194E+02  0.79707713353E+02  0.50400001928E-02 0. -1.
        1   -1    0    0  501    0  0.00000000000E+00  0.00000000000E+00 -0.20391357000E+04  0.20391357000E+04  0.50400001928E-02 0.  1.
    10030    2    1    2    0    0  0.00000000000E+00  0.00000000000E+00 -0.19594279868E+04  0.21188434134E+04  0.80631220681E+03 0.  0.
        5    1    3    3  502    0  0.19030033180E+03  0.30087340481E+03 -0.48268954632E+03  0.59979188902E+03  0.46999998093E+01 0. -1.
       -5    1    3    3    0  502 -0.19030033180E+03 -0.30087340481E+03 -0.14767384405E+04  0.15190515243E+04  0.46999998093E+01 0.  1.
</event>
<event>
 5   0  0.2759559E-02  0.7875316E+03  0.7818609E-02  0.9578242E-01
        1   -1    0    0  501    0  0.00000000000E+00  0.00000000000E+00  0.10069504655E+04  0.10069504655E+04  0.50400001928E-02 0. -1.
       -1   -1    0    0    0  501  0.00000000000E+00  0.00000000000E+00 -0.15398126420E+03  0.15398126428E+03  0.50400001928E-02 0.  1.
    10030    2    1    2    0    0  0.00000000000E+00  0.00000000000E+00  0.85296920133E+03  0.11609317298E+04  0.78753160121E+03 0.  0.
        3    1    3    3  502    0 -0.11651888113E+03  0.39766261317E+02  0.97784737932E+03  0.98556760938E+03  0.10100000352E+00 0. -1.
       -3    1    3    3    0  502  0.11651888113E+03 -0.39766261317E+02 -0.12487817800E+03  0.17536412045E+03  0.10100000352E+00 0.  1.
</event>
<event>
 5   0  0.2689372E-02  0.8077652E+03  0.7818609E-02  0.9548845E-01
        1   -1    0    0  501    0  0.00000000000E+00  0.00000000000E+00  0.17701239216E+04  0.17701239216E+04  0.50400001928E-02 0. -1.
       -1   -1    0    0    0  501  0.00000000000E+00  0.00000000000E+00 -0.92152397252E+02  0.92152397390E+02  0.50400001928E-02 0.  1.
    10030    2    1    2    0    0  0.00000000000E+00  0.00000000000E+00  0.16779715244E+04  0.18622763190E+04  0.80776522070E+03 0.  0.
        4    1    3    3  502    0  0.14281284368E+03 -0.62909258711E+02  0.16978039556E+04  0.17049612804E+04  0.12699999809E+01 0. -1.
       -4    1    3    3    0  502 -0.14281284368E+03  0.62909258711E+02 -0.19832431208E+02  0.15731503863E+03  0.12699999809E+01 0.  1.
</event>
<event>
 5   0  0.4663634E-02  0.7784168E+03  0.7818609E-02  0.9591794E-01
       -2   -1    0    0    0  501  0.00000000000E+00  0.00000000000E+00  0.29670076202E+03  0.29670076203E+03  0.25500000920E-02 0.  1.
        2   -1    0    0  501    0  0.00000000000E+00  0.00000000000E+00 -0.51055873212E+03  0.51055873213E+03  0.25500000920E-02 0. -1.
    10030    2    1    2    0    0  0.00000000000E+00  0.00000000000E+00 -0.21385797010E+03  0.80725949416E+03  0.77841676468E+03 0.  0.
        5    1    3    3  502    0  0.18124563851E+03  0.24086731383E+03  0.14835049196E+03  0.33600149228E+03  0.46999998093E+01 0.  1.
       -5    1    3    3    0  502 -0.18124563851E+03 -0.24086731383E+03 -0.36220846206E+03  0.47125800188E+03  0.46999998093E+01 0. -1.
</event>
<event>
 5   0  0.4684283E-02  0.7756997E+03  0.7818609E-02  0.9595873E-01
       -2   -1    0    0    0  501  0.00000000000E+00  0.00000000000E+00  0.14262201258E+03  0.14262201260E+03  0.25500000920E-02 0.  1.
        2   -1    0    0  501    0  0.00000000000E+00  0.00000000000E+00 -0.10547284248E+04  0.10547284248E+04  0.25500000920E-02 0. -1.
    10030    2    1    2    0    0  0.00000000000E+00  0.00000000000E+00 -0.91210641219E+03  0.11973504374E+04  0.77569966012E+03 0.  0.
        1    1    3    3  502    0 -0.50685725832E+02  0.28495547650E+02 -0.10479622157E+04  0.10495741253E+04  0.50400001928E-02 0. -1.
       -1    1    3    3    0  502  0.50685725832E+02 -0.28495547650E+02  0.13585580348E+03  0.14777631205E+03  0.50400001928E-02 0.  1.
</event>
<event>
 5   0  0.2769394E-02  0.8235100E+03  0.7818609E-02  0.9526597E-01
        1   -1    0    0  501    0  0.00000000000E+00  0.00000000000E+00  0.22424060665E+04  0.22424060665E+04  0.50400001928E-02 0. -1.
       -1   -1    0    0    0  501  0.00000000000E+00  0.00000000000E+00 -0.75607265091E+02  0.75607265259E+02  0.50400001928E-02 0.  1.
    10030    2    1    2    0    0  0.00000000000E+00  0.00000000000E+00  0.21667988014E+04  0.23180133317E+04  0.82351002449E+03 0.  0.
        2    1    3    3  502    0  0.24061123046E+03 -0.44052175871E+02  0.15107756676E+03  0.28750441668E+03  0.25500000920E-02 0.  1.
       -2    1    3    3    0  502 -0.24061123046E+03  0.44052175871E+02  0.20157212346E+04  0.20305089151E+04  0.25500000920E-02 0. -1.
</event>
<event>
 5   0  0.2606520E-02  0.8370845E+03  0.7818609E-02  0.9507838E-01
       -1   -1    0    0    0  501  0.00000000000E+00  0.00000000000E+00  0.38673441187E+03  0.38673441190E+03  0.50400001928E-02 0.  1.
        1   -1    0    0  501    0  0.00000000000E+00  0.00000000000E+00 -0.45296616079E+03  0.45296616081E+03  0.50400001928E-02 0. -1.
    10030    2    1    2    0    0  0.00000000000E+00  0.00000000000E+00 -0.66231748918E+02  0.83970057271E+03  0.83708446841E+03 0.  0.
        5    1    3    3  502    0  0.14274360082E+02  0.36075684248E+02 -0.45113190198E+03  0.45282148285E+03  0.46999998093E+01 0. -1.
       -5    1    3    3    0  502 -0.14274360082E+02 -0.36075684248E+02  0.38490015306E+03  0.38687908986E+03  0.46999998093E+01 0.  1.
</event>
<event>
 5   0  0.4590462E-02  0.7282119E+03  0.7818609E-02  0.9670166E-01
       -2   -1    0    0    0  501  0.00000000000E+00  0.00000000000E+00  0.13315382706E+03  0.13315382708E+03  0.25500000920E-02 0. -1.
        2   -1    0    0  501    0  0.00000000000E+00  0.00000000000E+00 -0.99563903744E+03  0.99563903744E+03  0.25500000920E-02 0.  1.
    10030    2    1    2    0    0  0.00000000000E+00  0.00000000000E+00 -0.86248521038E+03  0.11287928645E+04  0.72821191481E+03 0.  0.
        3    1    3    3  502    0 -0.43578331066E+02 -0.32135891918E+03 -0.17464555208E+03  0.36833640186E+03  0.10100000352E+00 0. -1.
       -3    1    3    3    0  502  0.43578331066E+02  0.32135891918E+03 -0.68783965830E+03  0.76045646266E+03  0.10100000352E+00 0.  1.
</event>
<event>
 5   0  0.4684283E-02  0.7887395E+03  0.7818609E-02  0.9576461E-01
       -2   -1    0    0    0  501  0.00000000000E+00  0.00000000000E+00  0.28515107083E+03  0.28515107084E+03  0.25500000920E-02 0.  1.
        2   -1    0    0  501    0  0.00000000000E+00  0.00000000000E+00 -0.54542138650E+03  0.54542138651E+03  0.25500000920E-02 0. -1.
    10030    2    1    2    0    0  0.00000000000E+00  0.00000000000E+00 -0.26027031567E+03  0.83057245735E+03  0.78873948150E+03 0.  0.
        1    1    3    3  502    0 -0.15058507837E+03  0.14876259963E+03 -0.48053149956E+03  0.52508732509E+03  0.50400001928E-02 0. -1.
       -1    1    3    3    0  502  0.15058507837E+03 -0.14876259963E+03  0.22026118389E+03  0.30548513226E+03  0.50400001928E-02 0.  1.
</event>
<event>
 5   0  0.1786500E-02  0.7959736E+03  0.7818609E-02  0.9565864E-01
        3   -1    0    0  501    0  0.00000000000E+00  0.00000000000E+00  0.41824752711E+03  0.41824753930E+03  0.10100000352E+00 0.  1.
       -3   -1    0    0    0  501  0.00000000000E+00  0.00000000000E+00 -0.37870749348E+03  0.37870750695E+03  0.10100000352E+00 0. -1.
    10030    2    1    2    0    0  0.00000000000E+00  0.00000000000E+00  0.39540033628E+02  0.79695504625E+03  0.79597357461E+03 0.  0.
        3    1    3    3  502    0 -0.16118507387E+03 -0.33065016565E+03  0.17188928986E+03  0.40602475079E+03  0.10100000352E+00 0.  1.
       -3    1    3    3    0  502  0.16118507387E+03  0.33065016565E+03 -0.13234925623E+03  0.39093029546E+03  0.10100000352E+00 0. -1.
</event>
<event>
 5   0  0.2606520E-02  0.8501464E+03  0.7818609E-02  0.9490141E-01
        1   -1    0    0  501    0  0.00000000000E+00  0.00000000000E+00  0.29876547111E+03  0.29876547115E+03  0.50400001928E-02 0.  1.
       -1   -1    0    0    0  501  0.00000000000E+00  0.00000000000E+00 -0.60477945222E+03  0.60477945225E+03  0.50400001928E-02 0. -1.
    10030    2    1    2    0    0  0.00000000000E+00  0.00000000000E+00 -0.30601398111E+03  0.90354492340E+03  0.85014638267E+03 0.  0.
        5    1    3    3  502    0  0.13837233527E+03  0.28422465062E+03 -0.45499229873E+03  0.55404930926E+03  0.46999998093E+01 0. -1.
       -5    1    3    3    0  502 -0.13837233527E+03 -0.28422465062E+03  0.14897831762E+03  0.34949561414E+03  0.46999998093E+01 0.  1.
</event>
<event>
 5   0  0.2769394E-02  0.7983420E+03  0.7818609E-02  0.9562420E-01
        1   -1    0    0  501    0  0.00000000000E+00  0.00000000000E+00  0.11583419829E+04  0.11583419830E+04  0.50400001928E-02 0. -1.
       -1   -1    0    0    0  501  0.00000000000E+00  0.00000000000E+00 -0.13755651513E+03  0.13755651522E+03  0.50400001928E-02 0.  1.
    10030    2    1    2    0    0  0.00000000000E+00  0.00000000000E+00  0.10207854678E+04  0.12958984982E+04  0.79834199832E+03 0.  0.
        2    1    3    3  502    0  0.20880577955E+03 -0.33001527023E+03  0.37626623310E+03  0.54229716055E+03  0.25500000920E-02 0. -1.
       -2    1    3    3    0  502 -0.20880577955E+03  0.33001527023E+03  0.64451923471E+03  0.75360133763E+03  0.25500000920E-02 0.  1.
</event>
<event>
 5   0  0.2606520E-02  0.8029823E+03  0.7818609E-02  0.9555710E-01
        1   -1    0    0  501    0  0.00000000000E+00  0.00000000000E+00  0.43936596891E+03  0.43936596894E+03  0.50400001928E-02 0. -1.
       -1   -1    0    0    0  501  0.00000000000E+00  0.00000000000E+00 -0.36688130206E+03  0.36688130209E+03  0.50400001928E-02 0.  1.
    10030    2    1    2    0    0  0.00000000000E+00  0.00000000000E+00  0.72484666849E+02  0.80624727103E+03  0.80298233799E+03 0.  0.
        5    1    3    3  502    0  0.33845900322E+03 -0.75240864255E+01  0.25290191083E+03  0.42260214769E+03  0.46999998093E+01 0. -1.
       -5    1    3    3    0  502 -0.33845900322E+03  0.75240864255E+01 -0.18041724398E+03  0.38364512334E+03  0.46999998093E+01 0.  1.
</event>
<event>
 5   0  0.2769394E-02  0.7833893E+03  0.7818609E-02  0.9584377E-01
        1   -1    0    0  501    0  0.00000000000E+00  0.00000000000E+00  0.32639452432E+03  0.32639452436E+03  0.50400001928E-02 0.  1.
       -1   -1    0    0    0  501  0.00000000000E+00  0.00000000000E+00 -0.47005908190E+03  0.47005908193E+03  0.50400001928E-02 0. -1.
    10030    2    1    2    0    0  0.00000000000E+00  0.00000000000E+00 -0.14366455758E+03  0.79645360629E+03  0.78338932969E+03 0.  0.
        2    1    3    3  502    0  0.28150047643E+03 -0.16841527456E+03 -0.28945448346E+03  0.43748156639E+03  0.25500000920E-02 0. -1.
       -2    1    3    3    0  502 -0.28150047643E+03  0.16841527456E+03  0.14578992588E+03  0.35897203990E+03  0.25500000920E-02 0.  1.
</event>
<event>
 5   0  0.2606520E-02  0.7866936E+03  0.7818609E-02  0.9579480E-01
       -1   -1    0    0    0  501  0.00000000000E+00  0.00000000000E+00  0.26667338274E+03  0.26667338278E+03  0.50400001928E-02 0.  1.
        1   -1    0    0  501    0  0.00000000000E+00  0.00000000000E+00 -0.58019183255E+03  0.58019183257E+03  0.50400001928E-02 0. -1.
    10030    2    1    2    0    0  0.00000000000E+00  0.00000000000E+00 -0.31351844981E+03  0.84686521535E+03  0.78669363452E+03 0.  0.
        5    1    3    3  502    0 -0.13862802295E+03 -0.83878915521E+02 -0.54256554277E+03  0.56626218257E+03  0.46999998093E+01 0. -1.
       -5    1    3    3    0  502  0.13862802295E+03  0.83878915521E+02  0.22904709296E+03  0.28060303278E+03  0.46999998093E+01 0.  1.
</event>
<event>
 5   0  0.1786500E-02  0.8714853E+03  0.7818609E-02  0.9461945E-01
       -4   -1    0    0    0  501  0.00000000000E+00  0.00000000000E+00  0.10268335349E+04  0.10268343203E+04  0.12699999809E+01 0.  1.
        4   -1    0    0  501    0  0.00000000000E+00  0.00000000000E+00 -0.18490684000E+03  0.18491120133E+03  0.12699999809E+01 0. -1.
    10030    2    1    2    0    0  0.00000000000E+00  0.00000000000E+00  0.84192669488E+03  0.12117455216E+04  0.87148531229E+03 0.  0.
        5    1    3    3  502    0 -0.25315892831E+03 -0.29949659486E+03  0.15691967260E+03  0.42241392847E+03  0.46999998093E+01 0. -1.
       -5    1    3    3    0  502  0.25315892831E+03  0.29949659486E+03  0.68500702228E+03  0.78933159312E+03  0.46999998093E+01 0.  1.
</event>
<event>
 5   0  0.4590462E-02  0.7991125E+03  0.7818609E-02  0.9561303E-01
        2   -1    0    0  501    0  0.00000000000E+00  0.00000000000E+00  0.27695205865E+03  0.27695205866E+03  0.25500000920E-02 0.  1.
       -2   -1    0    0    0  501  0.00000000000E+00  0.00000000000E+00 -0.57643617318E+03  0.57643617319E+03  0.25500000920E-02 0. -1.
    10030    2    1    2    0    0  0.00000000000E+00  0.00000000000E+00 -0.29948411453E+03  0.85338823185E+03  0.79911246981E+03 0.  0.
        3    1    3    3  502    0  0.36063484596E+03 -0.16497805064E+03 -0.20173041205E+03  0.44493866843E+03  0.10100000352E+00 0. -1.
       -3    1    3    3    0  502 -0.36063484596E+03  0.16497805064E+03 -0.97753702487E+02  0.40844956343E+03  0.10100000352E+00 0.  1.
</event>
<event>
 5   0  0.4377843E-02  0.8041002E+03  0.7818609E-02  0.9554101E-01
       -2   -1    0    0    0  501  0.00000000000E+00  0.00000000000E+00  0.32224468581E+03  0.32224468582E+03  0.25500000920E-02 0. -1.
        2   -1    0    0  501    0  0.00000000000E+00  0.00000000000E+00 -0.50161964841E+03  0.50161964842E+03  0.25500000920E-02 0.  1.
    10030    2    1    2    0    0  0.00000000000E+00  0.00000000000E+00 -0.17937496261E+03  0.82386433424E+03  0.80410015795E+03 0.  0.
        2    1    3    3  502    0  0.36104333945E+02  0.13085665864E+03  0.29805489040E+03  0.32751138261E+03  0.25500000920E-02 0. -1.
       -2    1    3    3    0  502 -0.36104333945E+02 -0.13085665864E+03 -0.47742985301E+03  0.49635295163E+03  0.25500000920E-02 0.  1.
</event>
<event>
 5   0  0.4684283E-02  0.7961476E+03  0.7818609E-02  0.9565610E-01
        2   -1    0    0  501    0  0.00000000000E+00  0.00000000000E+00  0.12489233757E+04  0.12489233757E+04  0.25500000920E-02 0. -1.
       -2   -1    0    0    0  501  0.00000000000E+00  0.00000000000E+00 -0.12687948201E+03  0.12687948203E+03  0.25500000920E-02 0.  1.
    10030    2    1    2    0    0  0.00000000000E+00  0.00000000000E+00  0.11220438937E+04  0.13758028577E+04  0.79614760186E+03 0.  0.
        1    1    3    3  502    0  0.26740555794E+02  0.26306660983E+03  0.10752329106E+04  0.11072691230E+04  0.50400001928E-02 0. -1.
       -1    1    3    3    0  502 -0.26740555794E+02 -0.26306660983E+03  0.46810983016E+02  0.26853373473E+03  0.50400001928E-02 0.  1.
</event>
<event>
 5   0  0.2769394E-02  0.7906356E+03  0.7818609E-02  0.9573671E-01
       -1   -1    0    0    0  501  0.00000000000E+00  0.00000000000E+00  0.96757858537E+02  0.96757858669E+02  0.50400001928E-02 0.  1.
        1   -1    0    0  501    0  0.00000000000E+00  0.00000000000E+00 -0.16151262373E+04  0.16151262373E+04  0.50400001928E-02 0. -1.
    10030    2    1    2    0    0  0.00000000000E+00  0.00000000000E+00 -0.15183683788E+04  0.17118840960E+04  0.79063558257E+03 0.  0.
        2    1    3    3  502    0  0.88290592847E+02 -0.22129860936E+03 -0.14421935864E+04  0.14617423316E+04  0.25500000920E-02 0. -1.
       -2    1    3    3    0  502 -0.88290592847E+02  0.22129860936E+03 -0.76174792350E+02  0.25014176438E+03  0.25500000920E-02 0.  1.
</event>
<event>
 5   0  0.4700220E-02  0.7959184E+03  0.7818609E-02  0.9565944E-01
       -2   -1    0    0    0  501  0.00000000000E+00  0.00000000000E+00  0.41140477217E+03  0.41140477218E+03  0.25500000920E-02 0.  1.
        2   -1    0    0  501    0  0.00000000000E+00  0.00000000000E+00 -0.38495309234E+03  0.38495309235E+03  0.25500000920E-02 0. -1.
    10030    2    1    2    0    0  0.00000000000E+00  0.00000000000E+00  0.26451679824E+02  0.79635786453E+03  0.79591843617E+03 0.  0.
        4    1    3    3  502    0  0.33344241730E+03  0.49615827106E+02  0.22482392323E+03  0.40520733620E+03  0.12699999809E+01 0.  1.
       -4    1    3    3    0  502 -0.33344241730E+03 -0.49615827106E+02 -0.19837224341E+03  0.39115052833E+03  0.12699999809E+01 0. -1.
</event>
<event>
 5   0  0.2635243E-02  0.7962352E+03  0.7818609E-02  0.9565483E-01
       -1   -1    0    0    0  501  0.00000000000E+00  0.00000000000E+00  0.30423765241E+03  0.30423765245E+03  0.50400001928E-02 0. -1.
        1   -1    0    0  501    0  0.00000000000E+00  0.00000000000E+00 -0.52096652554E+03  0.52096652556E+03  0.50400001928E-02 0.  1.
    10030    2    1    2    0    0  0.00000000000E+00  0.00000000000E+00 -0.21672887313E+03  0.82520417801E+03  0.79623522339E+03 0.  0.
        1    1    3    3  502    0  0.31822237833E+03 -0.59973736213E+02 -0.34838331166E+03  0.47563984586E+03  0.50400001928E-02 0.  1.
       -1    1    3    3    0  502 -0.31822237833E+03  0.59973736213E+02  0.13165443853E+03  0.34956433215E+03  0.50400001928E-02 0. -1.
</event>
<event>
 5   0  0.2689372E-02  0.8825512E+03  0.7818609E-02  0.9447660E-01
       -1   -1    0    0    0  501  0.00000000000E+00  0.00000000000E+00  0.56264881295E+03  0.56264881297E+03  0.50400001928E-02 0.  1.
        1   -1    0    0  501    0  0.00000000000E+00  0.00000000000E+00 -0.34608471855E+03  0.34608471858E+03  0.50400001928E-02 0. -1.
    10030    2    1    2    0    0  0.00000000000E+00  0.00000000000E+00  0.21656409440E+03  0.90873353156E+03  0.88255120214E+03 0.  0.
        4    1    3    3  502    0  0.17114413342E+03  0.13374586836E+03 -0.28722827175E+03  0.36011104496E+03  0.12699999809E+01 0. -1.
       -4    1    3    3    0  502 -0.17114413342E+03 -0.13374586836E+03  0.50379236615E+03  0.54862248660E+03  0.12699999809E+01 0.  1.
</event>
<event>
 5   0  0.4590462E-02  0.7912461E+03  0.7818609E-02  0.9572775E-01
       -2   -1    0    0    0  501  0.00000000000E+00  0.00000000000E+00  0.62868930319E+02  0.62868930371E+02  0.25500000920E-02 0. -1.
        2   -1    0    0  501    0  0.00000000000E+00  0.00000000000E+00 -0.24895856513E+04  0.24895856513E+04  0.25500000920E-02 0.  1.
    10030    2    1    2    0    0  0.00000000000E+00  0.00000000000E+00 -0.24267167210E+04  0.25524545817E+04  0.79124607273E+03 0.  0.
        3    1    3    3  502    0 -0.29859246983E+03 -0.17705967382E+03 -0.18255084667E+04  0.18582219360E+04  0.10100000352E+00 0.  1.
       -3    1    3    3    0  502  0.29859246983E+03  0.17705967382E+03 -0.60120825425E+03  0.69423264566E+03  0.10100000352E+00 0. -1.
</event>
<event>
 5   0  0.2606520E-02  0.9293243E+03  0.7818609E-02  0.9389649E-01
        1   -1    0    0  501    0  0.00000000000E+00  0.00000000000E+00  0.14473585988E+04  0.14473585988E+04  0.50400001928E-02 0.  1.
       -1   -1    0    0    0  501  0.00000000000E+00  0.00000000000E+00 -0.14917583846E+03  0.14917583854E+03  0.50400001928E-02 0. -1.
    10030    2    1    2    0    0  0.00000000000E+00  0.00000000000E+00  0.12981827604E+04  0.15965344374E+04  0.92932434080E+03 0.  0.
        5    1    3    3  502    0  0.38145147126E+02  0.38674566977E+03  0.10866182516E+04  0.11540314468E+04  0.46999998093E+01 0.  1.
       -5    1    3    3    0  502 -0.38145147126E+02 -0.38674566977E+03  0.21156450871E+03  0.44250299059E+03  0.46999998093E+01 0. -1.
</event>
<event>
 5   0  0.4590462E-02  0.8146088E+03  0.7818609E-02  0.9539109E-01
        2   -1    0    0  501    0  0.00000000000E+00  0.00000000000E+00  0.14739029846E+04  0.14739029846E+04  0.25500000920E-02 0. -1.
       -2   -1    0    0    0  501  0.00000000000E+00  0.00000000000E+00 -0.11255617997E+03  0.11255617999E+03  0.25500000920E-02 0.  1.
    10030    2    1    2    0    0  0.00000000000E+00  0.00000000000E+00  0.13613468046E+04  0.15864591646E+04  0.81460883769E+03 0.  0.
        3    1    3    3  502    0  0.24577283959E+02 -0.39230095056E+03  0.47280186369E+03  0.61485420321E+03  0.10100000352E+00 0. -1.
       -3    1    3    3    0  502 -0.24577283959E+02  0.39230095056E+03  0.88854494092E+03  0.97160496136E+03  0.10100000352E+00 0.  1.
</event>
<event>
 5   0  0.1786500E-02  0.8045946E+03  0.7818609E-02  0.9553390E-01
        3   -1    0    0  501    0  0.00000000000E+00  0.00000000000E+00  0.22131531577E+03  0.22131533881E+03  0.10100000352E+00 0. -1.
       -3   -1    0    0    0  501  0.00000000000E+00  0.00000000000E+00 -0.73127843464E+03  0.73127844162E+03  0.10100000352E+00 0.  1.
    10030    2    1    2    0    0  0.00000000000E+00  0.00000000000E+00 -0.50996311887E+03  0.95259378043E+03  0.80459463577E+03 0.  0.
        3    1    3    3  502    0 -0.27948517572E+03 -0.28421764545E+03 -0.31930231619E+03  0.51073046977E+03  0.10100000352E+00 0.  1.
       -3    1    3    3    0  502  0.27948517572E+03  0.28421764545E+03 -0.19066080269E+03  0.44186331066E+03  0.10100000352E+00 0. -1.
</event>
<event>
 5   0  0.2689372E-02  0.7469378E+03  0.7818609E-02  0.9640167E-01
        1   -1    0    0  501    0  0.00000000000E+00  0.00000000000E+00  0.11572369639E+04  0.11572369639E+04  0.50400001928E-02 0. -1.
       -1   -1    0    0    0  501  0.00000000000E+00  0.00000000000E+00 -0.12052762731E+03  0.12052762742E+03  0.50400001928E-02 0.  1.
    10030    2    1    2    0    0  0.00000000000E+00  0.00000000000E+00  0.10367093366E+04  0.12777645913E+04  0.74693781687E+03 0.  0.
        4    1    3    3  502    0  0.81625115053E+02  0.11820940672E+03 -0.71371064462E+02  0.16041061369E+03  0.12699999809E+01 0.  1.
       -4    1    3    3    0  502 -0.81625115053E+02 -0.11820940672E+03  0.11080804010E+04  0.11173539776E+04  0.12699999809E+01 0. -1.
</event>
<event>
 5   0  0.2606520E-02  0.8662884E+03  0.7818609E-02  0.9468732E-01
        1   -1    0    0  501    0  0.00000000000E+00  0.00000000000E+00  0.63252653688E+03  0.63252653690E+03  0.50400001928E-02 0. -1.
       -1   -1    0    0    0  501  0.00000000000E+00  0.00000000000E+00 -0.29661031399E+03  0.29661031403E+03  0.50400001928E-02 0.  1.
    10030    2    1    2    0    0  0.00000000000E+00  0.00000000000E+00  0.33591622290E+03  0.92913685093E+03  0.86628839249E+03 0.  0.
        5    1    3    3  502    0  0.49394441953E+01 -0.18113542662E+03 -0.25397426487E+03  0.31202477161E+03  0.46999998093E+01 0.  1.
       -5    1    3    3    0  502 -0.49394441953E+01  0.18113542662E+03  0.58989048777E+03  0.61711207932E+03  0.46999998093E+01 0. -1.
</event>
<event>
 5   0  0.4663634E-02  0.8005263E+03  0.7818609E-02  0.9559256E-01
        2   -1    0    0  501    0  0.00000000000E+00  0.00000000000E+00  0.81129207358E+03  0.81129207359E+03  0.25500000920E-02 0.  1.
       -2   -1    0    0    0  501  0.00000000000E+00  0.00000000000E+00 -0.19747583532E+03  0.19747583534E+03  0.25500000920E-02 0. -1.
    10030    2    1    2    0    0  0.00000000000E+00  0.00000000000E+00  0.61381623826E+03  0.10087679089E+04  0.80052627673E+03 0.  0.
        5    1    3    3  502    0 -0.15643825496E+03 -0.34356931802E+03  0.47444244615E+03  0.60632543127E+03  0.46999998093E+01 0.  1.
       -5    1    3    3    0  502  0.15643825496E+03  0.34356931802E+03  0.13937379211E+03  0.40244247766E+03  0.46999998093E+01 0. -1.
</event>
<event>
 5   0  0.2635243E-02  0.7953099E+03  0.7818609E-02  0.9566831E-01
       -1   -1    0    0    0  501  0.00000000000E+00  0.00000000000E+00  0.41945093650E+03  0.41945093653E+03  0.50400001928E-02 0. -1.
        1   -1    0    0  501    0  0.00000000000E+00  0.00000000000E+00 -0.37699156610E+03  0.37699156613E+03  0.50400001928E-02 0.  1.
    10030    2    1    2    0    0  0.00000000000E+00  0.00000000000E+00  0.42459370399E+02  0.79644250266E+03  0.79530991564E+03 0.  0.
        1    1    3    3  502    0  0.15883554669E+03  0.65191133342E+02 -0.33796041834E+03  0.37907236664E+03  0.50400001928E-02 0.  1.
       -1    1    3    3    0  502 -0.15883554669E+03 -0.65191133342E+02  0.38041978874E+03  0.41737013603E+03  0.50400001928E-02 0. -1.
</event>
<event>
 5   0  0.4663634E-02  0.7965836E+03  0.7818609E-02  0.9564975E-01
       -2   -1    0    0    0  501  0.00000000000E+00  0.00000000000E+00  0.10075959439E+03  0.10075959442E+03  0.25500000920E-02 0. -1.
        2   -1    0    0  501    0  0.00000000000E+00  0.00000000000E+00 -0.15744045436E+04  0.15744045436E+04  0.25500000920E-02 0.  1.
    10030    2    1    2    0    0  0.00000000000E+00  0.00000000000E+00 -0.14736449492E+04  0.16751641380E+04  0.79658361328E+03 0.  0.
        5    1    3    3  502    0 -0.21794055792E+03 -0.30075724902E+03 -0.43454593749E+03  0.57166884769E+03  0.46999998093E+01 0. -1.
       -5    1    3    3    0  502  0.21794055792E+03  0.30075724902E+03 -0.10390990117E+04  0.11034952903E+04  0.46999998093E+01 0.  1.
</event>
<event>
 5   0  0.2769394E-02  0.6320572E+03  0.7818609E-02  0.9841042E-01
        1   -1    0    0  501    0  0.00000000000E+00  0.00000000000E+00  0.99771486084E+03  0.99771486085E+03  0.50400001928E-02 0. -1.
       -1   -1    0    0    0  501  0.00000000000E+00  0.00000000000E+00 -0.10010283091E+03  0.10010283104E+03  0.50400001928E-02 0.  1.
    10030    2    1    2    0    0  0.00000000000E+00  0.00000000000E+00  0.89761202993E+03  0.10978176919E+04  0.63205721921E+03 0.  0.
        2    1    3    3  502    0 -0.49426927915E+01 -0.28842917590E+02  0.99535655742E+03  0.99578663403E+03  0.25500000920E-02 0. -1.
       -2    1    3    3    0  502  0.49426927915E+01  0.28842917590E+02 -0.97744527493E+02  0.10203105786E+03  0.25500000920E-02 0.  1.
</event>
<event>
 5   0  0.2759559E-02  0.7927014E+03  0.7818609E-02  0.9570642E-01
       -1   -1    0    0    0  501  0.00000000000E+00  0.00000000000E+00  0.41747572497E+03  0.41747572501E+03  0.50400001928E-02 0.  1.
        1   -1    0    0  501    0  0.00000000000E+00  0.00000000000E+00 -0.37629467980E+03  0.37629467984E+03  0.50400001928E-02 0. -1.
    10030    2    1    2    0    0  0.00000000000E+00  0.00000000000E+00  0.41181045172E+02  0.79377040484E+03  0.79270144261E+03 0.  0.
        3    1    3    3  502    0  0.13957475851E+03 -0.30161919269E+03  0.23684154150E+03  0.40810436973E+03  0.10100000352E+00 0.  1.
       -3    1    3    3    0  502 -0.13957475851E+03  0.30161919269E+03 -0.19566049632E+03  0.38566603511E+03  0.10100000352E+00 0. -1.
</event>
<event>
 5   0  0.1786500E-02  0.7699792E+03  0.7818609E-02  0.9604517E-01
        3   -1    0    0  501    0  0.00000000000E+00  0.00000000000E+00  0.16572347188E+03  0.16572350265E+03  0.10100000352E+00 0.  1.
       -3   -1    0    0    0  501  0.00000000000E+00  0.00000000000E+00 -0.89436309819E+03  0.89436310389E+03  0.10100000352E+00 0. -1.
    10030    2    1    2    0    0  0.00000000000E+00  0.00000000000E+00 -0.72863962632E+03  0.10600866065E+04  0.76997916098E+03 0.  0.
        3    1    3    3  502    0 -0.30196361978E+03  0.19201555480E+03 -0.55982627781E+03  0.66442266102E+03  0.10100000352E+00 0. -1.
       -3    1    3    3    0  502  0.30196361978E+03 -0.19201555480E+03 -0.16881334851E+03  0.39566394553E+03  0.10100000352E+00 0.  1.
</event>
<event>
 5   0  0.2606520E-02  0.8930402E+03  0.7818609E-02  0.9434324E-01
        1   -1    0    0  501    0  0.00000000000E+00  0.00000000000E+00  0.82980815885E+03  0.82980815886E+03  0.50400001928E-02 0.  1.
       -1   -1    0    0    0  501  0.00000000000E+00  0.00000000000E+00 -0.24027264265E+03  0.24027264270E+03  0.50400001928E-02 0. -1.
    10030    2    1    2    0    0  0.00000000000E+00  0.00000000000E+00  0.58953551620E+03  0.10700808016E+04  0.89304019899E+03 0.  0.
        5    1    3    3  502    0  0.18163593430E+03 -0.37865997225E+03  0.47642389552E+03  0.63511952059E+03  0.46999998093E+01 0. -1.
       -5    1    3    3    0  502 -0.18163593430E+03  0.37865997225E+03  0.11311162068E+03  0.43496128097E+03  0.46999998093E+01 0.  1.
</event>
<event>
 5   0  0.4377843E-02  0.7953320E+03  0.7818609E-02  0.9566798E-01
        2   -1    0    0  501    0  0.00000000000E+00  0.00000000000E+00  0.19120605924E+04  0.19120605924E+04  0.25500000920E-02 0.  1.
       -2   -1    0    0    0  501  0.00000000000E+00  0.00000000000E+00 -0.82705675779E+02  0.82705675818E+02  0.25500000920E-02 0. -1.
    10030    2    1    2    0    0  0.00000000000E+00  0.00000000000E+00  0.18293549166E+04  0.19947662682E+04  0.79533204001E+03 0.  0.
        2    1    3    3  502    0  0.54820758033E+02  0.83322734958E+02  0.18801799115E+04  0.18828235428E+04  0.25500000920E-02 0.  1.
       -2    1    3    3    0  502 -0.54820758033E+02 -0.83322734958E+02 -0.50824994859E+02  0.11194272545E+03  0.25500000920E-02 0. -1.
</event>
<event>
 5   0  0.4684283E-02  0.8032424E+03  0.7818609E-02  0.9555336E-01
       -2   -1    0    0    0  501  0.00000000000E+00  0.00000000000E+00  0.14936509341E+03  0.14936509343E+03  0.25500000920E-02 0.  1.
        2   -1    0    0  501    0  0.00000000000E+00  0.00000000000E+00 -0.10799014845E+04  0.10799014845E+04  0.25500000920E-02 0. -1.
    10030    2    1    2    0    0  0.00000000000E+00  0.00000000000E+00 -0.93053639109E+03  0.12292665779E+04  0.80324239460E+03 0.  0.
        1    1    3    3  502    0 -0.22211622421E+02  0.40018871646E+03 -0.50444178817E+03  0.64428711195E+03  0.50400001928E-02 0. -1.
       -1    1    3    3    0  502  0.22211622421E+02 -0.40018871646E+03 -0.42609460292E+03  0.58497946598E+03  0.50400001928E-02 0.  1.
</event>
<event>
 5   0  0.2635243E-02  0.7578726E+03  0.7818609E-02  0.9623080E-01
       -1   -1    0    0    0  501  0.00000000000E+00  0.00000000000E+00  0.40332311848E+03  0.40332311852E+03  0.50400001928E-02 0. -1.
        1   -1    0    0  501    0  0.00000000000E+00  0.00000000000E+00 -0.35602398767E+03  0.35602398770E+03  0.50400001928E-02 0.  1.
    10030    2    1    2    0    0  0.00000000000E+00  0.00000000000E+00  0.47299130817E+02  0.75934710622E+03  0.75787256181E+03 0.  0.
        1    1    3    3  502    0  0.22622027670E+02  0.64632953089E+02  0.39707233860E+03  0.40293376238E+03  0.50400001928E-02 0. -1.
       -1    1    3    3    0  502 -0.22622027670E+02 -0.64632953089E+02 -0.34977320778E+03  0.35641334384E+03  0.50400001928E-02 0.  1.
</event>
<event>
 5   0  0.2759559E-02  0.9361780E+03  0.7818609E-02  0.9381454E-01
       -1   -1    0    0    0  501  0.00000000000E+00  0.00000000000E+00  0.21842025633E+03  0.21842025639E+03  0.50400001928E-02 0. -1.
        1   -1    0    0  501    0  0.00000000000E+00  0.00000000000E+00 -0.10031455180E+04  0.10031455181E+04  0.50400001928E-02 0.  1.
    10030    2    1    2    0    0  0.00000000000E+00  0.00000000000E+00 -0.78472526172E+03  0.12215657744E+04  0.93617797716E+03 0.  0.
        3    1    3    3  502    0  0.10393869097E+03  0.17680243716E+03  0.15667257356E+03  0.25808653350E+03  0.10100000352E+00 0. -1.
       -3    1    3    3    0  502 -0.10393869097E+03 -0.17680243716E+03 -0.94139783528E+03  0.96347924094E+03  0.10100000352E+00 0.  1.
</event>
<event>
 5   0  0.2759559E-02  0.7552702E+03  0.7818609E-02  0.9627118E-01
       -1   -1    0    0    0  501  0.00000000000E+00  0.00000000000E+00  0.12613352916E+03  0.12613352926E+03  0.50400001928E-02 0.  1.
        1   -1    0    0  501    0  0.00000000000E+00  0.00000000000E+00 -0.11306135936E+04  0.11306135937E+04  0.50400001928E-02 0. -1.
    10030    2    1    2    0    0  0.00000000000E+00  0.00000000000E+00 -0.10044800645E+04  0.12567471229E+04  0.75527023707E+03 0.  0.
        3    1    3    3  502    0 -0.32961154134E+03  0.15546740474E+03 -0.33756254376E+03  0.49675181255E+03  0.10100000352E+00 0.  1.
       -3    1    3    3    0  502  0.32961154134E+03 -0.15546740474E+03 -0.66691752072E+03  0.75999531036E+03  0.10100000352E+00 0. -1.
</event>
<event>
 5   0  0.2769394E-02  0.7851368E+03  0.7818609E-02  0.9581784E-01
       -1   -1    0    0    0  501  0.00000000000E+00  0.00000000000E+00  0.58456140946E+03  0.58456140949E+03  0.50400001928E-02 0. -1.
        1   -1    0    0  501    0  0.00000000000E+00  0.00000000000E+00 -0.26363348173E+03  0.26363348178E+03  0.50400001928E-02 0.  1.
    10030    2    1    2    0    0  0.00000000000E+00  0.00000000000E+00  0.32092792773E+03  0.84819489127E+03  0.78513682806E+03 0.  0.
        2    1    3    3  502    0 -0.23175476640E+03 -0.19882274686E+03  0.42699581271E+03  0.52494397843E+03  0.25500000920E-02 0. -1.
       -2    1    3    3    0  502  0.23175476640E+03  0.19882274686E+03 -0.10606788498E+03  0.32325091283E+03  0.25500000920E-02 0.  1.
</event>
<event>
 5   0  0.4684283E-02  0.8272036E+03  0.7818609E-02  0.9521455E-01
       -2   -1    0    0    0  501  0.00000000000E+00  0.00000000000E+00  0.11840237116E+03  0.11840237118E+03  0.25500000920E-02 0.  1.
        2   -1    0    0  501    0  0.00000000000E+00  0.00000000000E+00 -0.14447889254E+04  0.14447889254E+04  0.25500000920E-02 0. -1.
    10030    2    1    2    0    0  0.00000000000E+00  0.00000000000E+00 -0.13263865542E+04  0.15631912966E+04  0.82720356529E+03 0.  0.
        1    1    3    3  502    0 -0.20806614974E+02 -0.37159800579E+03 -0.32226358241E+03  0.49231271536E+03  0.50400001928E-02 0. -1.
       -1    1    3    3    0  502  0.20806614974E+02  0.37159800579E+03 -0.10041229718E+04  0.10708785812E+04  0.50400001928E-02 0.  1.
</event>
<event>
 5   0  0.4590462E-02  0.8074429E+03  0.7818609E-02  0.9549306E-01
       -2   -1    0    0    0  501  0.00000000000E+00  0.00000000000E+00  0.14097184230E+03  0.14097184233E+03  0.25500000920E-02 0. -1.
        2   -1    0    0  501    0  0.00000000000E+00  0.00000000000E+00 -0.11561956001E+04  0.11561956001E+04  0.25500000920E-02 0.  1.
    10030    2    1    2    0    0  0.00000000000E+00  0.00000000000E+00 -0.10152237578E+04  0.12971674424E+04  0.80744293624E+03 0.  0.
        3    1    3    3  502    0  0.17078389934E+03  0.77647201432E+02  0.66690700499E+02  0.19910772937E+03  0.10100000352E+00 0. -1.
       -3    1    3    3    0  502 -0.17078389934E+03 -0.77647201432E+02 -0.10819144583E+04  0.10980597130E+04  0.10100000352E+00 0.  1.
</event>
<event>
 5   0  0.2759559E-02  0.8133924E+03  0.7818609E-02  0.9540832E-01
       -1   -1    0    0    0  501  0.00000000000E+00  0.00000000000E+00  0.62018612102E+03  0.62018612104E+03  0.50400001928E-02 0.  1.
        1   -1    0    0  501    0  0.00000000000E+00  0.00000000000E+00 -0.26669700416E+03  0.26669700421E+03  0.50400001928E-02 0. -1.
    10030    2    1    2    0    0  0.00000000000E+00  0.00000000000E+00  0.35348911686E+03  0.88688312526E+03  0.81339235435E+03 0.  0.
        3    1    3    3  502    0 -0.17674432433E+03  0.80213940624E+02 -0.21293798951E+03  0.28812398379E+03  0.10100000352E+00 0. -1.
       -3    1    3    3    0  502  0.17674432433E+03 -0.80213940624E+02  0.56642710638E+03  0.59875914147E+03  0.10100000352E+00 0.  1.
</event>
<event>
 5   0  0.4700220E-02  0.8064376E+03  0.7818609E-02  0.9550745E-01
        2   -1    0    0  501    0  0.00000000000E+00  0.00000000000E+00  0.41340948365E+03  0.41340948366E+03  0.25500000920E-02 0.  1.
       -2   -1    0    0    0  501  0.00000000000E+00  0.00000000000E+00 -0.39327927747E+03  0.39327927748E+03  0.25500000920E-02 0. -1.
    10030    2    1    2    0    0  0.00000000000E+00  0.00000000000E+00  0.20130206178E+02  0.80668876114E+03  0.80643755626E+03 0.  0.
        4    1    3    3  502    0  0.14434530390E+02 -0.34770579413E+03  0.21378534947E+03  0.40842803955E+03  0.12699999809E+01 0. -1.
       -4    1    3    3    0  502 -0.14434530390E+02  0.34770579413E+03 -0.19365514329E+03  0.39826072159E+03  0.12699999809E+01 0.  1.
</event>
<event>
 5   0  0.2759559E-02  0.8164783E+03  0.7818609E-02  0.9536467E-01
       -1   -1    0    0    0  501  0.00000000000E+00  0.00000000000E+00  0.59634378893E+03  0.59634378896E+03  0.50400001928E-02 0. -1.
        1   -1    0    0  501    0  0.00000000000E+00  0.00000000000E+00 -0.27946834622E+03  0.27946834627E+03  0.50400001928E-02 0.  1.
    10030    2    1    2    0    0  0.00000000000E+00  0.00000000000E+00  0.31687544271E+03  0.87581213523E+03  0.81647832183E+03 0.  0.
        3    1    3    3  502    0 -0.25779434768E+03 -0.20993040930E+03  0.41257346679E+03  0.52985429898E+03  0.10100000352E+00 0. -1.
       -3    1    3    3    0  502  0.25779434768E+03  0.20993040930E+03 -0.95698024083E+02  0.34595783625E+03  0.10100000352E+00 0.  1.
</event>
<event>
 5   0  0.2759559E-02  0.1039181E+04  0.7818609E-02  0.9266585E-01
        1   -1    0    0  501    0  0.00000000000E+00  0.00000000000E+00  0.16061114188E+04  0.16061114188E+04  0.50400001928E-02 0. -1.
       -1   -1    0    0    0  501  0.00000000000E+00  0.00000000000E+00 -0.16809202006E+03  0.16809202014E+03  0.50400001928E-02 0.  1.
    10030    2    1    2    0    0  0.00000000000E+00  0.00000000000E+00  0.14380193987E+04  0.17742034389E+04  0.10391814334E+04 0.  0.
        3    1    3    3  502    0 -0.50006538210E+02  0.35534886485E+03  0.77459011432E+02  0.36711493877E+03  0.10100000352E+00 0.  1.
       -3    1    3    3    0  502  0.50006538210E+02 -0.35534886485E+03  0.13605603873E+04  0.14070885002E+04  0.10100000352E+00 0. -1.
</event>
<event>
 5   0  0.4663634E-02  0.7987421E+03  0.7818609E-02  0.9561840E-01
        2   -1    0    0  501    0  0.00000000000E+00  0.00000000000E+00  0.71314348300E+03  0.71314348300E+03  0.25500000920E-02 0.  1.
       -2   -1    0    0    0  501  0.00000000000E+00  0.00000000000E+00 -0.22365378244E+03  0.22365378245E+03  0.25500000920E-02 0. -1.
    10030    2    1    2    0    0  0.00000000000E+00  0.00000000000E+00  0.48948970056E+03  0.93679726545E+03  0.79874210457E+03 0.  0.
        5    1    3    3  502    0 -0.75265788385E+02  0.12772294612E+03  0.67964117574E+03  0.69563805792E+03  0.46999998093E+01 0.  1.
       -5    1    3    3    0  502  0.75265788385E+02 -0.12772294612E+03 -0.19015147518E+03  0.24115920753E+03  0.46999998093E+01 0. -1.
</event>
<event>
 5   0  0.2689372E-02  0.8087696E+03  0.7818609E-02  0.9547410E-01
       -1   -1    0    0    0  501  0.00000000000E+00  0.00000000000E+00  0.19569018294E+03  0.19569018301E+03  0.50400001928E-02 0. -1.
        1   -1    0    0  501    0  0.00000000000E+00  0.00000000000E+00 -0.83564257405E+03  0.83564257407E+03  0.50400001928E-02 0.  1.
    10030    2    1    2    0    0  0.00000000000E+00  0.00000000000E+00 -0.63995239111E+03  0.10313327571E+04  0.80876955489E+03 0.  0.
        4    1    3    3  502    0  0.36143780889E+03 -0.18102798216E+03 -0.30618203242E+03  0.50710696100E+03  0.12699999809E+01 0.  1.
       -4    1    3    3    0  502 -0.36143780889E+03  0.18102798216E+03 -0.33377035869E+03  0.52422579607E+03  0.12699999809E+01 0. -1.
</event>
<event>
 5   0  0.2759559E-02  0.8013601E+03  0.7818609E-02  0.9558050E-01
        1   -1    0    0  501    0  0.00000000000E+00  0.00000000000E+00  0.21950658746E+03  0.21950658752E+03  0.50400001928E-02 0.  1.
       -1   -1    0    0    0  501  0.00000000000E+00  0.00000000000E+00 -0.73138812397E+03  0.73138812398E+03  0.50400001928E-02 0. -1.
    10030    2    1    2    0    0  0.00000000000E+00  0.00000000000E+00 -0.51188153650E+03  0.95089471150E+03  0.80136012189E+03 0.  0.
        3    1    3    3  502    0 -0.76861628312E+01 -0.14194944661E+03 -0.70045831554E+03  0.71473812302E+03  0.10100000352E+00 0. -1.
       -3    1    3    3    0  502  0.76861628312E+01  0.14194944661E+03  0.18857677904E+03  0.23615658848E+03  0.10100000352E+00 0.  1.
</event>
<event>
 5   0  0.4377843E-02  0.7464048E+03  0.7818609E-02  0.9641008E-01
       -2   -1    0    0    0  501  0.00000000000E+00  0.00000000000E+00  0.84676317003E+02  0.84676317041E+02  0.25500000920E-02 0.  1.
        2   -1    0    0  501    0  0.00000000000E+00  0.00000000000E+00 -0.16448523353E+04  0.16448523353E+04  0.25500000920E-02 0. -1.
    10030    2    1    2    0    0  0.00000000000E+00  0.00000000000E+00 -0.15601760183E+04  0.17295286523E+04  0.74640481724E+03 0.  0.
        2    1    3    3  502    0 -0.17022758642E+03  0.72140077451E+02 -0.28895216401E+02  0.18712711052E+03  0.25500000920E-02 0.  1.
       -2    1    3    3    0  502  0.17022758642E+03 -0.72140077451E+02 -0.15312808019E+04  0.15424015418E+04  0.25500000920E-02 0. -1.
</event>
<event>
 5   0  0.2689372E-02  0.7910367E+03  0.7818609E-02  0.9573082E-01
       -1   -1    0    0    0  501  0.00000000000E+00  0.00000000000E+00  0.13932041867E+03  0.13932041877E+03  0.50400001928E-02 0.  1.
        1   -1    0    0  501    0  0.00000000000E+00  0.00000000000E+00 -0.11228416811E+04  0.11228416811E+04  0.50400001928E-02 0. -1.
    10030    2    1    2    0    0  0.00000000000E+00  0.00000000000E+00 -0.98352126238E+03  0.12621620998E+04  0.79103672019E+03 0.  0.
        4    1    3    3  502    0  0.23597255656E+03  0.48282344733E+02 -0.99232254932E+03  0.10211365663E+04  0.12699999809E+01 0. -1.
       -4    1    3    3    0  502 -0.23597255656E+03 -0.48282344733E+02  0.88012869367E+01  0.24102553353E+03  0.12699999809E+01 0.  1.
</event>
<event>
 5   0  0.4684283E-02  0.8258811E+03  0.7818609E-02  0.9523293E-01
       -2   -1    0    0    0  501  0.00000000000E+00  0.00000000000E+00  0.10390396937E+03  0.10390396940E+03  0.25500000920E-02 0.  1.
        2   -1    0    0  501    0  0.00000000000E+00  0.00000000000E+00 -0.16411298417E+04  0.16411298417E+04  0.25500000920E-02 0. -1.
    10030    2    1    2    0    0  0.00000000000E+00  0.00000000000E+00 -0.15372258723E+04  0.17450338111E+04  0.82588111694E+03 0.  0.
        1    1    3    3  502    0 -0.18302969470E+03  0.13671917625E+03 -0.14954379961E+04  0.15127877586E+04  0.50400001928E-02 0. -1.
       -1    1    3    3    0  502  0.18302969470E+03 -0.13671917625E+03 -0.41787876258E+02  0.23224605255E+03  0.50400001928E-02 0.  1.
</event>
<event>
 5   0  0.1786500E-02  0.7763810E+03  0.7818609E-02  0.9594848E-01
       -4   -1    0    0    0  501  0.00000000000E+00  0.00000000000E+00  0.49687156076E+03  0.49687318381E+03  0.12699999809E+01 0. -1.
        4   -1    0    0  501    0  0.00000000000E+00  0.00000000000E+00 -0.30327786993E+03  0.30328052903E+03  0.12699999809E+01 0.  1.
    10030    2    1    2    0    0  0.00000000000E+00  0.00000000000E+00  0.19359369084E+03  0.80015371284E+03  0.77638099348E+03 0.  0.
        5    1    3    3  502    0  0.20163038605E+02 -0.52540528733E+02 -0.29902388796E+03  0.30430976136E+03  0.46999998093E+01 0.  1.
       -5    1    3    3    0  502 -0.20163038605E+02  0.52540528733E+02  0.49261757880E+03  0.49584395149E+03  0.46999998093E+01 0. -1.
</event>
<event>
 5   0  0.2689372E-02  0.8257733E+03  0.7818609E-02  0.9523443E-01
       -1   -1    0    0    0  501  0.00000000000E+00  0.00000000000E+00  0.18102629508E+03  0.18102629515E+03  0.50400001928E-02 0.  1.
        1   -1    0    0  501    0  0.00000000000E+00  0.00000000000E+00 -0.94171619331E+03  0.94171619332E+03  0.50400001928E-02 0. -1.
    10030    2    1    2    0    0  0.00000000000E+00  0.00000000000E+00 -0.76068989823E+03  0.11227424885E+04  0.82577331886E+03 0.  0.
        4    1    3    3  502    0  0.39274392731E+02 -0.28780061971E+03 -0.77930204948E+03  0.83167600173E+03  0.12699999809E+01 0. -1.
       -4    1    3    3    0  502 -0.39274392731E+02  0.28780061971E+03  0.18612151253E+02  0.29106648674E+03  0.12699999809E+01 0.  1.
</event>
<event>
 5   0  0.4590462E-02  0.8195456E+03  0.7818609E-02  0.9532149E-01
        2   -1    0    0  501    0  0.00000000000E+00  0.00000000000E+00  0.67748945440E+03  0.67748945441E+03  0.25500000920E-02 0.  1.
       -2   -1    0    0    0  501  0.00000000000E+00  0.00000000000E+00 -0.24784705315E+03  0.24784705316E+03  0.25500000920E-02 0. -1.
    10030    2    1    2    0    0  0.00000000000E+00  0.00000000000E+00  0.42964240125E+03  0.92533650757E+03  0.81954564198E+03 0.  0.
        3    1    3    3  502    0  0.19131067889E+03  0.13757371761E+03 -0.16369586291E+03  0.28691923841E+03  0.10100000352E+00 0. -1.
       -3    1    3    3    0  502 -0.19131067889E+03 -0.13757371761E+03  0.59333826417E+03  0.63841726916E+03  0.10100000352E+00 0.  1.
</event>
<event>
 5   0  0.2759559E-02  0.7897362E+03  0.7818609E-02  0.9574993E-01
       -1   -1    0    0    0  501  0.00000000000E+00  0.00000000000E+00  0.91417498498E+03  0.91417498499E+03  0.50400001928E-02 0. -1.
        1   -1    0    0  501    0  0.00000000000E+00  0.00000000000E+00 -0.17055906378E+03  0.17055906385E+03  0.50400001928E-02 0.  1.
    10030    2    1    2    0    0  0.00000000000E+00  0.00000000000E+00  0.74361592120E+03  0.10847340488E+04  0.78973623347E+03 0.  0.
        3    1    3    3  502    0  0.46304536464E+02  0.18875432678E+03  0.84393115750E+03  0.86602085123E+03  0.10100000352E+00 0. -1.
       -3    1    3    3    0  502 -0.46304536464E+02 -0.18875432678E+03 -0.10031523629E+03  0.21871319761E+03  0.10100000352E+00 0.  1.
</event>
<event>
 5   0  0.4377843E-02  0.7882585E+03  0.7818609E-02  0.9577170E-01
       -2   -1    0    0    0  501  0.00000000000E+00  0.00000000000E+00  0.11969411640E+03  0.11969411643E+03  0.25500000920E-02 0.  1.
        2   -1    0    0  501    0  0.00000000000E+00  0.00000000000E+00 -0.12977901663E+04  0.12977901663E+04  0.25500000920E-02 0. -1.
    10030    2    1    2    0    0  0.00000000000E+00  0.00000000000E+00 -0.11780960499E+04  0.14174842827E+04  0.78825845317E+03 0.  0.
        2    1    3    3  502    0  0.29354221814E+00  0.13752949732E+03 -0.12532406474E+04  0.12607642797E+04  0.25500000920E-02 0. -1.
       -2    1    3    3    0  502 -0.29354221814E+00 -0.13752949732E+03  0.75144597487E+02  0.15672000300E+03  0.25500000920E-02 0.  1.
</event>
<event>
 5   0  0.4590462E-02  0.8011241E+03  0.7818609E-02  0.9558391E-01
       -2   -1    0    0    0  501  0.00000000000E+00  0.00000000000E+00  0.43673591079E+03  0.43673591079E+03  0.25500000920E-02 0. -1.
        2   -1    0    0  501    0  0.00000000000E+00  0.00000000000E+00 -0.36738438146E+03  0.36738438147E+03  0.25500000920E-02 0.  1.
    10030    2    1    2    0    0  0.00000000000E+00  0.00000000000E+00  0.69351529324E+02  0.80412029227E+03  0.80112409139E+03 0.  0.
        3    1    3    3  502    0 -0.20513021566E+03  0.32235302067E+03 -0.86023988381E+02  0.39165036971E+03  0.10100000352E+00 0.  1.
       -3    1    3    3    0  502  0.20513021566E+03 -0.32235302067E+03  0.15537551771E+03  0.41246992256E+03  0.10100000352E+00 0. -1.
</event>
<event>
 5   0  0.4377843E-02  0.8099410E+03  0.7818609E-02  0.9545738E-01
       -2   -1    0    0    0  501  0.00000000000E+00  0.00000000000E+00  0.43906813053E+03  0.43906813054E+03  0.25500000920E-02 0.  1.
        2   -1    0    0  501    0  0.00000000000E+00  0.00000000000E+00 -0.37352090115E+03  0.37352090116E+03  0.25500000920E-02 0. -1.
    10030    2    1    2    0    0  0.00000000000E+00  0.00000000000E+00  0.65547229382E+02  0.81258903170E+03  0.80994104425E+03 0.  0.
        2    1    3    3  502    0 -0.39148071844E+02  0.30309152822E+03  0.29935660832E+03  0.42779834614E+03  0.25500000920E-02 0.  1.
       -2    1    3    3    0  502  0.39148071844E+02 -0.30309152822E+03 -0.23380937894E+03  0.38479068556E+03  0.25500000920E-02 0. -1.
</event>
<event>
 5   0  0.4377843E-02  0.7498229E+03  0.7818609E-02  0.9635628E-01
        2   -1    0    0  501    0  0.00000000000E+00  0.00000000000E+00  0.58157006903E+03  0.58157006903E+03  0.25500000920E-02 0.  1.
       -2   -1    0    0    0  501  0.00000000000E+00  0.00000000000E+00 -0.24168815817E+03  0.24168815818E+03  0.25500000920E-02 0. -1.
    10030    2    1    2    0    0  0.00000000000E+00  0.00000000000E+00  0.33988191086E+03  0.82325822722E+03  0.74982290933E+03 0.  0.
        2    1    3    3  502    0  0.18225558603E+02 -0.28416382325E+03  0.43770556589E+03  0.52217565229E+03  0.25500000920E-02 0.  1.
       -2    1    3    3    0  502 -0.18225558603E+02  0.28416382325E+03 -0.97823655031E+02  0.30108257492E+03  0.25500000920E-02 0. -1.
</event>
<event>
 5   0  0.2606520E-02  0.7935667E+03  0.7818609E-02  0.9569376E-01
       -1   -1    0    0    0  501  0.00000000000E+00  0.00000000000E+00  0.33326412528E+03  0.33326412532E+03  0.50400001928E-02 0. -1.
        1   -1    0    0  501    0  0.00000000000E+00  0.00000000000E+00 -0.47240921967E+03  0.47240921970E+03  0.50400001928E-02 0.  1.
    10030    2    1    2    0    0  0.00000000000E+00  0.00000000000E+00 -0.13914509440E+03  0.80567334502E+03  0.79356674677E+03 0.  0.
        5    1    3    3  502    0 -0.10815712628E+03  0.22519875788E+03  0.24335448148E+03  0.34879211312E+03  0.46999998093E+01 0. -1.
       -5    1    3    3    0  502  0.10815712628E+03 -0.22519875788E+03 -0.38249957588E+03  0.45688123190E+03  0.46999998093E+01 0.  1.
</event>
<event>
 5   0  0.2689372E-02  0.6707170E+03  0.7818609E-02  0.9768663E-01
        1   -1    0    0  501    0  0.00000000000E+00  0.00000000000E+00  0.48715907893E+03  0.48715907896E+03  0.50400001928E-02 0.  1.
       -1   -1    0    0    0  501  0.00000000000E+00  0.00000000000E+00 -0.23085956293E+03  0.23085956299E+03  0.50400001928E-02 0. -1.
    10030    2    1    2    0    0  0.00000000000E+00  0.00000000000E+00  0.25629951600E+03  0.71801864194E+03  0.67071702548E+03 0.  0.
        4    1    3    3  502    0  0.33729110139E+02 -0.33150183827E+03  0.16866873645E+03  0.37347272618E+03  0.12699999809E+01 0.  1.
       -4    1    3    3    0  502 -0.33729110139E+02  0.33150183827E+03  0.87630779547E+02  0.34454591576E+03  0.12699999809E+01 0. -1.
</event>
<event>
 5   0  0.4377843E-02  0.7336598E+03  0.7818609E-02  0.9661340E-01
        2   -1    0    0  501    0  0.00000000000E+00  0.00000000000E+00  0.57933610267E+03  0.57933610267E+03  0.25500000920E-02 0. -1.
       -2   -1    0    0    0  501  0.00000000000E+00  0.00000000000E+00 -0.23227307618E+03  0.23227307620E+03  0.25500000920E-02 0.  1.
    10030    2    1    2    0    0  0.00000000000E+00  0.00000000000E+00  0.34706302648E+03  0.81160917887E+03  0.73365980868E+03 0.  0.
        2    1    3    3  502    0  0.22035309196E+03 -0.11375208787E+03  0.47256461631E+03  0.53367812324E+03  0.25500000920E-02 0. -1.
       -2    1    3    3    0  502 -0.22035309196E+03  0.11375208787E+03 -0.12550158983E+03  0.27793105563E+03  0.25500000920E-02 0.  1.
</event>
<event>
 5   0  0.4377843E-02  0.8005081E+03  0.7818609E-02  0.9559282E-01
       -2   -1    0    0    0  501  0.00000000000E+00  0.00000000000E+00  0.33054826114E+03  0.33054826115E+03  0.25500000920E-02 0.  1.
        2   -1    0    0  501    0  0.00000000000E+00  0.00000000000E+00 -0.48465939613E+03  0.48465939614E+03  0.25500000920E-02 0. -1.
    10030    2    1    2    0    0  0.00000000000E+00  0.00000000000E+00 -0.15411113500E+03  0.81520765729E+03  0.80050814023E+03 0.  0.
        2    1    3    3  502    0  0.60458552920E+02 -0.25997946758E+03 -0.38079198010E+03  0.46502375456E+03  0.25500000920E-02 0. -1.
       -2    1    3    3    0  502 -0.60458552920E+02  0.25997946758E+03  0.22668084511E+03  0.35018390273E+03  0.25500000920E-02 0.  1.
</event>
<event>
 5   0  0.1786500E-02  0.7894263E+03  0.7818609E-02  0.9575449E-01
        3   -1    0    0  501    0  0.00000000000E+00  0.00000000000E+00  0.59175230054E+03  0.59175230916E+03  0.10100000352E+00 0. -1.
       -3   -1    0    0    0  501  0.00000000000E+00  0.00000000000E+00 -0.26328323524E+03  0.26328325461E+03  0.10100000352E+00 0.  1.
    10030    2    1    2    0    0  0.00000000000E+00  0.00000000000E+00  0.32846906530E+03  0.85503556377E+03  0.78942630337E+03 0.  0.
        2    1    3    3  502    0  0.32422954791E+03 -0.17096605009E+03  0.32284372064E+03  0.48844882842E+03  0.25500000920E-02 0. -1.
       -2    1    3    3    0  502 -0.32422954791E+03  0.17096605009E+03  0.56253446557E+01  0.36658673535E+03  0.25500000920E-02 0.  1.
</event>
<event>
 5   0  0.4590462E-02  0.8088917E+03  0.7818609E-02  0.9547235E-01
        2   -1    0    0  501    0  0.00000000000E+00  0.00000000000E+00  0.16950425895E+04  0.16950425895E+04  0.25500000920E-02 0. -1.
       -2   -1    0    0    0  501  0.00000000000E+00  0.00000000000E+00 -0.96502852059E+02  0.96502852092E+02  0.25500000920E-02 0.  1.
    10030    2    1    2    0    0  0.00000000000E+00  0.00000000000E+00  0.15985397375E+04  0.17915454416E+04  0.80889169679E+03 0.  0.
        3    1    3    3  502    0  0.43865008557E+02  0.35219110429E+03  0.36972295674E+03  0.51250150035E+03  0.10100000352E+00 0.  1.
       -3    1    3    3    0  502 -0.43865008557E+02 -0.35219110429E+03  0.12288167807E+04  0.12790439413E+04  0.10100000352E+00 0. -1.
</event>
<event>
 5   0  0.1786500E-02  0.8136447E+03  0.7818609E-02  0.9540474E-01
        4   -1    0    0  501    0  0.00000000000E+00  0.00000000000E+00  0.77709512962E+03  0.77709616739E+03  0.12699999809E+01 0.  1.
       -4   -1    0    0    0  501  0.00000000000E+00  0.00000000000E+00 -0.21297525794E+03  0.21297904449E+03  0.12699999809E+01 0. -1.
    10030    2    1    2    0    0  0.00000000000E+00  0.00000000000E+00  0.56411987168E+03  0.99007521188E+03  0.81364469860E+03 0.  0.
        3    1    3    3  502    0  0.28807432912E+03 -0.28213716591E+03  0.21634817595E+03  0.45759670336E+03  0.10100000352E+00 0.  1.
       -3    1    3    3    0  502 -0.28807432912E+03  0.28213716591E+03  0.34777169573E+03  0.53247850852E+03  0.10100000352E+00 0. -1.
</event>
<event>
 5   0  0.2635243E-02  0.9221339E+03  0.7818609E-02  0.9398328E-01
       -1   -1    0    0    0  501  0.00000000000E+00  0.00000000000E+00  0.44038828299E+03  0.44038828301E+03  0.50400001928E-02 0. -1.
        1   -1    0    0  501    0  0.00000000000E+00  0.00000000000E+00 -0.48271655726E+03  0.48271655729E+03  0.50400001928E-02 0.  1.
    10030    2    1    2    0    0  0.00000000000E+00  0.00000000000E+00 -0.42328274275E+02  0.92310484030E+03  0.92213386414E+03 0.  0.
        1    1    3    3  502    0  0.15838335836E+03  0.56630441732E+02 -0.45090676748E+03  0.48125794344E+03  0.50400001928E-02 0.  1.
       -1    1    3    3    0  502 -0.15838335836E+03 -0.56630441732E+02  0.40857849320E+03  0.44184689687E+03  0.50400001928E-02 0. -1.
</event>
<event>
 5   0  0.4377843E-02  0.8144643E+03  0.7818609E-02  0.9539313E-01
        2   -1    0    0  501    0  0.00000000000E+00  0.00000000000E+00  0.27227100112E+03  0.27227100113E+03  0.25500000920E-02 0. -1.
       -2   -1    0    0    0  501  0.00000000000E+00  0.00000000000E+00 -0.60909173564E+03  0.60909173564E+03  0.25500000920E-02 0.  1.
    10030    2    1    2    0    0  0.00000000000E+00  0.00000000000E+00 -0.33682073452E+03  0.88136273677E+03  0.81446428195E+03 0.  0.
        2    1    3    3  502    0  0.12784790139E+03  0.85155840960E+02 -0.57653769108E+03  0.59665091333E+03  0.25500000920E-02 0.  1.
       -2    1    3    3    0  502 -0.12784790139E+03 -0.85155840960E+02  0.23971695656E+03  0.28471182344E+03  0.25500000920E-02 0. -1.
</event>
<event>
 5   0  0.4663634E-02  0.7937038E+03  0.7818609E-02  0.9569176E-01
       -2   -1    0    0    0  501  0.00000000000E+00  0.00000000000E+00  0.84627904635E+02  0.84627904673E+02  0.25500000920E-02 0. -1.
        2   -1    0    0  501    0  0.00000000000E+00  0.00000000000E+00 -0.18609868375E+04  0.18609868375E+04  0.25500000920E-02 0.  1.
    10030    2    1    2    0    0  0.00000000000E+00  0.00000000000E+00 -0.17763589329E+04  0.19456147422E+04  0.79370376502E+03 0.  0.
        5    1    3    3  502    0  0.14556388351E+03  0.23698840730E+03 -0.19433730606E+03  0.33932495915E+03  0.46999998093E+01 0. -1.
       -5    1    3    3    0  502 -0.14556388351E+03 -0.23698840730E+03 -0.15820216268E+04  0.16062897830E+04  0.46999998093E+01 0.  1.
</event>
<event>
 5   0  0.1786500E-02  0.7749685E+03  0.7818609E-02  0.9596973E-01
       -4   -1    0    0    0  501  0.00000000000E+00  0.00000000000E+00  0.42603263388E+03  0.42603452680E+03  0.12699999809E+01 0. -1.
        4   -1    0    0  501    0  0.00000000000E+00  0.00000000000E+00 -0.35241998947E+03  0.35242227779E+03  0.12699999809E+01 0.  1.
    10030    2    1    2    0    0  0.00000000000E+00  0.00000000000E+00  0.73612644403E+02  0.77845680459E+03  0.77496849948E+03 0.  0.
        3    1    3    3  502    0 -0.17607123377E+03  0.29444956544E+03  0.21773483270E+03  0.40633741339E+03  0.10100000352E+00 0. -1.
       -3    1    3    3    0  502  0.17607123377E+03 -0.29444956544E+03 -0.14412218830E+03  0.37211939120E+03  0.10100000352E+00 0.  1.
</event>
<event>
 5   0  0.2606520E-02  0.7991906E+03  0.7818609E-02  0.9561189E-01
       -1   -1    0    0    0  501  0.00000000000E+00  0.00000000000E+00  0.69374142511E+02  0.69374142694E+02  0.50400001928E-02 0.  1.
        1   -1    0    0  501    0  0.00000000000E+00  0.00000000000E+00 -0.23016703536E+04  0.23016703536E+04  0.50400001928E-02 0. -1.
    10030    2    1    2    0    0  0.00000000000E+00  0.00000000000E+00 -0.22322962111E+04  0.23710444963E+04  0.79919060892E+03 0.  0.
        5    1    3    3  502    0 -0.24327023393E+03  0.27139365839E+03 -0.63028513291E+03  0.72809090318E+03  0.46999998093E+01 0. -1.
       -5    1    3    3    0  502  0.24327023393E+03 -0.27139365839E+03 -0.16020110782E+04  0.16429535931E+04  0.46999998093E+01 0.  1.
</event>
<event>
 5   0  0.4700220E-02  0.7962116E+03  0.7818609E-02  0.9565517E-01
        2   -1    0    0  501    0  0.00000000000E+00  0.00000000000E+00  0.11167835047E+04  0.11167835047E+04  0.25500000920E-02 0.  1.
       -2   -1    0    0    0  501  0.00000000000E+00  0.00000000000E+00 -0.14191491919E+03  0.14191491921E+03  0.25500000920E-02 0. -1.
    10030    2    1    2    0    0  0.00000000000E+00  0.00000000000E+00  0.97486858550E+03  0.12586984239E+04  0.79621163225E+03 0.  0.
        4    1    3    3  502    0 -0.18761178668E+03 -0.34016434221E+03  0.62503866508E+03  0.73592452599E+03  0.12699999809E+01 0.  1.
       -4    1    3    3    0  502  0.18761178668E+03  0.34016434221E+03  0.34982992042E+03  0.52277389791E+03  0.12699999809E+01 0. -1.
</event>
<event>
 5   0  0.2759559E-02  0.7684068E+03  0.7818609E-02  0.9606907E-01
       -1   -1    0    0    0  501  0.00000000000E+00  0.00000000000E+00  0.53673447025E+02  0.53673447262E+02  0.50400001928E-02 0.  1.
        1   -1    0    0  501    0  0.00000000000E+00  0.00000000000E+00 -0.27501914315E+04  0.27501914315E+04  0.50400001928E-02 0. -1.
    10030    2    1    2    0    0  0.00000000000E+00  0.00000000000E+00 -0.26965179845E+04  0.28038648788E+04  0.76840680488E+03 0.  0.
        3    1    3    3  502    0  0.30878889184E+03 -0.20640366500E+03 -0.17068804477E+04  0.17468239538E+04  0.10100000352E+00 0. -1.
       -3    1    3    3    0  502 -0.30878889184E+03  0.20640366500E+03 -0.98963753685E+03  0.10570409250E+04  0.10100000352E+00 0.  1.
</event>
<event>
 5   0  0.2769394E-02  0.7781285E+03  0.7818609E-02  0.9592226E-01
       -1   -1    0    0    0  501  0.00000000000E+00  0.00000000000E+00  0.41490467837E+03  0.41490467840E+03  0.50400001928E-02 0. -1.
        1   -1    0    0  501    0  0.00000000000E+00  0.00000000000E+00 -0.36483320495E+03  0.36483320498E+03  0.50400001928E-02 0.  1.
    10030    2    1    2    0    0  0.00000000000E+00  0.00000000000E+00  0.50071473422E+02  0.77973788338E+03  0.77812853329E+03 0.  0.
        2    1    3    3  502    0  0.26006784016E+03 -0.10570535118E+03 -0.24489492417E+03  0.37253513478E+03  0.25500000920E-02 0.  1.
       -2    1    3    3    0  502 -0.26006784016E+03  0.10570535118E+03  0.29496639759E+03  0.40720274860E+03  0.25500000920E-02 0. -1.
</event>
<event>
 5   0  0.4377843E-02  0.8184340E+03  0.7818609E-02  0.9533711E-01
       -2   -1    0    0    0  501  0.00000000000E+00  0.00000000000E+00  0.22435048251E+03  0.22435048253E+03  0.25500000920E-02 0.  1.
        2   -1    0    0  501    0  0.00000000000E+00  0.00000000000E+00 -0.74641502844E+03  0.74641502844E+03  0.25500000920E-02 0. -1.
    10030    2    1    2    0    0  0.00000000000E+00  0.00000000000E+00 -0.52206454593E+03  0.97076551097E+03  0.81843404571E+03 0.  0.
        2    1    3    3  502    0 -0.37408371520E+03  0.10903890970E+03 -0.11274067039E+03  0.40563353975E+03  0.25500000920E-02 0.  1.
       -2    1    3    3    0  502  0.37408371520E+03 -0.10903890970E+03 -0.40932387554E+03  0.56513197122E+03  0.25500000920E-02 0. -1.
</event>
<event>
 5   0  0.4663634E-02  0.8042531E+03  0.7818609E-02  0.9553881E-01
        2   -1    0    0  501    0  0.00000000000E+00  0.00000000000E+00  0.26904317381E+03  0.26904317382E+03  0.25500000920E-02 0. -1.
       -2   -1    0    0    0  501  0.00000000000E+00  0.00000000000E+00 -0.60104020882E+03  0.60104020883E+03  0.25500000920E-02 0.  1.
    10030    2    1    2    0    0  0.00000000000E+00  0.00000000000E+00 -0.33199703501E+03  0.87008338264E+03  0.80425310786E+03 0.  0.
        5    1    3    3  502    0 -0.33053079089E+03 -0.16532950276E+03  0.53965427888E+01  0.36964261237E+03  0.46999998093E+01 0.  1.
       -5    1    3    3    0  502  0.33053079089E+03  0.16532950276E+03 -0.33739357780E+03  0.50044077027E+03  0.46999998093E+01 0. -1.
</event>
<event>
 5   0  0.2689372E-02  0.7988118E+03  0.7818609E-02  0.9561739E-01
       -1   -1    0    0    0  501  0.00000000000E+00  0.00000000000E+00  0.22064971974E+03  0.22064971980E+03  0.50400001928E-02 0.  1.
        1   -1    0    0  501    0  0.00000000000E+00  0.00000000000E+00 -0.72297878245E+03  0.72297878247E+03  0.50400001928E-02 0. -1.
    10030    2    1    2    0    0  0.00000000000E+00  0.00000000000E+00 -0.50232906271E+03  0.94362850226E+03  0.79881178199E+03 0.  0.
        4    1    3    3  502    0 -0.34218978184E+03  0.19797506162E+03 -0.18397122406E+03  0.43604471789E+03  0.12699999809E+01 0.  1.
       -4    1    3    3    0  502  0.34218978184E+03 -0.19797506162E+03 -0.31835783866E+03  0.50758378437E+03  0.12699999809E+01 0. -1.
</event>
<event>
 5   0  0.4663634E-02  0.7911238E+03  0.7818609E-02  0.9572955E-01
       -2   -1    0    0    0  501  0.00000000000E+00  0.00000000000E+00  0.63577523947E+03  0.63577523947E+03  0.25500000920E-02 0.  1.
        2   -1    0    0  501    0  0.00000000000E+00  0.00000000000E+00 -0.24610776102E+03  0.24610776103E+03  0.25500000920E-02 0. -1.
    10030    2    1    2    0    0  0.00000000000E+00  0.00000000000E+00  0.38966747845E+03  0.88188300050E+03  0.79112381004E+03 0.  0.
        5    1    3    3  502    0  0.16447033192E+03 -0.16538539203E+03  0.55092467434E+03  0.59828329810E+03  0.46999998093E+01 0.  1.
       -5    1    3    3    0  502 -0.16447033192E+03  0.16538539203E+03 -0.16125719589E+03  0.28359970241E+03  0.46999998093E+01 0. -1.
</event>
<event>
 5   0  0.1786500E-02  0.8066383E+03  0.7818609E-02  0.9550458E-01
        3   -1    0    0  501    0  0.00000000000E+00  0.00000000000E+00  0.17507015533E+04  0.17507015563E+04  0.10100000352E+00 0.  1.
       -3   -1    0    0    0  501  0.00000000000E+00  0.00000000000E+00 -0.92914907005E+02  0.92914961899E+02  0.10100000352E+00 0. -1.
    10030    2    1    2    0    0  0.00000000000E+00  0.00000000000E+00  0.16577866463E+04  0.18436165182E+04  0.80663827162E+03 0.  0.
        5    1    3    3  502    0  0.17038211950E+03 -0.27111531523E+03  0.26853284737E+03  0.41793009094E+03  0.46999998093E+01 0. -1.
       -5    1    3    3    0  502 -0.17038211950E+03  0.27111531523E+03  0.13892537990E+04  0.14256864272E+04  0.46999998093E+01 0.  1.
</event>
<event>
 5   0  0.2759559E-02  0.5478685E+03  0.7818609E-02  0.1001988E+00
       -1   -1    0    0    0  501  0.00000000000E+00  0.00000000000E+00  0.10443136624E+03  0.10443136636E+03  0.50400001928E-02 0.  1.
        1   -1    0    0  501    0  0.00000000000E+00  0.00000000000E+00 -0.71855788403E+03  0.71855788405E+03  0.50400001928E-02 0. -1.
    10030    2    1    2    0    0  0.00000000000E+00  0.00000000000E+00 -0.61412651779E+03  0.82298925041E+03  0.54786853025E+03 0.  0.
        3    1    3    3  502    0 -0.18047120157E+03 -0.20483023515E+03 -0.27298390598E+03  0.38606411767E+03  0.10100000352E+00 0.  1.
       -3    1    3    3    0  502  0.18047120157E+03  0.20483023515E+03 -0.34114261181E+03  0.43692513274E+03  0.10100000352E+00 0. -1.
</event>
<event>
 5   0  0.4377843E-02  0.8023868E+03  0.7818609E-02  0.9556569E-01
       -2   -1    0    0    0  501  0.00000000000E+00  0.00000000000E+00  0.98470354208E+02  0.98470354241E+02  0.25500000920E-02 0. -1.
        2   -1    0    0  501    0  0.00000000000E+00  0.00000000000E+00 -0.16345646559E+04  0.16345646559E+04  0.25500000920E-02 0.  1.
    10030    2    1    2    0    0  0.00000000000E+00  0.00000000000E+00 -0.15360943017E+04  0.17330350101E+04  0.80238684105E+03 0.  0.
        2    1    3    3  502    0 -0.23123334795E+03  0.19490237000E+03 -0.13374466531E+04  0.13712109046E+04  0.25500000920E-02 0.  1.
       -2    1    3    3    0  502  0.23123334795E+03 -0.19490237000E+03 -0.19864764856E+03  0.36182410550E+03  0.25500000920E-02 0. -1.
</event>
<event>
 5   0  0.4590462E-02  0.8030928E+03  0.7818609E-02  0.9555551E-01
        2   -1    0    0  501    0  0.00000000000E+00  0.00000000000E+00  0.22947921863E+04  0.22947921863E+04  0.25500000920E-02 0. -1.
       -2   -1    0    0    0  501  0.00000000000E+00  0.00000000000E+00 -0.70263237747E+02  0.70263237793E+02  0.25500000920E-02 0.  1.
    10030    2    1    2    0    0  0.00000000000E+00  0.00000000000E+00  0.22245289486E+04  0.23650554241E+04  0.80309284400E+03 0.  0.
        3    1    3    3  502    0 -0.50716424704E+02 -0.20924874863E+03  0.21104290969E+04  0.21213835528E+04  0.10100000352E+00 0. -1.
       -3    1    3    3    0  502  0.50716424704E+02  0.20924874863E+03  0.11409985161E+03  0.24367187133E+03  0.10100000352E+00 0.  1.
</event>
<event>
 5   0  0.4684283E-02  0.8056230E+03  0.7818609E-02  0.9551914E-01
        2   -1    0    0  501    0  0.00000000000E+00  0.00000000000E+00  0.83363450450E+03  0.83363450451E+03  0.25500000920E-02 0.  1.
       -2   -1    0    0    0  501  0.00000000000E+00  0.00000000000E+00 -0.19463817444E+03  0.19463817446E+03  0.25500000920E-02 0. -1.
    10030    2    1    2    0    0  0.00000000000E+00  0.00000000000E+00  0.63899633006E+03  0.10282726790E+04  0.80562298408E+03 0.  0.
        1    1    3    3  502    0 -0.11030120781E+02  0.91713375717E+02  0.81993286517E+03  0.82511993689E+03  0.50400001928E-02 0.  1.
       -1    1    3    3    0  502  0.11030120781E+02 -0.91713375717E+02 -0.18093653511E+03  0.20315274207E+03  0.50400001928E-02 0. -1.
</event>
<event>
 5   0  0.2635243E-02  0.8576440E+03  0.7818609E-02  0.9480135E-01
       -1   -1    0    0    0  501  0.00000000000E+00  0.00000000000E+00  0.12449009028E+03  0.12449009039E+03  0.50400001928E-02 0.  1.
        1   -1    0    0  501    0  0.00000000000E+00  0.00000000000E+00 -0.14771319729E+04  0.14771319729E+04  0.50400001928E-02 0. -1.
    10030    2    1    2    0    0  0.00000000000E+00  0.00000000000E+00 -0.13526418826E+04  0.16016220633E+04  0.85764396519E+03 0.  0.
        1    1    3    3  502    0  0.19166633708E+03  0.30802955422E+03 -0.11032735577E+04  0.11613917230E+04  0.50400001928E-02 0. -1.
       -1    1    3    3    0  502 -0.19166633708E+03 -0.30802955422E+03 -0.24936832492E+03  0.44023034032E+03  0.50400001928E-02 0.  1.
</event>
<event>
 5   0  0.4590462E-02  0.7928087E+03  0.7818609E-02  0.9570485E-01
       -2   -1    0    0    0  501  0.00000000000E+00  0.00000000000E+00  0.19012103341E+03  0.19012103343E+03  0.25500000920E-02 0.  1.
        2   -1    0    0  501    0  0.00000000000E+00  0.00000000000E+00 -0.82650726363E+03  0.82650726364E+03  0.25500000920E-02 0. -1.
    10030    2    1    2    0    0  0.00000000000E+00  0.00000000000E+00 -0.63638623022E+03  0.10166282971E+04  0.79280871614E+03 0.  0.
        3    1    3    3  502    0  0.34733785856E+03 -0.71565704875E+02 -0.91071162358E+02  0.36614096318E+03  0.10100000352E+00 0.  1.
       -3    1    3    3    0  502 -0.34733785856E+03  0.71565704875E+02 -0.54531506786E+03  0.65048733388E+03  0.10100000352E+00 0. -1.
</event>
<event>
 5   0  0.2689372E-02  0.8111908E+03  0.7818609E-02  0.9543959E-01
        1   -1    0    0  501    0  0.00000000000E+00  0.00000000000E+00  0.51920535291E+03  0.51920535293E+03  0.50400001928E-02 0. -1.
       -1   -1    0    0    0  501  0.00000000000E+00  0.00000000000E+00 -0.31684499746E+03  0.31684499750E+03  0.50400001928E-02 0.  1.
    10030    2    1    2    0    0  0.00000000000E+00  0.00000000000E+00  0.20236035545E+03  0.83605035043E+03  0.81119077596E+03 0.  0.
        4    1    3    3  502    0  0.33226235290E+03 -0.22223469623E+03  0.17198392623E+03  0.43516274559E+03  0.12699999809E+01 0.  1.
       -4    1    3    3    0  502 -0.33226235290E+03  0.22223469623E+03  0.30376429220E+02  0.40088760484E+03  0.12699999809E+01 0. -1.
</event>
<event>
 5   0  0.4663634E-02  0.8239554E+03  0.7818609E-02  0.9525976E-01
       -2   -1    0    0    0  501  0.00000000000E+00  0.00000000000E+00  0.16832826832E+03  0.16832826834E+03  0.25500000920E-02 0. -1.
        2   -1    0    0  501    0  0.00000000000E+00  0.00000000000E+00 -0.10083013442E+04  0.10083013442E+04  0.25500000920E-02 0.  1.
    10030    2    1    2    0    0  0.00000000000E+00  0.00000000000E+00 -0.83997307588E+03  0.11766296125E+04  0.82395538527E+03 0.  0.
        5    1    3    3  502    0  0.36759492067E+01 -0.13292773724E+03 -0.97677057417E+03  0.98579213859E+03  0.46999998093E+01 0.  1.
       -5    1    3    3    0  502 -0.36759492067E+01  0.13292773724E+03  0.13679749830E+03  0.19083747396E+03  0.46999998093E+01 0. -1.
</event>
<event>
 5   0  0.2689372E-02  0.7815571E+03  0.7818609E-02  0.9587103E-01
       -1   -1    0    0    0  501  0.00000000000E+00  0.00000000000E+00  0.18960646302E+03  0.18960646308E+03  0.50400001928E-02 0. -1.
        1   -1    0    0  501    0  0.00000000000E+00  0.00000000000E+00 -0.80539387878E+03  0.80539387880E+03  0.50400001928E-02 0.  1.
    10030    2    1    2    0    0  0.00000000000E+00  0.00000000000E+00 -0.61578741577E+03  0.99500034188E+03  0.78155712455E+03 0.  0.
        4    1    3    3  502    0 -0.41769674969E+02 -0.34381829777E+03 -0.53828802574E+03  0.64008697783E+03  0.12699999809E+01 0.  1.
       -4    1    3    3    0  502  0.41769674969E+02  0.34381829777E+03 -0.77499390027E+02  0.35491336406E+03  0.12699999809E+01 0. -1.
</event>
<event>
 5   0  0.2759559E-02  0.7932775E+03  0.7818609E-02  0.9569799E-01
       -1   -1    0    0    0  501  0.00000000000E+00  0.00000000000E+00  0.31942767321E+03  0.31942767325E+03  0.50400001928E-02 0. -1.
        1   -1    0    0  501    0  0.00000000000E+00  0.00000000000E+00 -0.49251299086E+03  0.49251299088E+03  0.50400001928E-02 0.  1.
    10030    2    1    2    0    0  0.00000000000E+00  0.00000000000E+00 -0.17308531765E+03  0.81194066413E+03  0.79327745139E+03 0.  0.
        3    1    3    3  502    0 -0.61607662500E+02  0.38766248755E+03 -0.14484380602E+03  0.41839866954E+03  0.10100000352E+00 0. -1.
       -3    1    3    3    0  502  0.61607662500E+02 -0.38766248755E+03 -0.28241511626E+02  0.39354199459E+03  0.10100000352E+00 0.  1.
</event>
<event>
 5   0  0.4684283E-02  0.8170503E+03  0.7818609E-02  0.9535660E-01
       -2   -1    0    0    0  501  0.00000000000E+00  0.00000000000E+00  0.15657143479E+03  0.15657143481E+03  0.25500000920E-02 0. -1.
        2   -1    0    0  501    0  0.00000000000E+00  0.00000000000E+00 -0.10659212022E+04  0.10659212022E+04  0.25500000920E-02 0.  1.
    10030    2    1    2    0    0  0.00000000000E+00  0.00000000000E+00 -0.90934976741E+03  0.12224926370E+04  0.81705033387E+03 0.  0.
        1    1    3    3  502    0 -0.36340550635E+03 -0.18608005603E+03 -0.47601711577E+03  0.62712171373E+03  0.50400001928E-02 0.  1.
       -1    1    3    3    0  502  0.36340550635E+03  0.18608005603E+03 -0.43333265164E+03  0.59537092329E+03  0.50400001928E-02 0. -1.
</event>
<event>
 5   0  0.4700220E-02  0.7964784E+03  0.7818609E-02  0.9565129E-01
       -2   -1    0    0    0  501  0.00000000000E+00  0.00000000000E+00  0.48244028199E+03  0.48244028199E+03  0.25500000920E-02 0. -1.
        2   -1    0    0  501    0  0.00000000000E+00  0.00000000000E+00 -0.32873383892E+03  0.32873383893E+03  0.25500000920E-02 0.  1.
    10030    2    1    2    0    0  0.00000000000E+00  0.00000000000E+00  0.15370644307E+03  0.81117412092E+03  0.79647836368E+03 0.  0.
        4    1    3    3  502    0 -0.11944389027E+03  0.34788047127E+03 -0.78623803331E+02  0.37612628274E+03  0.12699999809E+01 0.  1.
       -4    1    3    3    0  502  0.11944389027E+03 -0.34788047127E+03  0.23233024640E+03  0.43504783818E+03  0.12699999809E+01 0. -1.
</event>
<event>
 5   0  0.4590462E-02  0.7882931E+03  0.7818609E-02  0.9577119E-01
       -2   -1    0    0    0  501  0.00000000000E+00  0.00000000000E+00  0.96811555208E+02  0.96811555241E+02  0.25500000920E-02 0.  1.
        2   -1    0    0  501    0  0.00000000000E+00  0.00000000000E+00 -0.16046792424E+04  0.16046792424E+04  0.25500000920E-02 0. -1.
    10030    2    1    2    0    0  0.00000000000E+00  0.00000000000E+00 -0.15078676872E+04  0.17014907976E+04  0.78829307519E+03 0.  0.
        3    1    3    3  502    0  0.18837527807E+03  0.31217651597E+03 -0.43079974806E+03  0.56438272089E+03  0.10100000352E+00 0.  1.
       -3    1    3    3    0  502 -0.18837527807E+03 -0.31217651597E+03 -0.10770679391E+04  0.11371080768E+04  0.10100000352E+00 0. -1.
</event>
<event>
 5   0  0.2769394E-02  0.7582418E+03  0.7818609E-02  0.9622508E-01
       -1   -1    0    0    0  501  0.00000000000E+00  0.00000000000E+00  0.16468689243E+03  0.16468689251E+03  0.50400001928E-02 0. -1.
        1   -1    0    0  501    0  0.00000000000E+00  0.00000000000E+00 -0.87276327984E+03  0.87276327985E+03  0.50400001928E-02 0.  1.
    10030    2    1    2    0    0  0.00000000000E+00  0.00000000000E+00 -0.70807638740E+03  0.10374501724E+04  0.75824184119E+03 0.  0.
        2    1    3    3  502    0  0.15933469114E+03 -0.30475921688E+03 -0.57238555860E+03  0.66775066587E+03  0.25500000920E-02 0.  1.
       -2    1    3    3    0  502 -0.15933469114E+03  0.30475921688E+03 -0.13569082881E+03  0.36969950649E+03  0.25500000920E-02 0. -1.
</event>
<event>
 5   0  0.2769394E-02  0.8212944E+03  0.7818609E-02  0.9529696E-01
        1   -1    0    0  501    0  0.00000000000E+00  0.00000000000E+00  0.15590809622E+04  0.15590809622E+04  0.50400001928E-02 0.  1.
       -1   -1    0    0    0  501  0.00000000000E+00  0.00000000000E+00 -0.10816059852E+03  0.10816059864E+03  0.50400001928E-02 0. -1.
    10030    2    1    2    0    0  0.00000000000E+00  0.00000000000E+00  0.14509203637E+04  0.16672415608E+04  0.82129441766E+03 0.  0.
        2    1    3    3  502    0  0.16055140730E+03  0.30985443332E+03  0.28609114149E+03  0.45125897828E+03  0.25500000920E-02 0. -1.
       -2    1    3    3    0  502 -0.16055140730E+03 -0.30985443332E+03  0.11648292222E+04  0.12159825826E+04  0.25500000920E-02 0.  1.
</event>
<event>
 5   0  0.4663634E-02  0.8170305E+03  0.7818609E-02  0.9535688E-01
       -2   -1    0    0    0  501  0.00000000000E+00  0.00000000000E+00  0.20094375663E+03  0.20094375664E+03  0.25500000920E-02 0. -1.
        2   -1    0    0  501    0  0.00000000000E+00  0.00000000000E+00 -0.83050459418E+03  0.83050459418E+03  0.25500000920E-02 0.  1.
    10030    2    1    2    0    0  0.00000000000E+00  0.00000000000E+00 -0.62956083755E+03  0.10314483508E+04  0.81703050876E+03 0.  0.
        5    1    3    3  502    0  0.22612638548E+03 -0.22554694890E+03 -0.63628796530E+03  0.71196139864E+03  0.46999998093E+01 0.  1.
       -5    1    3    3    0  502 -0.22612638548E+03  0.22554694890E+03  0.67271277490E+01  0.31948695218E+03  0.46999998093E+01 0. -1.
</event>
<event>
 5   0  0.2635243E-02  0.7910911E+03  0.7818609E-02  0.9573003E-01
       -1   -1    0    0    0  501  0.00000000000E+00  0.00000000000E+00  0.14274480748E+03  0.14274480757E+03  0.50400001928E-02 0.  1.
        1   -1    0    0  501    0  0.00000000000E+00  0.00000000000E+00 -0.10960558118E+04  0.10960558118E+04  0.50400001928E-02 0. -1.
    10030    2    1    2    0    0  0.00000000000E+00  0.00000000000E+00 -0.95331100434E+03  0.12388006194E+04  0.79109108429E+03 0.  0.
        1    1    3    3  502    0  0.65594600196E+02 -0.22605045367E+03 -0.97445382973E+03  0.10024777930E+04  0.50400001928E-02 0. -1.
       -1    1    3    3    0  502 -0.65594600196E+02  0.22605045367E+03  0.21142825397E+02  0.23632282639E+03  0.50400001928E-02 0.  1.
</event>
<event>
 5   0  0.4590462E-02  0.7977668E+03  0.7818609E-02  0.9563255E-01
        2   -1    0    0  501    0  0.00000000000E+00  0.00000000000E+00  0.71139374723E+03  0.71139374723E+03  0.25500000920E-02 0.  1.
       -2   -1    0    0    0  501  0.00000000000E+00  0.00000000000E+00 -0.22365668858E+03  0.22365668860E+03  0.25500000920E-02 0. -1.
    10030    2    1    2    0    0  0.00000000000E+00  0.00000000000E+00  0.48773705865E+03  0.93505043583E+03  0.79776680752E+03 0.  0.
        3    1    3    3  502    0 -0.22129572935E+03  0.22089272885E+03  0.53416384627E+03  0.61894783492E+03  0.10100000352E+00 0.  1.
       -3    1    3    3    0  502  0.22129572935E+03 -0.22089272885E+03 -0.46426787628E+02  0.31610260091E+03  0.10100000352E+00 0. -1.
</event>
<event>
 5   0  0.2769394E-02  0.7785575E+03  0.7818609E-02  0.9591584E-01
        1   -1    0    0  501    0  0.00000000000E+00  0.00000000000E+00  0.36392332288E+03  0.36392332292E+03  0.50400001928E-02 0.  1.
       -1   -1    0    0    0  501  0.00000000000E+00  0.00000000000E+00 -0.41640077781E+03  0.41640077784E+03  0.50400001928E-02 0. -1.
    10030    2    1    2    0    0  0.00000000000E+00  0.00000000000E+00 -0.52477454929E+02  0.78032410076E+03  0.77855752450E+03 0.  0.
        2    1    3    3  502    0  0.22051913049E+03 -0.17645462867E+03 -0.29475150700E+03  0.40821976162E+03  0.25500000920E-02 0. -1.
       -2    1    3    3    0  502 -0.22051913049E+03  0.17645462867E+03  0.24227405208E+03  0.37210433914E+03  0.25500000920E-02 0.  1.
</event>
<event>
 5   0  0.2689372E-02  0.7471919E+03  0.7818609E-02  0.9639766E-01
       -1   -1    0    0    0  501  0.00000000000E+00  0.00000000000E+00  0.22993312825E+03  0.22993312831E+03  0.50400001928E-02 0. -1.
        1   -1    0    0  501    0  0.00000000000E+00  0.00000000000E+00 -0.60701970155E+03  0.60701970157E+03  0.50400001928E-02 0.  1.
    10030    2    1    2    0    0  0.00000000000E+00  0.00000000000E+00 -0.37708657329E+03  0.83695282988E+03  0.74719191356E+03 0.  0.
        4    1    3    3  502    0 -0.33967222768E+03  0.13216250619E+03 -0.96664028107E+02  0.37708049211E+03  0.12699999809E+01 0.  1.
       -4    1    3    3    0  502  0.33967222768E+03 -0.13216250619E+03 -0.28042254518E+03  0.45987233777E+03  0.12699999809E+01 0. -1.
</event>
<event>
 5   0  0.2606520E-02  0.8076125E+03  0.7818609E-02  0.9549063E-01
       -1   -1    0    0    0  501  0.00000000000E+00  0.00000000000E+00  0.46922394699E+03  0.46922394702E+03  0.50400001928E-02 0.  1.
        1   -1    0    0  501    0  0.00000000000E+00  0.00000000000E+00 -0.34750886472E+03  0.34750886476E+03  0.50400001928E-02 0. -1.
    10030    2    1    2    0    0  0.00000000000E+00  0.00000000000E+00  0.12171508227E+03  0.81673281178E+03  0.80761248417E+03 0.  0.
        5    1    3    3  502    0 -0.31511374983E+03  0.11508958034E+03 -0.16639126830E+03  0.37450024166E+03  0.46999998093E+01 0. -1.
       -5    1    3    3    0  502  0.31511374983E+03 -0.11508958034E+03  0.28810635057E+03  0.44223257012E+03  0.46999998093E+01 0.  1.
</event>
<event>
 5   0  0.4700220E-02  0.8181253E+03  0.7818609E-02  0.9534146E-01
        2   -1    0    0  501    0  0.00000000000E+00  0.00000000000E+00  0.16694977111E+04  0.16694977111E+04  0.25500000920E-02 0.  1.
       -2   -1    0    0    0  501  0.00000000000E+00  0.00000000000E+00 -0.10022908894E+03  0.10022908898E+03  0.25500000920E-02 0. -1.
    10030    2    1    2    0    0  0.00000000000E+00  0.00000000000E+00  0.15692686222E+04  0.17697268001E+04  0.81812525840E+03 0.  0.
        4    1    3    3  502    0  0.35954668792E+03  0.15937093109E+03  0.54126604389E+03  0.66906162469E+03  0.12699999809E+01 0.  1.
       -4    1    3    3    0  502 -0.35954668792E+03 -0.15937093109E+03  0.10280025783E+04  0.11006651754E+04  0.12699999809E+01 0. -1.
</event>
<event>
 5   0  0.2606520E-02  0.8074261E+03  0.7818609E-02  0.9549330E-01
       -1   -1    0    0    0  501  0.00000000000E+00  0.00000000000E+00  0.20892228933E+03  0.20892228939E+03  0.50400001928E-02 0. -1.
        1   -1    0    0  501    0  0.00000000000E+00  0.00000000000E+00 -0.78011881989E+03  0.78011881991E+03  0.50400001928E-02 0.  1.
    10030    2    1    2    0    0  0.00000000000E+00  0.00000000000E+00 -0.57119653057E+03  0.98904110930E+03  0.80742605813E+03 0.  0.
        5    1    3    3  502    0  0.18450889436E+03  0.35053163948E+03 -0.19035126456E+03  0.43951297625E+03  0.46999998093E+01 0. -1.
       -5    1    3    3    0  502 -0.18450889436E+03 -0.35053163948E+03 -0.38084526600E+03  0.54952813305E+03  0.46999998093E+01 0.  1.
</event>
<event>
 5   0  0.4377843E-02  0.8198814E+03  0.7818609E-02  0.9531677E-01
       -2   -1    0    0    0  501  0.00000000000E+00  0.00000000000E+00  0.29161234683E+03  0.29161234685E+03  0.25500000920E-02 0. -1.
        2   -1    0    0  501    0  0.00000000000E+00  0.00000000000E+00 -0.57628340923E+03  0.57628340923E+03  0.25500000920E-02 0.  1.
    10030    2    1    2    0    0  0.00000000000E+00  0.00000000000E+00 -0.28467106239E+03  0.86789575608E+03  0.81988135096E+03 0.  0.
        2    1    3    3  502    0 -0.28085843605E+03  0.29200909508E+03 -0.20844770134E+03  0.45563276540E+03  0.25500000920E-02 0.  1.
       -2    1    3    3    0  502  0.28085843605E+03 -0.29200909508E+03 -0.76223361051E+02  0.41226299068E+03  0.25500000920E-02 0. -1.
</event>
<event>
 5   0  0.2769394E-02  0.8053236E+03  0.7818609E-02  0.9552343E-01
        1   -1    0    0  501    0  0.00000000000E+00  0.00000000000E+00  0.36053620638E+03  0.36053620642E+03  0.50400001928E-02 0. -1.
       -1   -1    0    0    0  501  0.00000000000E+00  0.00000000000E+00 -0.44970943675E+03  0.44970943678E+03  0.50400001928E-02 0.  1.
    10030    2    1    2    0    0  0.00000000000E+00  0.00000000000E+00 -0.89173230371E+02  0.81024564320E+03  0.80532362272E+03 0.  0.
        2    1    3    3  502    0 -0.74765750551E+02 -0.11765058204E+03 -0.42465854506E+03  0.44695241000E+03  0.25500000920E-02 0.  1.
       -2    1    3    3    0  502  0.74765750551E+02  0.11765058204E+03  0.33548531469E+03  0.36329323320E+03  0.25500000920E-02 0. -1.
</event>
<event>
 5   0  0.2635243E-02  0.8014065E+03  0.7818609E-02  0.9557983E-01
       -1   -1    0    0    0  501  0.00000000000E+00  0.00000000000E+00  0.47778020092E+03  0.47778020095E+03  0.50400001928E-02 0. -1.
        1   -1    0    0  501    0  0.00000000000E+00  0.00000000000E+00 -0.33606059027E+03  0.33606059031E+03  0.50400001928E-02 0.  1.
    10030    2    1    2    0    0  0.00000000000E+00  0.00000000000E+00  0.14171961065E+03  0.81384079126E+03  0.80140650451E+03 0.  0.
        1    1    3    3  502    0 -0.18074503146E+03  0.53144381990E+02 -0.28827969465E+03  0.34438100138E+03  0.50400001928E-02 0.  1.
       -1    1    3    3    0  502  0.18074503146E+03 -0.53144381990E+02  0.42999930530E+03  0.46945978988E+03  0.50400001928E-02 0. -1.
</event>
<event>
 5   0  0.4377843E-02  0.8306131E+03  0.7818609E-02  0.9516733E-01
       -2   -1    0    0    0  501  0.00000000000E+00  0.00000000000E+00  0.80505817602E+03  0.80505817602E+03  0.25500000920E-02 0.  1.
        2   -1    0    0  501    0  0.00000000000E+00  0.00000000000E+00 -0.21424479183E+03  0.21424479184E+03  0.25500000920E-02 0. -1.
    10030    2    1    2    0    0  0.00000000000E+00  0.00000000000E+00  0.59081338419E+03  0.10193029679E+04  0.83061307801E+03 0.  0.
        2    1    3    3  502    0  0.15898445140E+03 -0.10738357762E+03 -0.15660535529E+03  0.24765404467E+03  0.25500000920E-02 0. -1.
       -2    1    3    3    0  502 -0.15898445140E+03  0.10738357762E+03  0.74741873948E+03  0.77164892319E+03  0.25500000920E-02 0.  1.
</event>
<event>
 5   0  0.4684283E-02  0.8165316E+03  0.7818609E-02  0.9536392E-01
        2   -1    0    0  501    0  0.00000000000E+00  0.00000000000E+00  0.28132472415E+03  0.28132472416E+03  0.25500000920E-02 0. -1.
       -2   -1    0    0    0  501  0.00000000000E+00  0.00000000000E+00 -0.59248607856E+03  0.59248607857E+03  0.25500000920E-02 0.  1.
    10030    2    1    2    0    0  0.00000000000E+00  0.00000000000E+00 -0.31116135441E+03  0.87381080273E+03  0.81653164696E+03 0.  0.
        1    1    3    3  502    0 -0.31011502552E+03  0.19178624388E+03  0.40953320321E+02  0.36692024592E+03  0.50400001928E-02 0. -1.
       -1    1    3    3    0  502  0.31011502552E+03 -0.19178624388E+03 -0.35211467473E+03  0.50689055681E+03  0.50400001928E-02 0.  1.
</event>
<event>
 5   0  0.2769394E-02  0.9068666E+03  0.7818609E-02  0.9417038E-01
        1   -1    0    0  501    0  0.00000000000E+00  0.00000000000E+00  0.68095400371E+03  0.68095400373E+03  0.50400001928E-02 0.  1.
       -1   -1    0    0    0  501  0.00000000000E+00  0.00000000000E+00 -0.30193193588E+03  0.30193193592E+03  0.50400001928E-02 0. -1.
    10030    2    1    2    0    0  0.00000000000E+00  0.00000000000E+00  0.37902206783E+03  0.98288593965E+03  0.90686660677E+03 0.  0.
        2    1    3    3  502    0 -0.31527193169E+03 -0.23321325437E+03  0.43622607409E+03  0.58658162317E+03  0.25500000920E-02 0.  1.
       -2    1    3    3    0  502  0.31527193169E+03  0.23321325437E+03 -0.57204006260E+02  0.39630431648E+03  0.25500000920E-02 0. -1.
</event>
<event>
 5   0  0.2635243E-02  0.8629806E+03  0.7818609E-02  0.9473079E-01
       -1   -1    0    0    0  501  0.00000000000E+00  0.00000000000E+00  0.54158948993E+03  0.54158948995E+03  0.50400001928E-02 0. -1.
        1   -1    0    0  501    0  0.00000000000E+00  0.00000000000E+00 -0.34377305506E+03  0.34377305510E+03  0.50400001928E-02 0.  1.
    10030    2    1    2    0    0  0.00000000000E+00  0.00000000000E+00  0.19781643487E+03  0.88536254504E+03  0.86298058742E+03 0.  0.
        1    1    3    3  502    0 -0.25489724443E+02  0.24001140089E+03 -0.26803939787E+03  0.36069421598E+03  0.50400001928E-02 0.  1.
       -1    1    3    3    0  502  0.25489724443E+02 -0.24001140089E+03  0.46585583273E+03  0.52466832907E+03  0.50400001928E-02 0. -1.
</event>
<event>
 5   0  0.2689372E-02  0.7852086E+03  0.7818609E-02  0.9581677E-01
        1   -1    0    0  501    0  0.00000000000E+00  0.00000000000E+00  0.79327668576E+03  0.79327668578E+03  0.50400001928E-02 0. -1.
       -1   -1    0    0    0  501  0.00000000000E+00  0.00000000000E+00 -0.19430566508E+03  0.19430566514E+03  0.50400001928E-02 0.  1.
    10030    2    1    2    0    0  0.00000000000E+00  0.00000000000E+00  0.59897102068E+03  0.98758235092E+03  0.78520864503E+03 0.  0.
        4    1    3    3  502    0 -0.31597039933E+03 -0.18828169201E+03  0.12680818543E+03  0.38906197141E+03  0.12699999809E+01 0.  1.
       -4    1    3    3    0  502  0.31597039933E+03  0.18828169201E+03  0.47216283525E+03  0.59852037952E+03  0.12699999809E+01 0. -1.
</event>
<event>
 5   0  0.4700220E-02  0.7130064E+03  0.7818609E-02  0.9695244E-01
        2   -1    0    0  501    0  0.00000000000E+00  0.00000000000E+00  0.18169723060E+03  0.18169723062E+03  0.25500000920E-02 0. -1.
       -2   -1    0    0    0  501  0.00000000000E+00  0.00000000000E+00 -0.69948524836E+03  0.69948524836E+03  0.25500000920E-02 0.  1.
    10030    2    1    2    0    0  0.00000000000E+00  0.00000000000E+00 -0.51778801776E+03  0.88118247898E+03  0.71300640244E+03 0.  0.
        4    1    3    3  502    0  0.23646820942E+03 -0.13182281875E+03  0.27759528301E+02  0.27215193169E+03  0.12699999809E+01 0. -1.
       -4    1    3    3    0  502 -0.23646820942E+03  0.13182281875E+03 -0.54554754606E+03  0.60903054729E+03  0.12699999809E+01 0.  1.
</event>
<event>
 5   0  0.2759559E-02  0.7937187E+03  0.7818609E-02  0.9569154E-01
        1   -1    0    0  501    0  0.00000000000E+00  0.00000000000E+00  0.16181023907E+04  0.16181023907E+04  0.50400001928E-02 0.  1.
       -1   -1    0    0    0  501  0.00000000000E+00  0.00000000000E+00 -0.97334604336E+02  0.97334604466E+02  0.50400001928E-02 0. -1.
    10030    2    1    2    0    0  0.00000000000E+00  0.00000000000E+00  0.15207677864E+04  0.17154369952E+04  0.79371873127E+03 0.  0.
        3    1    3    3  502    0  0.19493261762E+03 -0.31081535182E+03  0.43337906770E+03  0.56782245012E+03  0.10100000352E+00 0. -1.
       -3    1    3    3    0  502 -0.19493261762E+03  0.31081535182E+03  0.10873887187E+04  0.11476145451E+04  0.10100000352E+00 0.  1.
</event>
<event>
 5   0  0.2635243E-02  0.7592900E+03  0.7818609E-02  0.9620888E-01
        1   -1    0    0  501    0  0.00000000000E+00  0.00000000000E+00  0.59535896135E+03  0.59535896138E+03  0.50400001928E-02 0. -1.
       -1   -1    0    0    0  501  0.00000000000E+00  0.00000000000E+00 -0.24208978338E+03  0.24208978343E+03  0.50400001928E-02 0.  1.
    10030    2    1    2    0    0  0.00000000000E+00  0.00000000000E+00  0.35326917798E+03  0.83744874480E+03  0.75928998944E+03 0.  0.
        1    1    3    3  502    0 -0.10416569485E+03 -0.31334516547E+03 -0.29984737204E+02  0.33156412532E+03  0.50400001928E-02 0.  1.
       -1    1    3    3    0  502  0.10416569485E+03  0.31334516547E+03  0.38325391518E+03  0.50588461949E+03  0.50400001928E-02 0. -1.
</event>
<event>
 5   0  0.2635243E-02  0.7993479E+03  0.7818609E-02  0.9560961E-01
        1   -1    0    0  501    0  0.00000000000E+00  0.00000000000E+00  0.14304997683E+04  0.14304997683E+04  0.50400001928E-02 0. -1.
       -1   -1    0    0    0  501  0.00000000000E+00  0.00000000000E+00 -0.11166676216E+03  0.11166676227E+03  0.50400001928E-02 0.  1.
    10030    2    1    2    0    0  0.00000000000E+00  0.00000000000E+00  0.13188330061E+04  0.15421665305E+04  0.79934792795E+03 0.  0.
        1    1    3    3  502    0 -0.22227006359E+03 -0.25378289517E+03  0.24594892486E+03  0.41749324871E+03  0.50400001928E-02 0.  1.
       -1    1    3    3    0  502  0.22227006359E+03  0.25378289517E+03  0.10728840812E+04  0.11246732818E+04  0.50400001928E-02 0. -1.
</event>
<event>
 5   0  0.4700220E-02  0.8040897E+03  0.7818609E-02  0.9554116E-01
        2   -1    0    0  501    0  0.00000000000E+00  0.00000000000E+00  0.11804119688E+04  0.11804119688E+04  0.25500000920E-02 0. -1.
       -2   -1    0    0    0  501  0.00000000000E+00  0.00000000000E+00 -0.13693528747E+03  0.13693528749E+03  0.25500000920E-02 0.  1.
    10030    2    1    2    0    0  0.00000000000E+00  0.00000000000E+00  0.10434766813E+04  0.13173472563E+04  0.80408967734E+03 0.  0.
        4    1    3    3  502    0 -0.12985415478E+03  0.20228190881E+03 -0.62405143474E+01  0.24045920457E+03  0.12699999809E+01 0.  1.
       -4    1    3    3    0  502  0.12985415478E+03 -0.20228190881E+03  0.10497171957E+04  0.10768880517E+04  0.12699999809E+01 0. -1.
</event>
<event>
 5   0  0.4590462E-02  0.8041961E+03  0.7818609E-02  0.9553963E-01
        2   -1    0    0  501    0  0.00000000000E+00  0.00000000000E+00  0.19566054038E+03  0.19566054040E+03  0.25500000920E-02 0.  1.
       -2   -1    0    0    0  501  0.00000000000E+00  0.00000000000E+00 -0.82634360402E+03  0.82634360402E+03  0.25500000920E-02 0. -1.
    10030    2    1    2    0    0  0.00000000000E+00  0.00000000000E+00 -0.63068306364E+03  0.10220041444E+04  0.80419608582E+03 0.  0.
        3    1    3    3  502    0 -0.28330768034E+03  0.18752583247E+03 -0.42026391824E+02  0.34233814773E+03  0.10100000352E+00 0.  1.
       -3    1    3    3    0  502  0.28330768034E+03 -0.18752583247E+03 -0.58865667181E+03  0.67966599669E+03  0.10100000352E+00 0. -1.
</event>
<event>
 5   0  0.1786500E-02  0.6525006E+03  0.7818609E-02  0.9802098E-01
       -3   -1    0    0    0  501  0.00000000000E+00  0.00000000000E+00  0.43651107842E+03  0.43651109010E+03  0.10100000352E+00 0.  1.
        3   -1    0    0  501    0  0.00000000000E+00  0.00000000000E+00 -0.24384088147E+03  0.24384090239E+03  0.10100000352E+00 0. -1.
    10030    2    1    2    0    0  0.00000000000E+00  0.00000000000E+00  0.19267019695E+03  0.68035199250E+03  0.65250059686E+03 0.  0.
        5    1    3    3  502    0  0.12230061767E+03  0.30232093457E+03  0.10453053330E+03  0.34249687729E+03  0.46999998093E+01 0. -1.
       -5    1    3    3    0  502 -0.12230061767E+03 -0.30232093457E+03  0.88139663645E+02  0.33785511520E+03  0.46999998093E+01 0.  1.
</event>
<event>
 5   0  0.4663634E-02  0.8157766E+03  0.7818609E-02  0.9537458E-01
        2   -1    0    0  501    0  0.00000000000E+00  0.00000000000E+00  0.23615556312E+03  0.23615556313E+03  0.25500000920E-02 0.  1.
       -2   -1    0    0    0  501  0.00000000000E+00  0.00000000000E+00 -0.70450534760E+03  0.70450534760E+03  0.25500000920E-02 0. -1.
    10030    2    1    2    0    0  0.00000000000E+00  0.00000000000E+00 -0.46834978448E+03  0.94066091073E+03  0.81577657993E+03 0.  0.
        5    1    3    3  502    0 -0.87064155169E+02  0.30270396753E+03  0.64607822813E+02  0.32156821957E+03  0.46999998093E+01 0.  1.
       -5    1    3    3    0  502  0.87064155169E+02 -0.30270396753E+03 -0.53295760729E+03  0.61909269116E+03  0.46999998093E+01 0. -1.
</event>
<event>
 5   0  0.4590462E-02  0.8142285E+03  0.7818609E-02  0.9539647E-01
        2   -1    0    0  501    0  0.00000000000E+00  0.00000000000E+00  0.16624445308E+04  0.16624445308E+04  0.25500000920E-02 0. -1.
       -2   -1    0    0    0  501  0.00000000000E+00  0.00000000000E+00 -0.99697774552E+02  0.99697774584E+02  0.25500000920E-02 0.  1.
    10030    2    1    2    0    0  0.00000000000E+00  0.00000000000E+00  0.15627467563E+04  0.17621423054E+04  0.81422851846E+03 0.  0.
        3    1    3    3  502    0 -0.18522379378E+03 -0.33769068013E+03  0.49590446788E+03  0.62790453151E+03  0.10100000352E+00 0.  1.
       -3    1    3    3    0  502  0.18522379378E+03  0.33769068013E+03  0.10668422884E+04  0.11342377739E+04  0.10100000352E+00 0. -1.
</event>
<event>
 5   0  0.2606520E-02  0.8089662E+03  0.7818609E-02  0.9547129E-01
        1   -1    0    0  501    0  0.00000000000E+00  0.00000000000E+00  0.21657584926E+03  0.21657584932E+03  0.50400001928E-02 0. -1.
       -1   -1    0    0    0  501  0.00000000000E+00  0.00000000000E+00 -0.75542384932E+03  0.75542384933E+03  0.50400001928E-02 0.  1.
    10030    2    1    2    0    0  0.00000000000E+00  0.00000000000E+00 -0.53884800006E+03  0.97199969865E+03  0.80896615937E+03 0.  0.
        5    1    3    3  502    0  0.90656970502E+02  0.12534419081E+03  0.17959366618E+03  0.23707768221E+03  0.46999998093E+01 0. -1.
       -5    1    3    3    0  502 -0.90656970502E+02 -0.12534419081E+03 -0.71844166624E+03  0.73492201644E+03  0.46999998093E+01 0.  1.
</event>
<event>
 5   0  0.4663634E-02  0.8082814E+03  0.7818609E-02  0.9548107E-01
        2   -1    0    0  501    0  0.00000000000E+00  0.00000000000E+00  0.28707642179E+03  0.28707642180E+03  0.25500000920E-02 0.  1.
       -2   -1    0    0    0  501  0.00000000000E+00  0.00000000000E+00 -0.56894152768E+03  0.56894152769E+03  0.25500000920E-02 0. -1.
    10030    2    1    2    0    0  0.00000000000E+00  0.00000000000E+00 -0.28186510590E+03  0.85601794949E+03  0.80828138165E+03 0.  0.
        5    1    3    3  502    0  0.32260088670E+03 -0.95653202867E+02  0.96085639545E+02  0.34996486601E+03  0.46999998093E+01 0.  1.
       -5    1    3    3    0  502 -0.32260088670E+03  0.95653202867E+02 -0.37795074544E+03  0.50605308348E+03  0.46999998093E+01 0. -1.
</event>
<event>
 5   0  0.4377843E-02  0.8067573E+03  0.7818609E-02  0.9550287E-01
        2   -1    0    0  501    0  0.00000000000E+00  0.00000000000E+00  0.14464589478E+04  0.14464589478E+04  0.25500000920E-02 0. -1.
       -2   -1    0    0    0  501  0.00000000000E+00  0.00000000000E+00 -0.11249150812E+03  0.11249150815E+03  0.25500000920E-02 0.  1.
    10030    2    1    2    0    0  0.00000000000E+00  0.00000000000E+00  0.13339674397E+04  0.15589504559E+04  0.80675733278E+03 0.  0.
        2    1    3    3  502    0  0.11088793358E+03 -0.37423735848E+03  0.86371162267E+03  0.94781195468E+03  0.25500000920E-02 0.  1.
       -2    1    3    3    0  502 -0.11088793358E+03  0.37423735848E+03  0.47025581700E+03  0.61113850126E+03  0.25500000920E-02 0. -1.
</event>
<event>
 5   0  0.4663634E-02  0.7973351E+03  0.7818609E-02  0.9563882E-01
       -2   -1    0    0    0  501  0.00000000000E+00  0.00000000000E+00  0.10817916719E+03  0.10817916722E+03  0.25500000920E-02 0.  1.
        2   -1    0    0  501    0  0.00000000000E+00  0.00000000000E+00 -0.14691906515E+04  0.14691906515E+04  0.25500000920E-02 0. -1.
    10030    2    1    2    0    0  0.00000000000E+00  0.00000000000E+00 -0.13610114843E+04  0.15773698187E+04  0.79733511436E+03 0.  0.
        5    1    3    3  502    0  0.14380697837E+03 -0.22433552232E+03 -0.93957126922E+02  0.28258964117E+03  0.46999998093E+01 0.  1.
       -5    1    3    3    0  502 -0.14380697837E+03  0.22433552232E+03 -0.12670543574E+04  0.12947801775E+04  0.46999998093E+01 0. -1.
</event>
<event>
 5   0  0.2635243E-02  0.8393967E+03  0.7818609E-02  0.9504680E-01
       -1   -1    0    0    0  501  0.00000000000E+00  0.00000000000E+00  0.71131952989E+02  0.71131953167E+02  0.50400001928E-02 0. -1.
        1   -1    0    0  501    0  0.00000000000E+00  0.00000000000E+00 -0.24763370947E+04  0.24763370947E+04  0.50400001928E-02 0.  1.
    10030    2    1    2    0    0  0.00000000000E+00  0.00000000000E+00 -0.24052051417E+04  0.25474690479E+04  0.83939667390E+03 0.  0.
        1    1    3    3  502    0 -0.19733617656E+03  0.28571314236E+03 -0.48716113064E+03  0.59824705058E+03  0.50400001928E-02 0. -1.
       -1    1    3    3    0  502  0.19733617656E+03 -0.28571314236E+03 -0.19180440111E+04  0.19492219973E+04  0.50400001928E-02 0.  1.
</event>
<event>
 5   0  0.4377843E-02  0.8240649E+03  0.7818609E-02  0.9525823E-01
       -2   -1    0    0    0  501  0.00000000000E+00  0.00000000000E+00  0.82977996966E+03  0.82977996966E+03  0.25500000920E-02 0. -1.
        2   -1    0    0  501    0  0.00000000000E+00  0.00000000000E+00 -0.20459729920E+03  0.20459729921E+03  0.25500000920E-02 0.  1.
    10030    2    1    2    0    0  0.00000000000E+00  0.00000000000E+00  0.62518267046E+03  0.10343772689E+04  0.82406490213E+03 0.  0.
        2    1    3    3  502    0  0.36233147425E+03  0.19470190896E+03  0.28241891631E+03  0.49895227716E+03  0.25500000920E-02 0.  1.
       -2    1    3    3    0  502 -0.36233147425E+03 -0.19470190896E+03  0.34276375415E+03  0.53542499171E+03  0.25500000920E-02 0. -1.
</event>
<event>
 5   0  0.2606520E-02  0.8019519E+03  0.7818609E-02  0.9557196E-01
       -1   -1    0    0    0  501  0.00000000000E+00  0.00000000000E+00  0.75935328058E+03  0.75935328060E+03  0.50400001928E-02 0. -1.
        1   -1    0    0  501    0  0.00000000000E+00  0.00000000000E+00 -0.21173508539E+03  0.21173508545E+03  0.50400001928E-02 0.  1.
    10030    2    1    2    0    0  0.00000000000E+00  0.00000000000E+00  0.54761819520E+03  0.97108836605E+03  0.80195194804E+03 0.  0.
        5    1    3    3  502    0  0.54388991530E+02 -0.23027881915E+03  0.66576336237E+03  0.70657585694E+03  0.46999998093E+01 0. -1.
       -5    1    3    3    0  502 -0.54388991530E+02  0.23027881915E+03 -0.11814516717E+03  0.26451250910E+03  0.46999998093E+01 0.  1.
</event>
<event>
 5   0  0.2759559E-02  0.1126493E+04  0.7818609E-02  0.9179748E-01
       -1   -1    0    0    0  501  0.00000000000E+00  0.00000000000E+00  0.43910591913E+03  0.43910591916E+03  0.50400001928E-02 0.  1.
        1   -1    0    0  501    0  0.00000000000E+00  0.00000000000E+00 -0.72248316634E+03  0.72248316636E+03  0.50400001928E-02 0. -1.
    10030    2    1    2    0    0  0.00000000000E+00  0.00000000000E+00 -0.28337724721E+03  0.11615890855E+04  0.11264930268E+04 0.  0.
        3    1    3    3  502    0 -0.27870380292E+03  0.22698695810E+03 -0.58884360086E+03  0.68988092116E+03  0.10100000352E+00 0. -1.
       -3    1    3    3    0  502  0.27870380292E+03 -0.22698695810E+03  0.30546635365E+03  0.47170816436E+03  0.10100000352E+00 0.  1.
</event>
<event>
 5   0  0.4700220E-02  0.7849954E+03  0.7818609E-02  0.9581993E-01
       -2   -1    0    0    0  501  0.00000000000E+00  0.00000000000E+00  0.85904193600E+03  0.85904193600E+03  0.25500000920E-02 0. -1.
        2   -1    0    0  501    0  0.00000000000E+00  0.00000000000E+00 -0.17933285490E+03  0.17933285492E+03  0.25500000920E-02 0.  1.
    10030    2    1    2    0    0  0.00000000000E+00  0.00000000000E+00  0.67970908110E+03  0.10383747909E+04  0.78499539584E+03 0.  0.
        4    1    3    3  502    0 -0.10214132570E+03 -0.50726072969E+02  0.83663981560E+03  0.84437774654E+03  0.12699999809E+01 0. -1.
       -4    1    3    3    0  502  0.10214132570E+03  0.50726072969E+02 -0.15693073451E+03  0.19399704438E+03  0.12699999809E+01 0.  1.
</event>
<event>
 5   0  0.2759559E-02  0.8047834E+03  0.7818609E-02  0.9553119E-01
        1   -1    0    0  501    0  0.00000000000E+00  0.00000000000E+00  0.89927976829E+03  0.89927976830E+03  0.50400001928E-02 0.  1.
       -1   -1    0    0    0  501  0.00000000000E+00  0.00000000000E+00 -0.18005416217E+03  0.18005416224E+03  0.50400001928E-02 0. -1.
    10030    2    1    2    0    0  0.00000000000E+00  0.00000000000E+00  0.71922560612E+03  0.10793339305E+04  0.80478336285E+03 0.  0.
        3    1    3    3  502    0 -0.16009865362E+03 -0.15705862203E+03  0.80768497945E+03  0.83824460981E+03  0.10100000352E+00 0.  1.
       -3    1    3    3    0  502  0.16009865362E+03  0.15705862203E+03 -0.88459373323E+02  0.24108932074E+03  0.10100000352E+00 0. -1.
</event>
<event>
 5   0  0.2689372E-02  0.7901777E+03  0.7818609E-02  0.9574344E-01
       -1   -1    0    0    0  501  0.00000000000E+00  0.00000000000E+00  0.46205463716E+03  0.46205463719E+03  0.50400001928E-02 0. -1.
        1   -1    0    0  501    0  0.00000000000E+00  0.00000000000E+00 -0.33782843783E+03  0.33782843787E+03  0.50400001928E-02 0.  1.
    10030    2    1    2    0    0  0.00000000000E+00  0.00000000000E+00  0.12422619933E+03  0.79988307506E+03  0.79017769214E+03 0.  0.
        4    1    3    3  502    0  0.17775143310E+03 -0.12709951371E+03  0.39531204985E+03  0.45168914976E+03  0.12699999809E+01 0. -1.
       -4    1    3    3    0  502 -0.17775143310E+03  0.12709951371E+03 -0.27108585053E+03  0.34819392529E+03  0.12699999809E+01 0.  1.
</event>
<event>
 5   0  0.2759559E-02  0.8236641E+03  0.7818609E-02  0.9526382E-01
       -1   -1    0    0    0  501  0.00000000000E+00  0.00000000000E+00  0.26711369628E+03  0.26711369632E+03  0.50400001928E-02 0. -1.
        1   -1    0    0  501    0  0.00000000000E+00  0.00000000000E+00 -0.63495679816E+03  0.63495679818E+03  0.50400001928E-02 0.  1.
    10030    2    1    2    0    0  0.00000000000E+00  0.00000000000E+00 -0.36784310188E+03  0.90207049450E+03  0.82366414845E+03 0.  0.
        3    1    3    3  502    0  0.22864473786E+03  0.32699463184E+03 -0.29561902411E+03  0.49658284608E+03  0.10100000352E+00 0.  1.
       -3    1    3    3    0  502 -0.22864473786E+03 -0.32699463184E+03 -0.72224077772E+02  0.40548764842E+03  0.10100000352E+00 0. -1.
</event>
<event>
 5   0  0.4663634E-02  0.6775393E+03  0.7818609E-02  0.9756433E-01
        2   -1    0    0  501    0  0.00000000000E+00  0.00000000000E+00  0.86190259753E+03  0.86190259753E+03  0.25500000920E-02 0.  1.
       -2   -1    0    0    0  501  0.00000000000E+00  0.00000000000E+00 -0.13315296740E+03  0.13315296743E+03  0.25500000920E-02 0. -1.
    10030    2    1    2    0    0  0.00000000000E+00  0.00000000000E+00  0.72874963012E+03  0.99505556496E+03  0.67753933756E+03 0.  0.
        5    1    3    3  502    0 -0.76360170579E+02  0.13113055569E+03  0.80914639444E+03  0.82326549540E+03  0.46999998093E+01 0.  1.
       -5    1    3    3    0  502  0.76360170579E+02 -0.13113055569E+03 -0.80396764318E+02  0.17179006955E+03  0.46999998093E+01 0. -1.
</event>
<event>
 5   0  0.2689372E-02  0.8019819E+03  0.7818609E-02  0.9557153E-01
        1   -1    0    0  501    0  0.00000000000E+00  0.00000000000E+00  0.18811772982E+03  0.18811772989E+03  0.50400001928E-02 0. -1.
       -1   -1    0    0    0  501  0.00000000000E+00  0.00000000000E+00 -0.85475064481E+03  0.85475064482E+03  0.50400001928E-02 0.  1.
    10030    2    1    2    0    0  0.00000000000E+00  0.00000000000E+00 -0.66663291499E+03  0.10428683747E+04  0.80198192225E+03 0.  0.
        4    1    3    3  502    0  0.33548102925E+03  0.11948899333E+03 -0.57297532256E+03  0.67463136132E+03  0.12699999809E+01 0.  1.
       -4    1    3    3    0  502 -0.33548102925E+03 -0.11948899333E+03 -0.93657592433E+02  0.36823701339E+03  0.12699999809E+01 0. -1.
</event>
<event>
 5   0  0.2606520E-02  0.7964347E+03  0.7818609E-02  0.9565192E-01
       -1   -1    0    0    0  501  0.00000000000E+00  0.00000000000E+00  0.14189391458E+03  0.14189391467E+03  0.50400001928E-02 0. -1.
        1   -1    0    0  501    0  0.00000000000E+00  0.00000000000E+00 -0.11175748151E+04  0.11175748151E+04  0.50400001928E-02 0.  1.
    10030    2    1    2    0    0  0.00000000000E+00  0.00000000000E+00 -0.97568090047E+03  0.12594687297E+04  0.79643471901E+03 0.  0.
        5    1    3    3  502    0 -0.23829131436E+02 -0.38941773331E+03 -0.61376641606E+03  0.72728625864E+03  0.46999998093E+01 0.  1.
       -5    1    3    3    0  502  0.23829131436E+02  0.38941773331E+03 -0.36191448441E+03  0.53218247110E+03  0.46999998093E+01 0. -1.
</event>
<event>
 5   0  0.4663634E-02  0.8016530E+03  0.7818609E-02  0.9557628E-01
        2   -1    0    0  501    0  0.00000000000E+00  0.00000000000E+00  0.24951403552E+04  0.24951403552E+04  0.25500000920E-02 0. -1.
       -2   -1    0    0    0  501  0.00000000000E+00  0.00000000000E+00 -0.64389919311E+02  0.64389919362E+02  0.25500000920E-02 0.  1.
    10030    2    1    2    0    0  0.00000000000E+00  0.00000000000E+00  0.24307504359E+04  0.25595302745E+04  0.80165300774E+03 0.  0.
        5    1    3    3  502    0 -0.27016494212E+03  0.29568271968E+03  0.11677573357E+04  0.12345430944E+04  0.46999998093E+01 0.  1.
       -5    1    3    3    0  502  0.27016494212E+03 -0.29568271968E+03  0.12629931001E+04  0.13249871802E+04  0.46999998093E+01 0. -1.
</event>
<event>
 5   0  0.2606520E-02  0.1020029E+04  0.7818609E-02  0.9286846E-01
        1   -1    0    0  501    0  0.00000000000E+00  0.00000000000E+00  0.17070152930E+04  0.17070152930E+04  0.50400001928E-02 0. -1.
       -1   -1    0    0    0  501  0.00000000000E+00  0.00000000000E+00 -0.15237978630E+03  0.15237978639E+03  0.50400001928E-02 0.  1.
    10030    2    1    2    0    0  0.00000000000E+00  0.00000000000E+00  0.15546355067E+04  0.18593950794E+04  0.10200286773E+04 0.  0.
        5    1    3    3  502    0 -0.19150038747E+03  0.16745148190E+03  0.15830662466E+04  0.16033818099E+04  0.46999998093E+01 0. -1.
       -5    1    3    3    0  502  0.19150038747E+03 -0.16745148190E+03 -0.28430739897E+02  0.25601326950E+03  0.46999998093E+01 0.  1.
</event>
<event>
 5   0  0.4700220E-02  0.7998347E+03  0.7818609E-02  0.9560256E-01
        2   -1    0    0  501    0  0.00000000000E+00  0.00000000000E+00  0.86837413775E+03  0.86837413775E+03  0.25500000920E-02 0. -1.
       -2   -1    0    0    0  501  0.00000000000E+00  0.00000000000E+00 -0.18417623403E+03  0.18417623405E+03  0.25500000920E-02 0.  1.
    10030    2    1    2    0    0  0.00000000000E+00  0.00000000000E+00  0.68419790372E+03  0.10525503718E+04  0.79983467899E+03 0.  0.
        4    1    3    3  502    0  0.18333851645E+03  0.23648575982E+03  0.69124704665E+03  0.75323476992E+03  0.12699999809E+01 0.  1.
       -4    1    3    3    0  502 -0.18333851645E+03 -0.23648575982E+03 -0.70491429279E+01  0.29931560188E+03  0.12699999809E+01 0. -1.
</event>
<event>
 5   0  0.2769394E-02  0.7661315E+03  0.7818609E-02  0.9610377E-01
       -1   -1    0    0    0  501  0.00000000000E+00  0.00000000000E+00  0.62440543275E+03  0.62440543277E+03  0.50400001928E-02 0. -1.
        1   -1    0    0  501    0  0.00000000000E+00  0.00000000000E+00 -0.23500656960E+03  0.23500656965E+03  0.50400001928E-02 0.  1.
    10030    2    1    2    0    0  0.00000000000E+00  0.00000000000E+00  0.38939886316E+03  0.85941200242E+03  0.76613152610E+03 0.  0.
        2    1    3    3  502    0 -0.21587744902E+03  0.21847132697E+03  0.45149706174E+03  0.54606079375E+03  0.25500000920E-02 0. -1.
       -2    1    3    3    0  502  0.21587744902E+03 -0.21847132697E+03 -0.62098198582E+02  0.31335120868E+03  0.25500000920E-02 0.  1.
</event>
<event>
 5   0  0.2769394E-02  0.7577551E+03  0.7818609E-02  0.9623262E-01
       -1   -1    0    0    0  501  0.00000000000E+00  0.00000000000E+00  0.66910718135E+02  0.66910718325E+02  0.50400001928E-02 0.  1.
        1   -1    0    0  501    0  0.00000000000E+00  0.00000000000E+00 -0.21453695022E+04  0.21453695022E+04  0.50400001928E-02 0. -1.
    10030    2    1    2    0    0  0.00000000000E+00  0.00000000000E+00 -0.20784587841E+04  0.22122802205E+04  0.75775514323E+03 0.  0.
        2    1    3    3  502    0  0.92087254999E+02 -0.31622005261E+03 -0.15859908430E+04  0.16198278113E+04  0.25500000920E-02 0. -1.
       -2    1    3    3    0  502 -0.92087254999E+02  0.31622005261E+03 -0.49246794107E+03  0.59245240922E+03  0.25500000920E-02 0.  1.
</event>
<event>
 5   0  0.2635243E-02  0.8224363E+03  0.7818609E-02  0.9528097E-01
        1   -1    0    0  501    0  0.00000000000E+00  0.00000000000E+00  0.35444352386E+03  0.35444352390E+03  0.50400001928E-02 0.  1.
       -1   -1    0    0    0  501  0.00000000000E+00  0.00000000000E+00 -0.47708693134E+03  0.47708693137E+03  0.50400001928E-02 0. -1.
    10030    2    1    2    0    0  0.00000000000E+00  0.00000000000E+00 -0.12264340748E+03  0.83153045527E+03  0.82243631525E+03 0.  0.
        1    1    3    3  502    0  0.36937646924E+02 -0.49389067262E+02  0.34974090836E+03  0.35513711821E+03  0.50400001928E-02 0.  1.
       -1    1    3    3    0  502 -0.36937646924E+02  0.49389067262E+02 -0.47238431584E+03  0.47639333706E+03  0.50400001928E-02 0. -1.
</event>
<event>
 5   0  0.4590462E-02  0.7947925E+03  0.7818609E-02  0.9567586E-01
       -2   -1    0    0    0  501  0.00000000000E+00  0.00000000000E+00  0.25307544690E+03  0.25307544691E+03  0.25500000920E-02 0. -1.
        2   -1    0    0  501    0  0.00000000000E+00  0.00000000000E+00 -0.62401850128E+03  0.62401850129E+03  0.25500000920E-02 0.  1.
    10030    2    1    2    0    0  0.00000000000E+00  0.00000000000E+00 -0.37094305439E+03  0.87709394820E+03  0.79479245365E+03 0.  0.
        3    1    3    3  502    0  0.46174474972E+01  0.39646288295E+03 -0.15586811766E+03  0.42602701638E+03  0.10100000352E+00 0. -1.
       -3    1    3    3    0  502 -0.46174474972E+01 -0.39646288295E+03 -0.21507493672E+03  0.45106693182E+03  0.10100000352E+00 0.  1.
</event>
<event>
 5   0  0.2769394E-02  0.7943099E+03  0.7818609E-02  0.9568290E-01
        1   -1    0    0  501    0  0.00000000000E+00  0.00000000000E+00  0.30606747827E+03  0.30606747831E+03  0.50400001928E-02 0.  1.
       -1   -1    0    0    0  501  0.00000000000E+00  0.00000000000E+00 -0.51535062431E+03  0.51535062433E+03  0.50400001928E-02 0. -1.
    10030    2    1    2    0    0  0.00000000000E+00  0.00000000000E+00 -0.20928314604E+03  0.82141810265E+03  0.79430992953E+03 0.  0.
        2    1    3    3  502    0 -0.10931271414E+03 -0.33107042752E+03  0.92047194926E+02  0.36059615022E+03  0.25500000920E-02 0.  1.
       -2    1    3    3    0  502  0.10931271414E+03  0.33107042752E+03 -0.30133034096E+03  0.46082195243E+03  0.25500000920E-02 0. -1.
</event>
<event>
 5   0  0.1786500E-02  0.7871787E+03  0.7818609E-02  0.9578763E-01
        3   -1    0    0  501    0  0.00000000000E+00  0.00000000000E+00  0.42205757584E+03  0.42205758793E+03  0.10100000352E+00 0. -1.
       -3   -1    0    0    0  501  0.00000000000E+00  0.00000000000E+00 -0.36704132179E+03  0.36704133568E+03  0.10100000352E+00 0.  1.
    10030    2    1    2    0    0  0.00000000000E+00  0.00000000000E+00  0.55016254053E+02  0.78909892361E+03  0.78717871099E+03 0.  0.
        1    1    3    3  502    0 -0.11731160498E+02 -0.35860836391E+03 -0.13467343241E+03  0.38324210653E+03  0.50400001928E-02 0.  1.
       -1    1    3    3    0  502  0.11731160498E+02  0.35860836391E+03  0.18968968646E+03  0.40585681708E+03  0.50400001928E-02 0. -1.
</event>
<event>
 5   0  0.2769394E-02  0.7987875E+03  0.7818609E-02  0.9561774E-01
       -1   -1    0    0    0  501  0.00000000000E+00  0.00000000000E+00  0.12236551583E+03  0.12236551594E+03  0.50400001928E-02 0.  1.
        1   -1    0    0  501    0  0.00000000000E+00  0.00000000000E+00 -0.13035974448E+04  0.13035974448E+04  0.50400001928E-02 0. -1.
    10030    2    1    2    0    0  0.00000000000E+00  0.00000000000E+00 -0.11812319290E+04  0.14259629608E+04  0.79878751581E+03 0.  0.
        2    1    3    3  502    0  0.16456023706E+03 -0.31553629105E+03 -0.26695446672E+03  0.44486841863E+03  0.25500000920E-02 0.  1.
       -2    1    3    3    0  502 -0.16456023706E+03  0.31553629105E+03 -0.91427746227E+03  0.98109454214E+03  0.25500000920E-02 0. -1.
</event>
<event>
 5   0  0.4663634E-02  0.8215039E+03  0.7818609E-02  0.9529402E-01
       -2   -1    0    0    0  501  0.00000000000E+00  0.00000000000E+00  0.33174062915E+03  0.33174062916E+03  0.25500000920E-02 0.  1.
        2   -1    0    0  501    0  0.00000000000E+00  0.00000000000E+00 -0.50858156426E+03  0.50858156426E+03  0.25500000920E-02 0. -1.
    10030    2    1    2    0    0  0.00000000000E+00  0.00000000000E+00 -0.17684093511E+03  0.84032219342E+03  0.82150390896E+03 0.  0.
        5    1    3    3  502    0  0.22242272529E+03 -0.88848025155E+02 -0.42972402680E+03  0.49198645256E+03  0.46999998093E+01 0. -1.
       -5    1    3    3    0  502 -0.22242272529E+03  0.88848025155E+02  0.25288309169E+03  0.34833574086E+03  0.46999998093E+01 0.  1.
</event>
<event>
 5   0  0.4700220E-02  0.7985533E+03  0.7818609E-02  0.9562114E-01
        2   -1    0    0  501    0  0.00000000000E+00  0.00000000000E+00  0.71095699602E+03  0.71095699602E+03  0.25500000920E-02 0. -1.
       -2   -1    0    0    0  501  0.00000000000E+00  0.00000000000E+00 -0.22423554196E+03  0.22423554197E+03  0.25500000920E-02 0.  1.
    10030    2    1    2    0    0  0.00000000000E+00  0.00000000000E+00  0.48672145406E+03  0.93519253799E+03  0.79855326014E+03 0.  0.
        4    1    3    3  502    0  0.28210145233E+03 -0.12970681130E+03  0.53734192655E+03  0.62059894073E+03  0.12699999809E+01 0. -1.
       -4    1    3    3    0  502 -0.28210145233E+03  0.12970681130E+03 -0.50620472485E+02  0.31459359727E+03  0.12699999809E+01 0.  1.
</event>
<event>
 5   0  0.2769394E-02  0.8034100E+03  0.7818609E-02  0.9555094E-01
       -1   -1    0    0    0  501  0.00000000000E+00  0.00000000000E+00  0.47570478387E+03  0.47570478389E+03  0.50400001928E-02 0. -1.
        1   -1    0    0  501    0  0.00000000000E+00  0.00000000000E+00 -0.33921647123E+03  0.33921647127E+03  0.50400001928E-02 0.  1.
    10030    2    1    2    0    0  0.00000000000E+00  0.00000000000E+00  0.13648831263E+03  0.81492125516E+03  0.80340997793E+03 0.  0.
        2    1    3    3  502    0  0.27295898221E+03 -0.29383591126E+03  0.45097256672E+02  0.40358383427E+03  0.25500000920E-02 0. -1.
       -2    1    3    3    0  502 -0.27295898221E+03  0.29383591126E+03  0.91391055960E+02  0.41133742090E+03  0.25500000920E-02 0.  1.
</event>
<event>
 5   0  0.2635243E-02  0.7963811E+03  0.7818609E-02  0.9565270E-01
        1   -1    0    0  501    0  0.00000000000E+00  0.00000000000E+00  0.12930786367E+03  0.12930786377E+03  0.50400001928E-02 0.  1.
       -1   -1    0    0    0  501  0.00000000000E+00  0.00000000000E+00 -0.12261876271E+04  0.12261876271E+04  0.50400001928E-02 0. -1.
    10030    2    1    2    0    0  0.00000000000E+00  0.00000000000E+00 -0.10968797635E+04  0.13554954909E+04  0.79638107109E+03 0.  0.
        1    1    3    3  502    0 -0.30103937867E+03 -0.25344568642E+03 -0.44495914155E+03  0.59401015240E+03  0.50400001928E-02 0.  1.
       -1    1    3    3    0  502  0.30103937867E+03  0.25344568642E+03 -0.65192062191E+03  0.76148533852E+03  0.50400001928E-02 0. -1.
</event>
<event>
 5   0  0.2759559E-02  0.8080918E+03  0.7818609E-02  0.9548378E-01
       -1   -1    0    0    0  501  0.00000000000E+00  0.00000000000E+00  0.15960181747E+03  0.15960181755E+03  0.50400001928E-02 0. -1.
        1   -1    0    0  501    0  0.00000000000E+00  0.00000000000E+00 -0.10228773329E+04  0.10228773329E+04  0.50400001928E-02 0.  1.
    10030    2    1    2    0    0  0.00000000000E+00  0.00000000000E+00 -0.86327551547E+03  0.11824791505E+04  0.80809178052E+03 0.  0.
        3    1    3    3  502    0 -0.12987177699E+03  0.32020927430E+03 -0.73806653803E+03  0.81494961965E+03  0.10100000352E+00 0.  1.
       -3    1    3    3    0  502  0.12987177699E+03 -0.32020927430E+03 -0.12520897744E+03  0.36752953084E+03  0.10100000352E+00 0. -1.
</event>
<event>
 5   0  0.4377843E-02  0.8141211E+03  0.7818609E-02  0.9539799E-01
        2   -1    0    0  501    0  0.00000000000E+00  0.00000000000E+00  0.16141504808E+04  0.16141504808E+04  0.25500000920E-02 0. -1.
       -2   -1    0    0    0  501  0.00000000000E+00  0.00000000000E+00 -0.10265356993E+03  0.10265356996E+03  0.25500000920E-02 0.  1.
    10030    2    1    2    0    0  0.00000000000E+00  0.00000000000E+00  0.15114969108E+04  0.17168040507E+04  0.81412114401E+03 0.  0.
        2    1    3    3  502    0  0.24375113840E+03  0.22863533975E+03  0.12458285552E+04  0.12898750036E+04  0.25500000920E-02 0. -1.
       -2    1    3    3    0  502 -0.24375113840E+03 -0.22863533975E+03  0.26566835562E+03  0.42692904708E+03  0.25500000920E-02 0.  1.
</event>
<event>
 5   0  0.2635243E-02  0.8448869E+03  0.7818609E-02  0.9497225E-01
       -1   -1    0    0    0  501  0.00000000000E+00  0.00000000000E+00  0.31459323965E+03  0.31459323969E+03  0.50400001928E-02 0. -1.
        1   -1    0    0  501    0  0.00000000000E+00  0.00000000000E+00 -0.56726731774E+03  0.56726731776E+03  0.50400001928E-02 0.  1.
    10030    2    1    2    0    0  0.00000000000E+00  0.00000000000E+00 -0.25267407809E+03  0.88186055745E+03  0.84488688772E+03 0.  0.
        1    1    3    3  502    0  0.32629120988E+03  0.26817497082E+03 -0.13535785898E+03  0.44351495874E+03  0.50400001928E-02 0.  1.
       -1    1    3    3    0  502 -0.32629120988E+03 -0.26817497082E+03 -0.11731621910E+03  0.43834559871E+03  0.50400001928E-02 0. -1.
</event>
<event>
 5   0  0.4663634E-02  0.8237055E+03  0.7818609E-02  0.9526324E-01
       -2   -1    0    0    0  501  0.00000000000E+00  0.00000000000E+00  0.13515372087E+03  0.13515372089E+03  0.25500000920E-02 0.  1.
        2   -1    0    0  501    0  0.00000000000E+00  0.00000000000E+00 -0.12550353033E+04  0.12550353033E+04  0.25500000920E-02 0. -1.
    10030    2    1    2    0    0  0.00000000000E+00  0.00000000000E+00 -0.11198815825E+04  0.13901890242E+04  0.82370550825E+03 0.  0.
        5    1    3    3  502    0  0.37061789285E+03  0.28010414292E+02 -0.85928452242E+03  0.93623404461E+03  0.46999998093E+01 0. -1.
       -5    1    3    3    0  502 -0.37061789285E+03 -0.28010414292E+02 -0.26059706004E+03  0.45395497961E+03  0.46999998093E+01 0.  1.
</event>
<event>
 5   0  0.2759559E-02  0.8106477E+03  0.7818609E-02  0.9544732E-01
       -1   -1    0    0    0  501  0.00000000000E+00  0.00000000000E+00  0.18086375469E+03  0.18086375476E+03  0.50400001928E-02 0.  1.
        1   -1    0    0  501    0  0.00000000000E+00  0.00000000000E+00 -0.90834901618E+03  0.90834901619E+03  0.50400001928E-02 0. -1.
    10030    2    1    2    0    0  0.00000000000E+00  0.00000000000E+00 -0.72748526149E+03  0.10892127710E+04  0.81064767608E+03 0.  0.
        3    1    3    3  502    0 -0.17858911698E+03 -0.20347715893E+03  0.41558965292E+02  0.27390543023E+03  0.10100000352E+00 0.  1.
       -3    1    3    3    0  502  0.17858911698E+03  0.20347715893E+03 -0.76904422678E+03  0.81530734073E+03  0.10100000352E+00 0. -1.
</event>
<event>
 5   0  0.4377843E-02  0.7955674E+03  0.7818609E-02  0.9566455E-01
       -2   -1    0    0    0  501  0.00000000000E+00  0.00000000000E+00  0.22456504753E+03  0.22456504754E+03  0.25500000920E-02 0. -1.
        2   -1    0    0  501    0  0.00000000000E+00  0.00000000000E+00 -0.70461487801E+03  0.70461487802E+03  0.25500000920E-02 0.  1.
    10030    2    1    2    0    0  0.00000000000E+00  0.00000000000E+00 -0.48004983048E+03  0.92917992556E+03  0.79556740401E+03 0.  0.
        2    1    3    3  502    0 -0.27910314364E+03  0.23137708629E+03 -0.48831185259E+02  0.36581198110E+03  0.25500000920E-02 0. -1.
       -2    1    3    3    0  502  0.27910314364E+03 -0.23137708629E+03 -0.43121864522E+03  0.56336794446E+03  0.25500000920E-02 0.  1.
</event>
<event>
 5   0  0.1786500E-02  0.8134182E+03  0.7818609E-02  0.9540795E-01
       -3   -1    0    0    0  501  0.00000000000E+00  0.00000000000E+00  0.19142488421E+03  0.19142491086E+03  0.10100000352E+00 0. -1.
        3   -1    0    0  501    0  0.00000000000E+00  0.00000000000E+00 -0.86411067652E+03  0.86411068242E+03  0.10100000352E+00 0.  1.
    10030    2    1    2    0    0  0.00000000000E+00  0.00000000000E+00 -0.67268579231E+03  0.10555355933E+04  0.81341822792E+03 0.  0.
        2    1    3    3  502    0 -0.13323945662E+02 -0.25858583605E+03 -0.74333521678E+03  0.78714128760E+03  0.25500000920E-02 0.  1.
       -2    1    3    3    0  502  0.13323945662E+02  0.25858583605E+03  0.70649424473E+02  0.26839430568E+03  0.25500000920E-02 0. -1.
</event>
<event>
 5   0  0.4663634E-02  0.7830201E+03  0.7818609E-02  0.9584925E-01
       -2   -1    0    0    0  501  0.00000000000E+00  0.00000000000E+00  0.96778540284E+02  0.96778540318E+02  0.25500000920E-02 0.  1.
        2   -1    0    0  501    0  0.00000000000E+00  0.00000000000E+00 -0.15838234131E+04  0.15838234131E+04  0.25500000920E-02 0. -1.
    10030    2    1    2    0    0  0.00000000000E+00  0.00000000000E+00 -0.14870448729E+04  0.16806019535E+04  0.78302009686E+03 0.  0.
        5    1    3    3  502    0  0.21082600743E+03 -0.32113680466E+03 -0.58174187467E+03  0.69715288959E+03  0.46999998093E+01 0. -1.
       -5    1    3    3    0  502 -0.21082600743E+03  0.32113680466E+03 -0.90530299819E+03  0.98344906387E+03  0.46999998093E+01 0.  1.
</event>
<event>
 5   0  0.2635243E-02  0.8377832E+03  0.7818609E-02  0.9506882E-01
        1   -1    0    0  501    0  0.00000000000E+00  0.00000000000E+00  0.12302788042E+04  0.12302788042E+04  0.50400001928E-02 0. -1.
       -1   -1    0    0    0  501  0.00000000000E+00  0.00000000000E+00 -0.14262634489E+03  0.14262634498E+03  0.50400001928E-02 0.  1.
    10030    2    1    2    0    0  0.00000000000E+00  0.00000000000E+00  0.10876524593E+04  0.13729051492E+04  0.83778319179E+03 0.  0.
        1    1    3    3  502    0 -0.27194200862E+03 -0.15913123082E+03  0.91478904907E+02  0.32809083306E+03  0.50400001928E-02 0.  1.
       -1    1    3    3    0  502  0.27194200862E+03  0.15913123082E+03  0.99617355443E+03  0.10448143162E+04  0.50400001928E-02 0. -1.
</event>
<event>
 5   0  0.2769394E-02  0.7753949E+03  0.7818609E-02  0.9596331E-01
        1   -1    0    0  501    0  0.00000000000E+00  0.00000000000E+00  0.52468398728E+03  0.52468398731E+03  0.50400001928E-02 0.  1.
       -1   -1    0    0    0  501  0.00000000000E+00  0.00000000000E+00 -0.28647590751E+03  0.28647590756E+03  0.50400001928E-02 0. -1.
    10030    2    1    2    0    0  0.00000000000E+00  0.00000000000E+00  0.23820807977E+03  0.81115989486E+03  0.77539492245E+03 0.  0.
        2    1    3    3  502    0  0.11426209337E+03  0.30039135575E+03  0.34594320265E+03  0.47219433717E+03  0.25500000920E-02 0.  1.
       -2    1    3    3    0  502 -0.11426209337E+03 -0.30039135575E+03 -0.10773512288E+03  0.33896555769E+03  0.25500000920E-02 0. -1.
</event>
<event>
 5   0  0.4590462E-02  0.7505702E+03  0.7818609E-02  0.9634456E-01
        2   -1    0    0  501    0  0.00000000000E+00  0.00000000000E+00  0.18850632461E+03  0.18850632462E+03  0.25500000920E-02 0.  1.
       -2   -1    0    0    0  501  0.00000000000E+00  0.00000000000E+00 -0.74713095051E+03  0.74713095051E+03  0.25500000920E-02 0. -1.
    10030    2    1    2    0    0  0.00000000000E+00  0.00000000000E+00 -0.55862462591E+03  0.93563727514E+03  0.75057020855E+03 0.  0.
        3    1    3    3  502    0  0.98939382017E+02  0.21156355048E+03  0.86870827735E+02  0.24918805773E+03  0.10100000352E+00 0.  1.
       -3    1    3    3    0  502 -0.98939382017E+02 -0.21156355048E+03 -0.64549545364E+03  0.68644921741E+03  0.10100000352E+00 0. -1.
</event>
<event>
 5   0  0.2606520E-02  0.8062948E+03  0.7818609E-02  0.9550950E-01
        1   -1    0    0  501    0  0.00000000000E+00  0.00000000000E+00  0.55485292063E+03  0.55485292066E+03  0.50400001928E-02 0. -1.
       -1   -1    0    0    0  501  0.00000000000E+00  0.00000000000E+00 -0.29292058863E+03  0.29292058867E+03  0.50400001928E-02 0.  1.
    10030    2    1    2    0    0  0.00000000000E+00  0.00000000000E+00  0.26193233200E+03  0.84777350933E+03  0.80629484469E+03 0.  0.
        5    1    3    3  502    0  0.20637973419E+03 -0.28968528540E+03 -0.68519013824E+02  0.36225281851E+03  0.46999998093E+01 0.  1.
       -5    1    3    3    0  502 -0.20637973419E+03  0.28968528540E+03  0.33045134583E+03  0.48552069082E+03  0.46999998093E+01 0. -1.
</event>
<event>
 5   0  0.4684283E-02  0.7955450E+03  0.7818609E-02  0.9566488E-01
       -2   -1    0    0    0  501  0.00000000000E+00  0.00000000000E+00  0.54292769153E+03  0.54292769153E+03  0.25500000920E-02 0. -1.
        2   -1    0    0  501    0  0.00000000000E+00  0.00000000000E+00 -0.29142549775E+03  0.29142549776E+03  0.25500000920E-02 0.  1.
    10030    2    1    2    0    0  0.00000000000E+00  0.00000000000E+00  0.25150219378E+03  0.83435318929E+03  0.79554502764E+03 0.  0.
        1    1    3    3  502    0  0.31890758803E+03  0.23774123628E+03  0.12557688415E+03  0.41712408105E+03  0.50400001928E-02 0. -1.
       -1    1    3    3    0  502 -0.31890758803E+03 -0.23774123628E+03  0.12592530963E+03  0.41722910824E+03  0.50400001928E-02 0.  1.
</event>
<event>
 5   0  0.2635243E-02  0.7377748E+03  0.7818609E-02  0.9654727E-01
       -1   -1    0    0    0  501  0.00000000000E+00  0.00000000000E+00  0.24509124967E+03  0.24509124972E+03  0.50400001928E-02 0. -1.
        1   -1    0    0  501    0  0.00000000000E+00  0.00000000000E+00 -0.55521320487E+03  0.55521320490E+03  0.50400001928E-02 0.  1.
    10030    2    1    2    0    0  0.00000000000E+00  0.00000000000E+00 -0.31012195520E+03  0.80030445461E+03  0.73777475762E+03 0.  0.
        1    1    3    3  502    0  0.13285894354E+03  0.38232304968E+02  0.21592614036E+03  0.25639287458E+03  0.50400001928E-02 0. -1.
       -1    1    3    3    0  502 -0.13285894354E+03 -0.38232304968E+02 -0.52604809556E+03  0.54391158003E+03  0.50400001928E-02 0.  1.
</event>
<event>
 5   0  0.4377843E-02  0.8024885E+03  0.7818609E-02  0.9556422E-01
        2   -1    0    0  501    0  0.00000000000E+00  0.00000000000E+00  0.81729985503E+03  0.81729985504E+03  0.25500000920E-02 0. -1.
       -2   -1    0    0    0  501  0.00000000000E+00  0.00000000000E+00 -0.19698639133E+03  0.19698639134E+03  0.25500000920E-02 0.  1.
    10030    2    1    2    0    0  0.00000000000E+00  0.00000000000E+00  0.62031346371E+03  0.10142862464E+04  0.80248850231E+03 0.  0.
        2    1    3    3  502    0  0.96053695164E+02 -0.13256558244E+03 -0.15285620579E+03  0.22397536841E+03  0.25500000920E-02 0.  1.
       -2    1    3    3    0  502 -0.96053695164E+02  0.13256558244E+03  0.77316966949E+03  0.79031087797E+03  0.25500000920E-02 0. -1.
</event>
<event>
 5   0  0.2759559E-02  0.8055050E+03  0.7818609E-02  0.9552083E-01
       -1   -1    0    0    0  501  0.00000000000E+00  0.00000000000E+00  0.11982161677E+03  0.11982161688E+03  0.50400001928E-02 0.  1.
        1   -1    0    0  501    0  0.00000000000E+00  0.00000000000E+00 -0.13537588642E+04  0.13537588642E+04  0.50400001928E-02 0. -1.
    10030    2    1    2    0    0  0.00000000000E+00  0.00000000000E+00 -0.12339372475E+04  0.14735804811E+04  0.80550499916E+03 0.  0.
        3    1    3    3  502    0 -0.27775489373E+03 -0.13510278243E+03 -0.10898183917E+04  0.11327421065E+04  0.10100000352E+00 0. -1.
       -3    1    3    3    0  502  0.27775489373E+03  0.13510278243E+03 -0.14411885575E+03  0.34083837459E+03  0.10100000352E+00 0.  1.
</event>
<event>
 5   0  0.4700220E-02  0.7945519E+03  0.7818609E-02  0.9567937E-01
       -2   -1    0    0    0  501  0.00000000000E+00  0.00000000000E+00  0.92372560111E+03  0.92372560111E+03  0.25500000920E-02 0.  1.
        2   -1    0    0  501    0  0.00000000000E+00  0.00000000000E+00 -0.17086045036E+03  0.17086045038E+03  0.25500000920E-02 0. -1.
    10030    2    1    2    0    0  0.00000000000E+00  0.00000000000E+00  0.75286515075E+03  0.10945860515E+04  0.79455187931E+03 0.  0.
        4    1    3    3  502    0 -0.55746383127E+02 -0.34998117634E+03  0.62375972455E+03  0.71740664193E+03  0.12699999809E+01 0.  1.
       -4    1    3    3    0  502  0.55746383127E+02  0.34998117634E+03  0.12910542620E+03  0.37717940956E+03  0.12699999809E+01 0. -1.
</event>
<event>
 5   0  0.4684283E-02  0.8148998E+03  0.7818609E-02  0.9538697E-01
       -2   -1    0    0    0  501  0.00000000000E+00  0.00000000000E+00  0.47727739278E+03  0.47727739278E+03  0.25500000920E-02 0.  1.
        2   -1    0    0  501    0  0.00000000000E+00  0.00000000000E+00 -0.34783841691E+03  0.34783841692E+03  0.25500000920E-02 0. -1.
    10030    2    1    2    0    0  0.00000000000E+00  0.00000000000E+00  0.12943897586E+03  0.82511580971E+03  0.81489977970E+03 0.  0.
        1    1    3    3  502    0  0.22751253516E+03 -0.16194223551E+03 -0.23569546695E+03  0.36543069721E+03  0.50400001928E-02 0. -1.
       -1    1    3    3    0  502 -0.22751253516E+03  0.16194223551E+03  0.36513444281E+03  0.45968511250E+03  0.50400001928E-02 0.  1.
</event>
<event>
 5   0  0.2759559E-02  0.8158877E+03  0.7818609E-02  0.9537301E-01
        1   -1    0    0  501    0  0.00000000000E+00  0.00000000000E+00  0.39671024102E+03  0.39671024105E+03  0.50400001928E-02 0. -1.
       -1   -1    0    0    0  501  0.00000000000E+00  0.00000000000E+00 -0.41949552729E+03  0.41949552732E+03  0.50400001928E-02 0.  1.
    10030    2    1    2    0    0  0.00000000000E+00  0.00000000000E+00 -0.22785286277E+02  0.81620576837E+03  0.81588766816E+03 0.  0.
        3    1    3    3  502    0 -0.14578583096E+03  0.11987376459E+03  0.35040418213E+03  0.39800292587E+03  0.10100000352E+00 0. -1.
       -3    1    3    3    0  502  0.14578583096E+03 -0.11987376459E+03 -0.37318946841E+03  0.41820284250E+03  0.10100000352E+00 0.  1.
</event>
<event>
 5   0  0.2606520E-02  0.9221061E+03  0.7818609E-02  0.9398362E-01
        1   -1    0    0  501    0  0.00000000000E+00  0.00000000000E+00  0.66065092764E+03  0.66065092766E+03  0.50400001928E-02 0.  1.
       -1   -1    0    0    0  501  0.00000000000E+00  0.00000000000E+00 -0.32175831289E+03  0.32175831293E+03  0.50400001928E-02 0. -1.
    10030    2    1    2    0    0  0.00000000000E+00  0.00000000000E+00  0.33889261475E+03  0.98240924059E+03  0.92210612820E+03 0.  0.
        5    1    3    3  502    0 -0.30065120588E+03  0.25211146906E+03  0.42734394222E+03  0.58016917824E+03  0.46999998093E+01 0.  1.
       -5    1    3    3    0  502  0.30065120588E+03 -0.25211146906E+03 -0.88451327469E+02  0.40224006235E+03  0.46999998093E+01 0. -1.
</event>
<event>
 5   0  0.2759559E-02  0.7982765E+03  0.7818609E-02  0.9562515E-01
       -1   -1    0    0    0  501  0.00000000000E+00  0.00000000000E+00  0.52726343980E+03  0.52726343983E+03  0.50400001928E-02 0.  1.
        1   -1    0    0  501    0  0.00000000000E+00  0.00000000000E+00 -0.30214750779E+03  0.30214750783E+03  0.50400001928E-02 0. -1.
    10030    2    1    2    0    0  0.00000000000E+00  0.00000000000E+00  0.22511593202E+03  0.82941094766E+03  0.79827647920E+03 0.  0.
        3    1    3    3  502    0  0.18969825114E+02 -0.33566808281E+03 -0.11095649973E+03  0.35403992870E+03  0.10100000352E+00 0. -1.
       -3    1    3    3    0  502 -0.18969825114E+02  0.33566808281E+03  0.33607243174E+03  0.47537101895E+03  0.10100000352E+00 0.  1.
</event>
<event>
 5   0  0.2606520E-02  0.7917649E+03  0.7818609E-02  0.9572014E-01
        1   -1    0    0  501    0  0.00000000000E+00  0.00000000000E+00  0.44905509549E+03  0.44905509552E+03  0.50400001928E-02 0. -1.
       -1   -1    0    0    0  501  0.00000000000E+00  0.00000000000E+00 -0.34900599918E+03  0.34900599921E+03  0.50400001928E-02 0.  1.
    10030    2    1    2    0    0  0.00000000000E+00  0.00000000000E+00  0.10004909632E+03  0.79806109473E+03  0.79176492045E+03 0.  0.
        5    1    3    3  502    0  0.28406676042E+03  0.13934777777E+03  0.28980087072E+03  0.42909015627E+03  0.46999998093E+01 0. -1.
       -5    1    3    3    0  502 -0.28406676042E+03 -0.13934777777E+03 -0.18975177440E+03  0.36897093846E+03  0.46999998093E+01 0.  1.
</event>
<event>
 5   0  0.4377843E-02  0.8079564E+03  0.7818609E-02  0.9548571E-01
       -2   -1    0    0    0  501  0.00000000000E+00  0.00000000000E+00  0.39968023507E+03  0.39968023508E+03  0.25500000920E-02 0.  1.
        2   -1    0    0  501    0  0.00000000000E+00  0.00000000000E+00 -0.40832238314E+03  0.40832238314E+03  0.25500000920E-02 0. -1.
    10030    2    1    2    0    0  0.00000000000E+00  0.00000000000E+00 -0.86421480631E+01  0.80800261823E+03  0.80795640002E+03 0.  0.
        2    1    3    3  502    0 -0.28570733135E+02 -0.20512273945E+03  0.34255141761E+03  0.40029126738E+03  0.25500000920E-02 0.  1.
       -2    1    3    3    0  502  0.28570733135E+02  0.20512273945E+03 -0.35119356567E+03  0.40771135084E+03  0.25500000920E-02 0. -1.
</event>
<event>
 5   0  0.2759559E-02  0.7832238E+03  0.7818609E-02  0.9584623E-01
       -1   -1    0    0    0  501  0.00000000000E+00  0.00000000000E+00  0.35528935465E+03  0.35528935469E+03  0.50400001928E-02 0.  1.
        1   -1    0    0  501    0  0.00000000000E+00  0.00000000000E+00 -0.43164781108E+03  0.43164781111E+03  0.50400001928E-02 0. -1.
    10030    2    1    2    0    0  0.00000000000E+00  0.00000000000E+00 -0.76358456430E+02  0.78693716580E+03  0.78322377967E+03 0.  0.
        3    1    3    3  502    0 -0.10089782876E+03  0.37737466775E+03 -0.66020719006E+02  0.39617011150E+03  0.10100000352E+00 0.  1.
       -3    1    3    3    0  502  0.10089782876E+03 -0.37737466775E+03 -0.10337737424E+02  0.39076705430E+03  0.10100000352E+00 0. -1.
</event>
<event>
 5   0  0.4684283E-02  0.7852094E+03  0.7818609E-02  0.9581676E-01
        2   -1    0    0  501    0  0.00000000000E+00  0.00000000000E+00  0.10669908579E+04  0.10669908579E+04  0.25500000920E-02 0. -1.
       -2   -1    0    0    0  501  0.00000000000E+00  0.00000000000E+00 -0.14446088496E+03  0.14446088498E+03  0.25500000920E-02 0.  1.
    10030    2    1    2    0    0  0.00000000000E+00  0.00000000000E+00  0.92252997293E+03  0.12114517429E+04  0.78520938249E+03 0.  0.
        1    1    3    3  502    0 -0.10502557004E+03  0.33104740876E+02  0.10426761803E+04  0.10484750408E+04  0.50400001928E-02 0. -1.
       -1    1    3    3    0  502  0.10502557004E+03 -0.33104740876E+02 -0.12014620739E+03  0.16297670203E+03  0.50400001928E-02 0.  1.
</event>
<event>
 5   0  0.4700220E-02  0.7514233E+03  0.7818609E-02  0.9633120E-01
       -2   -1    0    0    0  501  0.00000000000E+00  0.00000000000E+00  0.14221250405E+03  0.14221250407E+03  0.25500000920E-02 0. -1.
        2   -1    0    0  501    0  0.00000000000E+00  0.00000000000E+00 -0.99259364161E+03  0.99259364161E+03  0.25500000920E-02 0.  1.
    10030    2    1    2    0    0  0.00000000000E+00  0.00000000000E+00 -0.85038113756E+03  0.11348061457E+04  0.75142325567E+03 0.  0.
        4    1    3    3  502    0 -0.31856807708E+03 -0.15777066718E+03 -0.60879379406E+03  0.70498843944E+03  0.12699999809E+01 0.  1.
       -4    1    3    3    0  502  0.31856807708E+03  0.15777066718E+03 -0.24158734349E+03  0.42981770624E+03  0.12699999809E+01 0. -1.
</event>
<event>
 5   0  0.2759559E-02  0.8134229E+03  0.7818609E-02  0.9540789E-01
        1   -1    0    0  501    0  0.00000000000E+00  0.00000000000E+00  0.32810920658E+03  0.32810920662E+03  0.50400001928E-02 0.  1.
       -1   -1    0    0    0  501  0.00000000000E+00  0.00000000000E+00 -0.50414376317E+03  0.50414376320E+03  0.50400001928E-02 0. -1.
    10030    2    1    2    0    0  0.00000000000E+00  0.00000000000E+00 -0.17603455659E+03  0.83225296982E+03  0.81342291623E+03 0.  0.
        3    1    3    3  502    0  0.36475573934E+03 -0.16285668563E+03 -0.16624069833E+03  0.43267196514E+03  0.10100000352E+00 0. -1.
       -3    1    3    3    0  502 -0.36475573934E+03  0.16285668563E+03 -0.97938582586E+01  0.39958100468E+03  0.10100000352E+00 0.  1.
</event>
<event>
 5   0  0.4590462E-02  0.7906452E+03  0.7818609E-02  0.9573657E-01
        2   -1    0    0  501    0  0.00000000000E+00  0.00000000000E+00  0.10092345465E+04  0.10092345465E+04  0.25500000920E-02 0. -1.
       -2   -1    0    0    0  501  0.00000000000E+00  0.00000000000E+00 -0.15484996929E+03  0.15484996931E+03  0.25500000920E-02 0.  1.
    10030    2    1    2    0    0  0.00000000000E+00  0.00000000000E+00  0.85438457717E+03  0.11640845158E+04  0.79064515058E+03 0.  0.
        3    1    3    3  502    0 -0.13824395326E+03 -0.10626373332E+01 -0.11809875913E+03  0.18182366986E+03  0.10100000352E+00 0.  1.
       -3    1    3    3    0  502  0.13824395326E+03  0.10626373332E+01  0.97248333631E+03  0.98226084591E+03  0.10100000352E+00 0. -1.
</event>
<event>
 5   0  0.4590462E-02  0.8042939E+03  0.7818609E-02  0.9553823E-01
        2   -1    0    0  501    0  0.00000000000E+00  0.00000000000E+00  0.56141670331E+03  0.56141670332E+03  0.25500000920E-02 0. -1.
       -2   -1    0    0    0  501  0.00000000000E+00  0.00000000000E+00 -0.28806080818E+03  0.28806080819E+03  0.25500000920E-02 0.  1.
    10030    2    1    2    0    0  0.00000000000E+00  0.00000000000E+00  0.27335589513E+03  0.84947751151E+03  0.80429385001E+03 0.  0.
        3    1    3    3  502    0 -0.48751503158E+02  0.36541203557E+03  0.30638927715E+03  0.47935066930E+03  0.10100000352E+00 0. -1.
       -3    1    3    3    0  502  0.48751503158E+02 -0.36541203557E+03 -0.33033382018E+02  0.37012684222E+03  0.10100000352E+00 0.  1.
</event>
<event>
 5   0  0.2769394E-02  0.8010524E+03  0.7818609E-02  0.9558495E-01
       -1   -1    0    0    0  501  0.00000000000E+00  0.00000000000E+00  0.41316915967E+03  0.41316915970E+03  0.50400001928E-02 0.  1.
        1   -1    0    0  501    0  0.00000000000E+00  0.00000000000E+00 -0.38827016104E+03  0.38827016108E+03  0.50400001928E-02 0. -1.
    10030    2    1    2    0    0  0.00000000000E+00  0.00000000000E+00  0.24898998626E+02  0.80143932078E+03  0.80105244819E+03 0.  0.
        2    1    3    3  502    0 -0.16424897737E+03  0.14445065711E+03 -0.32323830712E+03  0.39029056112E+03  0.25500000920E-02 0. -1.
       -2    1    3    3    0  502  0.16424897737E+03 -0.14445065711E+03  0.34813730575E+03  0.41114875965E+03  0.25500000920E-02 0.  1.
</event>
<event>
 5   0  0.2606520E-02  0.7964711E+03  0.7818609E-02  0.9565139E-01
        1   -1    0    0  501    0  0.00000000000E+00  0.00000000000E+00  0.31592677280E+03  0.31592677284E+03  0.50400001928E-02 0.  1.
       -1   -1    0    0    0  501  0.00000000000E+00  0.00000000000E+00 -0.50198835106E+03  0.50198835109E+03  0.50400001928E-02 0. -1.
    10030    2    1    2    0    0  0.00000000000E+00  0.00000000000E+00 -0.18606157826E+03  0.81791512392E+03  0.79647111626E+03 0.  0.
        5    1    3    3  502    0 -0.15613706401E+03  0.22612119814E+03  0.20292980169E+03  0.34163163410E+03  0.46999998093E+01 0.  1.
       -5    1    3    3    0  502  0.15613706401E+03 -0.22612119814E+03 -0.38899137995E+03  0.47628348983E+03  0.46999998093E+01 0. -1.
</event>
<event>
 5   0  0.2635243E-02  0.4893795E+03  0.7818609E-02  0.1016589E+00
       -1   -1    0    0    0  501  0.00000000000E+00  0.00000000000E+00  0.23456986753E+03  0.23456986759E+03  0.50400001928E-02 0. -1.
        1   -1    0    0  501    0  0.00000000000E+00  0.00000000000E+00 -0.25524625108E+03  0.25524625113E+03  0.50400001928E-02 0.  1.
    10030    2    1    2    0    0  0.00000000000E+00  0.00000000000E+00 -0.20676383547E+02  0.48981611871E+03  0.48937952278E+03 0.  0.
        1    1    3    3  502    0  0.18345690334E+03  0.16190781742E+03 -0.11921557379E+02  0.24497489724E+03  0.50400001928E-02 0.  1.
       -1    1    3    3    0  502 -0.18345690334E+03 -0.16190781742E+03 -0.87548261676E+01  0.24484122147E+03  0.50400001928E-02 0. -1.
</event>
<event>
 5   0  0.4663634E-02  0.7999653E+03  0.7818609E-02  0.9560067E-01
       -2   -1    0    0    0  501  0.00000000000E+00  0.00000000000E+00  0.75086723419E+03  0.75086723419E+03  0.25500000920E-02 0.  1.
        2   -1    0    0  501    0  0.00000000000E+00  0.00000000000E+00 -0.21306843229E+03  0.21306843231E+03  0.25500000920E-02 0. -1.
    10030    2    1    2    0    0  0.00000000000E+00  0.00000000000E+00  0.53779880190E+03  0.96393566650E+03  0.79996526039E+03 0.  0.
        5    1    3    3  502    0  0.37864669494E+03  0.50158332367E+02  0.41185415498E+03  0.56172512216E+03  0.46999998093E+01 0. -1.
       -5    1    3    3    0  502 -0.37864669494E+03 -0.50158332367E+02  0.12594464691E+03  0.40221054434E+03  0.46999998093E+01 0.  1.
</event>
<event>
 5   0  0.4590462E-02  0.7447814E+03  0.7818609E-02  0.9643573E-01
       -2   -1    0    0    0  501  0.00000000000E+00  0.00000000000E+00  0.37294544252E+03  0.37294544253E+03  0.25500000920E-02 0.  1.
        2   -1    0    0  501    0  0.00000000000E+00  0.00000000000E+00 -0.37183673779E+03  0.37183673780E+03  0.25500000920E-02 0. -1.
    10030    2    1    2    0    0  0.00000000000E+00  0.00000000000E+00  0.11087047289E+01  0.74478218033E+03  0.74478135511E+03 0.  0.
        3    1    3    3  502    0  0.46991852691E+02  0.36625066948E+03  0.48793595398E+02  0.37246290053E+03  0.10100000352E+00 0.  1.
       -3    1    3    3    0  502 -0.46991852691E+02 -0.36625066948E+03 -0.47684890669E+02  0.37231927981E+03  0.10100000352E+00 0. -1.
</event>
<event>
 5   0  0.4700220E-02  0.7926738E+03  0.7818609E-02  0.9570682E-01
       -2   -1    0    0    0  501  0.00000000000E+00  0.00000000000E+00  0.23616079729E+03  0.23616079731E+03  0.25500000920E-02 0. -1.
        2   -1    0    0  501    0  0.00000000000E+00  0.00000000000E+00 -0.66515250530E+03  0.66515250531E+03  0.25500000920E-02 0.  1.
    10030    2    1    2    0    0  0.00000000000E+00  0.00000000000E+00 -0.42899170801E+03  0.90131330261E+03  0.79267381938E+03 0.  0.
        4    1    3    3  502    0 -0.15827501938E+03 -0.26110567503E+03 -0.50182251438E+03  0.58741348651E+03  0.12699999809E+01 0.  1.
       -4    1    3    3    0  502  0.15827501938E+03  0.26110567503E+03  0.72830806372E+02  0.31389981611E+03  0.12699999809E+01 0. -1.
</event>
<event>
 5   0  0.4590462E-02  0.7039590E+03  0.7818609E-02  0.9710486E-01
        2   -1    0    0  501    0  0.00000000000E+00  0.00000000000E+00  0.37868782532E+03  0.37868782533E+03  0.25500000920E-02 0.  1.
       -2   -1    0    0    0  501  0.00000000000E+00  0.00000000000E+00 -0.32715484279E+03  0.32715484280E+03  0.25500000920E-02 0. -1.
    10030    2    1    2    0    0  0.00000000000E+00  0.00000000000E+00  0.51532982537E+02  0.70584266813E+03  0.70395896461E+03 0.  0.
        3    1    3    3  502    0 -0.56596588995E+02  0.13161149901E+03  0.34813073716E+03  0.37645687790E+03  0.10100000352E+00 0.  1.
       -3    1    3    3    0  502  0.56596588995E+02 -0.13161149901E+03 -0.29659775462E+03  0.32938579023E+03  0.10100000352E+00 0. -1.
</event>
<event>
 5   0  0.2606520E-02  0.8016520E+03  0.7818609E-02  0.9557629E-01
        1   -1    0    0  501    0  0.00000000000E+00  0.00000000000E+00  0.24512167080E+03  0.24512167085E+03  0.50400001928E-02 0. -1.
       -1   -1    0    0    0  501  0.00000000000E+00  0.00000000000E+00 -0.65543559456E+03  0.65543559458E+03  0.50400001928E-02 0.  1.
    10030    2    1    2    0    0  0.00000000000E+00  0.00000000000E+00 -0.41031392376E+03  0.90055726543E+03  0.80165196456E+03 0.  0.
        5    1    3    3  502    0 -0.33216610200E+03 -0.65427890705E+02 -0.44615795519E+03  0.56008404653E+03  0.46999998093E+01 0. -1.
       -5    1    3    3    0  502  0.33216610200E+03  0.65427890705E+02  0.35844031433E+02  0.34047321890E+03  0.46999998093E+01 0.  1.
</event>
<event>
 5   0  0.2689372E-02  0.8363232E+03  0.7818609E-02  0.9508880E-01
       -1   -1    0    0    0  501  0.00000000000E+00  0.00000000000E+00  0.18947595468E+03  0.18947595475E+03  0.50400001928E-02 0. -1.
        1   -1    0    0  501    0  0.00000000000E+00  0.00000000000E+00 -0.92285646508E+03  0.92285646509E+03  0.50400001928E-02 0.  1.
    10030    2    1    2    0    0  0.00000000000E+00  0.00000000000E+00 -0.73338051040E+03  0.11123324198E+04  0.83632316673E+03 0.  0.
        4    1    3    3  502    0 -0.25957775052E+03  0.32426339703E+03 -0.43089265465E+03  0.59849599159E+03  0.12699999809E+01 0. -1.
       -4    1    3    3    0  502  0.25957775052E+03 -0.32426339703E+03 -0.30248785575E+03  0.51383642825E+03  0.12699999809E+01 0.  1.
</event>
<event>
 5   0  0.2606520E-02  0.7878280E+03  0.7818609E-02  0.9577805E-01
       -1   -1    0    0    0  501  0.00000000000E+00  0.00000000000E+00  0.15504914319E+03  0.15504914328E+03  0.50400001928E-02 0.  1.
        1   -1    0    0  501    0  0.00000000000E+00  0.00000000000E+00 -0.10007681981E+04  0.10007681981E+04  0.50400001928E-02 0. -1.
    10030    2    1    2    0    0  0.00000000000E+00  0.00000000000E+00 -0.84571905494E+03  0.11558173414E+04  0.78782803126E+03 0.  0.
        5    1    3    3  502    0 -0.21710939133E+03  0.30644274572E+03 -0.59708277339E+03  0.70538895121E+03  0.46999998093E+01 0. -1.
       -5    1    3    3    0  502  0.21710939133E+03 -0.30644274572E+03 -0.24863628155E+03  0.45042839021E+03  0.46999998093E+01 0.  1.
</event>
<event>
 5   0  0.2689372E-02  0.8112202E+03  0.7818609E-02  0.9543917E-01
        1   -1    0    0  501    0  0.00000000000E+00  0.00000000000E+00  0.41291595742E+03  0.41291595745E+03  0.50400001928E-02 0.  1.
       -1   -1    0    0    0  501  0.00000000000E+00  0.00000000000E+00 -0.39843354891E+03  0.39843354894E+03  0.50400001928E-02 0. -1.
    10030    2    1    2    0    0  0.00000000000E+00  0.00000000000E+00  0.14482408509E+02  0.81134950639E+03  0.81122024220E+03 0.  0.
        4    1    3    3  502    0  0.18359164376E+03 -0.96301780460E+02  0.35591980840E+03  0.41189858885E+03  0.12699999809E+01 0.  1.
       -4    1    3    3    0  502 -0.18359164376E+03  0.96301780460E+02 -0.34143739990E+03  0.39945091754E+03  0.12699999809E+01 0. -1.
</event>
<event>
 5   0  0.4590462E-02  0.7993618E+03  0.7818609E-02  0.9560941E-01
        2   -1    0    0  501    0  0.00000000000E+00  0.00000000000E+00  0.16742594448E+04  0.16742594448E+04  0.25500000920E-02 0.  1.
       -2   -1    0    0    0  501  0.00000000000E+00  0.00000000000E+00 -0.95412220551E+02  0.95412220585E+02  0.25500000920E-02 0. -1.
    10030    2    1    2    0    0  0.00000000000E+00  0.00000000000E+00  0.15788472243E+04  0.17696716654E+04  0.79936177402E+03 0.  0.
        3    1    3    3  502    0  0.15490655982E+03  0.35140514107E+03  0.54426284297E+03  0.66611085255E+03  0.10100000352E+00 0. -1.
       -3    1    3    3    0  502 -0.15490655982E+03 -0.35140514107E+03  0.10345843813E+04  0.11035608129E+04  0.10100000352E+00 0.  1.
</event>
<event>
 5   0  0.2759559E-02  0.8330982E+03  0.7818609E-02  0.9513307E-01
        1   -1    0    0  501    0  0.00000000000E+00  0.00000000000E+00  0.31990179208E+03  0.31990179212E+03  0.50400001928E-02 0.  1.
       -1   -1    0    0    0  501  0.00000000000E+00  0.00000000000E+00 -0.54239504889E+03  0.54239504892E+03  0.50400001928E-02 0. -1.
    10030    2    1    2    0    0  0.00000000000E+00  0.00000000000E+00 -0.22249325681E+03  0.86229684104E+03  0.83309818914E+03 0.  0.
        3    1    3    3  502    0  0.19345995479E+01 -0.38440605144E+03  0.54817772185E+02  0.38829982411E+03  0.10100000352E+00 0.  1.
       -3    1    3    3    0  502 -0.19345995479E+01  0.38440605144E+03 -0.27731102899E+03  0.47399701693E+03  0.10100000352E+00 0. -1.
</event>
<event>
 5   0  0.1786500E-02  0.8031416E+03  0.7818609E-02  0.9555481E-01
       -4   -1    0    0    0  501  0.00000000000E+00  0.00000000000E+00  0.61017776996E+03  0.61017909162E+03  0.12699999809E+01 0. -1.
        4   -1    0    0  501    0  0.00000000000E+00  0.00000000000E+00 -0.26427905368E+03  0.26428210517E+03  0.12699999809E+01 0.  1.
    10030    2    1    2    0    0  0.00000000000E+00  0.00000000000E+00  0.34589871628E+03  0.87446119679E+03  0.80314162061E+03 0.  0.
        4    1    3    3  502    0  0.39316886669E+03 -0.76733617962E+02  0.14239114275E+03  0.42514310096E+03  0.12699999809E+01 0.  1.
       -4    1    3    3    0  502 -0.39316886669E+03  0.76733617962E+02  0.20350757354E+03  0.44931809583E+03  0.12699999809E+01 0. -1.
</event>
<event>
 5   0  0.4590462E-02  0.6724282E+03  0.7818609E-02  0.9765581E-01
       -2   -1    0    0    0  501  0.00000000000E+00  0.00000000000E+00  0.22975579412E+03  0.22975579413E+03  0.25500000920E-02 0.  1.
        2   -1    0    0  501    0  0.00000000000E+00  0.00000000000E+00 -0.49200029451E+03  0.49200029452E+03  0.25500000920E-02 0. -1.
    10030    2    1    2    0    0  0.00000000000E+00  0.00000000000E+00 -0.26224450040E+03  0.72175608865E+03  0.67242819209E+03 0.  0.
        3    1    3    3  502    0 -0.27764463585E+03  0.62953224247E+02 -0.32310110652E+03  0.43063207904E+03  0.10100000352E+00 0. -1.
       -3    1    3    3    0  502  0.27764463585E+03 -0.62953224247E+02  0.60856606128E+02  0.29112400961E+03  0.10100000352E+00 0.  1.
</event>
<event>
 5   0  0.2759559E-02  0.8158995E+03  0.7818609E-02  0.9537284E-01
       -1   -1    0    0    0  501  0.00000000000E+00  0.00000000000E+00  0.57962314385E+03  0.57962314388E+03  0.50400001928E-02 0.  1.
        1   -1    0    0  501    0  0.00000000000E+00  0.00000000000E+00 -0.28712275937E+03  0.28712275942E+03  0.50400001928E-02 0. -1.
    10030    2    1    2    0    0  0.00000000000E+00  0.00000000000E+00  0.29250038448E+03  0.86674590329E+03  0.81589949501E+03 0.  0.
        3    1    3    3  502    0  0.20432002389E+03 -0.70609379144E+02 -0.22127338855E+03  0.30934491958E+03  0.10100000352E+00 0. -1.
       -3    1    3    3    0  502 -0.20432002389E+03  0.70609379144E+02  0.51377377303E+03  0.55740098371E+03  0.10100000352E+00 0.  1.
</event>
<event>
 5   0  0.4700220E-02  0.6331350E+03  0.7818609E-02  0.9838950E-01
       -2   -1    0    0    0  501  0.00000000000E+00  0.00000000000E+00  0.33924896851E+03  0.33924896852E+03  0.25500000920E-02 0. -1.
        2   -1    0    0  501    0  0.00000000000E+00  0.00000000000E+00 -0.29540244258E+03  0.29540244259E+03  0.25500000920E-02 0.  1.
    10030    2    1    2    0    0  0.00000000000E+00  0.00000000000E+00  0.43846525930E+02  0.63465141111E+03  0.63313497439E+03 0.  0.
        4    1    3    3  502    0  0.17469923844E+03  0.86473110489E+02  0.27195191127E+03  0.33459957814E+03  0.12699999809E+01 0. -1.
       -4    1    3    3    0  502 -0.17469923844E+03 -0.86473110489E+02 -0.22810538534E+03  0.30005183297E+03  0.12699999809E+01 0.  1.
</event>
<event>
 5   0  0.1786500E-02  0.8383047E+03  0.7818609E-02  0.9506170E-01
       -4   -1    0    0    0  501  0.00000000000E+00  0.00000000000E+00  0.12944342219E+03  0.12944965218E+03  0.12699999809E+01 0. -1.
        4   -1    0    0  501    0  0.00000000000E+00  0.00000000000E+00 -0.13572231175E+04  0.13572237117E+04  0.12699999809E+01 0.  1.
    10030    2    1    2    0    0  0.00000000000E+00  0.00000000000E+00 -0.12277796953E+04  0.14866733639E+04  0.83830466456E+03 0.  0.
        4    1    3    3  502    0  0.38745617806E+02 -0.36964722927E+03 -0.27025281843E+03  0.45954161484E+03  0.12699999809E+01 0. -1.
       -4    1    3    3    0  502 -0.38745617806E+02  0.36964722927E+03 -0.95752687689E+03  0.10271317490E+04  0.12699999809E+01 0.  1.
</event>
<event>
 5   0  0.2769394E-02  0.7691005E+03  0.7818609E-02  0.9605852E-01
       -1   -1    0    0    0  501  0.00000000000E+00  0.00000000000E+00  0.18286968187E+03  0.18286968194E+03  0.50400001928E-02 0.  1.
        1   -1    0    0  501    0  0.00000000000E+00  0.00000000000E+00 -0.80865725448E+03  0.80865725450E+03  0.50400001928E-02 0. -1.
    10030    2    1    2    0    0  0.00000000000E+00  0.00000000000E+00 -0.62578757261E+03  0.99152693644E+03  0.76910050036E+03 0.  0.
        2    1    3    3  502    0  0.10463696323E+03 -0.18493174567E+03 -0.72610357030E+03  0.75655471675E+03  0.25500000920E-02 0. -1.
       -2    1    3    3    0  502 -0.10463696323E+03  0.18493174567E+03  0.10031599769E+03  0.23497221969E+03  0.25500000920E-02 0.  1.
</event>
<event>
 5   0  0.2689372E-02  0.7945692E+03  0.7818609E-02  0.9567911E-01
       -1   -1    0    0    0  501  0.00000000000E+00  0.00000000000E+00  0.19574838813E+03  0.19574838820E+03  0.50400001928E-02 0.  1.
        1   -1    0    0  501    0  0.00000000000E+00  0.00000000000E+00 -0.80631593845E+03  0.80631593847E+03  0.50400001928E-02 0. -1.
    10030    2    1    2    0    0  0.00000000000E+00  0.00000000000E+00 -0.61056755032E+03  0.10020643267E+04  0.79456917966E+03 0.  0.
        4    1    3    3  502    0  0.15441662126E+03  0.33196115392E+03 -0.49980535435E+03  0.61955605539E+03  0.12699999809E+01 0. -1.
       -4    1    3    3    0  502 -0.15441662126E+03 -0.33196115392E+03 -0.11076219597E+03  0.38250827127E+03  0.12699999809E+01 0.  1.
</event>
<event>
 5   0  0.2759559E-02  0.8174208E+03  0.7818609E-02  0.9535138E-01
       -1   -1    0    0    0  501  0.00000000000E+00  0.00000000000E+00  0.98229188042E+03  0.98229188043E+03  0.50400001928E-02 0. -1.
        1   -1    0    0  501    0  0.00000000000E+00  0.00000000000E+00 -0.17005557138E+03  0.17005557145E+03  0.50400001928E-02 0.  1.
    10030    2    1    2    0    0  0.00000000000E+00  0.00000000000E+00  0.81223630904E+03  0.11523474519E+04  0.81742083907E+03 0.  0.
        3    1    3    3  502    0 -0.27926750633E+03 -0.11123056360E+03  0.79649439372E+03  0.85133184353E+03  0.10100000352E+00 0. -1.
       -3    1    3    3    0  502  0.27926750633E+03  0.11123056360E+03  0.15741915316E+02  0.30101560835E+03  0.10100000352E+00 0.  1.
</event>
<event>
 5   0  0.2606520E-02  0.7976995E+03  0.7818609E-02  0.9563353E-01
        1   -1    0    0  501    0  0.00000000000E+00  0.00000000000E+00  0.86617766798E+03  0.86617766799E+03  0.50400001928E-02 0. -1.
       -1   -1    0    0    0  501  0.00000000000E+00  0.00000000000E+00 -0.18365874643E+03  0.18365874649E+03  0.50400001928E-02 0.  1.
    10030    2    1    2    0    0  0.00000000000E+00  0.00000000000E+00  0.68251892155E+03  0.10498364145E+04  0.79769945400E+03 0.  0.
        5    1    3    3  502    0 -0.18245832516E+03  0.23731271672E+03  0.68809252381E+03  0.75040107760E+03  0.46999998093E+01 0. -1.
       -5    1    3    3    0  502  0.18245832516E+03 -0.23731271672E+03 -0.55736022591E+01  0.29943533689E+03  0.46999998093E+01 0.  1.
</event>
<event>
 5   0  0.4590462E-02  0.8014453E+03  0.7818609E-02  0.9557927E-01
       -2   -1    0    0    0  501  0.00000000000E+00  0.00000000000E+00  0.13158329824E+03  0.13158329827E+03  0.25500000920E-02 0. -1.
        2   -1    0    0  501    0  0.00000000000E+00  0.00000000000E+00 -0.12203574001E+04  0.12203574001E+04  0.25500000920E-02 0.  1.
    10030    2    1    2    0    0  0.00000000000E+00  0.00000000000E+00 -0.10887741018E+04  0.13519406983E+04  0.80144532378E+03 0.  0.
        3    1    3    3  502    0  0.22939039609E+03  0.48668144789E+02  0.37578042656E+01  0.23452648769E+03  0.10100000352E+00 0. -1.
       -3    1    3    3    0  502 -0.22939039609E+03 -0.48668144789E+02 -0.10925319061E+04  0.11174142106E+04  0.10100000352E+00 0.  1.
</event>
<event>
 5   0  0.2635243E-02  0.7966288E+03  0.7818609E-02  0.9564910E-01
        1   -1    0    0  501    0  0.00000000000E+00  0.00000000000E+00  0.12248165557E+04  0.12248165557E+04  0.50400001928E-02 0.  1.
       -1   -1    0    0    0  501  0.00000000000E+00  0.00000000000E+00 -0.12953316372E+03  0.12953316382E+03  0.50400001928E-02 0. -1.
    10030    2    1    2    0    0  0.00000000000E+00  0.00000000000E+00  0.10952833920E+04  0.13543497195E+04  0.79662880569E+03 0.  0.
        1    1    3    3  502    0 -0.39032235076E+03  0.67080761470E+01  0.41315274171E+03  0.56841157957E+03  0.50400001928E-02 0. -1.
       -1    1    3    3    0  502  0.39032235076E+03 -0.67080761470E+01  0.68213065029E+03  0.78593813998E+03  0.50400001928E-02 0.  1.
</event>
<event>
 5   0  0.4684283E-02  0.8530706E+03  0.7818609E-02  0.9486225E-01
       -2   -1    0    0    0  501  0.00000000000E+00  0.00000000000E+00  0.16798600175E+03  0.16798600177E+03  0.25500000920E-02 0. -1.
        2   -1    0    0  501    0  0.00000000000E+00  0.00000000000E+00 -0.10830210858E+04  0.10830210858E+04  0.25500000920E-02 0.  1.
    10030    2    1    2    0    0  0.00000000000E+00  0.00000000000E+00 -0.91503508406E+03  0.12510070876E+04  0.85307064662E+03 0.  0.
        1    1    3    3  502    0 -0.38225487536E+03 -0.15214803050E+03 -0.62255023267E+03  0.74621485186E+03  0.50400001928E-02 0.  1.
       -1    1    3    3    0  502  0.38225487536E+03  0.15214803050E+03 -0.29248485139E+03  0.50479223572E+03  0.50400001928E-02 0. -1.
</event>
<event>
 5   0  0.2759559E-02  0.7866698E+03  0.7818609E-02  0.9579515E-01
       -1   -1    0    0    0  501  0.00000000000E+00  0.00000000000E+00  0.95865207874E+02  0.95865208007E+02  0.50400001928E-02 0.  1.
        1   -1    0    0  501    0  0.00000000000E+00  0.00000000000E+00 -0.16138527165E+04  0.16138527165E+04  0.50400001928E-02 0. -1.
    10030    2    1    2    0    0  0.00000000000E+00  0.00000000000E+00 -0.15179875086E+04  0.17097179245E+04  0.78666975603E+03 0.  0.
        3    1    3    3  502    0  0.21550818136E+03  0.22779330650E+03 -0.24294619324E+03  0.39668177388E+03  0.10100000352E+00 0.  1.
       -3    1    3    3    0  502 -0.21550818136E+03 -0.22779330650E+03 -0.12750413153E+04  0.13130361506E+04  0.10100000352E+00 0. -1.
</event>
<event>
 5   0  0.2769394E-02  0.7867913E+03  0.7818609E-02  0.9579335E-01
        1   -1    0    0  501    0  0.00000000000E+00  0.00000000000E+00  0.19439381396E+04  0.19439381396E+04  0.50400001928E-02 0. -1.
       -1   -1    0    0    0  501  0.00000000000E+00  0.00000000000E+00 -0.79611653941E+02  0.79611654101E+02  0.50400001928E-02 0.  1.
    10030    2    1    2    0    0  0.00000000000E+00  0.00000000000E+00  0.18643264857E+04  0.20235497937E+04  0.78679128267E+03 0.  0.
        2    1    3    3  502    0  0.36798331658E+03 -0.47989141015E+01  0.57462839747E+03  0.68237273249E+03  0.25500000920E-02 0.  1.
       -2    1    3    3    0  502 -0.36798331658E+03  0.47989141015E+01  0.12896980882E+04  0.13411770612E+04  0.25500000920E-02 0. -1.
</event>
<event>
 5   0  0.2606520E-02  0.7789074E+03  0.7818609E-02  0.9591060E-01
       -1   -1    0    0    0  501  0.00000000000E+00  0.00000000000E+00  0.71546574003E+02  0.71546574181E+02  0.50400001928E-02 0.  1.
        1   -1    0    0  501    0  0.00000000000E+00  0.00000000000E+00 -0.21199366075E+04  0.21199366075E+04  0.50400001928E-02 0. -1.
    10030    2    1    2    0    0  0.00000000000E+00  0.00000000000E+00 -0.20483900335E+04  0.21914831817E+04  0.77890744399E+03 0.  0.
        5    1    3    3  502    0  0.25562116816E+03 -0.11663750736E+03 -0.17828359719E+04  0.18048469969E+04  0.46999998093E+01 0.  1.
       -5    1    3    3    0  502 -0.25562116816E+03  0.11663750736E+03 -0.26555406168E+03  0.38663618481E+03  0.46999998093E+01 0. -1.
</event>
<event>
 5   0  0.4663634E-02  0.8180988E+03  0.7818609E-02  0.9534183E-01
       -2   -1    0    0    0  501  0.00000000000E+00  0.00000000000E+00  0.73794038731E+02  0.73794038775E+02  0.25500000920E-02 0. -1.
        2   -1    0    0  501    0  0.00000000000E+00  0.00000000000E+00 -0.22674108520E+04  0.22674108520E+04  0.25500000920E-02 0.  1.
    10030    2    1    2    0    0  0.00000000000E+00  0.00000000000E+00 -0.21936168132E+04  0.23412048908E+04  0.81809878201E+03 0.  0.
        5    1    3    3  502    0 -0.29558184887E+03  0.28272013273E+03 -0.10971146056E+04  0.11708893418E+04  0.46999998093E+01 0. -1.
       -5    1    3    3    0  502  0.29558184887E+03 -0.28272013273E+03 -0.10965022076E+04  0.11703155490E+04  0.46999998093E+01 0.  1.
</event>
<event>
 5   0  0.4663634E-02  0.7622397E+03  0.7818609E-02  0.9616341E-01
        2   -1    0    0  501    0  0.00000000000E+00  0.00000000000E+00  0.13742710546E+03  0.13742710549E+03  0.25500000920E-02 0. -1.
       -2   -1    0    0    0  501  0.00000000000E+00  0.00000000000E+00 -0.10569410458E+04  0.10569410458E+04  0.25500000920E-02 0.  1.
    10030    2    1    2    0    0  0.00000000000E+00  0.00000000000E+00 -0.91951394030E+03  0.11943681513E+04  0.76223972234E+03 0.  0.
        5    1    3    3  502    0 -0.34126279966E+02 -0.24461671341E+02 -0.10532601805E+04  0.10541072404E+04  0.46999998093E+01 0.  1.
       -5    1    3    3    0  502  0.34126279966E+02  0.24461671341E+02  0.13374624022E+03  0.14026091088E+03  0.46999998093E+01 0. -1.
</event>
<event>
 5   0  0.4663634E-02  0.8184447E+03  0.7818609E-02  0.9533696E-01
       -2   -1    0    0    0  501  0.00000000000E+00  0.00000000000E+00  0.79925461523E+03  0.79925461523E+03  0.25500000920E-02 0. -1.
        2   -1    0    0  501    0  0.00000000000E+00  0.00000000000E+00 -0.20952390661E+03  0.20952390662E+03  0.25500000920E-02 0.  1.
    10030    2    1    2    0    0  0.00000000000E+00  0.00000000000E+00  0.58973070862E+03  0.10087785219E+04  0.81844474308E+03 0.  0.
        5    1    3    3  502    0  0.68112414181E+02  0.39729661131E+03  0.20808643917E+03  0.45365841168E+03  0.46999998093E+01 0.  1.
       -5    1    3    3    0  502 -0.68112414181E+02 -0.39729661131E+03  0.38164426945E+03  0.55512011018E+03  0.46999998093E+01 0. -1.
</event>
<event>
 5   0  0.2689372E-02  0.7572119E+03  0.7818609E-02  0.9624103E-01
       -1   -1    0    0    0  501  0.00000000000E+00  0.00000000000E+00  0.21817806821E+03  0.21817806827E+03  0.50400001928E-02 0. -1.
        1   -1    0    0  501    0  0.00000000000E+00  0.00000000000E+00 -0.65699765165E+03  0.65699765167E+03  0.50400001928E-02 0.  1.
    10030    2    1    2    0    0  0.00000000000E+00  0.00000000000E+00 -0.43881958344E+03  0.87517571993E+03  0.75721193463E+03 0.  0.
        4    1    3    3  502    0  0.24050913662E+03  0.28050499603E+03 -0.12400891653E+03  0.38975315505E+03  0.12699999809E+01 0. -1.
       -4    1    3    3    0  502 -0.24050913662E+03 -0.28050499603E+03 -0.31481066691E+03  0.48542256488E+03  0.12699999809E+01 0.  1.
</event>
<event>
 5   0  0.4377843E-02  0.5881423E+03  0.7818609E-02  0.9930317E-01
        2   -1    0    0  501    0  0.00000000000E+00  0.00000000000E+00  0.65778675925E+03  0.65778675925E+03  0.25500000920E-02 0. -1.
       -2   -1    0    0    0  501  0.00000000000E+00  0.00000000000E+00 -0.13146789764E+03  0.13146789766E+03  0.25500000920E-02 0.  1.
    10030    2    1    2    0    0  0.00000000000E+00  0.00000000000E+00  0.52631886161E+03  0.78925465691E+03  0.58814230368E+03 0.  0.
        2    1    3    3  502    0 -0.45077596688E+02  0.27489596356E+03  0.13671671436E+03  0.31030829911E+03  0.25500000920E-02 0.  1.
       -2    1    3    3    0  502  0.45077596688E+02 -0.27489596356E+03  0.38960214724E+03  0.47894635780E+03  0.25500000920E-02 0. -1.
</event>
<event>
 5   0  0.4590462E-02  0.8122768E+03  0.7818609E-02  0.9542415E-01
       -2   -1    0    0    0  501  0.00000000000E+00  0.00000000000E+00  0.67202466636E+03  0.67202466637E+03  0.25500000920E-02 0.  1.
        2   -1    0    0  501    0  0.00000000000E+00  0.00000000000E+00 -0.24544994422E+03  0.24544994423E+03  0.25500000920E-02 0. -1.
    10030    2    1    2    0    0  0.00000000000E+00  0.00000000000E+00  0.42657472214E+03  0.91747461060E+03  0.81227684168E+03 0.  0.
        3    1    3    3  502    0  0.62292674105E+02  0.24955142166E+03  0.56830597992E+03  0.62380123943E+03  0.10100000352E+00 0.  1.
       -3    1    3    3    0  502 -0.62292674105E+02 -0.24955142166E+03 -0.14173125778E+03  0.29367337117E+03  0.10100000352E+00 0. -1.
</event>
<event>
 5   0  0.2635243E-02  0.7865524E+03  0.7818609E-02  0.9579689E-01
       -1   -1    0    0    0  501  0.00000000000E+00  0.00000000000E+00  0.69785637799E+02  0.69785637981E+02  0.50400001928E-02 0. -1.
        1   -1    0    0  501    0  0.00000000000E+00  0.00000000000E+00 -0.22163036222E+04  0.22163036222E+04  0.50400001928E-02 0.  1.
    10030    2    1    2    0    0  0.00000000000E+00  0.00000000000E+00 -0.21465179844E+04  0.22860892602E+04  0.78655238108E+03 0.  0.
        1    1    3    3  502    0  0.23548213036E+03 -0.26742355432E+03 -0.58953530989E+03  0.68885344795E+03  0.50400001928E-02 0. -1.
       -1    1    3    3    0  502 -0.23548213036E+03  0.26742355432E+03 -0.15569826745E+04  0.15972358122E+04  0.50400001928E-02 0.  1.
</event>
<event>
 5   0  0.4590462E-02  0.8166898E+03  0.7818609E-02  0.9536169E-01
       -2   -1    0    0    0  501  0.00000000000E+00  0.00000000000E+00  0.13287999580E+03  0.13287999582E+03  0.25500000920E-02 0. -1.
        2   -1    0    0  501    0  0.00000000000E+00  0.00000000000E+00 -0.12548581566E+04  0.12548581567E+04  0.25500000920E-02 0.  1.
    10030    2    1    2    0    0  0.00000000000E+00  0.00000000000E+00 -0.11219781609E+04  0.13877381525E+04  0.81668977366E+03 0.  0.
        3    1    3    3  502    0  0.37279019892E+02 -0.38630651081E+03 -0.34522727851E+03  0.51942692426E+03  0.10100000352E+00 0.  1.
       -3    1    3    3    0  502 -0.37279019892E+02  0.38630651081E+03 -0.77675088234E+03  0.86831122821E+03  0.10100000352E+00 0. -1.
</event>
<event>
 5   0  0.2689372E-02  0.7991504E+03  0.7818609E-02  0.9561248E-01
        1   -1    0    0  501    0  0.00000000000E+00  0.00000000000E+00  0.19668943109E+04  0.19668943109E+04  0.50400001928E-02 0.  1.
       -1   -1    0    0    0  501  0.00000000000E+00  0.00000000000E+00 -0.81173837692E+02  0.81173837848E+02  0.50400001928E-02 0. -1.
    10030    2    1    2    0    0  0.00000000000E+00  0.00000000000E+00  0.18857204732E+04  0.20480681487E+04  0.79915044820E+03 0.  0.
        4    1    3    3  502    0 -0.36165257518E+03  0.79557360523E+02  0.55812508611E+03  0.66979637458E+03  0.12699999809E+01 0. -1.
       -4    1    3    3    0  502  0.36165257518E+03 -0.79557360523E+02  0.13275953871E+04  0.13782717742E+04  0.12699999809E+01 0.  1.
</event>
<event>
 5   0  0.4663634E-02  0.7906868E+03  0.7818609E-02  0.9573596E-01
        2   -1    0    0  501    0  0.00000000000E+00  0.00000000000E+00  0.33922371588E+03  0.33922371589E+03  0.25500000920E-02 0.  1.
       -2   -1    0    0    0  501  0.00000000000E+00  0.00000000000E+00 -0.46074724597E+03  0.46074724597E+03  0.25500000920E-02 0. -1.
    10030    2    1    2    0    0  0.00000000000E+00  0.00000000000E+00 -0.12152353009E+03  0.79997096186E+03  0.79068677202E+03 0.  0.
        5    1    3    3  502    0 -0.13190621460E+02 -0.37514701695E+03  0.64649457050E+02  0.38093427139E+03  0.46999998093E+01 0.  1.
       -5    1    3    3    0  502  0.13190621460E+02  0.37514701695E+03 -0.18617298714E+03  0.41903669047E+03  0.46999998093E+01 0. -1.
</event>
<event>
 5   0  0.2759559E-02  0.8127377E+03  0.7818609E-02  0.9541761E-01
        1   -1    0    0  501    0  0.00000000000E+00  0.00000000000E+00  0.83834429747E+03  0.83834429749E+03  0.50400001928E-02 0. -1.
       -1   -1    0    0    0  501  0.00000000000E+00  0.00000000000E+00 -0.19697833239E+03  0.19697833245E+03  0.50400001928E-02 0.  1.
    10030    2    1    2    0    0  0.00000000000E+00  0.00000000000E+00  0.64136596508E+03  0.10353226299E+04  0.81273774792E+03 0.  0.
        3    1    3    3  502    0  0.22962417687E+03  0.27731212419E+03  0.56072012144E+03  0.66636051925E+03  0.10100000352E+00 0. -1.
       -3    1    3    3    0  502 -0.22962417687E+03 -0.27731212419E+03  0.80645843639E+02  0.36896211069E+03  0.10100000352E+00 0.  1.
</event>
<event>
 5   0  0.4377843E-02  0.7667736E+03  0.7818609E-02  0.9609397E-01
        2   -1    0    0  501    0  0.00000000000E+00  0.00000000000E+00  0.73941974291E+03  0.73941974292E+03  0.25500000920E-02 0.  1.
       -2   -1    0    0    0  501  0.00000000000E+00  0.00000000000E+00 -0.19878486146E+03  0.19878486148E+03  0.25500000920E-02 0. -1.
    10030    2    1    2    0    0  0.00000000000E+00  0.00000000000E+00  0.54063488145E+03  0.93820460440E+03  0.76677363327E+03 0.  0.
        2    1    3    3  502    0 -0.29241430421E+03  0.24400793237E+03  0.32420273020E+03  0.50015338311E+03  0.25500000920E-02 0.  1.
       -2    1    3    3    0  502  0.29241430421E+03 -0.24400793237E+03  0.21643215125E+03  0.43805122128E+03  0.25500000920E-02 0. -1.
</event>
<event>
 5   0  0.2606520E-02  0.8081224E+03  0.7818609E-02  0.9548334E-01
        1   -1    0    0  501    0  0.00000000000E+00  0.00000000000E+00  0.22066309918E+04  0.22066309918E+04  0.50400001928E-02 0. -1.
       -1   -1    0    0    0  501  0.00000000000E+00  0.00000000000E+00 -0.73988560339E+02  0.73988560511E+02  0.50400001928E-02 0.  1.
    10030    2    1    2    0    0  0.00000000000E+00  0.00000000000E+00  0.21326424314E+04  0.22806195523E+04  0.80812239292E+03 0.  0.
        5    1    3    3  502    0  0.75477891449E+02 -0.26988574465E+03  0.24495231045E+03  0.37223507580E+03  0.46999998093E+01 0.  1.
       -5    1    3    3    0  502 -0.75477891449E+02  0.26988574465E+03  0.18876901210E+04  0.19083844765E+04  0.46999998093E+01 0. -1.
</event>
<event>
 5   0  0.2769394E-02  0.8202119E+03  0.7818609E-02  0.9531213E-01
       -1   -1    0    0    0  501  0.00000000000E+00  0.00000000000E+00  0.14270200120E+03  0.14270200129E+03  0.50400001928E-02 0.  1.
        1   -1    0    0  501    0  0.00000000000E+00  0.00000000000E+00 -0.11785881880E+04  0.11785881880E+04  0.50400001928E-02 0. -1.
    10030    2    1    2    0    0  0.00000000000E+00  0.00000000000E+00 -0.10358861868E+04  0.13212901893E+04  0.82021190696E+03 0.  0.
        2    1    3    3  502    0 -0.66918409602E+02  0.14591801609E+03  0.89985652285E+02  0.18403140652E+03  0.25500000920E-02 0.  1.
       -2    1    3    3    0  502  0.66918409602E+02 -0.14591801609E+03 -0.11258718390E+04  0.11372587827E+04  0.25500000920E-02 0. -1.
</event>
<event>
 5   0  0.2606520E-02  0.8055746E+03  0.7818609E-02  0.9551983E-01
        1   -1    0    0  501    0  0.00000000000E+00  0.00000000000E+00  0.42254978000E+03  0.42254978003E+03  0.50400001928E-02 0. -1.
       -1   -1    0    0    0  501  0.00000000000E+00  0.00000000000E+00 -0.38394907000E+03  0.38394907004E+03  0.50400001928E-02 0.  1.
    10030    2    1    2    0    0  0.00000000000E+00  0.00000000000E+00  0.38600709999E+02  0.80649885007E+03  0.80557456536E+03 0.  0.
        5    1    3    3  502    0  0.38913334808E+03  0.10236429112E+03  0.16082255658E+01  0.40240264298E+03  0.46999998093E+01 0. -1.
       -5    1    3    3    0  502 -0.38913334808E+03 -0.10236429112E+03  0.36992484434E+02  0.40409620710E+03  0.46999998093E+01 0.  1.
</event>
<event>
 5   0  0.4663634E-02  0.8114396E+03  0.7818609E-02  0.9543605E-01
       -2   -1    0    0    0  501  0.00000000000E+00  0.00000000000E+00  0.53377943657E+03  0.53377943657E+03  0.25500000920E-02 0.  1.
        2   -1    0    0  501    0  0.00000000000E+00  0.00000000000E+00 -0.30838309008E+03  0.30838309009E+03  0.25500000920E-02 0. -1.
    10030    2    1    2    0    0  0.00000000000E+00  0.00000000000E+00  0.22539634649E+03  0.84216252666E+03  0.81143959005E+03 0.  0.
        5    1    3    3  502    0  0.15925536485E+03 -0.59078890321E+02 -0.26967185629E+03  0.31874376322E+03  0.46999998093E+01 0. -1.
       -5    1    3    3    0  502 -0.15925536485E+03  0.59078890321E+02  0.49506820278E+03  0.52341876344E+03  0.46999998093E+01 0.  1.
</event>
<event>
 5   0  0.2606520E-02  0.7979223E+03  0.7818609E-02  0.9563029E-01
       -1   -1    0    0    0  501  0.00000000000E+00  0.00000000000E+00  0.39862663679E+03  0.39862663682E+03  0.50400001928E-02 0.  1.
        1   -1    0    0  501    0  0.00000000000E+00  0.00000000000E+00 -0.39929595285E+03  0.39929595288E+03  0.50400001928E-02 0. -1.
    10030    2    1    2    0    0  0.00000000000E+00  0.00000000000E+00 -0.66931606532E+00  0.79792258970E+03  0.79792230898E+03 0.  0.
        5    1    3    3  502    0  0.31764619063E+03  0.23255802945E+03 -0.64875933535E+02  0.39901543358E+03  0.46999998093E+01 0.  1.
       -5    1    3    3    0  502 -0.31764619063E+03 -0.23255802945E+03  0.64206617469E+02  0.39890715613E+03  0.46999998093E+01 0. -1.
</event>
<event>
 5   0  0.4684283E-02  0.7972290E+03  0.7818609E-02  0.9564037E-01
       -2   -1    0    0    0  501  0.00000000000E+00  0.00000000000E+00  0.19938689029E+03  0.19938689031E+03  0.25500000920E-02 0.  1.
        2   -1    0    0  501    0  0.00000000000E+00  0.00000000000E+00 -0.79691056612E+03  0.79691056612E+03  0.25500000920E-02 0. -1.
    10030    2    1    2    0    0  0.00000000000E+00  0.00000000000E+00 -0.59752367583E+03  0.99629745643E+03  0.79722900005E+03 0.  0.
        1    1    3    3  502    0  0.17032910710E+02  0.39809935052E+03 -0.31246910249E+03  0.50636958139E+03  0.50400001928E-02 0. -1.
       -1    1    3    3    0  502 -0.17032910710E+02 -0.39809935052E+03 -0.28505457334E+03  0.48992787503E+03  0.50400001928E-02 0.  1.
</event>
<event>
 5   0  0.4663634E-02  0.6609711E+03  0.7818609E-02  0.9786408E-01
        2   -1    0    0  501    0  0.00000000000E+00  0.00000000000E+00  0.17852998896E+04  0.17852998896E+04  0.25500000920E-02 0. -1.
       -2   -1    0    0    0  501  0.00000000000E+00  0.00000000000E+00 -0.61177779855E+02  0.61177779908E+02  0.25500000920E-02 0.  1.
    10030    2    1    2    0    0  0.00000000000E+00  0.00000000000E+00  0.17241221097E+04  0.18464776695E+04  0.66097105434E+03 0.  0.
        5    1    3    3  502    0  0.23383179234E+03 -0.20852518342E+03  0.11555672871E+04  0.11972960804E+04  0.46999998093E+01 0. -1.
       -5    1    3    3    0  502 -0.23383179234E+03  0.20852518342E+03  0.56855482264E+03  0.64918158906E+03  0.46999998093E+01 0.  1.
</event>
<event>
 5   0  0.4663634E-02  0.6889668E+03  0.7818609E-02  0.9736289E-01
        2   -1    0    0  501    0  0.00000000000E+00  0.00000000000E+00  0.21118360384E+03  0.21118360385E+03  0.25500000920E-02 0. -1.
       -2   -1    0    0    0  501  0.00000000000E+00  0.00000000000E+00 -0.56192242091E+03  0.56192242091E+03  0.25500000920E-02 0.  1.
    10030    2    1    2    0    0  0.00000000000E+00  0.00000000000E+00 -0.35073881707E+03  0.77310602477E+03  0.68896676824E+03 0.  0.
        5    1    3    3  502    0 -0.14588346117E+03 -0.31199341594E+03 -0.16977721113E+03  0.38401597265E+03  0.46999998093E+01 0. -1.
       -5    1    3    3    0  502  0.14588346117E+03  0.31199341594E+03 -0.18096160594E+03  0.38909005212E+03  0.46999998093E+01 0.  1.
</event>
<event>
 5   0  0.2606520E-02  0.8041066E+03  0.7818609E-02  0.9554092E-01
       -1   -1    0    0    0  501  0.00000000000E+00  0.00000000000E+00  0.57184820887E+03  0.57184820890E+03  0.50400001928E-02 0.  1.
        1   -1    0    0  501    0  0.00000000000E+00  0.00000000000E+00 -0.28267444506E+03  0.28267444511E+03  0.50400001928E-02 0. -1.
    10030    2    1    2    0    0  0.00000000000E+00  0.00000000000E+00  0.28917376381E+03  0.85452265400E+03  0.80410664748E+03 0.  0.
        5    1    3    3  502    0  0.12234272519E+03  0.15730754517E+02 -0.26203868773E+03  0.28965766503E+03  0.46999998093E+01 0. -1.
       -5    1    3    3    0  502 -0.12234272519E+03 -0.15730754517E+02  0.55121245154E+03  0.56486498898E+03  0.46999998093E+01 0.  1.
</event>
<event>
 5   0  0.2606520E-02  0.8033070E+03  0.7818609E-02  0.9555243E-01
       -1   -1    0    0    0  501  0.00000000000E+00  0.00000000000E+00  0.21045860115E+03  0.21045860121E+03  0.50400001928E-02 0.  1.
        1   -1    0    0  501    0  0.00000000000E+00  0.00000000000E+00 -0.76654274618E+03  0.76654274620E+03  0.50400001928E-02 0. -1.
    10030    2    1    2    0    0  0.00000000000E+00  0.00000000000E+00 -0.55608414503E+03  0.97700134741E+03  0.80330695036E+03 0.  0.
        5    1    3    3  502    0  0.31136906821E+03 -0.16210909673E+03 -0.51535657973E+03  0.62357401337E+03  0.46999998093E+01 0. -1.
       -5    1    3    3    0  502 -0.31136906821E+03  0.16210909673E+03 -0.40727565305E+02  0.35342733405E+03  0.46999998093E+01 0.  1.
</event>
<event>
 5   0  0.4663634E-02  0.8025957E+03  0.7818609E-02  0.9556267E-01
       -2   -1    0    0    0  501  0.00000000000E+00  0.00000000000E+00  0.58489985192E+03  0.58489985192E+03  0.25500000920E-02 0. -1.
        2   -1    0    0  501    0  0.00000000000E+00  0.00000000000E+00 -0.27532914800E+03  0.27532914801E+03  0.25500000920E-02 0.  1.
    10030    2    1    2    0    0  0.00000000000E+00  0.00000000000E+00  0.30957070392E+03  0.86022899993E+03  0.80259573360E+03 0.  0.
        5    1    3    3  502    0 -0.11554279113E+03 -0.30223410050E+03  0.40915039258E+03  0.52165287484E+03  0.46999998093E+01 0. -1.
       -5    1    3    3    0  502  0.11554279113E+03  0.30223410050E+03 -0.99579688659E+02  0.33857612509E+03  0.46999998093E+01 0.  1.
</event>
<event>
 5   0  0.2689372E-02  0.6774039E+03  0.7818609E-02  0.9756674E-01
       -1   -1    0    0    0  501  0.00000000000E+00  0.00000000000E+00  0.19716750673E+03  0.19716750679E+03  0.50400001928E-02 0.  1.
        1   -1    0    0  501    0  0.00000000000E+00  0.00000000000E+00 -0.58183525402E+03  0.58183525404E+03  0.50400001928E-02 0. -1.
    10030    2    1    2    0    0  0.00000000000E+00  0.00000000000E+00 -0.38466774729E+03  0.77900276084E+03  0.67740388660E+03 0.  0.
        4    1    3    3  502    0 -0.10994074511E+03  0.15340647165E+03 -0.51575694026E+03  0.54920610640E+03  0.12699999809E+01 0. -1.
       -4    1    3    3    0  502  0.10994074511E+03 -0.15340647165E+03  0.13108919297E+03  0.22979665444E+03  0.12699999809E+01 0.  1.
</event>
<event>
 5   0  0.4684283E-02  0.8071390E+03  0.7818609E-02  0.9549741E-01
       -2   -1    0    0    0  501  0.00000000000E+00  0.00000000000E+00  0.39425096762E+03  0.39425096763E+03  0.25500000920E-02 0.  1.
        2   -1    0    0  501    0  0.00000000000E+00  0.00000000000E+00 -0.41310825215E+03  0.41310825216E+03  0.25500000920E-02 0. -1.
    10030    2    1    2    0    0  0.00000000000E+00  0.00000000000E+00 -0.18857284532E+02  0.80735921979E+03  0.80713896734E+03 0.  0.
        1    1    3    3  502    0 -0.24007020331E+03  0.11152496254E+03  0.29528016975E+03  0.39656260345E+03  0.50400001928E-02 0.  1.
       -1    1    3    3    0  502  0.24007020331E+03 -0.11152496254E+03 -0.31413745428E+03  0.41079661634E+03  0.50400001928E-02 0. -1.
</event>
<event>
 5   0  0.2606520E-02  0.7445063E+03  0.7818609E-02  0.9644009E-01
        1   -1    0    0  501    0  0.00000000000E+00  0.00000000000E+00  0.46990888560E+03  0.46990888563E+03  0.50400001928E-02 0. -1.
       -1   -1    0    0    0  501  0.00000000000E+00  0.00000000000E+00 -0.29489209948E+03  0.29489209953E+03  0.50400001928E-02 0.  1.
    10030    2    1    2    0    0  0.00000000000E+00  0.00000000000E+00  0.17501678612E+03  0.76480098516E+03  0.74450632736E+03 0.  0.
        5    1    3    3  502    0 -0.13930856375E+02 -0.30215982673E+03  0.31034480484E+03  0.43339429800E+03  0.46999998093E+01 0. -1.
       -5    1    3    3    0  502  0.13930856375E+02  0.30215982673E+03 -0.13532801872E+03  0.33140668716E+03  0.46999998093E+01 0.  1.
</event>
<event>
 5   0  0.2635243E-02  0.8054069E+03  0.7818609E-02  0.9552224E-01
        1   -1    0    0  501    0  0.00000000000E+00  0.00000000000E+00  0.95277014424E+03  0.95277014426E+03  0.50400001928E-02 0.  1.
       -1   -1    0    0    0  501  0.00000000000E+00  0.00000000000E+00 -0.17020900874E+03  0.17020900881E+03  0.50400001928E-02 0. -1.
    10030    2    1    2    0    0  0.00000000000E+00  0.00000000000E+00  0.78256113550E+03  0.11229791531E+04  0.80540688316E+03 0.  0.
        1    1    3    3  502    0 -0.34176205902E+03 -0.12211089006E+00  0.68826571193E+03  0.76844714206E+03  0.50400001928E-02 0.  1.
       -1    1    3    3    0  502  0.34176205902E+03  0.12211089006E+00  0.94295423573E+02  0.35453201101E+03  0.50400001928E-02 0. -1.
</event>
<event>
 5   0  0.2635243E-02  0.8185238E+03  0.7818609E-02  0.9533585E-01
        1   -1    0    0  501    0  0.00000000000E+00  0.00000000000E+00  0.15001640790E+03  0.15001640799E+03  0.50400001928E-02 0. -1.
       -1   -1    0    0    0  501  0.00000000000E+00  0.00000000000E+00 -0.11165133313E+04  0.11165133313E+04  0.50400001928E-02 0.  1.
    10030    2    1    2    0    0  0.00000000000E+00  0.00000000000E+00 -0.96649692340E+03  0.12665297393E+04  0.81852384058E+03 0.  0.
        1    1    3    3  502    0  0.18396806988E+03  0.28921029671E+03 -0.82927216911E+03  0.89731776810E+03  0.50400001928E-02 0.  1.
       -1    1    3    3    0  502 -0.18396806988E+03 -0.28921029671E+03 -0.13722475428E+03  0.36921197119E+03  0.50400001928E-02 0. -1.
</event>
<event>
 5   0  0.2689372E-02  0.7969254E+03  0.7818609E-02  0.9564478E-01
        1   -1    0    0  501    0  0.00000000000E+00  0.00000000000E+00  0.95614424806E+03  0.95614424807E+03  0.50400001928E-02 0.  1.
       -1   -1    0    0    0  501  0.00000000000E+00  0.00000000000E+00 -0.16605499446E+03  0.16605499453E+03  0.50400001928E-02 0. -1.
    10030    2    1    2    0    0  0.00000000000E+00  0.00000000000E+00  0.79008925360E+03  0.11221992426E+04  0.79692541147E+03 0.  0.
        4    1    3    3  502    0 -0.55549032819E+02  0.38359018398E+03  0.26488461016E+03  0.46945989594E+03  0.12699999809E+01 0.  1.
       -4    1    3    3    0  502  0.55549032819E+02 -0.38359018398E+03  0.52520464344E+03  0.65273934667E+03  0.12699999809E+01 0. -1.
</event>
<event>
 5   0  0.4700220E-02  0.8016392E+03  0.7818609E-02  0.9557647E-01
       -2   -1    0    0    0  501  0.00000000000E+00  0.00000000000E+00  0.30900040201E+03  0.30900040202E+03  0.25500000920E-02 0.  1.
        2   -1    0    0  501    0  0.00000000000E+00  0.00000000000E+00 -0.51992281419E+03  0.51992281419E+03  0.25500000920E-02 0. -1.
    10030    2    1    2    0    0  0.00000000000E+00  0.00000000000E+00 -0.21092241218E+03  0.82892321621E+03  0.80163921711E+03 0.  0.
        4    1    3    3  502    0  0.33854711482E+03 -0.17530149587E+02  0.11567078360E+03  0.35819379974E+03  0.12699999809E+01 0.  1.
       -4    1    3    3    0  502 -0.33854711482E+03  0.17530149587E+02 -0.32659319578E+03  0.47072941647E+03  0.12699999809E+01 0. -1.
</event>
<event>
 5   0  0.4590462E-02  0.7635116E+03  0.7818609E-02  0.9614388E-01
       -2   -1    0    0    0  501  0.00000000000E+00  0.00000000000E+00  0.50831741388E+03  0.50831741389E+03  0.25500000920E-02 0. -1.
        2   -1    0    0  501    0  0.00000000000E+00  0.00000000000E+00 -0.28670565095E+03  0.28670565097E+03  0.25500000920E-02 0.  1.
    10030    2    1    2    0    0  0.00000000000E+00  0.00000000000E+00  0.22161176293E+03  0.79502306485E+03  0.76351155864E+03 0.  0.
        3    1    3    3  502    0 -0.14111592163E+03 -0.35298930094E+03  0.74401331234E+02  0.38736380601E+03  0.10100000352E+00 0. -1.
       -3    1    3    3    0  502  0.14111592163E+03  0.35298930094E+03  0.14721043169E+03  0.40765925884E+03  0.10100000352E+00 0.  1.
</event>
<event>
 5   0  0.2689372E-02  0.7986857E+03  0.7818609E-02  0.9561921E-01
       -1   -1    0    0    0  501  0.00000000000E+00  0.00000000000E+00  0.39815403403E+03  0.39815403406E+03  0.50400001928E-02 0.  1.
        1   -1    0    0  501    0  0.00000000000E+00  0.00000000000E+00 -0.40053521863E+03  0.40053521867E+03  0.50400001928E-02 0. -1.
    10030    2    1    2    0    0  0.00000000000E+00  0.00000000000E+00 -0.23811846027E+01  0.79868925273E+03  0.79868570313E+03 0.  0.
        4    1    3    3  502    0 -0.39841176193E+03 -0.21991963748E+02  0.14856961274E+02  0.39929678274E+03  0.12699999809E+01 0.  1.
       -4    1    3    3    0  502  0.39841176193E+03  0.21991963748E+02 -0.17238145876E+02  0.39939246999E+03  0.12699999809E+01 0. -1.
</event>
<event>
 5   0  0.4663634E-02  0.8016957E+03  0.7818609E-02  0.9557566E-01
       -2   -1    0    0    0  501  0.00000000000E+00  0.00000000000E+00  0.22111568064E+03  0.22111568066E+03  0.25500000920E-02 0.  1.
        2   -1    0    0  501    0  0.00000000000E+00  0.00000000000E+00 -0.72667390747E+03  0.72667390747E+03  0.25500000920E-02 0. -1.
    10030    2    1    2    0    0  0.00000000000E+00  0.00000000000E+00 -0.50555822682E+03  0.94778958813E+03  0.80169569205E+03 0.  0.
        5    1    3    3  502    0  0.56002204057E+02  0.25190219845E+03 -0.61537142100E+03  0.66730430856E+03  0.46999998093E+01 0. -1.
       -5    1    3    3    0  502 -0.56002204057E+02 -0.25190219845E+03  0.10981319417E+03  0.28048527957E+03  0.46999998093E+01 0.  1.
</event>
<event>
 5   0  0.4590462E-02  0.8272293E+03  0.7818609E-02  0.9521419E-01
       -2   -1    0    0    0  501  0.00000000000E+00  0.00000000000E+00  0.17786450374E+03  0.17786450376E+03  0.25500000920E-02 0.  1.
        2   -1    0    0  501    0  0.00000000000E+00  0.00000000000E+00 -0.96183937861E+03  0.96183937861E+03  0.25500000920E-02 0. -1.
    10030    2    1    2    0    0  0.00000000000E+00  0.00000000000E+00 -0.78397487487E+03  0.11397038824E+04  0.82722931226E+03 0.  0.
        3    1    3    3  502    0 -0.33742049479E+03  0.23021558020E+03 -0.48154315962E+03  0.63145516741E+03  0.10100000352E+00 0. -1.
       -3    1    3    3    0  502  0.33742049479E+03 -0.23021558020E+03 -0.30243171525E+03  0.50824871496E+03  0.10100000352E+00 0.  1.
</event>
<event>
 5   0  0.4700220E-02  0.4877580E+03  0.7818609E-02  0.1017025E+00
        2   -1    0    0  501    0  0.00000000000E+00  0.00000000000E+00  0.93452685458E+03  0.93452685458E+03  0.25500000920E-02 0. -1.
       -2   -1    0    0    0  501  0.00000000000E+00  0.00000000000E+00 -0.63643931538E+02  0.63643931589E+02  0.25500000920E-02 0.  1.
    10030    2    1    2    0    0  0.00000000000E+00  0.00000000000E+00  0.87088292304E+03  0.99817078617E+03  0.48775798581E+03 0.  0.
        4    1    3    3  502    0  0.28816360421E+01 -0.50571898220E+02  0.92363605359E+03  0.92502486080E+03  0.12699999809E+01 0. -1.
       -4    1    3    3    0  502 -0.28816360421E+01  0.50571898220E+02 -0.52753130546E+02  0.73145925369E+02  0.12699999809E+01 0.  1.
</event>
<event>
 5   0  0.4377843E-02  0.8081237E+03  0.7818609E-02  0.9548332E-01
       -2   -1    0    0    0  501  0.00000000000E+00  0.00000000000E+00  0.15028840699E+03  0.15028840701E+03  0.25500000920E-02 0. -1.
        2   -1    0    0  501    0  0.00000000000E+00  0.00000000000E+00 -0.10863510386E+04  0.10863510386E+04  0.25500000920E-02 0.  1.
    10030    2    1    2    0    0  0.00000000000E+00  0.00000000000E+00 -0.93606263157E+03  0.12366394456E+04  0.80812367131E+03 0.  0.
        2    1    3    3  502    0 -0.15822844630E+03 -0.25007690355E+03 -0.47025439375E+02  0.29964327268E+03  0.25500000920E-02 0. -1.
       -2    1    3    3    0  502  0.15822844630E+03  0.25007690355E+03 -0.88903719220E+03  0.93699617290E+03  0.25500000920E-02 0.  1.
</event>
<event>
 5   0  0.4377843E-02  0.8198643E+03  0.7818609E-02  0.9531701E-01
       -2   -1    0    0    0  501  0.00000000000E+00  0.00000000000E+00  0.17595977202E+03  0.17595977204E+03  0.25500000920E-02 0. -1.
        2   -1    0    0  501    0  0.00000000000E+00  0.00000000000E+00 -0.95501584625E+03  0.95501584626E+03  0.25500000920E-02 0.  1.
    10030    2    1    2    0    0  0.00000000000E+00  0.00000000000E+00 -0.77905607423E+03  0.11309756183E+04  0.81986430730E+03 0.  0.
        2    1    3    3  502    0 -0.60875466520E+02 -0.10276879873E+03  0.15142196541E+03  0.19286228256E+03  0.25500000920E-02 0. -1.
       -2    1    3    3    0  502  0.60875466520E+02  0.10276879873E+03 -0.93047803965E+03  0.93811333574E+03  0.25500000920E-02 0.  1.
</event>
<event>
 5   0  0.4377843E-02  0.7922298E+03  0.7818609E-02  0.9571333E-01
       -2   -1    0    0    0  501  0.00000000000E+00  0.00000000000E+00  0.25098701859E+03  0.25098701860E+03  0.25500000920E-02 0. -1.
        2   -1    0    0  501    0  0.00000000000E+00  0.00000000000E+00 -0.62515995370E+03  0.62515995371E+03  0.25500000920E-02 0.  1.
    10030    2    1    2    0    0  0.00000000000E+00  0.00000000000E+00 -0.37417293512E+03  0.87614697231E+03  0.79222984778E+03 0.  0.
        2    1    3    3  502    0 -0.18582067600E+02 -0.30823081849E+02  0.24917499980E+03  0.25176087095E+03  0.25500000920E-02 0. -1.
       -2    1    3    3    0  502  0.18582067600E+02  0.30823081849E+02 -0.62334793491E+03  0.62438610136E+03  0.25500000920E-02 0.  1.
</event>
<event>
 5   0  0.4590462E-02  0.7789018E+03  0.7818609E-02  0.9591068E-01
        2   -1    0    0  501    0  0.00000000000E+00  0.00000000000E+00  0.48369564946E+03  0.48369564947E+03  0.25500000920E-02 0.  1.
       -2   -1    0    0    0  501  0.00000000000E+00  0.00000000000E+00 -0.31356912567E+03  0.31356912568E+03  0.25500000920E-02 0. -1.
    10030    2    1    2    0    0  0.00000000000E+00  0.00000000000E+00  0.17012652380E+03  0.79726477514E+03  0.77890184721E+03 0.  0.
        3    1    3    3  502    0  0.10004885141E+02  0.33416195090E+02 -0.31196694272E+03  0.31391101186E+03  0.10100000352E+00 0. -1.
       -3    1    3    3    0  502 -0.10004885141E+02 -0.33416195090E+02  0.48209346651E+03  0.48335376328E+03  0.10100000352E+00 0.  1.
</event>
<event>
 5   0  0.4700220E-02  0.8028927E+03  0.7818609E-02  0.9555839E-01
       -2   -1    0    0    0  501  0.00000000000E+00  0.00000000000E+00  0.12559514847E+03  0.12559514849E+03  0.25500000920E-02 0.  1.
        2   -1    0    0  501    0  0.00000000000E+00  0.00000000000E+00 -0.12831640402E+04  0.12831640402E+04  0.25500000920E-02 0. -1.
    10030    2    1    2    0    0  0.00000000000E+00  0.00000000000E+00 -0.11575688917E+04  0.14087591887E+04  0.80289271551E+03 0.  0.
        4    1    3    3  502    0  0.25675983661E+03  0.29749652095E+03 -0.72270236235E+03  0.82263607453E+03  0.12699999809E+01 0. -1.
       -4    1    3    3    0  502 -0.25675983661E+03 -0.29749652095E+03 -0.43486652937E+03  0.58612311415E+03  0.12699999809E+01 0.  1.
</event>
<event>
 5   0  0.4684283E-02  0.7060181E+03  0.7818609E-02  0.9706995E-01
       -2   -1    0    0    0  501  0.00000000000E+00  0.00000000000E+00  0.27870362474E+03  0.27870362475E+03  0.25500000920E-02 0. -1.
        2   -1    0    0  501    0  0.00000000000E+00  0.00000000000E+00 -0.44712511598E+03  0.44712511599E+03  0.25500000920E-02 0.  1.
    10030    2    1    2    0    0  0.00000000000E+00  0.00000000000E+00 -0.16842149124E+03  0.72582874074E+03  0.70601810329E+03 0.  0.
        1    1    3    3  502    0  0.98992859427E+02 -0.11399487977E+03 -0.41225840433E+03  0.43903463508E+03  0.50400001928E-02 0.  1.
       -1    1    3    3    0  502 -0.98992859427E+02  0.11399487977E+03  0.24383691309E+03  0.28679410566E+03  0.50400001928E-02 0. -1.
</event>
<event>
 5   0  0.2635243E-02  0.8453744E+03  0.7818609E-02  0.9496566E-01
       -1   -1    0    0    0  501  0.00000000000E+00  0.00000000000E+00  0.62876027248E+03  0.62876027251E+03  0.50400001928E-02 0. -1.
        1   -1    0    0  501    0  0.00000000000E+00  0.00000000000E+00 -0.28415357108E+03  0.28415357112E+03  0.50400001928E-02 0.  1.
    10030    2    1    2    0    0  0.00000000000E+00  0.00000000000E+00  0.34460670141E+03  0.91291384363E+03  0.84537441837E+03 0.  0.
        1    1    3    3  502    0  0.16709989752E+03 -0.17185418097E+03 -0.20366108643E+03  0.31453787279E+03  0.50400001928E-02 0.  1.
       -1    1    3    3    0  502 -0.16709989752E+03  0.17185418097E+03  0.54826778783E+03  0.59837597084E+03  0.50400001928E-02 0. -1.
</event>
<event>
 5   0  0.2759559E-02  0.8072048E+03  0.7818609E-02  0.9549647E-01
       -1   -1    0    0    0  501  0.00000000000E+00  0.00000000000E+00  0.33261503190E+03  0.33261503194E+03  0.50400001928E-02 0. -1.
        1   -1    0    0  501    0  0.00000000000E+00  0.00000000000E+00 -0.48974005960E+03  0.48974005962E+03  0.50400001928E-02 0.  1.
    10030    2    1    2    0    0  0.00000000000E+00  0.00000000000E+00 -0.15712502770E+03  0.82235509156E+03  0.80720482053E+03 0.  0.
        3    1    3    3  502    0 -0.10258648325E+03 -0.21874119741E+02 -0.47561114798E+03  0.48704048902E+03  0.10100000352E+00 0.  1.
       -3    1    3    3    0  502  0.10258648325E+03  0.21874119741E+02  0.31848612028E+03  0.33531460254E+03  0.10100000352E+00 0. -1.
</event>
<event>
 5   0  0.2635243E-02  0.8087939E+03  0.7818609E-02  0.9547375E-01
       -1   -1    0    0    0  501  0.00000000000E+00  0.00000000000E+00  0.11273351573E+04  0.11273351573E+04  0.50400001928E-02 0. -1.
        1   -1    0    0  501    0  0.00000000000E+00  0.00000000000E+00 -0.14506501688E+03  0.14506501697E+03  0.50400001928E-02 0.  1.
    10030    2    1    2    0    0  0.00000000000E+00  0.00000000000E+00  0.98227014041E+03  0.12724001743E+04  0.80879390128E+03 0.  0.
        1    1    3    3  502    0 -0.14131067964E+02  0.39984927979E+03  0.58364391911E+03  0.70761526126E+03  0.50400001928E-02 0. -1.
       -1    1    3    3    0  502  0.14131067964E+02 -0.39984927979E+03  0.39862622130E+03  0.56478491301E+03  0.50400001928E-02 0.  1.
</event>
<event>
 5   0  0.4700220E-02  0.7933598E+03  0.7818609E-02  0.9569678E-01
        2   -1    0    0  501    0  0.00000000000E+00  0.00000000000E+00  0.56341502524E+03  0.56341502524E+03  0.25500000920E-02 0. -1.
       -2   -1    0    0    0  501  0.00000000000E+00  0.00000000000E+00 -0.27928783053E+03  0.27928783054E+03  0.25500000920E-02 0.  1.
    10030    2    1    2    0    0  0.00000000000E+00  0.00000000000E+00  0.28412719471E+03  0.84270285578E+03  0.79335984293E+03 0.  0.
        4    1    3    3  502    0 -0.35057057713E+02 -0.62151431657E+02  0.55653958387E+03  0.56109688919E+03  0.12699999809E+01 0. -1.
       -4    1    3    3    0  502  0.35057057713E+02  0.62151431657E+02 -0.27241238916E+03  0.28160596659E+03  0.12699999809E+01 0.  1.
</event>
<event>
 5   0  0.4377843E-02  0.8169716E+03  0.7818609E-02  0.9535771E-01
       -2   -1    0    0    0  501  0.00000000000E+00  0.00000000000E+00  0.10739602213E+04  0.10739602213E+04  0.25500000920E-02 0. -1.
        2   -1    0    0  501    0  0.00000000000E+00  0.00000000000E+00 -0.15536947943E+03  0.15536947945E+03  0.25500000920E-02 0.  1.
    10030    2    1    2    0    0  0.00000000000E+00  0.00000000000E+00  0.91859074189E+03  0.12293297008E+04  0.81697157974E+03 0.  0.
        2    1    3    3  502    0 -0.19100766828E+03 -0.12848925940E+03  0.96705806206E+03  0.99407983307E+03  0.25500000920E-02 0. -1.
       -2    1    3    3    0  502  0.19100766828E+03  0.12848925940E+03 -0.48467320166E+02  0.23524986770E+03  0.25500000920E-02 0.  1.
</event>
<event>
 5   0  0.4377843E-02  0.8057557E+03  0.7818609E-02  0.9551723E-01
       -2   -1    0    0    0  501  0.00000000000E+00  0.00000000000E+00  0.34073989240E+03  0.34073989241E+03  0.25500000920E-02 0. -1.
        2   -1    0    0  501    0  0.00000000000E+00  0.00000000000E+00 -0.47634741026E+03  0.47634741027E+03  0.25500000920E-02 0.  1.
    10030    2    1    2    0    0  0.00000000000E+00  0.00000000000E+00 -0.13560751786E+03  0.81708730267E+03  0.80575570819E+03 0.  0.
        2    1    3    3  502    0 -0.11222748047E+03 -0.21847380055E+02 -0.45955027664E+03  0.47355968172E+03  0.25500000920E-02 0.  1.
       -2    1    3    3    0  502  0.11222748047E+03  0.21847380055E+02  0.32394275877E+03  0.34352762095E+03  0.25500000920E-02 0. -1.
</event>
<event>
 5   0  0.4684283E-02  0.7941077E+03  0.7818609E-02  0.9568585E-01
       -2   -1    0    0    0  501  0.00000000000E+00  0.00000000000E+00  0.27262268598E+03  0.27262268599E+03  0.25500000920E-02 0. -1.
        2   -1    0    0  501    0  0.00000000000E+00  0.00000000000E+00 -0.57827826096E+03  0.57827826096E+03  0.25500000920E-02 0.  1.
    10030    2    1    2    0    0  0.00000000000E+00  0.00000000000E+00 -0.30565557498E+03  0.85090094695E+03  0.79410773262E+03 0.  0.
        1    1    3    3  502    0 -0.38180125857E+02  0.70424958105E+02  0.26387349909E+03  0.27576551684E+03  0.50400001928E-02 0. -1.
       -1    1    3    3    0  502  0.38180125857E+02 -0.70424958105E+02 -0.56952907407E+03  0.57513543011E+03  0.50400001928E-02 0.  1.
</event>
<event>
 5   0  0.4663634E-02  0.8068449E+03  0.7818609E-02  0.9550162E-01
        2   -1    0    0  501    0  0.00000000000E+00  0.00000000000E+00  0.53766608997E+03  0.53766608998E+03  0.25500000920E-02 0. -1.
       -2   -1    0    0    0  501  0.00000000000E+00  0.00000000000E+00 -0.30269651945E+03  0.30269651946E+03  0.25500000920E-02 0.  1.
    10030    2    1    2    0    0  0.00000000000E+00  0.00000000000E+00  0.23496957053E+03  0.84036260944E+03  0.80684485266E+03 0.  0.
        5    1    3    3  502    0 -0.87439395592E+02  0.23993203369E+03 -0.20776076687E+03  0.32924102865E+03  0.46999998093E+01 0.  1.
       -5    1    3    3    0  502  0.87439395592E+02 -0.23993203369E+03  0.44273033740E+03  0.51112158079E+03  0.46999998093E+01 0. -1.
</event>
<event>
 5   0  0.2769394E-02  0.8190514E+03  0.7818609E-02  0.9532843E-01
       -1   -1    0    0    0  501  0.00000000000E+00  0.00000000000E+00  0.20923928793E+03  0.20923928799E+03  0.50400001928E-02 0.  1.
        1   -1    0    0  501    0  0.00000000000E+00  0.00000000000E+00 -0.80152865901E+03  0.80152865902E+03  0.50400001928E-02 0. -1.
    10030    2    1    2    0    0  0.00000000000E+00  0.00000000000E+00 -0.59228937107E+03  0.10107679470E+04  0.81905136812E+03 0.  0.
        2    1    3    3  502    0  0.26500952331E+03  0.16618359274E+03 -0.62233257139E+03  0.69652341193E+03  0.25500000920E-02 0. -1.
       -2    1    3    3    0  502 -0.26500952331E+03 -0.16618359274E+03  0.30043200320E+02  0.31424453509E+03  0.25500000920E-02 0.  1.
</event>
<event>
 5   0  0.2759559E-02  0.8107345E+03  0.7818609E-02  0.9544608E-01
       -1   -1    0    0    0  501  0.00000000000E+00  0.00000000000E+00  0.50391769054E+03  0.50391769057E+03  0.50400001928E-02 0. -1.
        1   -1    0    0  501    0  0.00000000000E+00  0.00000000000E+00 -0.32609015389E+03  0.32609015393E+03  0.50400001928E-02 0.  1.
    10030    2    1    2    0    0  0.00000000000E+00  0.00000000000E+00  0.17782753665E+03  0.83000784450E+03  0.81073447511E+03 0.  0.
        3    1    3    3  502    0  0.35067122521E+03 -0.17783318498E+03  0.18988722842E+03  0.43663728607E+03  0.10100000352E+00 0. -1.
       -3    1    3    3    0  502 -0.35067122521E+03  0.17783318498E+03 -0.12059691772E+02  0.39337055842E+03  0.10100000352E+00 0.  1.
</event>
<event>
 5   0  0.2635243E-02  0.7538593E+03  0.7818609E-02  0.9629315E-01
       -1   -1    0    0    0  501  0.00000000000E+00  0.00000000000E+00  0.32188059035E+03  0.32188059038E+03  0.50400001928E-02 0. -1.
        1   -1    0    0  501    0  0.00000000000E+00  0.00000000000E+00 -0.44139336456E+03  0.44139336459E+03  0.50400001928E-02 0.  1.
    10030    2    1    2    0    0  0.00000000000E+00  0.00000000000E+00 -0.11951277421E+03  0.76327395497E+03  0.75385928868E+03 0.  0.
        1    1    3    3  502    0 -0.72163305394E+02  0.15683629456E+03 -0.39900926761E+03  0.43475689943E+03  0.50400001928E-02 0.  1.
       -1    1    3    3    0  502  0.72163305394E+02 -0.15683629456E+03  0.27949649340E+03  0.32851705554E+03  0.50400001928E-02 0. -1.
</event>
<event>
 5   0  0.2769394E-02  0.8259222E+03  0.7818609E-02  0.9523236E-01
        1   -1    0    0  501    0  0.00000000000E+00  0.00000000000E+00  0.44931666612E+03  0.44931666615E+03  0.50400001928E-02 0. -1.
       -1   -1    0    0    0  501  0.00000000000E+00  0.00000000000E+00 -0.37954721793E+03  0.37954721796E+03  0.50400001928E-02 0.  1.
    10030    2    1    2    0    0  0.00000000000E+00  0.00000000000E+00  0.69769448194E+02  0.82886388412E+03  0.82592224966E+03 0.  0.
        2    1    3    3  502    0  0.20759155474E+03  0.40245555820E+02  0.39086337420E+03  0.44439637224E+03  0.25500000920E-02 0. -1.
       -2    1    3    3    0  502 -0.20759155474E+03 -0.40245555820E+02 -0.32109392601E+03  0.38446751188E+03  0.25500000920E-02 0.  1.
</event>
<event>
 5   0  0.4590462E-02  0.7805515E+03  0.7818609E-02  0.9588603E-01
       -2   -1    0    0    0  501  0.00000000000E+00  0.00000000000E+00  0.17178347012E+03  0.17178347014E+03  0.25500000920E-02 0. -1.
        2   -1    0    0  501    0  0.00000000000E+00  0.00000000000E+00 -0.88666938398E+03  0.88666938398E+03  0.25500000920E-02 0.  1.
    10030    2    1    2    0    0  0.00000000000E+00  0.00000000000E+00 -0.71488591386E+03  0.10584528541E+04  0.78055145542E+03 0.  0.
        3    1    3    3  502    0 -0.16494159571E+02  0.22876796700E+03 -0.78563207104E+03  0.81842812835E+03  0.10100000352E+00 0.  1.
       -3    1    3    3    0  502  0.16494159571E+02 -0.22876796700E+03  0.70746157185E+02  0.24002472577E+03  0.10100000352E+00 0. -1.
</event>
<event>
 5   0  0.2769394E-02  0.8524155E+03  0.7818609E-02  0.9487101E-01
        1   -1    0    0  501    0  0.00000000000E+00  0.00000000000E+00  0.59560520025E+03  0.59560520027E+03  0.50400001928E-02 0. -1.
       -1   -1    0    0    0  501  0.00000000000E+00  0.00000000000E+00 -0.30498903373E+03  0.30498903377E+03  0.50400001928E-02 0.  1.
    10030    2    1    2    0    0  0.00000000000E+00  0.00000000000E+00  0.29061616652E+03  0.90059423404E+03  0.85241551965E+03 0.  0.
        2    1    3    3  502    0  0.34387747269E+03 -0.58947937164E+02  0.40394302302E+03  0.53375700592E+03  0.25500000920E-02 0.  1.
       -2    1    3    3    0  502 -0.34387747269E+03  0.58947937164E+02 -0.11332685650E+03  0.36683722812E+03  0.25500000920E-02 0. -1.
</event>
<event>
 5   0  0.4663634E-02  0.7494828E+03  0.7818609E-02  0.9636162E-01
        2   -1    0    0  501    0  0.00000000000E+00  0.00000000000E+00  0.10275721237E+04  0.10275721237E+04  0.25500000920E-02 0. -1.
       -2   -1    0    0    0  501  0.00000000000E+00  0.00000000000E+00 -0.13666304207E+03  0.13666304209E+03  0.25500000920E-02 0.  1.
    10030    2    1    2    0    0  0.00000000000E+00  0.00000000000E+00  0.89090908161E+03  0.11642351658E+04  0.74948284138E+03 0.  0.
        5    1    3    3  502    0  0.29149213000E+03  0.22780702224E+03  0.35296171802E+03  0.51133918843E+03  0.46999998093E+01 0.  1.
       -5    1    3    3    0  502 -0.29149213000E+03 -0.22780702224E+03  0.53794736359E+03  0.65289597734E+03  0.46999998093E+01 0. -1.
</event>
<event>
 5   0  0.4684283E-02  0.8008020E+03  0.7818609E-02  0.9558857E-01
       -2   -1    0    0    0  501  0.00000000000E+00  0.00000000000E+00  0.10250249473E+03  0.10250249476E+03  0.25500000920E-02 0.  1.
        2   -1    0    0  501    0  0.00000000000E+00  0.00000000000E+00 -0.15640689337E+04  0.15640689337E+04  0.25500000920E-02 0. -1.
    10030    2    1    2    0    0  0.00000000000E+00  0.00000000000E+00 -0.14615664390E+04  0.16665714285E+04  0.80080201713E+03 0.  0.
        1    1    3    3  502    0 -0.96998404222E+02 -0.69404516813E+02  0.64674098248E+02  0.13567761932E+03  0.50400001928E-02 0.  1.
       -1    1    3    3    0  502  0.96998404222E+02  0.69404516813E+02 -0.15262405372E+04  0.15308938091E+04  0.50400001928E-02 0. -1.
</event>
<event>
 5   0  0.2606520E-02  0.7924791E+03  0.7818609E-02  0.9570968E-01
        1   -1    0    0  501    0  0.00000000000E+00  0.00000000000E+00  0.11177237090E+04  0.11177237090E+04  0.50400001928E-02 0. -1.
       -1   -1    0    0    0  501  0.00000000000E+00  0.00000000000E+00 -0.14046921003E+03  0.14046921012E+03  0.50400001928E-02 0.  1.
    10030    2    1    2    0    0  0.00000000000E+00  0.00000000000E+00  0.97725449896E+03  0.12581929191E+04  0.79247906345E+03 0.  0.
        5    1    3    3  502    0  0.46525831149E+02  0.63334358012E+02  0.11051815290E+04  0.11079820377E+04  0.46999998093E+01 0. -1.
       -5    1    3    3    0  502 -0.46525831149E+02 -0.63334358012E+02 -0.12792703006E+03  0.15021088139E+03  0.46999998093E+01 0.  1.
</event>
<event>
 5   0  0.2759559E-02  0.8218902E+03  0.7818609E-02  0.9528861E-01
        1   -1    0    0  501    0  0.00000000000E+00  0.00000000000E+00  0.15592201949E+04  0.15592201949E+04  0.50400001928E-02 0.  1.
       -1   -1    0    0    0  501  0.00000000000E+00  0.00000000000E+00 -0.10830791394E+03  0.10830791405E+03  0.50400001928E-02 0. -1.
    10030    2    1    2    0    0  0.00000000000E+00  0.00000000000E+00  0.14509122809E+04  0.16675281089E+04  0.82189022814E+03 0.  0.
        3    1    3    3  502    0 -0.14895852045E+03 -0.24823349589E+03  0.13370263058E+03  0.31888071896E+03  0.10100000352E+00 0. -1.
       -3    1    3    3    0  502  0.14895852045E+03  0.24823349589E+03  0.13172096503E+04  0.13486473900E+04  0.10100000352E+00 0.  1.
</event>
<event>
 5   0  0.2689372E-02  0.7228843E+03  0.7818609E-02  0.9678878E-01
        1   -1    0    0  501    0  0.00000000000E+00  0.00000000000E+00  0.58687800633E+03  0.58687800635E+03  0.50400001928E-02 0.  1.
       -1   -1    0    0    0  501  0.00000000000E+00  0.00000000000E+00 -0.22260238537E+03  0.22260238543E+03  0.50400001928E-02 0. -1.
    10030    2    1    2    0    0  0.00000000000E+00  0.00000000000E+00  0.36427562095E+03  0.80948039178E+03  0.72288434528E+03 0.  0.
        4    1    3    3  502    0  0.17289484649E+03 -0.23689799286E+03 -0.54415634165E+02  0.29828838580E+03  0.12699999809E+01 0. -1.
       -4    1    3    3    0  502 -0.17289484649E+03  0.23689799286E+03  0.41869125512E+03  0.51119200598E+03  0.12699999809E+01 0.  1.
</event>
<event>
 5   0  0.2606520E-02  0.8534330E+03  0.7818609E-02  0.9485741E-01
       -1   -1    0    0    0  501  0.00000000000E+00  0.00000000000E+00  0.30336232720E+03  0.30336232725E+03  0.50400001928E-02 0.  1.
        1   -1    0    0  501    0  0.00000000000E+00  0.00000000000E+00 -0.60022938581E+03  0.60022938583E+03  0.50400001928E-02 0. -1.
    10030    2    1    2    0    0  0.00000000000E+00  0.00000000000E+00 -0.29686705860E+03  0.90359171308E+03  0.85343302810E+03 0.  0.
        5    1    3    3  502    0  0.13532251495E+03 -0.23141645217E+03 -0.49990646418E+03  0.56726917800E+03  0.46999998093E+01 0. -1.
       -5    1    3    3    0  502 -0.13532251495E+03  0.23141645217E+03  0.20303940557E+03  0.33632253508E+03  0.46999998093E+01 0.  1.
</event>
<event>
 5   0  0.4377843E-02  0.7813258E+03  0.7818609E-02  0.9587448E-01
        2   -1    0    0  501    0  0.00000000000E+00  0.00000000000E+00  0.21300218690E+03  0.21300218691E+03  0.25500000920E-02 0. -1.
       -2   -1    0    0    0  501  0.00000000000E+00  0.00000000000E+00 -0.71650676087E+03  0.71650676087E+03  0.25500000920E-02 0.  1.
    10030    2    1    2    0    0  0.00000000000E+00  0.00000000000E+00 -0.50350457397E+03  0.92950894778E+03  0.78132581424E+03 0.  0.
        2    1    3    3  502    0  0.29345150282E+03  0.25064138062E+03 -0.17955848682E+03  0.42564790189E+03  0.25500000920E-02 0. -1.
       -2    1    3    3    0  502 -0.29345150282E+03 -0.25064138062E+03 -0.32394608714E+03  0.50386104589E+03  0.25500000920E-02 0.  1.
</event>
<event>
 5   0  0.2769394E-02  0.8097956E+03  0.7818609E-02  0.9545946E-01
       -1   -1    0    0    0  501  0.00000000000E+00  0.00000000000E+00  0.54892625909E+03  0.54892625912E+03  0.50400001928E-02 0. -1.
        1   -1    0    0  501    0  0.00000000000E+00  0.00000000000E+00 -0.29865985955E+03  0.29865985959E+03  0.50400001928E-02 0.  1.
    10030    2    1    2    0    0  0.00000000000E+00  0.00000000000E+00  0.25026639954E+03  0.84758611871E+03  0.80979562724E+03 0.  0.
        2    1    3    3  502    0  0.20469707519E+03 -0.17033631308E+03  0.44436978232E+03  0.51805391186E+03  0.25500000920E-02 0. -1.
       -2    1    3    3    0  502 -0.20469707519E+03  0.17033631308E+03 -0.19410338278E+03  0.32953220686E+03  0.25500000920E-02 0.  1.
</event>
<event>
 5   0  0.4663634E-02  0.6955177E+03  0.7818609E-02  0.9724928E-01
       -2   -1    0    0    0  501  0.00000000000E+00  0.00000000000E+00  0.14842478058E+03  0.14842478060E+03  0.25500000920E-02 0. -1.
        2   -1    0    0  501    0  0.00000000000E+00  0.00000000000E+00 -0.81479797659E+03  0.81479797659E+03  0.25500000920E-02 0.  1.
    10030    2    1    2    0    0  0.00000000000E+00  0.00000000000E+00 -0.66637319600E+03  0.96322275720E+03  0.69551768031E+03 0.  0.
        5    1    3    3  502    0 -0.71554873235E+02 -0.30322645613E+03 -0.54705279661E+03  0.62956749905E+03  0.46999998093E+01 0.  1.
       -5    1    3    3    0  502  0.71554873235E+02  0.30322645613E+03 -0.11932039940E+03  0.33365525815E+03  0.46999998093E+01 0. -1.
</event>
<event>
 5   0  0.2635243E-02  0.7989333E+03  0.7818609E-02  0.9561562E-01
        1   -1    0    0  501    0  0.00000000000E+00  0.00000000000E+00  0.88305172159E+03  0.88305172160E+03  0.50400001928E-02 0. -1.
       -1   -1    0    0    0  501  0.00000000000E+00  0.00000000000E+00 -0.18070695468E+03  0.18070695475E+03  0.50400001928E-02 0.  1.
    10030    2    1    2    0    0  0.00000000000E+00  0.00000000000E+00  0.70234476691E+03  0.10637586764E+04  0.79893325748E+03 0.  0.
        1    1    3    3  502    0  0.16765127066E+03  0.74393974080E+02  0.82367146460E+03  0.84384601294E+03  0.50400001928E-02 0. -1.
       -1    1    3    3    0  502 -0.16765127066E+03 -0.74393974080E+02 -0.12132669769E+03  0.21991266342E+03  0.50400001928E-02 0.  1.
</event>
<event>
 5   0  0.4590462E-02  0.9473826E+03  0.7818609E-02  0.9368215E-01
       -2   -1    0    0    0  501  0.00000000000E+00  0.00000000000E+00  0.90503415573E+02  0.90503415609E+02  0.25500000920E-02 0. -1.
        2   -1    0    0  501    0  0.00000000000E+00  0.00000000000E+00 -0.24792814493E+04  0.24792814493E+04  0.25500000920E-02 0.  1.
    10030    2    1    2    0    0  0.00000000000E+00  0.00000000000E+00 -0.23887780337E+04  0.25697848649E+04  0.94738258244E+03 0.  0.
        3    1    3    3  502    0  0.43546076010E+03  0.17597655866E+03 -0.13613705419E+04  0.14401123516E+04  0.10100000352E+00 0.  1.
       -3    1    3    3    0  502 -0.43546076010E+03 -0.17597655866E+03 -0.10274074919E+04  0.11296725133E+04  0.10100000352E+00 0. -1.
</event>
<event>
 5   0  0.4663634E-02  0.8016332E+03  0.7818609E-02  0.9557656E-01
        2   -1    0    0  501    0  0.00000000000E+00  0.00000000000E+00  0.22327073295E+03  0.22327073296E+03  0.25500000920E-02 0.  1.
       -2   -1    0    0    0  501  0.00000000000E+00  0.00000000000E+00 -0.71954776418E+03  0.71954776418E+03  0.25500000920E-02 0. -1.
    10030    2    1    2    0    0  0.00000000000E+00  0.00000000000E+00 -0.49627703123E+03  0.94281849715E+03  0.80163322463E+03 0.  0.
        5    1    3    3  502    0  0.18456102233E+02  0.29865695848E+03 -0.56173610057E+03  0.63647949161E+03  0.46999998093E+01 0. -1.
       -5    1    3    3    0  502 -0.18456102233E+02 -0.29865695848E+03  0.65459069342E+02  0.30633900554E+03  0.46999998093E+01 0.  1.
</event>
<event>
 5   0  0.4663634E-02  0.7976118E+03  0.7818609E-02  0.9563480E-01
       -2   -1    0    0    0  501  0.00000000000E+00  0.00000000000E+00  0.56890121467E+02  0.56890121524E+02  0.25500000920E-02 0. -1.
        2   -1    0    0  501    0  0.00000000000E+00  0.00000000000E+00 -0.27956722241E+04  0.27956722241E+04  0.25500000920E-02 0.  1.
    10030    2    1    2    0    0  0.00000000000E+00  0.00000000000E+00 -0.27387821027E+04  0.28525623457E+04  0.79761176646E+03 0.  0.
        5    1    3    3  502    0  0.11079539578E+03 -0.25322980090E+03 -0.23973938841E+04  0.24132800246E+04  0.46999998093E+01 0.  1.
       -5    1    3    3    0  502 -0.11079539578E+03  0.25322980090E+03 -0.34138821859E+03  0.43928232105E+03  0.46999998093E+01 0. -1.
</event>
<event>
 5   0  0.4590462E-02  0.8031352E+03  0.7818609E-02  0.9555490E-01
        2   -1    0    0  501    0  0.00000000000E+00  0.00000000000E+00  0.21800913959E+03  0.21800913961E+03  0.25500000920E-02 0. -1.
       -2   -1    0    0    0  501  0.00000000000E+00  0.00000000000E+00 -0.73967786014E+03  0.73967786014E+03  0.25500000920E-02 0.  1.
    10030    2    1    2    0    0  0.00000000000E+00  0.00000000000E+00 -0.52166872054E+03  0.95768699975E+03  0.80313519130E+03 0.  0.
        3    1    3    3  502    0 -0.29794927252E+03 -0.16008438396E+03 -0.27175091037E+01  0.33824277382E+03  0.10100000352E+00 0. -1.
       -3    1    3    3    0  502  0.29794927252E+03  0.16008438396E+03 -0.51895121144E+03  0.61944422593E+03  0.10100000352E+00 0.  1.
</event>
<event>
 5   0  0.2635243E-02  0.8416506E+03  0.7818609E-02  0.9501612E-01
        1   -1    0    0  501    0  0.00000000000E+00  0.00000000000E+00  0.25869751561E+03  0.25869751566E+03  0.50400001928E-02 0. -1.
       -1   -1    0    0    0  501  0.00000000000E+00  0.00000000000E+00 -0.68455984959E+03  0.68455984961E+03  0.50400001928E-02 0.  1.
    10030    2    1    2    0    0  0.00000000000E+00  0.00000000000E+00 -0.42586233398E+03  0.94325736527E+03  0.84165059831E+03 0.  0.
        1    1    3    3  502    0 -0.38671298128E+03 -0.14478021653E+03 -0.12198193073E+03  0.43056687336E+03  0.50400001928E-02 0. -1.
       -1    1    3    3    0  502  0.38671298128E+03  0.14478021653E+03 -0.30388040325E+03  0.51269049191E+03  0.50400001928E-02 0.  1.
</event>
<event>
 5   0  0.2769394E-02  0.7830252E+03  0.7818609E-02  0.9584918E-01
        1   -1    0    0  501    0  0.00000000000E+00  0.00000000000E+00  0.44058021912E+03  0.44058021914E+03  0.50400001928E-02 0.  1.
       -1   -1    0    0    0  501  0.00000000000E+00  0.00000000000E+00 -0.34790966446E+03  0.34790966450E+03  0.50400001928E-02 0. -1.
    10030    2    1    2    0    0  0.00000000000E+00  0.00000000000E+00  0.92670554654E+02  0.78848988364E+03  0.78302520068E+03 0.  0.
        2    1    3    3  502    0 -0.21682414886E+03  0.65701725800E+02 -0.27519340911E+03  0.35645594500E+03  0.25500000920E-02 0. -1.
       -2    1    3    3    0  502  0.21682414886E+03 -0.65701725800E+02  0.36786396376E+03  0.43203393865E+03  0.25500000920E-02 0.  1.
</event>
<event>
 5   0  0.2606520E-02  0.7910103E+03  0.7818609E-02  0.9573121E-01
        1   -1    0    0  501    0  0.00000000000E+00  0.00000000000E+00  0.44528619607E+03  0.44528619610E+03  0.50400001928E-02 0.  1.
       -1   -1    0    0    0  501  0.00000000000E+00  0.00000000000E+00 -0.35128943965E+03  0.35128943968E+03  0.50400001928E-02 0. -1.
    10030    2    1    2    0    0  0.00000000000E+00  0.00000000000E+00  0.93996756423E+02  0.79657563578E+03  0.79101033704E+03 0.  0.
        5    1    3    3  502    0  0.18463159087E+03 -0.34215592753E+03 -0.25917856961E+02  0.38968362604E+03  0.46999998093E+01 0.  1.
       -5    1    3    3    0  502 -0.18463159087E+03  0.34215592753E+03  0.11991461338E+03  0.40689200974E+03  0.46999998093E+01 0. -1.
</event>
<event>
 5   0  0.4377843E-02  0.7978741E+03  0.7818609E-02  0.9563099E-01
        2   -1    0    0  501    0  0.00000000000E+00  0.00000000000E+00  0.79133810405E+03  0.79133810405E+03  0.25500000920E-02 0. -1.
       -2   -1    0    0    0  501  0.00000000000E+00  0.00000000000E+00 -0.20111601929E+03  0.20111601931E+03  0.25500000920E-02 0.  1.
    10030    2    1    2    0    0  0.00000000000E+00  0.00000000000E+00  0.59022208476E+03  0.99245412336E+03  0.79787409886E+03 0.  0.
        2    1    3    3  502    0  0.20750318939E+03 -0.24780768100E+03  0.58598737837E+03  0.66921403749E+03  0.25500000920E-02 0. -1.
       -2    1    3    3    0  502 -0.20750318939E+03  0.24780768100E+03  0.42347063921E+01  0.32324008587E+03  0.25500000920E-02 0.  1.
</event>
<event>
 5   0  0.2759559E-02  0.6802843E+03  0.7818609E-02  0.9751556E-01
        1   -1    0    0  501    0  0.00000000000E+00  0.00000000000E+00  0.32916451426E+03  0.32916451430E+03  0.50400001928E-02 0.  1.
       -1   -1    0    0    0  501  0.00000000000E+00  0.00000000000E+00 -0.35148588968E+03  0.35148588971E+03  0.50400001928E-02 0. -1.
    10030    2    1    2    0    0  0.00000000000E+00  0.00000000000E+00 -0.22321375417E+02  0.68065040401E+03  0.68028429989E+03 0.  0.
        3    1    3    3  502    0 -0.26521975771E+03  0.19391752278E+03  0.76927287980E+02  0.33743642862E+03  0.10100000352E+00 0. -1.
       -3    1    3    3    0  502  0.26521975771E+03 -0.19391752278E+03 -0.99248663397E+02  0.34321397540E+03  0.10100000352E+00 0.  1.
</event>
<event>
 5   0  0.2689372E-02  0.8221105E+03  0.7818609E-02  0.9528553E-01
       -1   -1    0    0    0  501  0.00000000000E+00  0.00000000000E+00  0.62604364843E+03  0.62604364845E+03  0.50400001928E-02 0. -1.
        1   -1    0    0  501    0  0.00000000000E+00  0.00000000000E+00 -0.26989556666E+03  0.26989556671E+03  0.50400001928E-02 0.  1.
    10030    2    1    2    0    0  0.00000000000E+00  0.00000000000E+00  0.35614808176E+03  0.89593921516E+03  0.82211046771E+03 0.  0.
        4    1    3    3  502    0 -0.74381040882E+02  0.30341545918E+03  0.46921962606E+03  0.56370395643E+03  0.12699999809E+01 0. -1.
       -4    1    3    3    0  502  0.74381040882E+02 -0.30341545918E+03 -0.11307154430E+03  0.33223525873E+03  0.12699999809E+01 0.  1.
</event>
<event>
 5   0  0.4700220E-02  0.7636703E+03  0.7818609E-02  0.9614145E-01
       -2   -1    0    0    0  501  0.00000000000E+00  0.00000000000E+00  0.68854070639E+03  0.68854070639E+03  0.25500000920E-02 0. -1.
        2   -1    0    0  501    0  0.00000000000E+00  0.00000000000E+00 -0.21174942184E+03  0.21174942185E+03  0.25500000920E-02 0.  1.
    10030    2    1    2    0    0  0.00000000000E+00  0.00000000000E+00  0.47679128455E+03  0.90029012825E+03  0.76367033856E+03 0.  0.
        4    1    3    3  502    0 -0.82102989538E+02 -0.24717542629E+03 -0.90768241608E+02  0.27582073678E+03  0.12699999809E+01 0.  1.
       -4    1    3    3    0  502  0.82102989538E+02  0.24717542629E+03  0.56755952616E+03  0.62446939147E+03  0.12699999809E+01 0. -1.
</event>
<event>
 5   0  0.1786500E-02  0.4423612E+03  0.7818609E-02  0.1030025E+00
        3   -1    0    0  501    0  0.00000000000E+00  0.00000000000E+00  0.81595697582E+03  0.81595698207E+03  0.10100000352E+00 0.  1.
       -3   -1    0    0    0  501  0.00000000000E+00  0.00000000000E+00 -0.59955138828E+02  0.59955223900E+02  0.10100000352E+00 0. -1.
    10030    2    1    2    0    0  0.00000000000E+00  0.00000000000E+00  0.75600183699E+03  0.87591220597E+03  0.44236118165E+03 0.  0.
        3    1    3    3  502    0  0.10735708065E+02  0.62705110976E+02 -0.41448215192E+02  0.75928592202E+02  0.10100000352E+00 0. -1.
       -3    1    3    3    0  502 -0.10735708065E+02 -0.62705110976E+02  0.79745005218E+03  0.79998361377E+03  0.10100000352E+00 0.  1.
</event>
<event>
 5   0  0.2689372E-02  0.7684861E+03  0.7818609E-02  0.9606787E-01
       -1   -1    0    0    0  501  0.00000000000E+00  0.00000000000E+00  0.15200224638E+03  0.15200224647E+03  0.50400001928E-02 0. -1.
        1   -1    0    0  501    0  0.00000000000E+00  0.00000000000E+00 -0.97131927981E+03  0.97131927983E+03  0.50400001928E-02 0.  1.
    10030    2    1    2    0    0  0.00000000000E+00  0.00000000000E+00 -0.81931703343E+03  0.11233215263E+04  0.76848607675E+03 0.  0.
        4    1    3    3  502    0  0.65358651331E+02  0.56808072569E+02  0.13754959503E+03  0.16254357694E+03  0.12699999809E+01 0. -1.
       -4    1    3    3    0  502 -0.65358651331E+02 -0.56808072569E+02 -0.95686662845E+03  0.96077794935E+03  0.12699999809E+01 0.  1.
</event>
<event>
 5   0  0.2689372E-02  0.7629767E+03  0.7818609E-02  0.9615209E-01
        1   -1    0    0  501    0  0.00000000000E+00  0.00000000000E+00  0.62733238406E+03  0.62733238408E+03  0.50400001928E-02 0. -1.
       -1   -1    0    0    0  501  0.00000000000E+00  0.00000000000E+00 -0.23198761948E+03  0.23198761954E+03  0.50400001928E-02 0.  1.
    10030    2    1    2    0    0  0.00000000000E+00  0.00000000000E+00  0.39534476458E+03  0.85932000362E+03  0.76297666134E+03 0.  0.
        4    1    3    3  502    0  0.19764763444E+03  0.25734101867E+03  0.42360944226E+03  0.53360618415E+03  0.12699999809E+01 0.  1.
       -4    1    3    3    0  502 -0.19764763444E+03 -0.25734101867E+03 -0.28264677680E+02  0.32571381947E+03  0.12699999809E+01 0. -1.
</event>
<event>
 5   0  0.2635243E-02  0.8092125E+03  0.7818609E-02  0.9546777E-01
        1   -1    0    0  501    0  0.00000000000E+00  0.00000000000E+00  0.36612284158E+03  0.36612284162E+03  0.50400001928E-02 0.  1.
       -1   -1    0    0    0  501  0.00000000000E+00  0.00000000000E+00 -0.44713464459E+03  0.44713464462E+03  0.50400001928E-02 0. -1.
    10030    2    1    2    0    0  0.00000000000E+00  0.00000000000E+00 -0.81011803011E+02  0.81325748624E+03  0.80921247314E+03 0.  0.
        1    1    3    3  502    0  0.36263278382E+03 -0.10721893264E+03  0.10411537170E+03  0.39222244463E+03  0.50400001928E-02 0. -1.
       -1    1    3    3    0  502 -0.36263278382E+03  0.10721893264E+03 -0.18512717471E+03  0.42103504161E+03  0.50400001928E-02 0.  1.
</event>
<event>
 5   0  0.4684283E-02  0.8289100E+03  0.7818609E-02  0.9519089E-01
       -2   -1    0    0    0  501  0.00000000000E+00  0.00000000000E+00  0.15125148133E+03  0.15125148135E+03  0.25500000920E-02 0.  1.
        2   -1    0    0  501    0  0.00000000000E+00  0.00000000000E+00 -0.11356778713E+04  0.11356778713E+04  0.25500000920E-02 0. -1.
    10030    2    1    2    0    0  0.00000000000E+00  0.00000000000E+00 -0.98442638999E+03  0.12869293527E+04  0.82891003219E+03 0.  0.
        1    1    3    3  502    0 -0.54758462296E+02  0.19658563780E+03 -0.10522719872E+04  0.10718772025E+04  0.50400001928E-02 0. -1.
       -1    1    3    3    0  502  0.54758462296E+02 -0.19658563780E+03  0.67845597251E+02  0.21505215013E+03  0.50400001928E-02 0.  1.
</event>
<event>
 5   0  0.2759559E-02  0.8234814E+03  0.7818609E-02  0.9526637E-01
       -1   -1    0    0    0  501  0.00000000000E+00  0.00000000000E+00  0.36406742207E+03  0.36406742211E+03  0.50400001928E-02 0. -1.
        1   -1    0    0  501    0  0.00000000000E+00  0.00000000000E+00 -0.46565657767E+03  0.46565657769E+03  0.50400001928E-02 0.  1.
    10030    2    1    2    0    0  0.00000000000E+00  0.00000000000E+00 -0.10158915559E+03  0.82972399980E+03  0.82348136549E+03 0.  0.
        3    1    3    3  502    0 -0.28109983615E+02  0.31863609011E+03 -0.31201123305E+03  0.44684465852E+03  0.10100000352E+00 0. -1.
       -3    1    3    3    0  502  0.28109983615E+02 -0.31863609011E+03  0.21042207745E+03  0.38287934128E+03  0.10100000352E+00 0.  1.
</event>
<event>
 5   0  0.4377843E-02  0.7983066E+03  0.7818609E-02  0.9562471E-01
        2   -1    0    0  501    0  0.00000000000E+00  0.00000000000E+00  0.70050397784E+03  0.70050397785E+03  0.25500000920E-02 0. -1.
       -2   -1    0    0    0  501  0.00000000000E+00  0.00000000000E+00 -0.22744107239E+03  0.22744107241E+03  0.25500000920E-02 0.  1.
    10030    2    1    2    0    0  0.00000000000E+00  0.00000000000E+00  0.47306290545E+03  0.92794505026E+03  0.79830664771E+03 0.  0.
        2    1    3    3  502    0  0.18206381774E+03  0.40156748235E+02 -0.17371803805E+03  0.25482887378E+03  0.25500000920E-02 0.  1.
       -2    1    3    3    0  502 -0.18206381774E+03 -0.40156748235E+02  0.64678094350E+03  0.67311617648E+03  0.25500000920E-02 0. -1.
</event>
<event>
 5   0  0.4590462E-02  0.8384193E+03  0.7818609E-02  0.9506013E-01
        2   -1    0    0  501    0  0.00000000000E+00  0.00000000000E+00  0.40164777034E+03  0.40164777035E+03  0.25500000920E-02 0. -1.
       -2   -1    0    0    0  501  0.00000000000E+00  0.00000000000E+00 -0.43753939925E+03  0.43753939926E+03  0.25500000920E-02 0.  1.
    10030    2    1    2    0    0  0.00000000000E+00  0.00000000000E+00 -0.35891628908E+02  0.83918716961E+03  0.83841928449E+03 0.  0.
        3    1    3    3  502    0  0.33501751198E+03 -0.23793465441E+03  0.65118630422E+02  0.41604095872E+03  0.10100000352E+00 0.  1.
       -3    1    3    3    0  502 -0.33501751198E+03  0.23793465441E+03 -0.10101025933E+03  0.42314621089E+03  0.10100000352E+00 0. -1.
</event>
<event>
 5   0  0.1786500E-02  0.7819902E+03  0.7818609E-02  0.9586458E-01
       -3   -1    0    0    0  501  0.00000000000E+00  0.00000000000E+00  0.15392612022E+03  0.15392615335E+03  0.10100000352E+00 0. -1.
        3   -1    0    0  501    0  0.00000000000E+00  0.00000000000E+00 -0.99318508719E+03  0.99318509232E+03  0.10100000352E+00 0.  1.
    10030    2    1    2    0    0  0.00000000000E+00  0.00000000000E+00 -0.83925896697E+03  0.11471112457E+04  0.78199015103E+03 0.  0.
        4    1    3    3  502    0 -0.48968371373E+02  0.23920939550E+03  0.28335234323E+02  0.24581199054E+03  0.12699999809E+01 0. -1.
       -4    1    3    3    0  502  0.48968371373E+02 -0.23920939550E+03 -0.86759420130E+03  0.90129925514E+03  0.12699999809E+01 0.  1.
</event>
<event>
 5   0  0.2606520E-02  0.7987273E+03  0.7818609E-02  0.9561861E-01
       -1   -1    0    0    0  501  0.00000000000E+00  0.00000000000E+00  0.51100089758E+03  0.51100089761E+03  0.50400001928E-02 0.  1.
        1   -1    0    0  501    0  0.00000000000E+00  0.00000000000E+00 -0.31211556116E+03  0.31211556120E+03  0.50400001928E-02 0. -1.
    10030    2    1    2    0    0  0.00000000000E+00  0.00000000000E+00  0.19888533642E+03  0.82311645881E+03  0.79872731750E+03 0.  0.
        5    1    3    3  502    0 -0.12529763851E+03  0.27248088643E+03  0.37116782174E+03  0.47721376089E+03  0.46999998093E+01 0.  1.
       -5    1    3    3    0  502  0.12529763851E+03 -0.27248088643E+03 -0.17228248532E+03  0.34590269793E+03  0.46999998093E+01 0. -1.
</event>
<event>
 5   0  0.4700220E-02  0.8736403E+03  0.7818609E-02  0.9459146E-01
        2   -1    0    0  501    0  0.00000000000E+00  0.00000000000E+00  0.98445493581E+03  0.98445493581E+03  0.25500000920E-02 0.  1.
       -2   -1    0    0    0  501  0.00000000000E+00  0.00000000000E+00 -0.19382484999E+03  0.19382485001E+03  0.25500000920E-02 0. -1.
    10030    2    1    2    0    0  0.00000000000E+00  0.00000000000E+00  0.79063008581E+03  0.11782797858E+04  0.87364026984E+03 0.  0.
        4    1    3    3  502    0 -0.15400790421E+03 -0.32030656052E+03  0.52799363972E+02  0.35931060798E+03  0.12699999809E+01 0. -1.
       -4    1    3    3    0  502  0.15400790421E+03  0.32030656052E+03  0.73783072184E+03  0.81896917784E+03  0.12699999809E+01 0.  1.
</event>
<event>
 5   0  0.4700220E-02  0.7946585E+03  0.7818609E-02  0.9567781E-01
       -2   -1    0    0    0  501  0.00000000000E+00  0.00000000000E+00  0.13052143153E+03  0.13052143155E+03  0.25500000920E-02 0. -1.
        2   -1    0    0  501    0  0.00000000000E+00  0.00000000000E+00 -0.12095371757E+04  0.12095371757E+04  0.25500000920E-02 0.  1.
    10030    2    1    2    0    0  0.00000000000E+00  0.00000000000E+00 -0.10790157442E+04  0.13400586073E+04  0.79465847677E+03 0.  0.
        4    1    3    3  502    0  0.27611578406E+03 -0.17711401767E+03 -0.91756099185E+03  0.97443783185E+03  0.12699999809E+01 0.  1.
       -4    1    3    3    0  502 -0.27611578406E+03  0.17711401767E+03 -0.16145475232E+03  0.36562077541E+03  0.12699999809E+01 0. -1.
</event>
<event>
 5   0  0.4377843E-02  0.8541844E+03  0.7818609E-02  0.9484738E-01
        2   -1    0    0  501    0  0.00000000000E+00  0.00000000000E+00  0.98066622550E+03  0.98066622550E+03  0.25500000920E-02 0. -1.
       -2   -1    0    0    0  501  0.00000000000E+00  0.00000000000E+00 -0.18600388773E+03  0.18600388775E+03  0.25500000920E-02 0.  1.
    10030    2    1    2    0    0  0.00000000000E+00  0.00000000000E+00  0.79466233777E+03  0.11666701133E+04  0.85418436071E+03 0.  0.
        2    1    3    3  502    0  0.44006210690E+02  0.42221234870E+03  0.46150940605E+03  0.62704923718E+03  0.25500000920E-02 0. -1.
       -2    1    3    3    0  502 -0.44006210690E+02 -0.42221234870E+03  0.33315293172E+03  0.53962087607E+03  0.25500000920E-02 0.  1.
</event>
<event>
 5   0  0.2606520E-02  0.8131382E+03  0.7818609E-02  0.9541192E-01
       -1   -1    0    0    0  501  0.00000000000E+00  0.00000000000E+00  0.37524620801E+03  0.37524620804E+03  0.50400001928E-02 0. -1.
        1   -1    0    0  501    0  0.00000000000E+00  0.00000000000E+00 -0.44050655160E+03  0.44050655162E+03  0.50400001928E-02 0.  1.
    10030    2    1    2    0    0  0.00000000000E+00  0.00000000000E+00 -0.65260343590E+02  0.81575275967E+03  0.81313815090E+03 0.  0.
        5    1    3    3  502    0  0.11098520535E+03 -0.34402992559E+03  0.15398413042E+03  0.39294720756E+03  0.46999998093E+01 0. -1.
       -5    1    3    3    0  502 -0.11098520535E+03  0.34402992559E+03 -0.21924447401E+03  0.42280555211E+03  0.46999998093E+01 0.  1.
</event>
<event>
 5   0  0.4590462E-02  0.1030921E+04  0.7818609E-02  0.9275267E-01
       -2   -1    0    0    0  501  0.00000000000E+00  0.00000000000E+00  0.19424976370E+03  0.19424976372E+03  0.25500000920E-02 0. -1.
        2   -1    0    0  501    0  0.00000000000E+00  0.00000000000E+00 -0.13678237484E+04  0.13678237484E+04  0.25500000920E-02 0.  1.
    10030    2    1    2    0    0  0.00000000000E+00  0.00000000000E+00 -0.11735739847E+04  0.15620735122E+04  0.10309208310E+04 0.  0.
        3    1    3    3  502    0 -0.47933853178E+03  0.14252908268E+02 -0.30037060334E+03  0.56585429485E+03  0.10100000352E+00 0. -1.
       -3    1    3    3    0  502  0.47933853178E+03 -0.14252908268E+02 -0.87320338140E+03  0.99621921731E+03  0.10100000352E+00 0.  1.
</event>
<event>
 5   0  0.2606520E-02  0.8035357E+03  0.7818609E-02  0.9554913E-01
        1   -1    0    0  501    0  0.00000000000E+00  0.00000000000E+00  0.38684454259E+03  0.38684454262E+03  0.50400001928E-02 0.  1.
       -1   -1    0    0    0  501  0.00000000000E+00  0.00000000000E+00 -0.41726690191E+03  0.41726690194E+03  0.50400001928E-02 0. -1.
    10030    2    1    2    0    0  0.00000000000E+00  0.00000000000E+00 -0.30422359319E+02  0.80411144456E+03  0.80353574614E+03 0.  0.
        5    1    3    3  502    0 -0.18562093667E+03  0.35468764498E+03 -0.48952931675E+02  0.40333229123E+03  0.46999998093E+01 0. -1.
       -5    1    3    3    0  502  0.18562093667E+03 -0.35468764498E+03  0.18530572356E+02  0.40077915333E+03  0.46999998093E+01 0.  1.
</event>
<event>
 5   0  0.2759559E-02  0.8088187E+03  0.7818609E-02  0.9547339E-01
        1   -1    0    0  501    0  0.00000000000E+00  0.00000000000E+00  0.81715822863E+03  0.81715822864E+03  0.50400001928E-02 0.  1.
       -1   -1    0    0    0  501  0.00000000000E+00  0.00000000000E+00 -0.20014107271E+03  0.20014107277E+03  0.50400001928E-02 0. -1.
    10030    2    1    2    0    0  0.00000000000E+00  0.00000000000E+00  0.61701715592E+03  0.10172993014E+04  0.80881870524E+03 0.  0.
        3    1    3    3  502    0  0.13250332506E+03  0.23629677145E+03 -0.69141120455E+02  0.27959577981E+03  0.10100000352E+00 0. -1.
       -3    1    3    3    0  502 -0.13250332506E+03 -0.23629677145E+03  0.68615827638E+03  0.73770352161E+03  0.10100000352E+00 0.  1.
</event>
<event>
 5   0  0.1786500E-02  0.7984311E+03  0.7818609E-02  0.9562291E-01
        3   -1    0    0  501    0  0.00000000000E+00  0.00000000000E+00  0.46845619495E+03  0.46845620584E+03  0.10100000352E+00 0. -1.
       -3   -1    0    0    0  501  0.00000000000E+00  0.00000000000E+00 -0.34020908810E+03  0.34020910309E+03  0.10100000352E+00 0.  1.
    10030    2    1    2    0    0  0.00000000000E+00  0.00000000000E+00  0.12824710685E+03  0.80866530893E+03  0.79843112505E+03 0.  0.
        2    1    3    3  502    0 -0.30177900855E+03  0.65738203956E+02 -0.19206328326E+03  0.36370370667E+03  0.25500000920E-02 0.  1.
       -2    1    3    3    0  502  0.30177900855E+03 -0.65738203956E+02  0.32031039011E+03  0.44496160226E+03  0.25500000920E-02 0. -1.
</event>
<event>
 5   0  0.4700220E-02  0.8199361E+03  0.7818609E-02  0.9531600E-01
        2   -1    0    0  501    0  0.00000000000E+00  0.00000000000E+00  0.99111496351E+03  0.99111496351E+03  0.25500000920E-02 0.  1.
       -2   -1    0    0    0  501  0.00000000000E+00  0.00000000000E+00 -0.16958051430E+03  0.16958051432E+03  0.25500000920E-02 0. -1.
    10030    2    1    2    0    0  0.00000000000E+00  0.00000000000E+00  0.82153444920E+03  0.11606954778E+04  0.81993605912E+03 0.  0.
        4    1    3    3  502    0 -0.27166488650E+03  0.17671353419E+02  0.84468294513E+03  0.88747111389E+03  0.12699999809E+01 0.  1.
       -4    1    3    3    0  502  0.27166488650E+03 -0.17671353419E+02 -0.23148495934E+02  0.27322436394E+03  0.12699999809E+01 0. -1.
</event>
<event>
 5   0  0.2689372E-02  0.7377790E+03  0.7818609E-02  0.9654721E-01
       -1   -1    0    0    0  501  0.00000000000E+00  0.00000000000E+00  0.15109028205E+03  0.15109028214E+03  0.50400001928E-02 0. -1.
        1   -1    0    0  501    0  0.00000000000E+00  0.00000000000E+00 -0.90064989488E+03  0.90064989490E+03  0.50400001928E-02 0.  1.
    10030    2    1    2    0    0  0.00000000000E+00  0.00000000000E+00 -0.74955961283E+03  0.10517401770E+04  0.73777895524E+03 0.  0.
        4    1    3    3  502    0 -0.94388604655E+02  0.77538832082E+02 -0.87097813877E+03  0.87950327474E+03  0.12699999809E+01 0.  1.
       -4    1    3    3    0  502  0.94388604655E+02 -0.77538832082E+02  0.12141852594E+03  0.17223690229E+03  0.12699999809E+01 0. -1.
</event>
<event>
 5   0  0.2759559E-02  0.7906893E+03  0.7818609E-02  0.9573593E-01
        1   -1    0    0  501    0  0.00000000000E+00  0.00000000000E+00  0.77742128609E+03  0.77742128611E+03  0.50400001928E-02 0. -1.
       -1   -1    0    0    0  501  0.00000000000E+00  0.00000000000E+00 -0.20104593138E+03  0.20104593145E+03  0.50400001928E-02 0.  1.
    10030    2    1    2    0    0  0.00000000000E+00  0.00000000000E+00  0.57637535471E+03  0.97846721755E+03  0.79068928557E+03 0.  0.
        3    1    3    3  502    0  0.93059352851E+02  0.34778333105E+03  0.49033435452E+03  0.60831001794E+03  0.10100000352E+00 0. -1.
       -3    1    3    3    0  502 -0.93059352851E+02 -0.34778333105E+03  0.86041000184E+02  0.37015719961E+03  0.10100000352E+00 0.  1.
</event>
<event>
 5   0  0.4377843E-02  0.8059912E+03  0.7818609E-02  0.9551385E-01
        2   -1    0    0  501    0  0.00000000000E+00  0.00000000000E+00  0.18097519164E+03  0.18097519166E+03  0.25500000920E-02 0.  1.
       -2   -1    0    0    0  501  0.00000000000E+00  0.00000000000E+00 -0.89739078591E+03  0.89739078592E+03  0.25500000920E-02 0. -1.
    10030    2    1    2    0    0  0.00000000000E+00  0.00000000000E+00 -0.71641559427E+03  0.10783659776E+04  0.80599123933E+03 0.  0.
        2    1    3    3  502    0  0.36950817441E+03  0.79399133846E+02 -0.17106406143E+03  0.41485350008E+03  0.25500000920E-02 0.  1.
       -2    1    3    3    0  502 -0.36950817441E+03 -0.79399133846E+02 -0.54535153284E+03  0.66351247750E+03  0.25500000920E-02 0. -1.
</event>
<event>
 5   0  0.2759559E-02  0.8000759E+03  0.7818609E-02  0.9559907E-01
        1   -1    0    0  501    0  0.00000000000E+00  0.00000000000E+00  0.29608027012E+03  0.29608027016E+03  0.50400001928E-02 0. -1.
       -1   -1    0    0    0  501  0.00000000000E+00  0.00000000000E+00 -0.54049652496E+03  0.54049652498E+03  0.50400001928E-02 0.  1.
    10030    2    1    2    0    0  0.00000000000E+00  0.00000000000E+00 -0.24441625484E+03  0.83657679514E+03  0.80007588923E+03 0.  0.
        3    1    3    3  502    0  0.43050608596E+02  0.33218123977E+03 -0.35089261065E+03  0.48510139699E+03  0.10100000352E+00 0.  1.
       -3    1    3    3    0  502 -0.43050608596E+02 -0.33218123977E+03  0.10647635581E+03  0.35147539815E+03  0.10100000352E+00 0. -1.
</event>
<event>
 5   0  0.4700220E-02  0.8171580E+03  0.7818609E-02  0.9535508E-01
       -2   -1    0    0    0  501  0.00000000000E+00  0.00000000000E+00  0.15890210966E+03  0.15890210968E+03  0.25500000920E-02 0.  1.
        2   -1    0    0  501    0  0.00000000000E+00  0.00000000000E+00 -0.10505638181E+04  0.10505638181E+04  0.25500000920E-02 0. -1.
    10030    2    1    2    0    0  0.00000000000E+00  0.00000000000E+00 -0.89166170845E+03  0.12094659278E+04  0.81715801909E+03 0.  0.
        4    1    3    3  502    0  0.13004822572E+03  0.34692809542E+03 -0.19091364726E+03  0.41679884599E+03  0.12699999809E+01 0.  1.
       -4    1    3    3    0  502 -0.13004822572E+03 -0.34692809542E+03 -0.70074806118E+03  0.79266708179E+03  0.12699999809E+01 0. -1.
</event>
<event>
 5   0  0.4684283E-02  0.8058929E+03  0.7818609E-02  0.9551526E-01
        2   -1    0    0  501    0  0.00000000000E+00  0.00000000000E+00  0.14747504026E+04  0.14747504026E+04  0.25500000920E-02 0. -1.
       -2   -1    0    0    0  501  0.00000000000E+00  0.00000000000E+00 -0.11009715849E+03  0.11009715852E+03  0.25500000920E-02 0.  1.
    10030    2    1    2    0    0  0.00000000000E+00  0.00000000000E+00  0.13646532441E+04  0.15848475611E+04  0.80589286838E+03 0.  0.
        1    1    3    3  502    0  0.29088844955E+03 -0.53674495510E+02  0.12204236365E+04  0.12557590908E+04  0.50400001928E-02 0. -1.
       -1    1    3    3    0  502 -0.29088844955E+03  0.53674495510E+02  0.14422960756E+03  0.32908847028E+03  0.50400001928E-02 0.  1.
</event>
<event>
 5   0  0.4590462E-02  0.7921291E+03  0.7818609E-02  0.9571480E-01
        2   -1    0    0  501    0  0.00000000000E+00  0.00000000000E+00  0.17723410900E+03  0.17723410902E+03  0.25500000920E-02 0.  1.
       -2   -1    0    0    0  501  0.00000000000E+00  0.00000000000E+00 -0.88508425058E+03  0.88508425058E+03  0.25500000920E-02 0. -1.
    10030    2    1    2    0    0  0.00000000000E+00  0.00000000000E+00 -0.70785014157E+03  0.10623183596E+04  0.79212907674E+03 0.  0.
        3    1    3    3  502    0  0.74896793647E+02 -0.15121462024E+02 -0.87510632955E+03  0.87843570427E+03  0.10100000352E+00 0. -1.
       -3    1    3    3    0  502 -0.74896793647E+02  0.15121462024E+02  0.16725618798E+03  0.18388265533E+03  0.10100000352E+00 0.  1.
</event>
<event>
 5   0  0.4590462E-02  0.7925132E+03  0.7818609E-02  0.9570918E-01
        2   -1    0    0  501    0  0.00000000000E+00  0.00000000000E+00  0.10917915309E+04  0.10917915309E+04  0.25500000920E-02 0. -1.
       -2   -1    0    0    0  501  0.00000000000E+00  0.00000000000E+00 -0.14381802568E+03  0.14381802570E+03  0.25500000920E-02 0.  1.
    10030    2    1    2    0    0  0.00000000000E+00  0.00000000000E+00  0.94797350518E+03  0.12356095566E+04  0.79251322371E+03 0.  0.
        3    1    3    3  502    0 -0.17623866975E+03  0.16244514938E+03  0.96595914523E+03  0.99525151380E+03  0.10100000352E+00 0. -1.
       -3    1    3    3    0  502  0.17623866975E+03 -0.16244514938E+03 -0.17985640048E+02  0.24035804276E+03  0.10100000352E+00 0.  1.
</event>
<event>
 5   0  0.4663634E-02  0.7804205E+03  0.7818609E-02  0.9588798E-01
       -2   -1    0    0    0  501  0.00000000000E+00  0.00000000000E+00  0.70000784738E+02  0.70000784784E+02  0.25500000920E-02 0.  1.
        2   -1    0    0  501    0  0.00000000000E+00  0.00000000000E+00 -0.21751763324E+04  0.21751763324E+04  0.25500000920E-02 0. -1.
    10030    2    1    2    0    0  0.00000000000E+00  0.00000000000E+00 -0.21051755477E+04  0.22451771172E+04  0.78042052835E+03 0.  0.
        5    1    3    3  502    0 -0.62954450837E+02  0.37808781901E+03 -0.12625862756E+04  0.13194922717E+04  0.46999998093E+01 0.  1.
       -5    1    3    3    0  502  0.62954450837E+02 -0.37808781901E+03 -0.84258927208E+03  0.92568484550E+03  0.46999998093E+01 0. -1.
</event>
<event>
 5   0  0.2759559E-02  0.8017881E+03  0.7818609E-02  0.9557432E-01
        1   -1    0    0  501    0  0.00000000000E+00  0.00000000000E+00  0.45773062728E+03  0.45773062731E+03  0.50400001928E-02 0. -1.
       -1   -1    0    0    0  501  0.00000000000E+00  0.00000000000E+00 -0.35111492707E+03  0.35111492711E+03  0.50400001928E-02 0.  1.
    10030    2    1    2    0    0  0.00000000000E+00  0.00000000000E+00  0.10661570021E+03  0.80884555441E+03  0.80178814120E+03 0.  0.
        3    1    3    3  502    0 -0.11746489857E+03 -0.27483839026E+03  0.32283345763E+03  0.43994953657E+03  0.10100000352E+00 0. -1.
       -3    1    3    3    0  502  0.11746489857E+03  0.27483839026E+03 -0.21621775743E+03  0.36889601785E+03  0.10100000352E+00 0.  1.
</event>
<event>
 5   0  0.2689372E-02  0.8623490E+03  0.7818609E-02  0.9473911E-01
       -1   -1    0    0    0  501  0.00000000000E+00  0.00000000000E+00  0.35021249570E+03  0.35021249573E+03  0.50400001928E-02 0.  1.
        1   -1    0    0  501    0  0.00000000000E+00  0.00000000000E+00 -0.53085326405E+03  0.53085326408E+03  0.50400001928E-02 0. -1.
    10030    2    1    2    0    0  0.00000000000E+00  0.00000000000E+00 -0.18064076836E+03  0.88106575981E+03  0.86234899311E+03 0.  0.
        4    1    3    3  502    0 -0.22975161768E+03  0.11247976359E+03 -0.44494503340E+03  0.51323990364E+03  0.12699999809E+01 0. -1.
       -4    1    3    3    0  502  0.22975161768E+03 -0.11247976359E+03  0.26430426504E+03  0.36782585617E+03  0.12699999809E+01 0.  1.
</event>
<event>
 5   0  0.4700220E-02  0.7804210E+03  0.7818609E-02  0.9588797E-01
        2   -1    0    0  501    0  0.00000000000E+00  0.00000000000E+00  0.27686416870E+03  0.27686416871E+03  0.25500000920E-02 0. -1.
       -2   -1    0    0    0  501  0.00000000000E+00  0.00000000000E+00 -0.54996003542E+03  0.54996003543E+03  0.25500000920E-02 0.  1.
    10030    2    1    2    0    0  0.00000000000E+00  0.00000000000E+00 -0.27309586672E+03  0.82682420414E+03  0.78042098392E+03 0.  0.
        4    1    3    3  502    0 -0.37155766719E+03 -0.11233200771E+03 -0.94315024733E+02  0.39946278524E+03  0.12699999809E+01 0.  1.
       -4    1    3    3    0  502  0.37155766719E+03  0.11233200771E+03 -0.17878084199E+03  0.42736141890E+03  0.12699999809E+01 0. -1.
</event>
<event>
 5   0  0.2759559E-02  0.7550875E+03  0.7818609E-02  0.9627402E-01
       -1   -1    0    0    0  501  0.00000000000E+00  0.00000000000E+00  0.48265183281E+03  0.48265183283E+03  0.50400001928E-02 0.  1.
        1   -1    0    0  501    0  0.00000000000E+00  0.00000000000E+00 -0.29532528587E+03  0.29532528591E+03  0.50400001928E-02 0. -1.
    10030    2    1    2    0    0  0.00000000000E+00  0.00000000000E+00  0.18732654694E+03  0.77797711874E+03  0.75508751950E+03 0.  0.
        3    1    3    3  502    0  0.33228242440E+03  0.17668496701E+03  0.12474552453E+03  0.39647275219E+03  0.10100000352E+00 0.  1.
       -3    1    3    3    0  502 -0.33228242440E+03 -0.17668496701E+03  0.62581022409E+02  0.38150436656E+03  0.10100000352E+00 0. -1.
</event>
<event>
 5   0  0.2769394E-02  0.8078285E+03  0.7818609E-02  0.9548754E-01
        1   -1    0    0  501    0  0.00000000000E+00  0.00000000000E+00  0.14638358221E+04  0.14638358221E+04  0.50400001928E-02 0.  1.
       -1   -1    0    0    0  501  0.00000000000E+00  0.00000000000E+00 -0.11145151486E+03  0.11145151497E+03  0.50400001928E-02 0. -1.
    10030    2    1    2    0    0  0.00000000000E+00  0.00000000000E+00  0.13523843072E+04  0.15752873370E+04  0.80782849657E+03 0.  0.
        2    1    3    3  502    0 -0.33972807179E+03  0.80362499604E+02  0.28002736537E+03  0.44753616554E+03  0.25500000920E-02 0. -1.
       -2    1    3    3    0  502  0.33972807179E+03 -0.80362499604E+02  0.10723569418E+04  0.11277511715E+04  0.25500000920E-02 0.  1.
</event>
<event>
 5   0  0.2759559E-02  0.8134900E+03  0.7818609E-02  0.9540694E-01
        1   -1    0    0  501    0  0.00000000000E+00  0.00000000000E+00  0.65090431597E+03  0.65090431599E+03  0.50400001928E-02 0. -1.
       -1   -1    0    0    0  501  0.00000000000E+00  0.00000000000E+00 -0.25417173519E+03  0.25417173524E+03  0.50400001928E-02 0.  1.
    10030    2    1    2    0    0  0.00000000000E+00  0.00000000000E+00  0.39673258078E+03  0.90507605123E+03  0.81348996175E+03 0.  0.
        3    1    3    3  502    0  0.15374787171E+03  0.31489425186E+03 -0.31388862857E+02  0.35182675968E+03  0.10100000352E+00 0.  1.
       -3    1    3    3    0  502 -0.15374787171E+03 -0.31489425186E+03  0.42812144363E+03  0.55324929156E+03  0.10100000352E+00 0. -1.
</event>
<event>
 5   0  0.2759559E-02  0.7982101E+03  0.7818609E-02  0.9562611E-01
       -1   -1    0    0    0  501  0.00000000000E+00  0.00000000000E+00  0.28104263821E+03  0.28104263826E+03  0.50400001928E-02 0.  1.
        1   -1    0    0  501    0  0.00000000000E+00  0.00000000000E+00 -0.56676403071E+03  0.56676403073E+03  0.50400001928E-02 0. -1.
    10030    2    1    2    0    0  0.00000000000E+00  0.00000000000E+00 -0.28572139250E+03  0.84780666899E+03  0.79821014392E+03 0.  0.
        3    1    3    3  502    0  0.39701654021E+03  0.18144941001E+02 -0.18164644833E+03  0.43697461536E+03  0.10100000352E+00 0. -1.
       -3    1    3    3    0  502 -0.39701654021E+03 -0.18144941001E+02 -0.10407494417E+03  0.41083205363E+03  0.10100000352E+00 0.  1.
</event>
<event>
 5   0  0.2606520E-02  0.8003609E+03  0.7818609E-02  0.9559495E-01
        1   -1    0    0  501    0  0.00000000000E+00  0.00000000000E+00  0.79366893244E+03  0.79366893245E+03  0.50400001928E-02 0.  1.
       -1   -1    0    0    0  501  0.00000000000E+00  0.00000000000E+00 -0.20177730809E+03  0.20177730815E+03  0.50400001928E-02 0. -1.
    10030    2    1    2    0    0  0.00000000000E+00  0.00000000000E+00  0.59189162435E+03  0.99544624061E+03  0.80036087047E+03 0.  0.
        5    1    3    3  502    0 -0.17359443236E+03  0.23835920592E+03 -0.40492061138E+02  0.29767740091E+03  0.46999998093E+01 0. -1.
       -5    1    3    3    0  502  0.17359443236E+03 -0.23835920592E+03  0.63238368548E+03  0.69776883970E+03  0.46999998093E+01 0.  1.
</event>
<event>
 5   0  0.2769394E-02  0.7958186E+03  0.7818609E-02  0.9566089E-01
        1   -1    0    0  501    0  0.00000000000E+00  0.00000000000E+00  0.13988945281E+03  0.13988945290E+03  0.50400001928E-02 0. -1.
       -1   -1    0    0    0  501  0.00000000000E+00  0.00000000000E+00 -0.11318353093E+04  0.11318353093E+04  0.50400001928E-02 0.  1.
    10030    2    1    2    0    0  0.00000000000E+00  0.00000000000E+00 -0.99194585646E+03  0.12717247622E+04  0.79581862796E+03 0.  0.
        2    1    3    3  502    0  0.10410623484E+02  0.25059856065E+03 -0.23362896890E+01  0.25082559267E+03  0.25500000920E-02 0. -1.
       -2    1    3    3    0  502 -0.10410623484E+02 -0.25059856065E+03 -0.98960956677E+03  0.10208991695E+04  0.25500000920E-02 0.  1.
</event>
<event>
 5   0  0.1786500E-02  0.5041185E+03  0.7818609E-02  0.1012709E+00
       -3   -1    0    0    0  501  0.00000000000E+00  0.00000000000E+00  0.76244561896E+03  0.76244562565E+03  0.10100000352E+00 0. -1.
        3   -1    0    0  501    0  0.00000000000E+00  0.00000000000E+00 -0.83329001875E+02  0.83329063084E+02  0.10100000352E+00 0.  1.
    10030    2    1    2    0    0  0.00000000000E+00  0.00000000000E+00  0.67911661708E+03  0.84577468873E+03  0.50411848260E+03 0.  0.
        4    1    3    3  502    0  0.20728034892E+01 -0.24578838995E+03  0.24590521718E+03  0.34768839194E+03  0.12699999809E+01 0.  1.
       -4    1    3    3    0  502 -0.20728034892E+01  0.24578838995E+03  0.43321139990E+03  0.49808629680E+03  0.12699999809E+01 0. -1.
</event>
<event>
 5   0  0.1786500E-02  0.8017505E+03  0.7818609E-02  0.9557487E-01
       -4   -1    0    0    0  501  0.00000000000E+00  0.00000000000E+00  0.10186676912E+03  0.10187468553E+03  0.12699999809E+01 0. -1.
        4   -1    0    0  501    0  0.00000000000E+00  0.00000000000E+00 -0.15774905945E+04  0.15774911058E+04  0.12699999809E+01 0.  1.
    10030    2    1    2    0    0  0.00000000000E+00  0.00000000000E+00 -0.14756238254E+04  0.16793657913E+04  0.80175045170E+03 0.  0.
        5    1    3    3  502    0 -0.23494669895E+03  0.20332538892E+03 -0.20733956322E+03  0.37356786479E+03  0.46999998093E+01 0. -1.
       -5    1    3    3    0  502  0.23494669895E+03 -0.20332538892E+03 -0.12682842622E+04  0.13057979265E+04  0.46999998093E+01 0.  1.
</event>
<event>
 5   0  0.4663634E-02  0.8116578E+03  0.7818609E-02  0.9543295E-01
       -2   -1    0    0    0  501  0.00000000000E+00  0.00000000000E+00  0.54440227838E+03  0.54440227838E+03  0.25500000920E-02 0.  1.
        2   -1    0    0  501    0  0.00000000000E+00  0.00000000000E+00 -0.30252827460E+03  0.30252827461E+03  0.25500000920E-02 0. -1.
    10030    2    1    2    0    0  0.00000000000E+00  0.00000000000E+00  0.24187400378E+03  0.84693055299E+03  0.81165776525E+03 0.  0.
        5    1    3    3  502    0  0.35695718613E+03 -0.14866090449E+03 -0.75248677766E+01  0.38677798656E+03  0.46999998093E+01 0. -1.
       -5    1    3    3    0  502 -0.35695718613E+03  0.14866090449E+03  0.24939887156E+03  0.46015256643E+03  0.46999998093E+01 0.  1.
</event>
<event>
 5   0  0.2759559E-02  0.8150562E+03  0.7818609E-02  0.9538476E-01
        1   -1    0    0  501    0  0.00000000000E+00  0.00000000000E+00  0.44834946641E+03  0.44834946644E+03  0.50400001928E-02 0.  1.
       -1   -1    0    0    0  501  0.00000000000E+00  0.00000000000E+00 -0.37042343507E+03  0.37042343510E+03  0.50400001928E-02 0. -1.
    10030    2    1    2    0    0  0.00000000000E+00  0.00000000000E+00  0.77926031339E+02  0.81877290154E+03  0.81505619312E+03 0.  0.
        3    1    3    3  502    0  0.18796947254E+03  0.13240310332E+03 -0.29904724139E+03  0.37721660510E+03  0.10100000352E+00 0. -1.
       -3    1    3    3    0  502 -0.18796947254E+03 -0.13240310332E+03  0.37697327273E+03  0.44155629644E+03  0.10100000352E+00 0.  1.
</event>
<event>
 5   0  0.4663634E-02  0.8360429E+03  0.7818609E-02  0.9509264E-01
        2   -1    0    0  501    0  0.00000000000E+00  0.00000000000E+00  0.61628206952E+03  0.61628206952E+03  0.25500000920E-02 0.  1.
       -2   -1    0    0    0  501  0.00000000000E+00  0.00000000000E+00 -0.28354212017E+03  0.28354212018E+03  0.25500000920E-02 0. -1.
    10030    2    1    2    0    0  0.00000000000E+00  0.00000000000E+00  0.33273994935E+03  0.89982418970E+03  0.83604288076E+03 0.  0.
        5    1    3    3  502    0 -0.28543425255E+03  0.68279487972E+02 -0.15396863631E+03  0.33145622934E+03  0.46999998093E+01 0. -1.
       -5    1    3    3    0  502  0.28543425255E+03 -0.68279487972E+02  0.48670858566E+03  0.56836796036E+03  0.46999998093E+01 0.  1.
</event>
<event>
 5   0  0.2759559E-02  0.7655980E+03  0.7818609E-02  0.9611192E-01
       -1   -1    0    0    0  501  0.00000000000E+00  0.00000000000E+00  0.22599230936E+03  0.22599230942E+03  0.50400001928E-02 0. -1.
        1   -1    0    0  501    0  0.00000000000E+00  0.00000000000E+00 -0.64840738774E+03  0.64840738776E+03  0.50400001928E-02 0.  1.
    10030    2    1    2    0    0  0.00000000000E+00  0.00000000000E+00 -0.42241507838E+03  0.87439969717E+03  0.76559802245E+03 0.  0.
        3    1    3    3  502    0  0.72968532963E+02  0.21026054967E+03 -0.56691885059E+03  0.60904096652E+03  0.10100000352E+00 0.  1.
       -3    1    3    3    0  502 -0.72968532963E+02 -0.21026054967E+03  0.14450377221E+03  0.26535873065E+03  0.10100000352E+00 0. -1.
</event>
<event>
 5   0  0.4700220E-02  0.8061435E+03  0.7818609E-02  0.9551167E-01
       -2   -1    0    0    0  501  0.00000000000E+00  0.00000000000E+00  0.35997301880E+03  0.35997301881E+03  0.25500000920E-02 0.  1.
        2   -1    0    0  501    0  0.00000000000E+00  0.00000000000E+00 -0.45133059914E+03  0.45133059914E+03  0.25500000920E-02 0. -1.
    10030    2    1    2    0    0  0.00000000000E+00  0.00000000000E+00 -0.91357580340E+02  0.81130361795E+03  0.80614350646E+03 0.  0.
        4    1    3    3  502    0  0.18297092223E+03 -0.35811074961E+03 -0.18235986888E+02  0.40256158720E+03  0.12699999809E+01 0.  1.
       -4    1    3    3    0  502 -0.18297092223E+03  0.35811074961E+03 -0.73121593452E+02  0.40874203075E+03  0.12699999809E+01 0. -1.
</event>
<event>
 5   0  0.2689372E-02  0.8330186E+03  0.7818609E-02  0.9513417E-01
        1   -1    0    0  501    0  0.00000000000E+00  0.00000000000E+00  0.59542049107E+03  0.59542049109E+03  0.50400001928E-02 0.  1.
       -1   -1    0    0    0  501  0.00000000000E+00  0.00000000000E+00 -0.29135710785E+03  0.29135710790E+03  0.50400001928E-02 0. -1.
    10030    2    1    2    0    0  0.00000000000E+00  0.00000000000E+00  0.30406338322E+03  0.88677759899E+03  0.83301858866E+03 0.  0.
        4    1    3    3  502    0  0.18006442707E+03 -0.10487758214E+02 -0.24762321417E+03  0.30635283590E+03  0.12699999809E+01 0. -1.
       -4    1    3    3    0  502 -0.18006442707E+03  0.10487758214E+02  0.55168659739E+03  0.58042476309E+03  0.12699999809E+01 0.  1.
</event>
<event>
 5   0  0.4700220E-02  0.8425413E+03  0.7818609E-02  0.9500403E-01
        2   -1    0    0  501    0  0.00000000000E+00  0.00000000000E+00  0.10835496061E+04  0.10835496061E+04  0.25500000920E-02 0.  1.
       -2   -1    0    0    0  501  0.00000000000E+00  0.00000000000E+00 -0.16378478576E+03  0.16378478578E+03  0.25500000920E-02 0. -1.
    10030    2    1    2    0    0  0.00000000000E+00  0.00000000000E+00  0.91976482036E+03  0.12473343919E+04  0.84254125149E+03 0.  0.
        4    1    3    3  502    0 -0.22189463669E+03 -0.96860143403E+01 -0.70058902158E+02  0.23289678258E+03  0.12699999809E+01 0. -1.
       -4    1    3    3    0  502  0.22189463669E+03  0.96860143403E+01  0.98982372251E+03  0.10144376093E+04  0.12699999809E+01 0.  1.
</event>
<event>
 5   0  0.4377843E-02  0.8303132E+03  0.7818609E-02  0.9517148E-01
        2   -1    0    0  501    0  0.00000000000E+00  0.00000000000E+00  0.58300499461E+03  0.58300499462E+03  0.25500000920E-02 0.  1.
       -2   -1    0    0    0  501  0.00000000000E+00  0.00000000000E+00 -0.29563208484E+03  0.29563208485E+03  0.25500000920E-02 0. -1.
    10030    2    1    2    0    0  0.00000000000E+00  0.00000000000E+00  0.28737290978E+03  0.87863707947E+03  0.83031315065E+03 0.  0.
        2    1    3    3  502    0 -0.11469082948E+03  0.39398846813E+03  0.21039570485E+03  0.46113691244E+03  0.25500000920E-02 0.  1.
       -2    1    3    3    0  502  0.11469082948E+03 -0.39398846813E+03  0.76977204927E+02  0.41750016703E+03  0.25500000920E-02 0. -1.
</event>
<event>
 5   0  0.2635243E-02  0.7951095E+03  0.7818609E-02  0.9567123E-01
        1   -1    0    0  501    0  0.00000000000E+00  0.00000000000E+00  0.78292328940E+03  0.78292328942E+03  0.50400001928E-02 0.  1.
       -1   -1    0    0    0  501  0.00000000000E+00  0.00000000000E+00 -0.20187132812E+03  0.20187132818E+03  0.50400001928E-02 0. -1.
    10030    2    1    2    0    0  0.00000000000E+00  0.00000000000E+00  0.58105196129E+03  0.98479461760E+03  0.79510946236E+03 0.  0.
        1    1    3    3  502    0  0.12876980269E+03  0.37497277737E+03  0.32692205497E+03  0.51387184774E+03  0.50400001928E-02 0.  1.
       -1    1    3    3    0  502 -0.12876980269E+03 -0.37497277737E+03  0.25412990632E+03  0.47092276986E+03  0.50400001928E-02 0. -1.
</event>
<event>
 5   0  0.1786500E-02  0.8020691E+03  0.7818609E-02  0.9557027E-01
       -3   -1    0    0    0  501  0.00000000000E+00  0.00000000000E+00  0.65845762108E+03  0.65845762883E+03  0.10100000352E+00 0. -1.
        3   -1    0    0  501    0  0.00000000000E+00  0.00000000000E+00 -0.24425066570E+03  0.24425068658E+03  0.10100000352E+00 0.  1.
    10030    2    1    2    0    0  0.00000000000E+00  0.00000000000E+00  0.41420695538E+03  0.90270831541E+03  0.80206913719E+03 0.  0.
        2    1    3    3  502    0  0.13326428773E+03 -0.28763138537E+03  0.48356165535E+03  0.57820676126E+03  0.25500000920E-02 0. -1.
       -2    1    3    3    0  502 -0.13326428773E+03  0.28763138537E+03 -0.69354699969E+02  0.32450155415E+03  0.25500000920E-02 0.  1.
</event>
<event>
 5   0  0.2635243E-02  0.8042288E+03  0.7818609E-02  0.9553916E-01
        1   -1    0    0  501    0  0.00000000000E+00  0.00000000000E+00  0.70081438155E+03  0.70081438157E+03  0.50400001928E-02 0. -1.
       -1   -1    0    0    0  501  0.00000000000E+00  0.00000000000E+00 -0.23072584108E+03  0.23072584113E+03  0.50400001928E-02 0.  1.
    10030    2    1    2    0    0  0.00000000000E+00  0.00000000000E+00  0.47008854047E+03  0.93154022270E+03  0.80422879246E+03 0.  0.
        1    1    3    3  502    0  0.19732320736E+03 -0.98301883458E+02  0.62457897212E+03  0.66234326515E+03  0.50400001928E-02 0. -1.
       -1    1    3    3    0  502 -0.19732320736E+03  0.98301883458E+02 -0.15449043165E+03  0.26919695755E+03  0.50400001928E-02 0.  1.
</event>
<event>
 5   0  0.4663634E-02  0.8006171E+03  0.7818609E-02  0.9559124E-01
        2   -1    0    0  501    0  0.00000000000E+00  0.00000000000E+00  0.11318096459E+04  0.11318096459E+04  0.25500000920E-02 0.  1.
       -2   -1    0    0    0  501  0.00000000000E+00  0.00000000000E+00 -0.14158472174E+03  0.14158472176E+03  0.25500000920E-02 0. -1.
    10030    2    1    2    0    0  0.00000000000E+00  0.00000000000E+00  0.99022492413E+03  0.12733943676E+04  0.80061714642E+03 0.  0.
        5    1    3    3  502    0  0.19184226154E+03  0.21381652664E+03  0.93847547075E+03  0.98146791062E+03  0.46999998093E+01 0.  1.
       -5    1    3    3    0  502 -0.19184226154E+03 -0.21381652664E+03  0.51749453375E+02  0.29192645701E+03  0.46999998093E+01 0. -1.
</event>
<event>
 5   0  0.4590462E-02  0.7958738E+03  0.7818609E-02  0.9566009E-01
        2   -1    0    0  501    0  0.00000000000E+00  0.00000000000E+00  0.64405082050E+03  0.64405082051E+03  0.25500000920E-02 0. -1.
       -2   -1    0    0    0  501  0.00000000000E+00  0.00000000000E+00 -0.24587153505E+03  0.24587153507E+03  0.25500000920E-02 0.  1.
    10030    2    1    2    0    0  0.00000000000E+00  0.00000000000E+00  0.39817928545E+03  0.88992235558E+03  0.79587376863E+03 0.  0.
        3    1    3    3  502    0  0.58878315697E+01  0.44073939805E+02 -0.24308493953E+03  0.24711834565E+03  0.10100000352E+00 0.  1.
       -3    1    3    3    0  502 -0.58878315697E+01 -0.44073939805E+02  0.64126422498E+03  0.64280400992E+03  0.10100000352E+00 0. -1.
</event>
<event>
 5   0  0.4663634E-02  0.8164214E+03  0.7818609E-02  0.9536547E-01
       -2   -1    0    0    0  501  0.00000000000E+00  0.00000000000E+00  0.79607812714E+02  0.79607812755E+02  0.25500000920E-02 0. -1.
        2   -1    0    0  501    0  0.00000000000E+00  0.00000000000E+00 -0.20932114111E+04  0.20932114111E+04  0.25500000920E-02 0.  1.
    10030    2    1    2    0    0  0.00000000000E+00  0.00000000000E+00 -0.20136035983E+04  0.21728192238E+04  0.81642141576E+03 0.  0.
        5    1    3    3  502    0  0.39844121345E+03  0.33669833050E+02 -0.12250496544E+04  0.12886651248E+04  0.46999998093E+01 0.  1.
       -5    1    3    3    0  502 -0.39844121345E+03 -0.33669833050E+02 -0.78855394395E+03  0.88415409898E+03  0.46999998093E+01 0. -1.
</event>
<event>
 5   0  0.2769394E-02  0.8838814E+03  0.7818609E-02  0.9445958E-01
       -1   -1    0    0    0  501  0.00000000000E+00  0.00000000000E+00  0.28546117787E+03  0.28546117791E+03  0.50400001928E-02 0. -1.
        1   -1    0    0  501    0  0.00000000000E+00  0.00000000000E+00 -0.68419662707E+03  0.68419662709E+03  0.50400001928E-02 0.  1.
    10030    2    1    2    0    0  0.00000000000E+00  0.00000000000E+00 -0.39873544920E+03  0.96965780500E+03  0.88388138364E+03 0.  0.
        2    1    3    3  502    0  0.93365417364E+02 -0.25617204033E+03  0.18219329149E+03  0.32792622780E+03  0.25500000920E-02 0. -1.
       -2    1    3    3    0  502 -0.93365417364E+02  0.25617204033E+03 -0.58092874070E+03  0.64173157720E+03  0.25500000920E-02 0.  1.
</event>
<event>
 5   0  0.4700220E-02  0.8052976E+03  0.7818609E-02  0.9552381E-01
        2   -1    0    0  501    0  0.00000000000E+00  0.00000000000E+00  0.92570655305E+03  0.92570655306E+03  0.25500000920E-02 0. -1.
       -2   -1    0    0    0  501  0.00000000000E+00  0.00000000000E+00 -0.17513762778E+03  0.17513762780E+03  0.25500000920E-02 0.  1.
    10030    2    1    2    0    0  0.00000000000E+00  0.00000000000E+00  0.75056892527E+03  0.11008441809E+04  0.80529758408E+03 0.  0.
        4    1    3    3  502    0  0.89796735354E+02 -0.62848509019E+02 -0.15434944768E+03  0.18931126133E+03  0.12699999809E+01 0.  1.
       -4    1    3    3    0  502 -0.89796735354E+02  0.62848509019E+02  0.90491837295E+03  0.91153291952E+03  0.12699999809E+01 0. -1.
</event>
<event>
 5   0  0.2635243E-02  0.7347888E+03  0.7818609E-02  0.9659521E-01
       -1   -1    0    0    0  501  0.00000000000E+00  0.00000000000E+00  0.14866889445E+03  0.14866889454E+03  0.50400001928E-02 0. -1.
        1   -1    0    0  501    0  0.00000000000E+00  0.00000000000E+00 -0.90791439245E+03  0.90791439247E+03  0.50400001928E-02 0.  1.
    10030    2    1    2    0    0  0.00000000000E+00  0.00000000000E+00 -0.75924549800E+03  0.10565832870E+04  0.73478875614E+03 0.  0.
        1    1    3    3  502    0 -0.25439844193E+03 -0.24372610315E+03 -0.52945631705E+03  0.63595988262E+03  0.50400001928E-02 0.  1.
       -1    1    3    3    0  502  0.25439844193E+03  0.24372610315E+03 -0.22978918095E+03  0.42062340439E+03  0.50400001928E-02 0. -1.
</event>
<event>
 5   0  0.4590462E-02  0.7833849E+03  0.7818609E-02  0.9584383E-01
       -2   -1    0    0    0  501  0.00000000000E+00  0.00000000000E+00  0.31015811301E+03  0.31015811302E+03  0.25500000920E-02 0. -1.
        2   -1    0    0  501    0  0.00000000000E+00  0.00000000000E+00 -0.49466050643E+03  0.49466050643E+03  0.25500000920E-02 0.  1.
    10030    2    1    2    0    0  0.00000000000E+00  0.00000000000E+00 -0.18450239342E+03  0.80481861945E+03  0.78338488436E+03 0.  0.
        3    1    3    3  502    0  0.46113043016E+02 -0.33694004043E+03 -0.29190820788E+03  0.44818011514E+03  0.10100000352E+00 0.  1.
       -3    1    3    3    0  502 -0.46113043016E+02  0.33694004043E+03  0.10740581446E+03  0.35663850431E+03  0.10100000352E+00 0. -1.
</event>
<event>
 5   0  0.2635243E-02  0.7956384E+03  0.7818609E-02  0.9566352E-01
       -1   -1    0    0    0  501  0.00000000000E+00  0.00000000000E+00  0.10010487065E+03  0.10010487078E+03  0.50400001928E-02 0. -1.
        1   -1    0    0  501    0  0.00000000000E+00  0.00000000000E+00 -0.15809433650E+04  0.15809433650E+04  0.50400001928E-02 0.  1.
    10030    2    1    2    0    0  0.00000000000E+00  0.00000000000E+00 -0.14808384943E+04  0.16810482358E+04  0.79563843842E+03 0.  0.
        1    1    3    3  502    0  0.18511152801E+03  0.10540973768E+03 -0.30550593908E+02  0.21519951072E+03  0.50400001928E-02 0. -1.
       -1    1    3    3    0  502 -0.18511152801E+03 -0.10540973768E+03 -0.14502879004E+04  0.14658487250E+04  0.50400001928E-02 0.  1.
</event>
<event>
 5   0  0.4663634E-02  0.8140439E+03  0.7818609E-02  0.9539909E-01
       -2   -1    0    0    0  501  0.00000000000E+00  0.00000000000E+00  0.12543782353E+03  0.12543782356E+03  0.25500000920E-02 0.  1.
        2   -1    0    0  501    0  0.00000000000E+00  0.00000000000E+00 -0.13207090666E+04  0.13207090666E+04  0.25500000920E-02 0. -1.
    10030    2    1    2    0    0  0.00000000000E+00  0.00000000000E+00 -0.11952712431E+04  0.14461468902E+04  0.81404390755E+03 0.  0.
        5    1    3    3  502    0  0.40060041388E+03 -0.68345934671E+02 -0.63707716352E+03  0.75567272060E+03  0.46999998093E+01 0.  1.
       -5    1    3    3    0  502 -0.40060041388E+03  0.68345934671E+02 -0.55819407956E+03  0.69047416957E+03  0.46999998093E+01 0. -1.
</event>
<event>
 5   0  0.1786500E-02  0.8109821E+03  0.7818609E-02  0.9544256E-01
        3   -1    0    0  501    0  0.00000000000E+00  0.00000000000E+00  0.13794626103E+03  0.13794629801E+03  0.10100000352E+00 0.  1.
       -3   -1    0    0    0  501  0.00000000000E+00  0.00000000000E+00 -0.11919348161E+04  0.11919348203E+04  0.10100000352E+00 0. -1.
    10030    2    1    2    0    0  0.00000000000E+00  0.00000000000E+00 -0.10539885550E+04  0.13298811183E+04  0.81098206812E+03 0.  0.
        2    1    3    3  502    0 -0.35171447491E+02  0.43490100755E-01 -0.11894287815E+04  0.11899486791E+04  0.25500000920E-02 0. -1.
       -2    1    3    3    0  502  0.35171447491E+02 -0.43490100755E-01  0.13544022646E+03  0.13993243927E+03  0.25500000920E-02 0.  1.
</event>
<event>
 5   0  0.2689372E-02  0.7904459E+03  0.7818609E-02  0.9573950E-01
        1   -1    0    0  501    0  0.00000000000E+00  0.00000000000E+00  0.28557686978E+03  0.28557686982E+03  0.50400001928E-02 0. -1.
       -1   -1    0    0    0  501  0.00000000000E+00  0.00000000000E+00 -0.54696726521E+03  0.54696726523E+03  0.50400001928E-02 0.  1.
    10030    2    1    2    0    0  0.00000000000E+00  0.00000000000E+00 -0.26139039543E+03  0.83254413505E+03  0.79044594881E+03 0.  0.
        4    1    3    3  502    0 -0.25525698206E+03 -0.93812525114E-01  0.18710886382E+03  0.31649245727E+03  0.12699999809E+01 0. -1.
       -4    1    3    3    0  502  0.25525698206E+03  0.93812525114E-01 -0.44849925925E+03  0.51605167778E+03  0.12699999809E+01 0.  1.
</event>
<event>
 5   0  0.4377843E-02  0.7932265E+03  0.7818609E-02  0.9569874E-01
       -2   -1    0    0    0  501  0.00000000000E+00  0.00000000000E+00  0.36015896723E+03  0.36015896724E+03  0.25500000920E-02 0.  1.
        2   -1    0    0  501    0  0.00000000000E+00  0.00000000000E+00 -0.43675729258E+03  0.43675729258E+03  0.25500000920E-02 0. -1.
    10030    2    1    2    0    0  0.00000000000E+00  0.00000000000E+00 -0.76598325346E+02  0.79691625982E+03  0.79322646308E+03 0.  0.
        2    1    3    3  502    0 -0.16206351079E+03 -0.16803691681E+03  0.28381832849E+03  0.36749670820E+03  0.25500000920E-02 0.  1.
       -2    1    3    3    0  502  0.16206351079E+03  0.16803691681E+03 -0.36041665384E+03  0.42941955162E+03  0.25500000920E-02 0. -1.
</event>
<event>
 5   0  0.4590462E-02  0.7146594E+03  0.7818609E-02  0.9692486E-01
        2   -1    0    0  501    0  0.00000000000E+00  0.00000000000E+00  0.97326448280E+03  0.97326448280E+03  0.25500000920E-02 0.  1.
       -2   -1    0    0    0  501  0.00000000000E+00  0.00000000000E+00 -0.13119201683E+03  0.13119201686E+03  0.25500000920E-02 0. -1.
    10030    2    1    2    0    0  0.00000000000E+00  0.00000000000E+00  0.84207246596E+03  0.11044564997E+04  0.71465944457E+03 0.  0.
        3    1    3    3  502    0  0.31840558587E+03  0.16144862833E+03  0.44481495604E+03  0.57035789818E+03  0.10100000352E+00 0.  1.
       -3    1    3    3    0  502 -0.31840558587E+03 -0.16144862833E+03  0.39725750993E+03  0.53409860148E+03  0.10100000352E+00 0. -1.
</event>
<event>
 5   0  0.2606520E-02  0.8252656E+03  0.7818609E-02  0.9524149E-01
        1   -1    0    0  501    0  0.00000000000E+00  0.00000000000E+00  0.74998931163E+03  0.74998931165E+03  0.50400001928E-02 0. -1.
       -1   -1    0    0    0  501  0.00000000000E+00  0.00000000000E+00 -0.22702432283E+03  0.22702432288E+03  0.50400001928E-02 0.  1.
    10030    2    1    2    0    0  0.00000000000E+00  0.00000000000E+00  0.52296498881E+03  0.97701363453E+03  0.82526557092E+03 0.  0.
        5    1    3    3  502    0  0.12464260134E+03  0.11074844660E+03 -0.18533178116E+03  0.24934104275E+03  0.46999998093E+01 0.  1.
       -5    1    3    3    0  502 -0.12464260134E+03 -0.11074844660E+03  0.70829676997E+03  0.72767259179E+03  0.46999998093E+01 0. -1.
</event>
<event>
 5   0  0.1786500E-02  0.7715338E+03  0.7818609E-02  0.9602160E-01
       -4   -1    0    0    0  501  0.00000000000E+00  0.00000000000E+00  0.67210222692E+03  0.67210342681E+03  0.12699999809E+01 0.  1.
        4   -1    0    0  501    0  0.00000000000E+00  0.00000000000E+00 -0.22141564868E+03  0.22141929090E+03  0.12699999809E+01 0. -1.
    10030    2    1    2    0    0  0.00000000000E+00  0.00000000000E+00  0.45068657824E+03  0.89352271771E+03  0.77153383286E+03 0.  0.
        1    1    3    3  502    0 -0.32413953260E+03 -0.92503305161E+02  0.80843615928E+01  0.33717748292E+03  0.50400001928E-02 0.  1.
       -1    1    3    3    0  502  0.32413953260E+03  0.92503305161E+02  0.44260221665E+03  0.55634523478E+03  0.50400001928E-02 0. -1.
</event>
<event>
 5   0  0.4700220E-02  0.7877508E+03  0.7818609E-02  0.9577919E-01
        2   -1    0    0  501    0  0.00000000000E+00  0.00000000000E+00  0.10058375805E+04  0.10058375805E+04  0.25500000920E-02 0.  1.
       -2   -1    0    0    0  501  0.00000000000E+00  0.00000000000E+00 -0.15423745055E+03  0.15423745057E+03  0.25500000920E-02 0. -1.
    10030    2    1    2    0    0  0.00000000000E+00  0.00000000000E+00  0.85160012995E+03  0.11600750311E+04  0.78775078318E+03 0.  0.
        4    1    3    3  502    0 -0.23350600291E+03 -0.11822091998E+03  0.85925490341E+03  0.89823262090E+03  0.12699999809E+01 0.  1.
       -4    1    3    3    0  502  0.23350600291E+03  0.11822091998E+03 -0.76547734560E+01  0.26184241018E+03  0.12699999809E+01 0. -1.
</event>
<event>
 5   0  0.4377843E-02  0.7523668E+03  0.7818609E-02  0.9631644E-01
        2   -1    0    0  501    0  0.00000000000E+00  0.00000000000E+00  0.14966767755E+04  0.14966767755E+04  0.25500000920E-02 0.  1.
       -2   -1    0    0    0  501  0.00000000000E+00  0.00000000000E+00 -0.94552121298E+02  0.94552121333E+02  0.25500000920E-02 0. -1.
    10030    2    1    2    0    0  0.00000000000E+00  0.00000000000E+00  0.14021246542E+04  0.15912288968E+04  0.75236683619E+03 0.  0.
        2    1    3    3  502    0 -0.32348291945E+03  0.42352806711E+02  0.30494244238E+03  0.44657009817E+03  0.25500000920E-02 0. -1.
       -2    1    3    3    0  502  0.32348291945E+03 -0.42352806711E+02  0.10971822118E+04  0.11446587987E+04  0.25500000920E-02 0.  1.
</event>
<event>
 5   0  0.2769394E-02  0.7803265E+03  0.7818609E-02  0.9588938E-01
        1   -1    0    0  501    0  0.00000000000E+00  0.00000000000E+00  0.60124205307E+03  0.60124205310E+03  0.50400001928E-02 0. -1.
       -1   -1    0    0    0  501  0.00000000000E+00  0.00000000000E+00 -0.25318815385E+03  0.25318815390E+03  0.50400001928E-02 0.  1.
    10030    2    1    2    0    0  0.00000000000E+00  0.00000000000E+00  0.34805389923E+03  0.85443020699E+03  0.78032650977E+03 0.  0.
        2    1    3    3  502    0  0.63325657340E+02 -0.11245973030E+03  0.57719126721E+03  0.59144491609E+03  0.25500000920E-02 0. -1.
       -2    1    3    3    0  502 -0.63325657340E+02  0.11245973030E+03 -0.22913736798E+03  0.26298529090E+03  0.25500000920E-02 0.  1.
</event>
<event>
 5   0  0.4377843E-02  0.7784089E+03  0.7818609E-02  0.9591806E-01
       -2   -1    0    0    0  501  0.00000000000E+00  0.00000000000E+00  0.57131606870E+02  0.57131606927E+02  0.25500000920E-02 0. -1.
        2   -1    0    0  501    0  0.00000000000E+00  0.00000000000E+00 -0.26514237074E+04  0.26514237074E+04  0.25500000920E-02 0.  1.
    10030    2    1    2    0    0  0.00000000000E+00  0.00000000000E+00 -0.25942921005E+04  0.27085553143E+04  0.77840888221E+03 0.  0.
        2    1    3    3  502    0 -0.30032162527E+02 -0.38306745997E+02 -0.26407906695E+04  0.26412392353E+04  0.25500000920E-02 0.  1.
       -2    1    3    3    0  502  0.30032162527E+02  0.38306745997E+02  0.46498569005E+02  0.67316079067E+02  0.25500000920E-02 0. -1.
</event>
<event>
 5   0  0.4663634E-02  0.8086062E+03  0.7818609E-02  0.9547643E-01
        2   -1    0    0  501    0  0.00000000000E+00  0.00000000000E+00  0.57737707348E+03  0.57737707349E+03  0.25500000920E-02 0. -1.
       -2   -1    0    0    0  501  0.00000000000E+00  0.00000000000E+00 -0.28310963792E+03  0.28310963793E+03  0.25500000920E-02 0.  1.
    10030    2    1    2    0    0  0.00000000000E+00  0.00000000000E+00  0.29426743557E+03  0.86048671142E+03  0.80860624342E+03 0.  0.
        5    1    3    3  502    0 -0.34392341577E+03  0.20497058542E+03  0.20679001442E+03  0.45064449055E+03  0.46999998093E+01 0.  1.
       -5    1    3    3    0  502  0.34392341577E+03 -0.20497058542E+03  0.87477421144E+02  0.40984222087E+03  0.46999998093E+01 0. -1.
</event>
<event>
 5   0  0.4700220E-02  0.8103386E+03  0.7818609E-02  0.9545172E-01
        2   -1    0    0  501    0  0.00000000000E+00  0.00000000000E+00  0.20750741249E+04  0.20750741249E+04  0.25500000920E-02 0. -1.
       -2   -1    0    0    0  501  0.00000000000E+00  0.00000000000E+00 -0.79111478386E+02  0.79111478427E+02  0.25500000920E-02 0.  1.
    10030    2    1    2    0    0  0.00000000000E+00  0.00000000000E+00  0.19959626465E+04  0.21541856033E+04  0.81033864977E+03 0.  0.
        4    1    3    3  502    0  0.37669877204E+03 -0.12536550430E+03  0.12129993981E+04  0.12763179962E+04  0.12699999809E+01 0.  1.
       -4    1    3    3    0  502 -0.37669877204E+03  0.12536550430E+03  0.78296324839E+03  0.87786760719E+03  0.12699999809E+01 0. -1.
</event>
<event>
 5   0  0.4377843E-02  0.8171978E+03  0.7818609E-02  0.9535452E-01
        2   -1    0    0  501    0  0.00000000000E+00  0.00000000000E+00  0.34795606872E+03  0.34795606873E+03  0.25500000920E-02 0.  1.
       -2   -1    0    0    0  501  0.00000000000E+00  0.00000000000E+00 -0.47981078136E+03  0.47981078137E+03  0.25500000920E-02 0. -1.
    10030    2    1    2    0    0  0.00000000000E+00  0.00000000000E+00 -0.13185471264E+03  0.82776685010E+03  0.81719782971E+03 0.  0.
        2    1    3    3  502    0  0.91525309904E+02 -0.22588906261E+03 -0.39811745488E+03  0.46679787793E+03  0.25500000920E-02 0. -1.
       -2    1    3    3    0  502 -0.91525309904E+02  0.22588906261E+03  0.26626274224E+03  0.36096897217E+03  0.25500000920E-02 0.  1.
</event>
<event>
 5   0  0.1786500E-02  0.8002428E+03  0.7818609E-02  0.9559666E-01
       -4   -1    0    0    0  501  0.00000000000E+00  0.00000000000E+00  0.12148612129E+03  0.12149275932E+03  0.12699999809E+01 0.  1.
        4   -1    0    0  501    0  0.00000000000E+00  0.00000000000E+00 -0.13177794591E+04  0.13177800710E+04  0.12699999809E+01 0. -1.
    10030    2    1    2    0    0  0.00000000000E+00  0.00000000000E+00 -0.11962933378E+04  0.14392728304E+04  0.80024279454E+03 0.  0.
        2    1    3    3  502    0  0.32664728314E+03  0.10413994696E+03 -0.22713353342E+03  0.41125809189E+03  0.25500000920E-02 0. -1.
       -2    1    3    3    0  502 -0.32664728314E+03 -0.10413994696E+03 -0.96915980435E+03  0.10280147385E+04  0.25500000920E-02 0.  1.
</event>
<event>
 5   0  0.2635243E-02  0.8852756E+03  0.7818609E-02  0.9444177E-01
        1   -1    0    0  501    0  0.00000000000E+00  0.00000000000E+00  0.49686571670E+03  0.49686571673E+03  0.50400001928E-02 0. -1.
       -1   -1    0    0    0  501  0.00000000000E+00  0.00000000000E+00 -0.39432834445E+03  0.39432834449E+03  0.50400001928E-02 0.  1.
    10030    2    1    2    0    0  0.00000000000E+00  0.00000000000E+00  0.10253737225E+03  0.89119406122E+03  0.88527563055E+03 0.  0.
        1    1    3    3  502    0  0.63589503212E+02 -0.32771073522E+03  0.34388407407E+03  0.47926423539E+03  0.50400001928E-02 0. -1.
       -1    1    3    3    0  502 -0.63589503212E+02  0.32771073522E+03 -0.24134670182E+03  0.41192982583E+03  0.50400001928E-02 0.  1.
</event>
<event>
 5   0  0.4590462E-02  0.8052078E+03  0.7818609E-02  0.9552510E-01
       -2   -1    0    0    0  501  0.00000000000E+00  0.00000000000E+00  0.62127746980E+02  0.62127747032E+02  0.25500000920E-02 0.  1.
        2   -1    0    0  501    0  0.00000000000E+00  0.00000000000E+00 -0.26089774865E+04  0.26089774865E+04  0.25500000920E-02 0. -1.
    10030    2    1    2    0    0  0.00000000000E+00  0.00000000000E+00 -0.25468497395E+04  0.26711052335E+04  0.80520778245E+03 0.  0.
        3    1    3    3  502    0  0.25383835164E+03 -0.24965762727E+03 -0.18969251895E+04  0.19300487103E+04  0.10100000352E+00 0. -1.
       -3    1    3    3    0  502 -0.25383835164E+03  0.24965762727E+03 -0.64992455003E+03  0.74105652318E+03  0.10100000352E+00 0.  1.
</event>
<event>
 5   0  0.2635243E-02  0.7972433E+03  0.7818609E-02  0.9564016E-01
       -1   -1    0    0    0  501  0.00000000000E+00  0.00000000000E+00  0.46864048296E+03  0.46864048299E+03  0.50400001928E-02 0.  1.
        1   -1    0    0  501    0  0.00000000000E+00  0.00000000000E+00 -0.33906421246E+03  0.33906421250E+03  0.50400001928E-02 0. -1.
    10030    2    1    2    0    0  0.00000000000E+00  0.00000000000E+00  0.12957627050E+03  0.80770469549E+03  0.79724329112E+03 0.  0.
        1    1    3    3  502    0  0.34859005616E+03 -0.19806885017E+02 -0.13006837242E+03  0.37259243346E+03  0.50400001928E-02 0. -1.
       -1    1    3    3    0  502 -0.34859005616E+03  0.19806885017E+02  0.25964464292E+03  0.43511226203E+03  0.50400001928E-02 0.  1.
</event>
<event>
 5   0  0.4377843E-02  0.7887907E+03  0.7818609E-02  0.9576385E-01
        2   -1    0    0  501    0  0.00000000000E+00  0.00000000000E+00  0.23396527030E+04  0.23396527030E+04  0.25500000920E-02 0. -1.
       -2   -1    0    0    0  501  0.00000000000E+00  0.00000000000E+00 -0.66483247126E+02  0.66483247175E+02  0.25500000920E-02 0.  1.
    10030    2    1    2    0    0  0.00000000000E+00  0.00000000000E+00  0.22731694558E+04  0.24061359501E+04  0.78879074259E+03 0.  0.
        2    1    3    3  502    0 -0.17878593432E+03  0.13081384706E+03  0.21319307770E+04  0.21434097861E+04  0.25500000920E-02 0. -1.
       -2    1    3    3    0  502  0.17878593432E+03 -0.13081384706E+03  0.14123867879E+03  0.26272616407E+03  0.25500000920E-02 0.  1.
</event>
<event>
 5   0  0.4663634E-02  0.7882348E+03  0.7818609E-02  0.9577205E-01
       -2   -1    0    0    0  501  0.00000000000E+00  0.00000000000E+00  0.50249485722E+03  0.50249485722E+03  0.25500000920E-02 0.  1.
        2   -1    0    0  501    0  0.00000000000E+00  0.00000000000E+00 -0.30911462078E+03  0.30911462079E+03  0.25500000920E-02 0. -1.
    10030    2    1    2    0    0  0.00000000000E+00  0.00000000000E+00  0.19338023644E+03  0.81160947801E+03  0.78823475498E+03 0.  0.
        5    1    3    3  502    0  0.34939313464E+03  0.98656983135E+01 -0.90733939503E+02  0.36114765998E+03  0.46999998093E+01 0.  1.
       -5    1    3    3    0  502 -0.34939313464E+03 -0.98656983135E+01  0.28411417594E+03  0.45046181803E+03  0.46999998093E+01 0. -1.
</event>
<event>
 5   0  0.2635243E-02  0.7177169E+03  0.7818609E-02  0.9687405E-01
       -1   -1    0    0    0  501  0.00000000000E+00  0.00000000000E+00  0.40630313022E+03  0.40630313025E+03  0.50400001928E-02 0.  1.
        1   -1    0    0  501    0  0.00000000000E+00  0.00000000000E+00 -0.31695394046E+03  0.31695394050E+03  0.50400001928E-02 0. -1.
    10030    2    1    2    0    0  0.00000000000E+00  0.00000000000E+00  0.89349189766E+02  0.72325707075E+03  0.71771687501E+03 0.  0.
        1    1    3    3  502    0 -0.91042348599E+02 -0.31388447523E+03  0.19403205967E+03  0.38007974588E+03  0.50400001928E-02 0.  1.
       -1    1    3    3    0  502  0.91042348599E+02  0.31388447523E+03 -0.10468286990E+03  0.34317732487E+03  0.50400001928E-02 0. -1.
</event>
<event>
 5   0  0.2689372E-02  0.7910291E+03  0.7818609E-02  0.9573094E-01
       -1   -1    0    0    0  501  0.00000000000E+00  0.00000000000E+00  0.32692888423E+03  0.32692888427E+03  0.50400001928E-02 0.  1.
        1   -1    0    0  501    0  0.00000000000E+00  0.00000000000E+00 -0.47848859722E+03  0.47848859725E+03  0.50400001928E-02 0. -1.
    10030    2    1    2    0    0  0.00000000000E+00  0.00000000000E+00 -0.15155971299E+03  0.80541748152E+03  0.79102905948E+03 0.  0.
        4    1    3    3  502    0 -0.35941960428E+03  0.38025415264E+02  0.87771128071E+02  0.37193247771E+03  0.12699999809E+01 0. -1.
       -4    1    3    3    0  502  0.35941960428E+03 -0.38025415264E+02 -0.23933084106E+03  0.43348500381E+03  0.12699999809E+01 0.  1.
</event>
<event>
 5   0  0.2759559E-02  0.7917675E+03  0.7818609E-02  0.9572010E-01
       -1   -1    0    0    0  501  0.00000000000E+00  0.00000000000E+00  0.82790791100E+03  0.82790791101E+03  0.50400001928E-02 0. -1.
        1   -1    0    0  501    0  0.00000000000E+00  0.00000000000E+00 -0.18930117824E+03  0.18930117831E+03  0.50400001928E-02 0.  1.
    10030    2    1    2    0    0  0.00000000000E+00  0.00000000000E+00  0.63860673276E+03  0.10172090893E+04  0.79176749887E+03 0.  0.
        3    1    3    3  502    0  0.12372064986E+02  0.37143501093E+03  0.14405678906E+03  0.39858424958E+03  0.10100000352E+00 0. -1.
       -3    1    3    3    0  502 -0.12372064986E+02 -0.37143501093E+03  0.49454994369E+03  0.61862483974E+03  0.10100000352E+00 0.  1.
</event>
<event>
 5   0  0.1786500E-02  0.6330851E+03  0.7818609E-02  0.9839047E-01
        3   -1    0    0  501    0  0.00000000000E+00  0.00000000000E+00  0.25093233057E+03  0.25093235089E+03  0.10100000352E+00 0.  1.
       -3   -1    0    0    0  501  0.00000000000E+00  0.00000000000E+00 -0.39930753861E+03  0.39930755138E+03  0.10100000352E+00 0. -1.
    10030    2    1    2    0    0  0.00000000000E+00  0.00000000000E+00 -0.14837520804E+03  0.65023990227E+03  0.63308508761E+03 0.  0.
        2    1    3    3  502    0 -0.61191375413E+02 -0.24370803711E+03  0.12354178043E+03  0.28000100588E+03  0.25500000920E-02 0. -1.
       -2    1    3    3    0  502  0.61191375413E+02  0.24370803711E+03 -0.27191698847E+03  0.37023889639E+03  0.25500000920E-02 0.  1.
</event>
<event>
 5   0  0.2606520E-02  0.7316530E+03  0.7818609E-02  0.9664582E-01
       -1   -1    0    0    0  501  0.00000000000E+00  0.00000000000E+00  0.28803126036E+03  0.28803126040E+03  0.50400001928E-02 0. -1.
        1   -1    0    0  501    0  0.00000000000E+00  0.00000000000E+00 -0.46463364467E+03  0.46463364470E+03  0.50400001928E-02 0.  1.
    10030    2    1    2    0    0  0.00000000000E+00  0.00000000000E+00 -0.17660238431E+03  0.75266490510E+03  0.73165296229E+03 0.  0.
        5    1    3    3  502    0  0.13191538909E+03 -0.47736021534E+02  0.25922683200E+03  0.29478982014E+03  0.46999998093E+01 0. -1.
       -5    1    3    3    0  502 -0.13191538909E+03  0.47736021534E+02 -0.43582921632E+03  0.45787508496E+03  0.46999998093E+01 0.  1.
</event>
<event>
 5   0  0.2759559E-02  0.8088794E+03  0.7818609E-02  0.9547253E-01
        1   -1    0    0  501    0  0.00000000000E+00  0.00000000000E+00  0.12211929928E+04  0.12211929928E+04  0.50400001928E-02 0.  1.
       -1   -1    0    0    0  501  0.00000000000E+00  0.00000000000E+00 -0.13394400755E+03  0.13394400764E+03  0.50400001928E-02 0. -1.
    10030    2    1    2    0    0  0.00000000000E+00  0.00000000000E+00  0.10872489853E+04  0.13551370005E+04  0.80887943110E+03 0.  0.
        3    1    3    3  502    0  0.22371101115E+03  0.28938069338E+03  0.25449757575E+03  0.44559715941E+03  0.10100000352E+00 0. -1.
       -3    1    3    3    0  502 -0.22371101115E+03 -0.28938069338E+03  0.83275140951E+03  0.90953984105E+03  0.10100000352E+00 0.  1.
</event>
<event>
 5   0  0.4663634E-02  0.7794494E+03  0.7818609E-02  0.9590249E-01
        2   -1    0    0  501    0  0.00000000000E+00  0.00000000000E+00  0.51605362184E+03  0.51605362184E+03  0.25500000920E-02 0.  1.
       -2   -1    0    0    0  501  0.00000000000E+00  0.00000000000E+00 -0.29432084165E+03  0.29432084166E+03  0.25500000920E-02 0. -1.
    10030    2    1    2    0    0  0.00000000000E+00  0.00000000000E+00  0.22173278019E+03  0.81037446351E+03  0.77944938597E+03 0.  0.
        5    1    3    3  502    0  0.12643436988E+03 -0.30675190246E+03  0.32337990311E+03  0.46333468604E+03  0.46999998093E+01 0.  1.
       -5    1    3    3    0  502 -0.12643436988E+03  0.30675190246E+03 -0.10164712292E+03  0.34703977747E+03  0.46999998093E+01 0. -1.
</event>
<event>
 5   0  0.2606520E-02  0.6253864E+03  0.7818609E-02  0.9854094E-01
       -1   -1    0    0    0  501  0.00000000000E+00  0.00000000000E+00  0.89252128313E+03  0.89252128315E+03  0.50400001928E-02 0. -1.
        1   -1    0    0  501    0  0.00000000000E+00  0.00000000000E+00 -0.10955147393E+03  0.10955147404E+03  0.50400001928E-02 0.  1.
    10030    2    1    2    0    0  0.00000000000E+00  0.00000000000E+00  0.78296980920E+03  0.10020727572E+04  0.62538635145E+03 0.  0.
        5    1    3    3  502    0 -0.53309828885E+02 -0.24468263132E+03  0.69143845069E+03  0.73540515977E+03  0.46999998093E+01 0. -1.
       -5    1    3    3    0  502  0.53309828885E+02  0.24468263132E+03  0.91531358515E+02  0.26666759742E+03  0.46999998093E+01 0.  1.
</event>
<event>
 5   0  0.4663634E-02  0.7984902E+03  0.7818609E-02  0.9562205E-01
       -2   -1    0    0    0  501  0.00000000000E+00  0.00000000000E+00  0.11551046250E+04  0.11551046250E+04  0.25500000920E-02 0.  1.
        2   -1    0    0  501    0  0.00000000000E+00  0.00000000000E+00 -0.13799325182E+03  0.13799325185E+03  0.25500000920E-02 0. -1.
    10030    2    1    2    0    0  0.00000000000E+00  0.00000000000E+00  0.10171113732E+04  0.12930978768E+04  0.79849018383E+03 0.  0.
        5    1    3    3  502    0 -0.38206937510E+03  0.73478351247E+02  0.65338800825E+03  0.76046962781E+03  0.46999998093E+01 0. -1.
       -5    1    3    3    0  502  0.38206937510E+03 -0.73478351247E+02  0.36372336491E+03  0.53262824903E+03  0.46999998093E+01 0.  1.
</event>
<event>
 5   0  0.2689372E-02  0.7790151E+03  0.7818609E-02  0.9590899E-01
       -1   -1    0    0    0  501  0.00000000000E+00  0.00000000000E+00  0.14986366156E+04  0.14986366156E+04  0.50400001928E-02 0.  1.
        1   -1    0    0  501    0  0.00000000000E+00  0.00000000000E+00 -0.10123610955E+03  0.10123610967E+03  0.50400001928E-02 0. -1.
    10030    2    1    2    0    0  0.00000000000E+00  0.00000000000E+00  0.13974005060E+04  0.15998727252E+04  0.77901512357E+03 0.  0.
        4    1    3    3  502    0  0.35737282825E+02  0.34425349616E+03  0.10656595998E+04  0.11204550944E+04  0.12699999809E+01 0.  1.
       -4    1    3    3    0  502 -0.35737282825E+02 -0.34425349616E+03  0.33174090619E+03  0.47941763082E+03  0.12699999809E+01 0. -1.
</event>
<event>
 5   0  0.2606520E-02  0.8147799E+03  0.7818609E-02  0.9538867E-01
        1   -1    0    0  501    0  0.00000000000E+00  0.00000000000E+00  0.12855391593E+04  0.12855391593E+04  0.50400001928E-02 0. -1.
       -1   -1    0    0    0  501  0.00000000000E+00  0.00000000000E+00 -0.12910271114E+03  0.12910271124E+03  0.50400001928E-02 0.  1.
    10030    2    1    2    0    0  0.00000000000E+00  0.00000000000E+00  0.11564364482E+04  0.14146418705E+04  0.81477994777E+03 0.  0.
        5    1    3    3  502    0  0.19384689755E+03  0.25736586599E+03  0.14544610711E+03  0.35353991110E+03  0.46999998093E+01 0.  1.
       -5    1    3    3    0  502 -0.19384689755E+03 -0.25736586599E+03  0.10109903410E+04  0.10611019594E+04  0.46999998093E+01 0. -1.
</event>
<event>
 5   0  0.4590462E-02  0.8141075E+03  0.7818609E-02  0.9539819E-01
       -2   -1    0    0    0  501  0.00000000000E+00  0.00000000000E+00  0.33231765317E+03  0.33231765318E+03  0.25500000920E-02 0. -1.
        2   -1    0    0  501    0  0.00000000000E+00  0.00000000000E+00 -0.49859756039E+03  0.49859756039E+03  0.25500000920E-02 0.  1.
    10030    2    1    2    0    0  0.00000000000E+00  0.00000000000E+00 -0.16627990722E+03  0.83091521357E+03  0.81410753872E+03 0.  0.
        3    1    3    3  502    0  0.36945704658E+03  0.14770596469E+03 -0.17080383662E+03  0.43300060286E+03  0.10100000352E+00 0. -1.
       -3    1    3    3    0  502 -0.36945704658E+03 -0.14770596469E+03  0.45239294043E+01  0.39791461071E+03  0.10100000352E+00 0.  1.
</event>
<event>
 5   0  0.4663634E-02  0.8149202E+03  0.7818609E-02  0.9538668E-01
       -2   -1    0    0    0  501  0.00000000000E+00  0.00000000000E+00  0.13453018649E+03  0.13453018652E+03  0.25500000920E-02 0.  1.
        2   -1    0    0  501    0  0.00000000000E+00  0.00000000000E+00 -0.12341002434E+04  0.12341002434E+04  0.25500000920E-02 0. -1.
    10030    2    1    2    0    0  0.00000000000E+00  0.00000000000E+00 -0.10995700569E+04  0.13686304299E+04  0.81492020693E+03 0.  0.
        5    1    3    3  502    0 -0.37717534328E+03  0.22718242967E+02 -0.80572746917E+03  0.88994168501E+03  0.46999998093E+01 0. -1.
       -5    1    3    3    0  502  0.37717534328E+03 -0.22718242967E+02 -0.29384258776E+03  0.47868874493E+03  0.46999998093E+01 0.  1.
</event>
<event>
 5   0  0.1786500E-02  0.7900132E+03  0.7818609E-02  0.9574586E-01
       -3   -1    0    0    0  501  0.00000000000E+00  0.00000000000E+00  0.38583658075E+03  0.38583659397E+03  0.10100000352E+00 0. -1.
        3   -1    0    0  501    0  0.00000000000E+00  0.00000000000E+00 -0.40439456117E+03  0.40439457378E+03  0.10100000352E+00 0.  1.
    10030    2    1    2    0    0  0.00000000000E+00  0.00000000000E+00 -0.18557980418E+02  0.79023116774E+03  0.79001322763E+03 0.  0.
        2    1    3    3  502    0 -0.19341195721E+03 -0.28048428320E+03  0.19065262795E+03  0.39042034126E+03  0.25500000920E-02 0. -1.
       -2    1    3    3    0  502  0.19341195721E+03  0.28048428320E+03 -0.20921060837E+03  0.39981082649E+03  0.25500000920E-02 0.  1.
</event>
<event>
 5   0  0.4700220E-02  0.8034706E+03  0.7818609E-02  0.9555007E-01
        2   -1    0    0  501    0  0.00000000000E+00  0.00000000000E+00  0.15704712913E+04  0.15704712913E+04  0.25500000920E-02 0. -1.
       -2   -1    0    0    0  501  0.00000000000E+00  0.00000000000E+00 -0.10276612483E+03  0.10276612486E+03  0.25500000920E-02 0.  1.
    10030    2    1    2    0    0  0.00000000000E+00  0.00000000000E+00  0.14677051664E+04  0.16732374161E+04  0.80347059384E+03 0.  0.
        4    1    3    3  502    0  0.21461695754E+02  0.99391839470E+02  0.15432249409E+04  0.15465717485E+04  0.12699999809E+01 0. -1.
       -4    1    3    3    0  502 -0.21461695754E+02 -0.99391839470E+02 -0.75519774426E+02  0.12666566767E+03  0.12699999809E+01 0.  1.
</event>
<event>
 5   0  0.2635243E-02  0.7943157E+03  0.7818609E-02  0.9568281E-01
        1   -1    0    0  501    0  0.00000000000E+00  0.00000000000E+00  0.26248038047E+03  0.26248038052E+03  0.50400001928E-02 0.  1.
       -1   -1    0    0    0  501  0.00000000000E+00  0.00000000000E+00 -0.60093775142E+03  0.60093775144E+03  0.50400001928E-02 0. -1.
    10030    2    1    2    0    0  0.00000000000E+00  0.00000000000E+00 -0.33845737095E+03  0.86341813196E+03  0.79431572983E+03 0.  0.
        1    1    3    3  502    0  0.71359293147E+02  0.30619876680E+03 -0.43300064813E+03  0.53510690036E+03  0.50400001928E-02 0. -1.
       -1    1    3    3    0  502 -0.71359293147E+02 -0.30619876680E+03  0.94543277189E+02  0.32831123160E+03  0.50400001928E-02 0.  1.
</event>
<event>
 5   0  0.2769394E-02  0.8019611E+03  0.7818609E-02  0.9557183E-01
       -1   -1    0    0    0  501  0.00000000000E+00  0.00000000000E+00  0.41493628241E+03  0.41493628244E+03  0.50400001928E-02 0.  1.
        1   -1    0    0  501    0  0.00000000000E+00  0.00000000000E+00 -0.38749419734E+03  0.38749419737E+03  0.50400001928E-02 0. -1.
    10030    2    1    2    0    0  0.00000000000E+00  0.00000000000E+00  0.27442085074E+02  0.80243047981E+03  0.80196110061E+03 0.  0.
        2    1    3    3  502    0  0.29023686611E+03  0.24594038215E+03 -0.11308628455E+03  0.39687859325E+03  0.25500000920E-02 0. -1.
       -2    1    3    3    0  502 -0.29023686611E+03 -0.24594038215E+03  0.14052836963E+03  0.40555188656E+03  0.25500000920E-02 0.  1.
</event>
<event>
 5   0  0.2689372E-02  0.7787415E+03  0.7818609E-02  0.9591308E-01
       -1   -1    0    0    0  501  0.00000000000E+00  0.00000000000E+00  0.31311217844E+03  0.31311217848E+03  0.50400001928E-02 0. -1.
        1   -1    0    0  501    0  0.00000000000E+00  0.00000000000E+00 -0.48420216570E+03  0.48420216572E+03  0.50400001928E-02 0.  1.
    10030    2    1    2    0    0  0.00000000000E+00  0.00000000000E+00 -0.17108998726E+03  0.79731434420E+03  0.77874153590E+03 0.  0.
        4    1    3    3  502    0 -0.11681761928E+03 -0.35761513761E+03 -0.18830319648E+03  0.42070732051E+03  0.12699999809E+01 0.  1.
       -4    1    3    3    0  502  0.11681761928E+03  0.35761513761E+03  0.17213209215E+02  0.37660702369E+03  0.12699999809E+01 0. -1.
</event>
<event>
 5   0  0.2689372E-02  0.8269977E+03  0.7818609E-02  0.9521741E-01
       -1   -1    0    0    0  501  0.00000000000E+00  0.00000000000E+00  0.37299955852E+03  0.37299955855E+03  0.50400001928E-02 0.  1.
        1   -1    0    0  501    0  0.00000000000E+00  0.00000000000E+00 -0.45839540337E+03  0.45839540339E+03  0.50400001928E-02 0. -1.
    10030    2    1    2    0    0  0.00000000000E+00  0.00000000000E+00 -0.85395844845E+02  0.83139496195E+03  0.82699766169E+03 0.  0.
        4    1    3    3  502    0  0.13859945309E+03 -0.97106487088E+02  0.33658813690E+03  0.37673951881E+03  0.12699999809E+01 0.  1.
       -4    1    3    3    0  502 -0.13859945309E+03  0.97106487088E+02 -0.42198398174E+03  0.45465544314E+03  0.12699999809E+01 0. -1.
</event>
<event>
 5   0  0.2635243E-02  0.8336958E+03  0.7818609E-02  0.9512485E-01
       -1   -1    0    0    0  501  0.00000000000E+00  0.00000000000E+00  0.87869160326E+03  0.87869160327E+03  0.50400001928E-02 0. -1.
        1   -1    0    0  501    0  0.00000000000E+00  0.00000000000E+00 -0.19775102295E+03  0.19775102301E+03  0.50400001928E-02 0.  1.
    10030    2    1    2    0    0  0.00000000000E+00  0.00000000000E+00  0.68094058031E+03  0.10764426263E+04  0.83369578011E+03 0.  0.
        1    1    3    3  502    0  0.14536949580E+03 -0.11444429716E+03  0.82277419561E+03  0.84331913559E+03  0.50400001928E-02 0. -1.
       -1    1    3    3    0  502 -0.14536949580E+03  0.11444429716E+03 -0.14183361530E+03  0.23312349070E+03  0.50400001928E-02 0.  1.
</event>
<event>
 5   0  0.2606520E-02  0.8084663E+03  0.7818609E-02  0.9547843E-01
       -1   -1    0    0    0  501  0.00000000000E+00  0.00000000000E+00  0.68816483118E+03  0.68816483120E+03  0.50400001928E-02 0. -1.
        1   -1    0    0  501    0  0.00000000000E+00  0.00000000000E+00 -0.23744954730E+03  0.23744954735E+03  0.50400001928E-02 0.  1.
    10030    2    1    2    0    0  0.00000000000E+00  0.00000000000E+00  0.45071528389E+03  0.92561437855E+03  0.80846627057E+03 0.  0.
        5    1    3    3  502    0  0.68805314888E+01  0.34939959452E+03 -0.71868501732E+01  0.34957282385E+03  0.46999998093E+01 0. -1.
       -5    1    3    3    0  502 -0.68805314888E+01 -0.34939959452E+03  0.45790213406E+03  0.57604155470E+03  0.46999998093E+01 0.  1.
</event>
<event>
 5   0  0.4700220E-02  0.7958247E+03  0.7818609E-02  0.9566080E-01
       -2   -1    0    0    0  501  0.00000000000E+00  0.00000000000E+00  0.30423827862E+03  0.30423827863E+03  0.25500000920E-02 0.  1.
        2   -1    0    0  501    0  0.00000000000E+00  0.00000000000E+00 -0.52042843112E+03  0.52042843113E+03  0.25500000920E-02 0. -1.
    10030    2    1    2    0    0  0.00000000000E+00  0.00000000000E+00 -0.21619015251E+03  0.82466670976E+03  0.79582472954E+03 0.  0.
        4    1    3    3  502    0  0.31662793772E+03 -0.10107737727E+03 -0.33479942801E+03  0.47176493833E+03  0.12699999809E+01 0. -1.
       -4    1    3    3    0  502 -0.31662793772E+03  0.10107737727E+03  0.11860927551E+03  0.35290177143E+03  0.12699999809E+01 0.  1.
</event>
<event>
 5   0  0.2606520E-02  0.7839740E+03  0.7818609E-02  0.9583508E-01
       -1   -1    0    0    0  501  0.00000000000E+00  0.00000000000E+00  0.31684563080E+03  0.31684563084E+03  0.50400001928E-02 0. -1.
        1   -1    0    0  501    0  0.00000000000E+00  0.00000000000E+00 -0.48494845477E+03  0.48494845480E+03  0.50400001928E-02 0.  1.
    10030    2    1    2    0    0  0.00000000000E+00  0.00000000000E+00 -0.16810282397E+03  0.80179408564E+03  0.78397397683E+03 0.  0.
        5    1    3    3  502    0  0.68622375392E+02 -0.11828127330E+03  0.29162941633E+03  0.32213242073E+03  0.46999998093E+01 0. -1.
       -5    1    3    3    0  502 -0.68622375392E+02  0.11828127330E+03 -0.45973224030E+03  0.47966166491E+03  0.46999998093E+01 0.  1.
</event>
<event>
 5   0  0.4700220E-02  0.8366302E+03  0.7818609E-02  0.9508459E-01
        2   -1    0    0  501    0  0.00000000000E+00  0.00000000000E+00  0.14481859066E+04  0.14481859066E+04  0.25500000920E-02 0.  1.
       -2   -1    0    0    0  501  0.00000000000E+00  0.00000000000E+00 -0.12083221688E+03  0.12083221691E+03  0.25500000920E-02 0. -1.
    10030    2    1    2    0    0  0.00000000000E+00  0.00000000000E+00  0.13273536897E+04  0.15690181235E+04  0.83663017774E+03 0.  0.
        4    1    3    3  502    0 -0.31254789396E+03 -0.12743963795E+03  0.11270904249E+04  0.11765464233E+04  0.12699999809E+01 0.  1.
       -4    1    3    3    0  502  0.31254789396E+03  0.12743963795E+03  0.20026326480E+03  0.39247170022E+03  0.12699999809E+01 0. -1.
</event>
<event>
 5   0  0.2635243E-02  0.7874626E+03  0.7818609E-02  0.9578344E-01
        1   -1    0    0  501    0  0.00000000000E+00  0.00000000000E+00  0.71740315590E+03  0.71740315592E+03  0.50400001928E-02 0. -1.
       -1   -1    0    0    0  501  0.00000000000E+00  0.00000000000E+00 -0.21609096308E+03  0.21609096314E+03  0.50400001928E-02 0.  1.
    10030    2    1    2    0    0  0.00000000000E+00  0.00000000000E+00  0.50131219282E+03  0.93349411906E+03  0.78746260588E+03 0.  0.
        1    1    3    3  502    0  0.22001121316E+03  0.11864916203E+03  0.61127673164E+03  0.66041032718E+03  0.50400001928E-02 0. -1.
       -1    1    3    3    0  502 -0.22001121316E+03 -0.11864916203E+03 -0.10996453882E+03  0.27308379189E+03  0.50400001928E-02 0.  1.
</event>
<event>
 5   0  0.1786500E-02  0.7951970E+03  0.7818609E-02  0.9566995E-01
        3   -1    0    0  501    0  0.00000000000E+00  0.00000000000E+00  0.19706012255E+03  0.19706014844E+03  0.10100000352E+00 0. -1.
       -3   -1    0    0    0  501  0.00000000000E+00  0.00000000000E+00 -0.80221481078E+03  0.80221481714E+03  0.10100000352E+00 0.  1.
    10030    2    1    2    0    0  0.00000000000E+00  0.00000000000E+00 -0.60515468823E+03  0.99927496558E+03  0.79519699455E+03 0.  0.
        3    1    3    3  502    0 -0.29794420997E+03 -0.36713643420E+02  0.25031674292E+02  0.30123950403E+03  0.10100000352E+00 0. -1.
       -3    1    3    3    0  502  0.29794420997E+03  0.36713643420E+02 -0.63018636252E+03  0.69803546155E+03  0.10100000352E+00 0.  1.
</event>
<event>
 5   0  0.4684283E-02  0.7891652E+03  0.7818609E-02  0.9575834E-01
       -2   -1    0    0    0  501  0.00000000000E+00  0.00000000000E+00  0.10175628145E+03  0.10175628148E+03  0.25500000920E-02 0. -1.
        2   -1    0    0  501    0  0.00000000000E+00  0.00000000000E+00 -0.15300816395E+04  0.15300816395E+04  0.25500000920E-02 0.  1.
    10030    2    1    2    0    0  0.00000000000E+00  0.00000000000E+00 -0.14283253581E+04  0.16318379210E+04  0.78916517404E+03 0.  0.
        1    1    3    3  502    0 -0.14411849368E+03  0.36383697537E+03 -0.81853927261E+03  0.90727836175E+03  0.50400001928E-02 0.  1.
       -1    1    3    3    0  502  0.14411849368E+03 -0.36383697537E+03 -0.60978608546E+03  0.72455955926E+03  0.50400001928E-02 0. -1.
</event>
<event>
 5   0  0.2759559E-02  0.7896337E+03  0.7818609E-02  0.9575144E-01
       -1   -1    0    0    0  501  0.00000000000E+00  0.00000000000E+00  0.28830266328E+03  0.28830266332E+03  0.50400001928E-02 0. -1.
        1   -1    0    0  501    0  0.00000000000E+00  0.00000000000E+00 -0.54068298462E+03  0.54068298464E+03  0.50400001928E-02 0.  1.
    10030    2    1    2    0    0  0.00000000000E+00  0.00000000000E+00 -0.25238032134E+03  0.82898564796E+03  0.78963369857E+03 0.  0.
        3    1    3    3  502    0  0.35813597296E+03  0.16162078896E+03 -0.16681866301E+03  0.42686195787E+03  0.10100000352E+00 0.  1.
       -3    1    3    3    0  502 -0.35813597296E+03 -0.16162078896E+03 -0.85561658335E+02  0.40212369009E+03  0.10100000352E+00 0. -1.
</event>
<event>
 5   0  0.4377843E-02  0.8057175E+03  0.7818609E-02  0.9551778E-01
        2   -1    0    0  501    0  0.00000000000E+00  0.00000000000E+00  0.13935013958E+04  0.13935013958E+04  0.25500000920E-02 0. -1.
       -2   -1    0    0    0  501  0.00000000000E+00  0.00000000000E+00 -0.11646574351E+03  0.11646574354E+03  0.25500000920E-02 0.  1.
    10030    2    1    2    0    0  0.00000000000E+00  0.00000000000E+00  0.12770356523E+04  0.15099671393E+04  0.80571750922E+03 0.  0.
        2    1    3    3  502    0  0.17393109480E+03  0.33022146574E+03  0.92271494047E+03  0.99533969254E+03  0.25500000920E-02 0. -1.
       -2    1    3    3    0  502 -0.17393109480E+03 -0.33022146574E+03  0.35432071181E+03  0.51462744679E+03  0.25500000920E-02 0.  1.
</event>
<event>
 5   0  0.2635243E-02  0.7950449E+03  0.7818609E-02  0.9567217E-01
       -1   -1    0    0    0  501  0.00000000000E+00  0.00000000000E+00  0.13949553505E+03  0.13949553514E+03  0.50400001928E-02 0.  1.
        1   -1    0    0  501    0  0.00000000000E+00  0.00000000000E+00 -0.11328254621E+04  0.11328254621E+04  0.50400001928E-02 0. -1.
    10030    2    1    2    0    0  0.00000000000E+00  0.00000000000E+00 -0.99332992708E+03  0.12723209973E+04  0.79504488936E+03 0.  0.
        1    1    3    3  502    0 -0.92494059785E+02 -0.37718038917E+03 -0.36083712512E+03  0.53011661732E+03  0.50400001928E-02 0.  1.
       -1    1    3    3    0  502  0.92494059785E+02  0.37718038917E+03 -0.63249280197E+03  0.74220437996E+03  0.50400001928E-02 0. -1.
</event>
<event>
 5   0  0.2759559E-02  0.8123990E+03  0.7818609E-02  0.9542242E-01
       -1   -1    0    0    0  501  0.00000000000E+00  0.00000000000E+00  0.40245938025E+03  0.40245938028E+03  0.50400001928E-02 0. -1.
        1   -1    0    0  501    0  0.00000000000E+00  0.00000000000E+00 -0.40997433895E+03  0.40997433898E+03  0.50400001928E-02 0.  1.
    10030    2    1    2    0    0  0.00000000000E+00  0.00000000000E+00 -0.75149586993E+01  0.81243371927E+03  0.81239896208E+03 0.  0.
        3    1    3    3  502    0  0.16580185892E+03 -0.36485890064E+03  0.62470231461E+02  0.40560425764E+03  0.10100000352E+00 0. -1.
       -3    1    3    3    0  502 -0.16580185892E+03  0.36485890064E+03 -0.69985190160E+02  0.40682946162E+03  0.10100000352E+00 0.  1.
</event>
<event>
 5   0  0.2635243E-02  0.8089765E+03  0.7818609E-02  0.9547114E-01
        1   -1    0    0  501    0  0.00000000000E+00  0.00000000000E+00  0.72982471335E+03  0.72982471337E+03  0.50400001928E-02 0. -1.
       -1   -1    0    0    0  501  0.00000000000E+00  0.00000000000E+00 -0.22417811306E+03  0.22417811312E+03  0.50400001928E-02 0.  1.
    10030    2    1    2    0    0  0.00000000000E+00  0.00000000000E+00  0.50564660029E+03  0.95400282648E+03  0.80897645735E+03 0.  0.
        1    1    3    3  502    0 -0.27043257262E+03 -0.17820038891E+03  0.53859065550E+03  0.62846563085E+03  0.50400001928E-02 0. -1.
       -1    1    3    3    0  502  0.27043257262E+03  0.17820038891E+03 -0.32944055208E+02  0.32553719564E+03  0.50400001928E-02 0.  1.
</event>
<event>
 5   0  0.4663634E-02  0.8105697E+03  0.7818609E-02  0.9544843E-01
        2   -1    0    0  501    0  0.00000000000E+00  0.00000000000E+00  0.25192544675E+03  0.25192544676E+03  0.25500000920E-02 0. -1.
       -2   -1    0    0    0  501  0.00000000000E+00  0.00000000000E+00 -0.65200169586E+03  0.65200169586E+03  0.25500000920E-02 0.  1.
    10030    2    1    2    0    0  0.00000000000E+00  0.00000000000E+00 -0.40007624911E+03  0.90392714262E+03  0.81056972190E+03 0.  0.
        5    1    3    3  502    0 -0.30526086996E+03 -0.10771365501E+03 -0.47193806432E+03  0.57230591187E+03  0.46999998093E+01 0.  1.
       -5    1    3    3    0  502  0.30526086996E+03  0.10771365501E+03  0.71861815209E+02  0.33162123076E+03  0.46999998093E+01 0. -1.
</event>
<event>
 5   0  0.4590462E-02  0.8017862E+03  0.7818609E-02  0.9557435E-01
        2   -1    0    0  501    0  0.00000000000E+00  0.00000000000E+00  0.72395294303E+03  0.72395294303E+03  0.25500000920E-02 0.  1.
       -2   -1    0    0    0  501  0.00000000000E+00  0.00000000000E+00 -0.22199683129E+03  0.22199683131E+03  0.25500000920E-02 0. -1.
    10030    2    1    2    0    0  0.00000000000E+00  0.00000000000E+00  0.50195611173E+03  0.94594977434E+03  0.80178615445E+03 0.  0.
        3    1    3    3  502    0  0.28686928907E+02 -0.79938603465E+02 -0.21126109543E+03  0.22769361181E+03  0.10100000352E+00 0. -1.
       -3    1    3    3    0  502 -0.28686928907E+02  0.79938603465E+02  0.71321720717E+03  0.71825616253E+03  0.10100000352E+00 0.  1.
</event>
<event>
 5   0  0.4684283E-02  0.7828700E+03  0.7818609E-02  0.9585148E-01
        2   -1    0    0  501    0  0.00000000000E+00  0.00000000000E+00  0.25242304602E+04  0.25242304602E+04  0.25500000920E-02 0.  1.
       -2   -1    0    0    0  501  0.00000000000E+00  0.00000000000E+00 -0.60700226692E+02  0.60700226746E+02  0.25500000920E-02 0. -1.
    10030    2    1    2    0    0  0.00000000000E+00  0.00000000000E+00  0.24635302335E+04  0.25849306870E+04  0.78287000512E+03 0.  0.
        1    1    3    3  502    0 -0.65548556398E+02 -0.27618748372E+03  0.34182091984E+03  0.44431709474E+03  0.50400001928E-02 0. -1.
       -1    1    3    3    0  502  0.65548556398E+02  0.27618748372E+03  0.21217093137E+04  0.21406135922E+04  0.50400001928E-02 0.  1.
</event>
<event>
 5   0  0.2769394E-02  0.7954408E+03  0.7818609E-02  0.9566640E-01
        1   -1    0    0  501    0  0.00000000000E+00  0.00000000000E+00  0.47122639775E+03  0.47122639778E+03  0.50400001928E-02 0.  1.
       -1   -1    0    0    0  501  0.00000000000E+00  0.00000000000E+00 -0.33568047261E+03  0.33568047265E+03  0.50400001928E-02 0. -1.
    10030    2    1    2    0    0  0.00000000000E+00  0.00000000000E+00  0.13554592514E+03  0.80690687043E+03  0.79544075815E+03 0.  0.
        2    1    3    3  502    0 -0.24695344274E+03  0.19470615840E+03 -0.17922195551E+03  0.36196270573E+03  0.25500000920E-02 0. -1.
       -2    1    3    3    0  502  0.24695344274E+03 -0.19470615840E+03  0.31476788065E+03  0.44494416469E+03  0.25500000920E-02 0.  1.
</event>
<event>
 5   0  0.2635243E-02  0.6593443E+03  0.7818609E-02  0.9789402E-01
        1   -1    0    0  501    0  0.00000000000E+00  0.00000000000E+00  0.15467663228E+04  0.15467663228E+04  0.50400001928E-02 0. -1.
       -1   -1    0    0    0  501  0.00000000000E+00  0.00000000000E+00 -0.70265113256E+02  0.70265113437E+02  0.50400001928E-02 0.  1.
    10030    2    1    2    0    0  0.00000000000E+00  0.00000000000E+00  0.14765012095E+04  0.16170314362E+04  0.65934425303E+03 0.  0.
        1    1    3    3  502    0  0.36604030719E+02 -0.36055500613E+02  0.15368868110E+04  0.15377454029E+04  0.50400001928E-02 0. -1.
       -1    1    3    3    0  502 -0.36604030719E+02  0.36055500613E+02 -0.60385601494E+02  0.79286033339E+02  0.50400001928E-02 0.  1.
</event>
<event>
 5   0  0.4663634E-02  0.8109530E+03  0.7818609E-02  0.9544297E-01
        2   -1    0    0  501    0  0.00000000000E+00  0.00000000000E+00  0.30806225589E+03  0.30806225590E+03  0.25500000920E-02 0.  1.
       -2   -1    0    0    0  501  0.00000000000E+00  0.00000000000E+00 -0.53369464984E+03  0.53369464985E+03  0.25500000920E-02 0. -1.
    10030    2    1    2    0    0  0.00000000000E+00  0.00000000000E+00 -0.22563239395E+03  0.84175690575E+03  0.81095296483E+03 0.  0.
        5    1    3    3  502    0  0.18446663513E+02  0.11356455815E+03  0.29073424451E+03  0.31270701814E+03  0.46999998093E+01 0.  1.
       -5    1    3    3    0  502 -0.18446663513E+02 -0.11356455815E+03 -0.51636663846E+03  0.52904988761E+03  0.46999998093E+01 0. -1.
</event>
<event>
 5   0  0.2759559E-02  0.8015701E+03  0.7818609E-02  0.9557747E-01
        1   -1    0    0  501    0  0.00000000000E+00  0.00000000000E+00  0.18772923355E+04  0.18772923355E+04  0.50400001928E-02 0. -1.
       -1   -1    0    0    0  501  0.00000000000E+00  0.00000000000E+00 -0.85564008451E+02  0.85564008599E+02  0.50400001928E-02 0.  1.
    10030    2    1    2    0    0  0.00000000000E+00  0.00000000000E+00  0.17917283270E+04  0.19628563441E+04  0.80157010276E+03 0.  0.
        3    1    3    3  502    0 -0.87884837729E+02  0.14367462574E+03  0.52996687672E+01  0.16850590338E+03  0.10100000352E+00 0.  1.
       -3    1    3    3    0  502  0.87884837729E+02 -0.14367462574E+03  0.17864286582E+04  0.17943504407E+04  0.10100000352E+00 0. -1.
</event>
<event>
 5   0  0.2689372E-02  0.6085086E+03  0.7818609E-02  0.9887909E-01
       -1   -1    0    0    0  501  0.00000000000E+00  0.00000000000E+00  0.15053776964E+03  0.15053776973E+03  0.50400001928E-02 0.  1.
        1   -1    0    0  501    0  0.00000000000E+00  0.00000000000E+00 -0.61493319233E+03  0.61493319235E+03  0.50400001928E-02 0. -1.
    10030    2    1    2    0    0  0.00000000000E+00  0.00000000000E+00 -0.46439542269E+03  0.76547096208E+03  0.60850857444E+03 0.  0.
        4    1    3    3  502    0 -0.22004489161E+03 -0.83872148349E+02  0.10148026611E+02  0.23570932722E+03  0.12699999809E+01 0.  1.
       -4    1    3    3    0  502  0.22004489161E+03  0.83872148349E+02 -0.47454344930E+03  0.52976163486E+03  0.12699999809E+01 0. -1.
</event>
<event>
 5   0  0.4663634E-02  0.7545934E+03  0.7818609E-02  0.9628172E-01
        2   -1    0    0  501    0  0.00000000000E+00  0.00000000000E+00  0.49820476075E+03  0.49820476076E+03  0.25500000920E-02 0. -1.
       -2   -1    0    0    0  501  0.00000000000E+00  0.00000000000E+00 -0.28573149502E+03  0.28573149503E+03  0.25500000920E-02 0.  1.
    10030    2    1    2    0    0  0.00000000000E+00  0.00000000000E+00  0.21247326574E+03  0.78393625578E+03  0.75459337691E+03 0.  0.
        5    1    3    3  502    0 -0.11149145061E+03  0.30201291130E+03 -0.98106025139E+02  0.33658434948E+03  0.46999998093E+01 0.  1.
       -5    1    3    3    0  502  0.11149145061E+03 -0.30201291130E+03  0.31057929087E+03  0.44735190630E+03  0.46999998093E+01 0. -1.
</event>
<event>
 5   0  0.2606520E-02  0.7665853E+03  0.7818609E-02  0.9609684E-01
       -1   -1    0    0    0  501  0.00000000000E+00  0.00000000000E+00  0.15534446200E+03  0.15534446208E+03  0.50400001928E-02 0.  1.
        1   -1    0    0  501    0  0.00000000000E+00  0.00000000000E+00 -0.94572561539E+03  0.94572561541E+03  0.50400001928E-02 0. -1.
    10030    2    1    2    0    0  0.00000000000E+00  0.00000000000E+00 -0.79038115339E+03  0.11010700775E+04  0.76658525156E+03 0.  0.
        5    1    3    3  502    0  0.25231538086E+03 -0.74092927076E+02 -0.79566253795E+03  0.83800583385E+03  0.46999998093E+01 0. -1.
       -5    1    3    3    0  502 -0.25231538086E+03  0.74092927076E+02  0.52813845590E+01  0.26306424365E+03  0.46999998093E+01 0.  1.
</event>
<event>
 5   0  0.4663634E-02  0.8078078E+03  0.7818609E-02  0.9548784E-01
       -2   -1    0    0    0  501  0.00000000000E+00  0.00000000000E+00  0.15208110757E+03  0.15208110759E+03  0.25500000920E-02 0.  1.
        2   -1    0    0  501    0  0.00000000000E+00  0.00000000000E+00 -0.10727063191E+04  0.10727063191E+04  0.25500000920E-02 0. -1.
    10030    2    1    2    0    0  0.00000000000E+00  0.00000000000E+00 -0.92062521156E+03  0.12247874267E+04  0.80780781161E+03 0.  0.
        5    1    3    3  502    0  0.23739034342E+03  0.16219761765E+03 -0.30255052304E+02  0.28913612799E+03  0.46999998093E+01 0.  1.
       -5    1    3    3    0  502 -0.23739034342E+03 -0.16219761765E+03 -0.89037015925E+03  0.93565129873E+03  0.46999998093E+01 0. -1.
</event>
<event>
 5   0  0.4700220E-02  0.7856850E+03  0.7818609E-02  0.9580972E-01
       -2   -1    0    0    0  501  0.00000000000E+00  0.00000000000E+00  0.24779297660E+03  0.24779297661E+03  0.25500000920E-02 0.  1.
        2   -1    0    0  501    0  0.00000000000E+00  0.00000000000E+00 -0.62279904720E+03  0.62279904721E+03  0.25500000920E-02 0. -1.
    10030    2    1    2    0    0  0.00000000000E+00  0.00000000000E+00 -0.37500607060E+03  0.87059202382E+03  0.78568499983E+03 0.  0.
        4    1    3    3  502    0  0.19033708649E+03 -0.17877315569E+03  0.13770216824E+03  0.29521440976E+03  0.12699999809E+01 0.  1.
       -4    1    3    3    0  502 -0.19033708649E+03  0.17877315569E+03 -0.51270823884E+03  0.57537761407E+03  0.12699999809E+01 0. -1.
</event>
<event>
 5   0  0.4684283E-02  0.7997453E+03  0.7818609E-02  0.9560386E-01
       -2   -1    0    0    0  501  0.00000000000E+00  0.00000000000E+00  0.48925698528E+03  0.48925698529E+03  0.25500000920E-02 0.  1.
        2   -1    0    0  501    0  0.00000000000E+00  0.00000000000E+00 -0.32681832380E+03  0.32681832381E+03  0.25500000920E-02 0. -1.
    10030    2    1    2    0    0  0.00000000000E+00  0.00000000000E+00  0.16243866149E+03  0.81607530910E+03  0.79974532907E+03 0.  0.
        1    1    3    3  502    0  0.33481656378E+03 -0.20174389990E+03  0.16717359664E+03  0.42514673228E+03  0.50400001928E-02 0.  1.
       -1    1    3    3    0  502 -0.33481656378E+03  0.20174389990E+03 -0.47349351569E+01  0.39092857681E+03  0.50400001928E-02 0. -1.
</event>
<event>
 5   0  0.4684283E-02  0.8153041E+03  0.7818609E-02  0.9538125E-01
       -2   -1    0    0    0  501  0.00000000000E+00  0.00000000000E+00  0.11700585903E+03  0.11700585906E+03  0.25500000920E-02 0.  1.
        2   -1    0    0  501    0  0.00000000000E+00  0.00000000000E+00 -0.14202724060E+04  0.14202724060E+04  0.25500000920E-02 0. -1.
    10030    2    1    2    0    0  0.00000000000E+00  0.00000000000E+00 -0.13032665470E+04  0.15372782651E+04  0.81530409773E+03 0.  0.
        1    1    3    3  502    0 -0.72348096616E+02 -0.34592856436E+03 -0.26854450964E+03  0.44386593968E+03  0.50400001928E-02 0.  1.
       -1    1    3    3    0  502  0.72348096616E+02  0.34592856436E+03 -0.10347220373E+04  0.10934123254E+04  0.50400001928E-02 0. -1.
</event>
<event>
 5   0  0.2769394E-02  0.8325316E+03  0.7818609E-02  0.9514087E-01
        1   -1    0    0  501    0  0.00000000000E+00  0.00000000000E+00  0.37243795979E+03  0.37243795982E+03  0.50400001928E-02 0.  1.
       -1   -1    0    0    0  501  0.00000000000E+00  0.00000000000E+00 -0.46525121306E+03  0.46525121308E+03  0.50400001928E-02 0. -1.
    10030    2    1    2    0    0  0.00000000000E+00  0.00000000000E+00 -0.92813253266E+02  0.83768917291E+03  0.83253159125E+03 0.  0.
        2    1    3    3  502    0 -0.19385479588E+03  0.14472271623E+03  0.29444388541E+03  0.38107945122E+03  0.25500000920E-02 0.  1.
       -2    1    3    3    0  502  0.19385479588E+03 -0.14472271623E+03 -0.38725713868E+03  0.45660972169E+03  0.25500000920E-02 0. -1.
</event>
<event>
 5   0  0.4684283E-02  0.7939335E+03  0.7818609E-02  0.9568840E-01
       -2   -1    0    0    0  501  0.00000000000E+00  0.00000000000E+00  0.31258765190E+03  0.31258765191E+03  0.25500000920E-02 0. -1.
        2   -1    0    0  501    0  0.00000000000E+00  0.00000000000E+00 -0.50412296948E+03  0.50412296949E+03  0.25500000920E-02 0.  1.
    10030    2    1    2    0    0  0.00000000000E+00  0.00000000000E+00 -0.19153531758E+03  0.81671062140E+03  0.79393353704E+03 0.  0.
        1    1    3    3  502    0  0.13040249119E+03  0.21009015606E+03  0.22368941082E+03  0.33343610471E+03  0.50400001928E-02 0. -1.
       -1    1    3    3    0  502 -0.13040249119E+03 -0.21009015606E+03 -0.41522472841E+03  0.48327451670E+03  0.50400001928E-02 0.  1.
</event>
<event>
 5   0  0.2606520E-02  0.8079227E+03  0.7818609E-02  0.9548620E-01
        1   -1    0    0  501    0  0.00000000000E+00  0.00000000000E+00  0.27729283436E+03  0.27729283440E+03  0.50400001928E-02 0. -1.
       -1   -1    0    0    0  501  0.00000000000E+00  0.00000000000E+00 -0.58849255741E+03  0.58849255743E+03  0.50400001928E-02 0.  1.
    10030    2    1    2    0    0  0.00000000000E+00  0.00000000000E+00 -0.31119972305E+03  0.86578539183E+03  0.80792269252E+03 0.  0.
        5    1    3    3  502    0 -0.26488215306E+03 -0.12968953602E+02 -0.48210433673E+03  0.55025215152E+03  0.46999998093E+01 0.  1.
       -5    1    3    3    0  502  0.26488215306E+03  0.12968953602E+02  0.17090461367E+03  0.31553324031E+03  0.46999998093E+01 0. -1.
</event>
<event>
 5   0  0.2759559E-02  0.7397355E+03  0.7818609E-02  0.9651593E-01
       -1   -1    0    0    0  501  0.00000000000E+00  0.00000000000E+00  0.10779648464E+03  0.10779648476E+03  0.50400001928E-02 0. -1.
        1   -1    0    0  501    0  0.00000000000E+00  0.00000000000E+00 -0.12690781006E+04  0.12690781006E+04  0.50400001928E-02 0.  1.
    10030    2    1    2    0    0  0.00000000000E+00  0.00000000000E+00 -0.11612816160E+04  0.13768745854E+04  0.73973551509E+03 0.  0.
        3    1    3    3  502    0  0.22035236249E+02 -0.36244501277E+03 -0.71159809803E+03  0.79888910510E+03  0.10100000352E+00 0.  1.
       -3    1    3    3    0  502 -0.22035236249E+02  0.36244501277E+03 -0.44968351793E+03  0.57798548028E+03  0.10100000352E+00 0. -1.
</event>
<event>
 5   0  0.4700220E-02  0.7864953E+03  0.7818609E-02  0.9579773E-01
       -2   -1    0    0    0  501  0.00000000000E+00  0.00000000000E+00  0.11473808684E+03  0.11473808687E+03  0.25500000920E-02 0.  1.
        2   -1    0    0  501    0  0.00000000000E+00  0.00000000000E+00 -0.13477975950E+04  0.13477975950E+04  0.25500000920E-02 0. -1.
    10030    2    1    2    0    0  0.00000000000E+00  0.00000000000E+00 -0.12330595082E+04  0.14625356819E+04  0.78649530838E+03 0.  0.
        4    1    3    3  502    0 -0.11566001257E+03  0.15082411134E+03  0.23647993270E+02  0.19153587538E+03  0.12699999809E+01 0.  1.
       -4    1    3    3    0  502  0.11566001257E+03 -0.15082411134E+03 -0.12567075014E+04  0.12709998065E+04  0.12699999809E+01 0. -1.
</event>
<event>
 5   0  0.2689372E-02  0.7966908E+03  0.7818609E-02  0.9564819E-01
        1   -1    0    0  501    0  0.00000000000E+00  0.00000000000E+00  0.68940777636E+03  0.68940777638E+03  0.50400001928E-02 0.  1.
       -1   -1    0    0    0  501  0.00000000000E+00  0.00000000000E+00 -0.23016722004E+03  0.23016722010E+03  0.50400001928E-02 0. -1.
    10030    2    1    2    0    0  0.00000000000E+00  0.00000000000E+00  0.45924055632E+03  0.91957499648E+03  0.79669083438E+03 0.  0.
        4    1    3    3  502    0  0.35593520022E+03 -0.65536715253E+02  0.42169873424E+03  0.55571248246E+03  0.12699999809E+01 0.  1.
       -4    1    3    3    0  502 -0.35593520022E+03  0.65536715253E+02  0.37541822078E+02  0.36386251402E+03  0.12699999809E+01 0. -1.
</event>
<event>
 5   0  0.4590462E-02  0.7949247E+03  0.7818609E-02  0.9567393E-01
        2   -1    0    0  501    0  0.00000000000E+00  0.00000000000E+00  0.26163050829E+03  0.26163050830E+03  0.25500000920E-02 0.  1.
       -2   -1    0    0    0  501  0.00000000000E+00  0.00000000000E+00 -0.60381452150E+03  0.60381452150E+03  0.25500000920E-02 0. -1.
    10030    2    1    2    0    0  0.00000000000E+00  0.00000000000E+00 -0.34218401321E+03  0.86544502981E+03  0.79492465097E+03 0.  0.
        3    1    3    3  502    0 -0.25659363201E+03  0.15658006978E+03  0.11201255474E+03  0.32078720807E+03  0.10100000352E+00 0.  1.
       -3    1    3    3    0  502  0.25659363201E+03 -0.15658006978E+03 -0.45419656795E+03  0.54465782174E+03  0.10100000352E+00 0. -1.
</event>
<event>
 5   0  0.4590462E-02  0.7915662E+03  0.7818609E-02  0.9572306E-01
       -2   -1    0    0    0  501  0.00000000000E+00  0.00000000000E+00  0.26257015524E+03  0.26257015525E+03  0.25500000920E-02 0.  1.
        2   -1    0    0  501    0  0.00000000000E+00  0.00000000000E+00 -0.59658056238E+03  0.59658056238E+03  0.25500000920E-02 0. -1.
    10030    2    1    2    0    0  0.00000000000E+00  0.00000000000E+00 -0.33401040714E+03  0.85915071763E+03  0.79156617129E+03 0.  0.
        3    1    3    3  502    0 -0.25716023797E+03 -0.14252103533E+03 -0.45458115524E+03  0.54137572019E+03  0.10100000352E+00 0. -1.
       -3    1    3    3    0  502  0.25716023797E+03  0.14252103533E+03  0.12057074810E+03  0.31777499745E+03  0.10100000352E+00 0.  1.
</event>
<event>
 5   0  0.4590462E-02  0.4644633E+03  0.7818609E-02  0.1023495E+00
        2   -1    0    0  501    0  0.00000000000E+00  0.00000000000E+00  0.93569911641E+03  0.93569911642E+03  0.25500000920E-02 0. -1.
       -2   -1    0    0    0  501  0.00000000000E+00  0.00000000000E+00 -0.57637682929E+02  0.57637682985E+02  0.25500000920E-02 0.  1.
    10030    2    1    2    0    0  0.00000000000E+00  0.00000000000E+00  0.87806143349E+03  0.99333679940E+03  0.46446325589E+03 0.  0.
        3    1    3    3  502    0 -0.56435216878E+02  0.86823709835E+02 -0.55272455312E+01  0.10370077597E+03  0.10100000352E+00 0.  1.
       -3    1    3    3    0  502  0.56435216878E+02 -0.86823709835E+02  0.88358867902E+03  0.88963602343E+03  0.10100000352E+00 0. -1.
</event>
<event>
 5   0  0.2769394E-02  0.8057840E+03  0.7818609E-02  0.9551683E-01
       -1   -1    0    0    0  501  0.00000000000E+00  0.00000000000E+00  0.19336854682E+03  0.19336854688E+03  0.50400001928E-02 0.  1.
        1   -1    0    0  501    0  0.00000000000E+00  0.00000000000E+00 -0.83944340503E+03  0.83944340505E+03  0.50400001928E-02 0. -1.
    10030    2    1    2    0    0  0.00000000000E+00  0.00000000000E+00 -0.64607485822E+03  0.10328119519E+04  0.80578396958E+03 0.  0.
        2    1    3    3  502    0  0.24545577934E+03  0.73285584921E+02  0.75548336959E+02  0.26707090406E+03  0.25500000920E-02 0.  1.
       -2    1    3    3    0  502 -0.24545577934E+03 -0.73285584921E+02 -0.72162319518E+03  0.76574104787E+03  0.25500000920E-02 0. -1.
</event>
<event>
 5   0  0.4663634E-02  0.7710645E+03  0.7818609E-02  0.9602871E-01
        2   -1    0    0  501    0  0.00000000000E+00  0.00000000000E+00  0.10782354680E+04  0.10782354680E+04  0.25500000920E-02 0.  1.
       -2   -1    0    0    0  501  0.00000000000E+00  0.00000000000E+00 -0.13785032559E+03  0.13785032562E+03  0.25500000920E-02 0. -1.
    10030    2    1    2    0    0  0.00000000000E+00  0.00000000000E+00  0.94038514244E+03  0.12160857937E+04  0.77106448589E+03 0.  0.
        5    1    3    3  502    0 -0.16952699645E+03 -0.55016827165E+02 -0.68922985340E+02  0.19115104422E+03  0.46999998093E+01 0. -1.
       -5    1    3    3    0  502  0.16952699645E+03  0.55016827165E+02  0.10093081278E+04  0.10249347494E+04  0.46999998093E+01 0.  1.
</event>
<event>
 5   0  0.4663634E-02  0.7943636E+03  0.7818609E-02  0.9568212E-01
       -2   -1    0    0    0  501  0.00000000000E+00  0.00000000000E+00  0.97671387512E+02  0.97671387545E+02  0.25500000920E-02 0.  1.
        2   -1    0    0  501    0  0.00000000000E+00  0.00000000000E+00 -0.16151443985E+04  0.16151443985E+04  0.25500000920E-02 0. -1.
    10030    2    1    2    0    0  0.00000000000E+00  0.00000000000E+00 -0.15174730110E+04  0.17128157861E+04  0.79436363076E+03 0.  0.
        5    1    3    3  502    0  0.22484363314E+03  0.21590139210E+03 -0.12893714342E+04  0.13265251056E+04  0.46999998093E+01 0. -1.
       -5    1    3    3    0  502 -0.22484363314E+03 -0.21590139210E+03 -0.22810157681E+03  0.38629068046E+03  0.46999998093E+01 0.  1.
</event>
<event>
 5   0  0.4700220E-02  0.7819930E+03  0.7818609E-02  0.9586454E-01
       -2   -1    0    0    0  501  0.00000000000E+00  0.00000000000E+00  0.37218073449E+03  0.37218073449E+03  0.25500000920E-02 0. -1.
        2   -1    0    0  501    0  0.00000000000E+00  0.00000000000E+00 -0.41076347122E+03  0.41076347123E+03  0.25500000920E-02 0.  1.
    10030    2    1    2    0    0  0.00000000000E+00  0.00000000000E+00 -0.38582736734E+02  0.78294420572E+03  0.78199296781E+03 0.  0.
        4    1    3    3  502    0  0.12193616818E+03 -0.18182485716E+02  0.35220931677E+03  0.37316490673E+03  0.12699999809E+01 0. -1.
       -4    1    3    3    0  502 -0.12193616818E+03  0.18182485716E+02 -0.39079205350E+03  0.40977929899E+03  0.12699999809E+01 0.  1.
</event>
<event>
 5   0  0.4700220E-02  0.7986222E+03  0.7818609E-02  0.9562014E-01
       -2   -1    0    0    0  501  0.00000000000E+00  0.00000000000E+00  0.14965639262E+03  0.14965639264E+03  0.25500000920E-02 0.  1.
        2   -1    0    0  501    0  0.00000000000E+00  0.00000000000E+00 -0.10654363786E+04  0.10654363786E+04  0.25500000920E-02 0. -1.
    10030    2    1    2    0    0  0.00000000000E+00  0.00000000000E+00 -0.91577998598E+03  0.12150927712E+04  0.79862222608E+03 0.  0.
        4    1    3    3  502    0 -0.77565435525E+01  0.69785788390E+02  0.14018676534E+03  0.15679337456E+03  0.12699999809E+01 0.  1.
       -4    1    3    3    0  502  0.77565435525E+01 -0.69785788390E+02 -0.10559667513E+04  0.10582993967E+04  0.12699999809E+01 0. -1.
</event>
<event>
 5   0  0.2769394E-02  0.7798861E+03  0.7818609E-02  0.9589596E-01
        1   -1    0    0  501    0  0.00000000000E+00  0.00000000000E+00  0.13850564673E+04  0.13850564673E+04  0.50400001928E-02 0.  1.
       -1   -1    0    0    0  501  0.00000000000E+00  0.00000000000E+00 -0.10978295412E+03  0.10978295423E+03  0.50400001928E-02 0. -1.
    10030    2    1    2    0    0  0.00000000000E+00  0.00000000000E+00  0.12752735131E+04  0.14948394215E+04  0.77988612165E+03 0.  0.
        2    1    3    3  502    0 -0.36497561091E+03 -0.18516583730E+02  0.89838063267E+03  0.96986484708E+03  0.25500000920E-02 0.  1.
       -2    1    3    3    0  502  0.36497561091E+03  0.18516583730E+02  0.37689288047E+03  0.52497457442E+03  0.25500000920E-02 0. -1.
</event>
<event>
 5   0  0.4590462E-02  0.7977103E+03  0.7818609E-02  0.9563337E-01
        2   -1    0    0  501    0  0.00000000000E+00  0.00000000000E+00  0.18407719158E+03  0.18407719160E+03  0.25500000920E-02 0. -1.
       -2   -1    0    0    0  501  0.00000000000E+00  0.00000000000E+00 -0.86423215509E+03  0.86423215510E+03  0.25500000920E-02 0.  1.
    10030    2    1    2    0    0  0.00000000000E+00  0.00000000000E+00 -0.68015496351E+03  0.10483093467E+04  0.79771029326E+03 0.  0.
        3    1    3    3  502    0 -0.12985017499E+03  0.31499826121E+01  0.15550516475E+03  0.20261504584E+03  0.10100000352E+00 0. -1.
       -3    1    3    3    0  502  0.12985017499E+03 -0.31499826121E+01 -0.83566012826E+03  0.84569430086E+03  0.10100000352E+00 0.  1.
</event>
<event>
 5   0  0.2689372E-02  0.7891579E+03  0.7818609E-02  0.9575844E-01
       -1   -1    0    0    0  501  0.00000000000E+00  0.00000000000E+00  0.19248485060E+03  0.19248485067E+03  0.50400001928E-02 0. -1.
        1   -1    0    0  501    0  0.00000000000E+00  0.00000000000E+00 -0.80885618936E+03  0.80885618938E+03  0.50400001928E-02 0.  1.
    10030    2    1    2    0    0  0.00000000000E+00  0.00000000000E+00 -0.61637133876E+03  0.10013410400E+04  0.78915793808E+03 0.  0.
        4    1    3    3  502    0  0.22505294923E+03  0.28763409043E+03 -0.49770595610E+03  0.61732894925E+03  0.12699999809E+01 0.  1.
       -4    1    3    3    0  502 -0.22505294923E+03 -0.28763409043E+03 -0.11866538266E+03  0.38401209080E+03  0.12699999809E+01 0. -1.
</event>
<event>
 5   0  0.4684283E-02  0.7871767E+03  0.7818609E-02  0.9578766E-01
        2   -1    0    0  501    0  0.00000000000E+00  0.00000000000E+00  0.60014397400E+03  0.60014397401E+03  0.25500000920E-02 0. -1.
       -2   -1    0    0    0  501  0.00000000000E+00  0.00000000000E+00 -0.25812439301E+03  0.25812439303E+03  0.25500000920E-02 0.  1.
    10030    2    1    2    0    0  0.00000000000E+00  0.00000000000E+00  0.34201958099E+03  0.85826836703E+03  0.78717672480E+03 0.  0.
        1    1    3    3  502    0 -0.21626897211E+03  0.43220503318E+02  0.52644406577E+03  0.57077459177E+03  0.50400001928E-02 0. -1.
       -1    1    3    3    0  502  0.21626897211E+03 -0.43220503318E+02 -0.18442448478E+03  0.28749377526E+03  0.50400001928E-02 0.  1.
</event>
<event>
 5   0  0.4377843E-02  0.7333698E+03  0.7818609E-02  0.9661808E-01
       -2   -1    0    0    0  501  0.00000000000E+00  0.00000000000E+00  0.12463729468E+03  0.12463729471E+03  0.25500000920E-02 0.  1.
        2   -1    0    0  501    0  0.00000000000E+00  0.00000000000E+00 -0.10787927664E+04  0.10787927664E+04  0.25500000920E-02 0. -1.
    10030    2    1    2    0    0  0.00000000000E+00  0.00000000000E+00 -0.95415547171E+03  0.12034300611E+04  0.73336978924E+03 0.  0.
        2    1    3    3  502    0 -0.12368450457E+03  0.12367135530E+03  0.51773090296E+02  0.18240864475E+03  0.25500000920E-02 0.  1.
       -2    1    3    3    0  502  0.12368450457E+03 -0.12367135530E+03 -0.10059285620E+04  0.10210214164E+04  0.25500000920E-02 0. -1.
</event>
<event>
 5   0  0.2689372E-02  0.8133645E+03  0.7818609E-02  0.9540872E-01
        1   -1    0    0  501    0  0.00000000000E+00  0.00000000000E+00  0.10254613290E+04  0.10254613290E+04  0.50400001928E-02 0.  1.
       -1   -1    0    0    0  501  0.00000000000E+00  0.00000000000E+00 -0.16128394344E+03  0.16128394352E+03  0.50400001928E-02 0. -1.
    10030    2    1    2    0    0  0.00000000000E+00  0.00000000000E+00  0.86417738556E+03  0.11867452725E+04  0.81336448665E+03 0.  0.
        4    1    3    3  502    0 -0.16268743069E+03  0.13984615942E+03  0.93618119007E+03  0.96044832342E+03  0.12699999809E+01 0.  1.
       -4    1    3    3    0  502  0.16268743069E+03 -0.13984615942E+03 -0.72003804518E+02  0.22629694910E+03  0.12699999809E+01 0. -1.
</event>
<event>
 5   0  0.2769394E-02  0.8058077E+03  0.7818609E-02  0.9551649E-01
        1   -1    0    0  501    0  0.00000000000E+00  0.00000000000E+00  0.43534221417E+03  0.43534221420E+03  0.50400001928E-02 0. -1.
       -1   -1    0    0    0  501  0.00000000000E+00  0.00000000000E+00 -0.37288252131E+03  0.37288252135E+03  0.50400001928E-02 0.  1.
    10030    2    1    2    0    0  0.00000000000E+00  0.00000000000E+00  0.62459692855E+02  0.80822473554E+03  0.80580767551E+03 0.  0.
        2    1    3    3  502    0 -0.31903618708E+03 -0.19163354703E+03 -0.12358337758E+03  0.39214838548E+03  0.25500000920E-02 0. -1.
       -2    1    3    3    0  502  0.31903618708E+03  0.19163354703E+03  0.18604307044E+03  0.41607635006E+03  0.25500000920E-02 0.  1.
</event>
<event>
 5   0  0.4700220E-02  0.8418738E+03  0.7818609E-02  0.9501309E-01
       -2   -1    0    0    0  501  0.00000000000E+00  0.00000000000E+00  0.36413067947E+03  0.36413067947E+03  0.25500000920E-02 0.  1.
        2   -1    0    0  501    0  0.00000000000E+00  0.00000000000E+00 -0.48660515520E+03  0.48660515520E+03  0.25500000920E-02 0. -1.
    10030    2    1    2    0    0  0.00000000000E+00  0.00000000000E+00 -0.12247447573E+03  0.85073583468E+03  0.84187378104E+03 0.  0.
        4    1    3    3  502    0  0.18454195212E+03 -0.17307757777E+03  0.27871849258E+03  0.37642687341E+03  0.12699999809E+01 0.  1.
       -4    1    3    3    0  502 -0.18454195212E+03  0.17307757777E+03 -0.40119296831E+03  0.47430896127E+03  0.12699999809E+01 0. -1.
</event>
<event>
 5   0  0.4700220E-02  0.8016678E+03  0.7818609E-02  0.9557606E-01
       -2   -1    0    0    0  501  0.00000000000E+00  0.00000000000E+00  0.56821741081E+02  0.56821741138E+02  0.25500000920E-02 0.  1.
        2   -1    0    0  501    0  0.00000000000E+00  0.00000000000E+00 -0.28275766380E+04  0.28275766380E+04  0.25500000920E-02 0. -1.
    10030    2    1    2    0    0  0.00000000000E+00  0.00000000000E+00 -0.27707548969E+04  0.28843983791E+04  0.80166783070E+03 0.  0.
        4    1    3    3  502    0  0.29841523891E+03 -0.25150563325E+03 -0.17143429264E+04  0.17582036345E+04  0.12699999809E+01 0. -1.
       -4    1    3    3    0  502 -0.29841523891E+03  0.25150563325E+03 -0.10564119705E+04  0.11261947446E+04  0.12699999809E+01 0.  1.
</event>
<event>
 5   0  0.2689372E-02  0.7892141E+03  0.7818609E-02  0.9575762E-01
       -1   -1    0    0    0  501  0.00000000000E+00  0.00000000000E+00  0.12898884624E+03  0.12898884633E+03  0.50400001928E-02 0.  1.
        1   -1    0    0  501    0  0.00000000000E+00  0.00000000000E+00 -0.12071953407E+04  0.12071953407E+04  0.50400001928E-02 0. -1.
    10030    2    1    2    0    0  0.00000000000E+00  0.00000000000E+00 -0.10782064945E+04  0.13361841870E+04  0.78921412621E+03 0.  0.
        4    1    3    3  502    0 -0.12162313079E+03 -0.37535914327E+03 -0.53039610112E+03  0.66106604009E+03  0.12699999809E+01 0. -1.
       -4    1    3    3    0  502  0.12162313079E+03  0.37535914327E+03 -0.54781039335E+03  0.67511814695E+03  0.12699999809E+01 0.  1.
</event>
<event>
 5   0  0.2769394E-02  0.8096089E+03  0.7818609E-02  0.9546212E-01
        1   -1    0    0  501    0  0.00000000000E+00  0.00000000000E+00  0.45955514678E+03  0.45955514681E+03  0.50400001928E-02 0.  1.
       -1   -1    0    0    0  501  0.00000000000E+00  0.00000000000E+00 -0.35657667220E+03  0.35657667223E+03  0.50400001928E-02 0. -1.
    10030    2    1    2    0    0  0.00000000000E+00  0.00000000000E+00  0.10297847458E+03  0.81613181904E+03  0.80960890548E+03 0.  0.
        2    1    3    3  502    0  0.10005477052E+03 -0.38367488035E+03 -0.30710825524E+02  0.39769401018E+03  0.25500000920E-02 0. -1.
       -2    1    3    3    0  502 -0.10005477052E+03  0.38367488035E+03  0.13368930011E+03  0.41843780887E+03  0.25500000920E-02 0.  1.
</event>
<event>
 5   0  0.4663634E-02  0.7977593E+03  0.7818609E-02  0.9563266E-01
        2   -1    0    0  501    0  0.00000000000E+00  0.00000000000E+00  0.76174847315E+03  0.76174847315E+03  0.25500000920E-02 0. -1.
       -2   -1    0    0    0  501  0.00000000000E+00  0.00000000000E+00 -0.20886814836E+03  0.20886814837E+03  0.25500000920E-02 0.  1.
    10030    2    1    2    0    0  0.00000000000E+00  0.00000000000E+00  0.55288032479E+03  0.97061662153E+03  0.79775934494E+03 0.  0.
        5    1    3    3  502    0  0.49796417969E+02  0.50386514330E+02 -0.20111879931E+03  0.21328231409E+03  0.46999998093E+01 0.  1.
       -5    1    3    3    0  502 -0.49796417969E+02 -0.50386514330E+02  0.75399912410E+03  0.75733430743E+03  0.46999998093E+01 0. -1.
</event>
<event>
 5   0  0.1786500E-02  0.7929943E+03  0.7818609E-02  0.9570213E-01
        4   -1    0    0  501    0  0.00000000000E+00  0.00000000000E+00  0.64695946598E+03  0.64696071250E+03  0.12699999809E+01 0.  1.
       -4   -1    0    0    0  501  0.00000000000E+00  0.00000000000E+00 -0.24299505269E+03  0.24299837146E+03  0.12699999809E+01 0. -1.
    10030    2    1    2    0    0  0.00000000000E+00  0.00000000000E+00  0.40396441329E+03  0.88995908396E+03  0.79299427735E+03 0.  0.
        2    1    3    3  502    0  0.18463550790E+03 -0.34893078401E+03  0.24347638132E+03  0.46381430666E+03  0.25500000920E-02 0.  1.
       -2    1    3    3    0  502 -0.18463550790E+03  0.34893078401E+03  0.16048803197E+03  0.42614477729E+03  0.25500000920E-02 0. -1.
</event>
<event>
 5   0  0.2606520E-02  0.8121745E+03  0.7818609E-02  0.9542560E-01
        1   -1    0    0  501    0  0.00000000000E+00  0.00000000000E+00  0.85112479864E+03  0.85112479866E+03  0.50400001928E-02 0. -1.
       -1   -1    0    0    0  501  0.00000000000E+00  0.00000000000E+00 -0.19375165664E+03  0.19375165671E+03  0.50400001928E-02 0.  1.
    10030    2    1    2    0    0  0.00000000000E+00  0.00000000000E+00  0.65737314200E+03  0.10448764554E+04  0.81217446350E+03 0.  0.
        5    1    3    3  502    0 -0.55078098658E+02  0.29669732962E+03 -0.20862431935E+02  0.30252311220E+03  0.46999998093E+01 0.  1.
       -5    1    3    3    0  502  0.55078098658E+02 -0.29669732962E+03  0.67823557393E+03  0.74235334316E+03  0.46999998093E+01 0. -1.
</event>
<event>
 5   0  0.4377843E-02  0.7944564E+03  0.7818609E-02  0.9568076E-01
       -2   -1    0    0    0  501  0.00000000000E+00  0.00000000000E+00  0.40505625175E+03  0.40505625176E+03  0.25500000920E-02 0.  1.
        2   -1    0    0  501    0  0.00000000000E+00  0.00000000000E+00 -0.38955147231E+03  0.38955147232E+03  0.25500000920E-02 0. -1.
    10030    2    1    2    0    0  0.00000000000E+00  0.00000000000E+00  0.15504779436E+02  0.79460772408E+03  0.79445644121E+03 0.  0.
        2    1    3    3  502    0  0.27771511943E+03  0.24007372726E+03 -0.14403018034E+03  0.39434220536E+03  0.25500000920E-02 0. -1.
       -2    1    3    3    0  502 -0.27771511943E+03 -0.24007372726E+03  0.15953495977E+03  0.40026551872E+03  0.25500000920E-02 0.  1.
</event>
<event>
 5   0  0.2689372E-02  0.8220901E+03  0.7818609E-02  0.9528582E-01
        1   -1    0    0  501    0  0.00000000000E+00  0.00000000000E+00  0.72089744937E+03  0.72089744939E+03  0.50400001928E-02 0. -1.
       -1   -1    0    0    0  501  0.00000000000E+00  0.00000000000E+00 -0.23437181500E+03  0.23437181505E+03  0.50400001928E-02 0.  1.
    10030    2    1    2    0    0  0.00000000000E+00  0.00000000000E+00  0.48652563437E+03  0.95526926444E+03  0.82209012565E+03 0.  0.
        4    1    3    3  502    0 -0.31134065569E+03  0.26761079969E+03  0.21979481150E+03  0.46568220501E+03  0.12699999809E+01 0. -1.
       -4    1    3    3    0  502  0.31134065569E+03 -0.26761079969E+03  0.26673082287E+03  0.48958705943E+03  0.12699999809E+01 0.  1.
</event>
<event>
 5   0  0.4590462E-02  0.8373797E+03  0.7818609E-02  0.9507434E-01
        2   -1    0    0  501    0  0.00000000000E+00  0.00000000000E+00  0.31342221004E+03  0.31342221005E+03  0.25500000920E-02 0.  1.
       -2   -1    0    0    0  501  0.00000000000E+00  0.00000000000E+00 -0.55931327176E+03  0.55931327177E+03  0.25500000920E-02 0. -1.
    10030    2    1    2    0    0  0.00000000000E+00  0.00000000000E+00 -0.24589106172E+03  0.87273548181E+03  0.83737972688E+03 0.  0.
        3    1    3    3  502    0 -0.43678420544E+02  0.38919241410E+03 -0.27726003046E+03  0.47984546920E+03  0.10100000352E+00 0. -1.
       -3    1    3    3    0  502  0.43678420544E+02 -0.38919241410E+03  0.31368968742E+02  0.39289001262E+03  0.10100000352E+00 0.  1.
</event>
<event>
 5   0  0.1786500E-02  0.8037273E+03  0.7818609E-02  0.9554638E-01
       -4   -1    0    0    0  501  0.00000000000E+00  0.00000000000E+00  0.45573515152E+03  0.45573692108E+03  0.12699999809E+01 0. -1.
        4   -1    0    0  501    0  0.00000000000E+00  0.00000000000E+00 -0.35435661592E+03  0.35435889173E+03  0.12699999809E+01 0.  1.
    10030    2    1    2    0    0  0.00000000000E+00  0.00000000000E+00  0.10137853560E+03  0.81009581280E+03  0.80372732841E+03 0.  0.
        4    1    3    3  502    0  0.26211715074E+03  0.11435877631E+03 -0.23387645675E+03  0.36943624667E+03  0.12699999809E+01 0.  1.
       -4    1    3    3    0  502 -0.26211715074E+03 -0.11435877631E+03  0.33525499235E+03  0.44065956613E+03  0.12699999809E+01 0. -1.
</event>
<event>
 5   0  0.4377843E-02  0.7039065E+03  0.7818609E-02  0.9710575E-01
       -2   -1    0    0    0  501  0.00000000000E+00  0.00000000000E+00  0.37709748085E+03  0.37709748086E+03  0.25500000920E-02 0.  1.
        2   -1    0    0  501    0  0.00000000000E+00  0.00000000000E+00 -0.32848562357E+03  0.32848562358E+03  0.25500000920E-02 0. -1.
    10030    2    1    2    0    0  0.00000000000E+00  0.00000000000E+00  0.48611857281E+02  0.70558310444E+03  0.70390653115E+03 0.  0.
        2    1    3    3  502    0  0.22230629443E+03  0.49819176481E+02 -0.24460354338E+03  0.33426476382E+03  0.25500000920E-02 0. -1.
       -2    1    3    3    0  502 -0.22230629443E+03 -0.49819176481E+02  0.29321540066E+03  0.37131834062E+03  0.25500000920E-02 0.  1.
</event>
<event>
 5   0  0.2759559E-02  0.7991101E+03  0.7818609E-02  0.9561306E-01
        1   -1    0    0  501    0  0.00000000000E+00  0.00000000000E+00  0.72334562460E+03  0.72334562462E+03  0.50400001928E-02 0.  1.
       -1   -1    0    0    0  501  0.00000000000E+00  0.00000000000E+00 -0.22070254584E+03  0.22070254590E+03  0.50400001928E-02 0. -1.
    10030    2    1    2    0    0  0.00000000000E+00  0.00000000000E+00  0.50264307876E+03  0.94404817052E+03  0.79911005727E+03 0.  0.
        3    1    3    3  502    0  0.38664596894E+02  0.37213294989E+03  0.41699356769E+03  0.56023345950E+03  0.10100000352E+00 0.  1.
       -3    1    3    3    0  502 -0.38664596894E+02 -0.37213294989E+03  0.85649511070E+02  0.38381471102E+03  0.10100000352E+00 0. -1.
</event>
<event>
 5   0  0.4377843E-02  0.1044051E+04  0.7818609E-02  0.9261508E-01
       -2   -1    0    0    0  501  0.00000000000E+00  0.00000000000E+00  0.25355988966E+03  0.25355988968E+03  0.25500000920E-02 0.  1.
        2   -1    0    0  501    0  0.00000000000E+00  0.00000000000E+00 -0.10747376847E+04  0.10747376847E+04  0.25500000920E-02 0. -1.
    10030    2    1    2    0    0  0.00000000000E+00  0.00000000000E+00 -0.82117779500E+03  0.13282975743E+04  0.10440505136E+04 0.  0.
        2    1    3    3  502    0  0.16372199511E+03  0.41048995583E+03 -0.57086561859E+02  0.44560719369E+03  0.25500000920E-02 0.  1.
       -2    1    3    3    0  502 -0.16372199511E+03 -0.41048995583E+03 -0.76409123314E+03  0.88269038065E+03  0.25500000920E-02 0. -1.
</event>
<event>
 5   0  0.2606520E-02  0.7907342E+03  0.7818609E-02  0.9573527E-01
        1   -1    0    0  501    0  0.00000000000E+00  0.00000000000E+00  0.90814268607E+03  0.90814268609E+03  0.50400001928E-02 0.  1.
       -1   -1    0    0    0  501  0.00000000000E+00  0.00000000000E+00 -0.17212619191E+03  0.17212619198E+03  0.50400001928E-02 0. -1.
    10030    2    1    2    0    0  0.00000000000E+00  0.00000000000E+00  0.73601649417E+03  0.10802688781E+04  0.79073419633E+03 0.  0.
        5    1    3    3  502    0  0.17303552212E+03  0.19672485678E+03  0.77247237233E+03  0.81570682062E+03  0.46999998093E+01 0.  1.
       -5    1    3    3    0  502 -0.17303552212E+03 -0.19672485678E+03 -0.36455878165E+02  0.26456205745E+03  0.46999998093E+01 0. -1.
</event>
<event>
 5   0  0.2689372E-02  0.7756649E+03  0.7818609E-02  0.9595925E-01
        1   -1    0    0  501    0  0.00000000000E+00  0.00000000000E+00  0.15643234704E+04  0.15643234704E+04  0.50400001928E-02 0. -1.
       -1   -1    0    0    0  501  0.00000000000E+00  0.00000000000E+00 -0.96152744496E+02  0.96152744628E+02  0.50400001928E-02 0.  1.
    10030    2    1    2    0    0  0.00000000000E+00  0.00000000000E+00  0.14681707259E+04  0.16604762151E+04  0.77566486339E+03 0.  0.
        4    1    3    3  502    0 -0.19475676743E+03  0.29644065799E+03  0.10698780888E+04  0.11271415173E+04  0.12699999809E+01 0.  1.
       -4    1    3    3    0  502  0.19475676743E+03 -0.29644065799E+03  0.39829263714E+03  0.53333469779E+03  0.12699999809E+01 0. -1.
</event>
<event>
 5   0  0.4590462E-02  0.7934728E+03  0.7818609E-02  0.9569513E-01
        2   -1    0    0  501    0  0.00000000000E+00  0.00000000000E+00  0.13233513085E+04  0.13233513085E+04  0.25500000920E-02 0.  1.
       -2   -1    0    0    0  501  0.00000000000E+00  0.00000000000E+00 -0.11894027318E+03  0.11894027320E+03  0.25500000920E-02 0. -1.
    10030    2    1    2    0    0  0.00000000000E+00  0.00000000000E+00  0.12044110353E+04  0.14422915817E+04  0.79347278758E+03 0.  0.
        3    1    3    3  502    0 -0.25836033258E+03  0.29850151454E+03  0.67368833413E+03  0.78083877809E+03  0.10100000352E+00 0.  1.
       -3    1    3    3    0  502  0.25836033258E+03 -0.29850151454E+03  0.53072270114E+03  0.66145280356E+03  0.10100000352E+00 0. -1.
</event>
<event>
 5   0  0.2759559E-02  0.7953317E+03  0.7818609E-02  0.9566799E-01
       -1   -1    0    0    0  501  0.00000000000E+00  0.00000000000E+00  0.40091683208E+03  0.40091683211E+03  0.50400001928E-02 0.  1.
        1   -1    0    0  501    0  0.00000000000E+00  0.00000000000E+00 -0.39444123504E+03  0.39444123508E+03  0.50400001928E-02 0. -1.
    10030    2    1    2    0    0  0.00000000000E+00  0.00000000000E+00  0.64755970364E+01  0.79535806719E+03  0.79533170544E+03 0.  0.
        3    1    3    3  502    0 -0.13581824015E+03  0.23150208792E+03 -0.29019706104E+03  0.39528996383E+03  0.10100000352E+00 0. -1.
       -3    1    3    3    0  502  0.13581824015E+03 -0.23150208792E+03  0.29667265808E+03  0.40006810335E+03  0.10100000352E+00 0.  1.
</event>
<event>
 5   0  0.2769394E-02  0.7888289E+03  0.7818609E-02  0.9576329E-01
       -1   -1    0    0    0  501  0.00000000000E+00  0.00000000000E+00  0.70640973604E+03  0.70640973606E+03  0.50400001928E-02 0. -1.
        1   -1    0    0  501    0  0.00000000000E+00  0.00000000000E+00 -0.22021602244E+03  0.22021602250E+03  0.50400001928E-02 0.  1.
    10030    2    1    2    0    0  0.00000000000E+00  0.00000000000E+00  0.48619371360E+03  0.92662575856E+03  0.78882885931E+03 0.  0.
        2    1    3    3  502    0 -0.22421576579E+03  0.16428001587E+03 -0.85609655025E+02  0.29084299249E+03  0.25500000920E-02 0.  1.
       -2    1    3    3    0  502  0.22421576579E+03 -0.16428001587E+03  0.57180336863E+03  0.63578276606E+03  0.25500000920E-02 0. -1.
</event>
<event>
 5   0  0.2769394E-02  0.7624852E+03  0.7818609E-02  0.9615964E-01
        1   -1    0    0  501    0  0.00000000000E+00  0.00000000000E+00  0.87317796000E+03  0.87317796001E+03  0.50400001928E-02 0.  1.
       -1   -1    0    0    0  501  0.00000000000E+00  0.00000000000E+00 -0.16645624085E+03  0.16645624093E+03  0.50400001928E-02 0. -1.
    10030    2    1    2    0    0  0.00000000000E+00  0.00000000000E+00  0.70672171915E+03  0.10396342009E+04  0.76248520212E+03 0.  0.
        2    1    3    3  502    0  0.28157485731E+03  0.96609140580E+02  0.67811045553E+03  0.74057512530E+03  0.25500000920E-02 0.  1.
       -2    1    3    3    0  502 -0.28157485731E+03 -0.96609140580E+02  0.28611263622E+02  0.29905907564E+03  0.25500000920E-02 0. -1.
</event>
<event>
 5   0  0.4700220E-02  0.7943641E+03  0.7818609E-02  0.9568211E-01
       -2   -1    0    0    0  501  0.00000000000E+00  0.00000000000E+00  0.40104579924E+03  0.40104579924E+03  0.25500000920E-02 0.  1.
        2   -1    0    0  501    0  0.00000000000E+00  0.00000000000E+00 -0.39335551502E+03  0.39335551503E+03  0.25500000920E-02 0. -1.
    10030    2    1    2    0    0  0.00000000000E+00  0.00000000000E+00  0.76902842178E+01  0.79440131427E+03  0.79436409010E+03 0.  0.
        4    1    3    3  502    0 -0.26800318783E+03  0.13301153909E+03 -0.25738383962E+03  0.39467180292E+03  0.12699999809E+01 0. -1.
       -4    1    3    3    0  502  0.26800318783E+03 -0.13301153909E+03  0.26507412384E+03  0.39972951135E+03  0.12699999809E+01 0.  1.
</event>
<event>
 5   0  0.2689372E-02  0.8046158E+03  0.7818609E-02  0.9553360E-01
        1   -1    0    0  501    0  0.00000000000E+00  0.00000000000E+00  0.17049691785E+03  0.17049691793E+03  0.50400001928E-02 0.  1.
       -1   -1    0    0    0  501  0.00000000000E+00  0.00000000000E+00 -0.94929372610E+03  0.94929372612E+03  0.50400001928E-02 0. -1.
    10030    2    1    2    0    0  0.00000000000E+00  0.00000000000E+00 -0.77879680825E+03  0.11197906440E+04  0.80461582010E+03 0.  0.
        4    1    3    3  502    0 -0.31759664029E+03  0.28042299800E+02 -0.73085243719E+03  0.79737123998E+03  0.12699999809E+01 0. -1.
       -4    1    3    3    0  502  0.31759664029E+03 -0.28042299800E+02 -0.47944371053E+02  0.32241940406E+03  0.12699999809E+01 0.  1.
</event>
<event>
 5   0  0.2635243E-02  0.7717010E+03  0.7818609E-02  0.9601907E-01
       -1   -1    0    0    0  501  0.00000000000E+00  0.00000000000E+00  0.24778600336E+03  0.24778600341E+03  0.50400001928E-02 0.  1.
        1   -1    0    0  501    0  0.00000000000E+00  0.00000000000E+00 -0.60084348649E+03  0.60084348651E+03  0.50400001928E-02 0. -1.
    10030    2    1    2    0    0  0.00000000000E+00  0.00000000000E+00 -0.35305748313E+03  0.84862948992E+03  0.77170099441E+03 0.  0.
        1    1    3    3  502    0  0.11934920686E+03 -0.26878813080E+03 -0.45120692327E+03  0.53858980688E+03  0.50400001928E-02 0. -1.
       -1    1    3    3    0  502 -0.11934920686E+03  0.26878813080E+03  0.98149440145E+02  0.31003968304E+03  0.50400001928E-02 0.  1.
</event>
<event>
 5   0  0.4663634E-02  0.8045568E+03  0.7818609E-02  0.9553445E-01
       -2   -1    0    0    0  501  0.00000000000E+00  0.00000000000E+00  0.17522760205E+03  0.17522760207E+03  0.25500000920E-02 0.  1.
        2   -1    0    0  501    0  0.00000000000E+00  0.00000000000E+00 -0.92352985556E+03  0.92352985556E+03  0.25500000920E-02 0. -1.
    10030    2    1    2    0    0  0.00000000000E+00  0.00000000000E+00 -0.74830225350E+03  0.10987574576E+04  0.80455682715E+03 0.  0.
        5    1    3    3  502    0  0.35067111095E+03 -0.18289654340E+03 -0.47436229470E+03  0.61762695074E+03  0.46999998093E+01 0. -1.
       -5    1    3    3    0  502 -0.35067111095E+03  0.18289654340E+03 -0.27393995880E+03  0.48113050690E+03  0.46999998093E+01 0.  1.
</event>
<event>
 5   0  0.4684283E-02  0.7925174E+03  0.7818609E-02  0.9570911E-01
        2   -1    0    0  501    0  0.00000000000E+00  0.00000000000E+00  0.13052547775E+04  0.13052547775E+04  0.25500000920E-02 0.  1.
       -2   -1    0    0    0  501  0.00000000000E+00  0.00000000000E+00 -0.12029908658E+03  0.12029908661E+03  0.25500000920E-02 0. -1.
    10030    2    1    2    0    0  0.00000000000E+00  0.00000000000E+00  0.11849556909E+04  0.14255538641E+04  0.79251740047E+03 0.  0.
        1    1    3    3  502    0  0.22645214875E+03 -0.61393343172E+02  0.11668768438E+04  0.11902316106E+04  0.50400001928E-02 0.  1.
       -1    1    3    3    0  502 -0.22645214875E+03  0.61393343172E+02  0.18078847132E+02  0.23532225351E+03  0.50400001928E-02 0. -1.
</event>
<event>
 5   0  0.4684283E-02  0.7958887E+03  0.7818609E-02  0.9565987E-01
       -2   -1    0    0    0  501  0.00000000000E+00  0.00000000000E+00  0.81847170379E+02  0.81847170419E+02  0.25500000920E-02 0. -1.
        2   -1    0    0  501    0  0.00000000000E+00  0.00000000000E+00 -0.19348222121E+04  0.19348222121E+04  0.25500000920E-02 0.  1.
    10030    2    1    2    0    0  0.00000000000E+00  0.00000000000E+00 -0.18529750417E+04  0.20166693825E+04  0.79588874421E+03 0.  0.
        1    1    3    3  502    0  0.23584061325E+03  0.39068165599E+00 -0.17386623678E+04  0.17545847875E+04  0.50400001928E-02 0.  1.
       -1    1    3    3    0  502 -0.23584061325E+03 -0.39068165599E+00 -0.11431267397E+03  0.26208459502E+03  0.50400001928E-02 0. -1.
</event>
<event>
 5   0  0.1786500E-02  0.8243626E+03  0.7818609E-02  0.9525408E-01
       -3   -1    0    0    0  501  0.00000000000E+00  0.00000000000E+00  0.69890551941E+03  0.69890552670E+03  0.10100000352E+00 0. -1.
        3   -1    0    0  501    0  0.00000000000E+00  0.00000000000E+00 -0.24308492748E+03  0.24308494846E+03  0.10100000352E+00 0.  1.
    10030    2    1    2    0    0  0.00000000000E+00  0.00000000000E+00  0.45582059193E+03  0.94199047517E+03  0.82436256786E+03 0.  0.
        5    1    3    3  502    0  0.22933321730E+03  0.18084809657E+03  0.56021801134E+03  0.63179590757E+03  0.46999998093E+01 0.  1.
       -5    1    3    3    0  502 -0.22933321730E+03 -0.18084809657E+03 -0.10439741941E+03  0.31019456760E+03  0.46999998093E+01 0. -1.
</event>
<event>
 5   0  0.2759559E-02  0.7893805E+03  0.7818609E-02  0.9575517E-01
       -1   -1    0    0    0  501  0.00000000000E+00  0.00000000000E+00  0.19183525852E+03  0.19183525859E+03  0.50400001928E-02 0.  1.
        1   -1    0    0  501    0  0.00000000000E+00  0.00000000000E+00 -0.81205297487E+03  0.81205297489E+03  0.50400001928E-02 0. -1.
    10030    2    1    2    0    0  0.00000000000E+00  0.00000000000E+00 -0.62021771635E+03  0.10038882335E+04  0.78938049737E+03 0.  0.
        3    1    3    3  502    0  0.16903853691E+03  0.19994232274E+03 -0.68571308503E+03  0.73399823199E+03  0.10100000352E+00 0. -1.
       -3    1    3    3    0  502 -0.16903853691E+03 -0.19994232274E+03  0.65495368676E+02  0.26989000149E+03  0.10100000352E+00 0.  1.
</event>
<event>
 5   0  0.4663634E-02  0.7725450E+03  0.7818609E-02  0.9600630E-01
        2   -1    0    0  501    0  0.00000000000E+00  0.00000000000E+00  0.79335487527E+03  0.79335487527E+03  0.25500000920E-02 0. -1.
       -2   -1    0    0    0  501  0.00000000000E+00  0.00000000000E+00 -0.18807022832E+03  0.18807022834E+03  0.25500000920E-02 0.  1.
    10030    2    1    2    0    0  0.00000000000E+00  0.00000000000E+00  0.60528464695E+03  0.98142510361E+03  0.77254496967E+03 0.  0.
        5    1    3    3  502    0 -0.31066752240E+03  0.22944330757E+03  0.29618938702E+03  0.48673276430E+03  0.46999998093E+01 0. -1.
       -5    1    3    3    0  502  0.31066752240E+03 -0.22944330757E+03  0.30909525993E+03  0.49469233931E+03  0.46999998093E+01 0.  1.
</event>
<event>
 5   0  0.4377843E-02  0.7931564E+03  0.7818609E-02  0.9569976E-01
       -2   -1    0    0    0  501  0.00000000000E+00  0.00000000000E+00  0.26686323984E+03  0.26686323986E+03  0.25500000920E-02 0. -1.
        2   -1    0    0  501    0  0.00000000000E+00  0.00000000000E+00 -0.58934401502E+03  0.58934401503E+03  0.25500000920E-02 0.  1.
    10030    2    1    2    0    0  0.00000000000E+00  0.00000000000E+00 -0.32248077518E+03  0.85620725488E+03  0.79315636097E+03 0.  0.
        2    1    3    3  502    0  0.25772549197E+03  0.22366542461E+03 -0.37935581765E+03  0.51025433635E+03  0.25500000920E-02 0. -1.
       -2    1    3    3    0  502 -0.25772549197E+03 -0.22366542461E+03  0.56875042466E+02  0.34595291853E+03  0.25500000920E-02 0.  1.
</event>
<event>
 5   0  0.2606520E-02  0.5679515E+03  0.7818609E-02  0.9974222E-01
        1   -1    0    0  501    0  0.00000000000E+00  0.00000000000E+00  0.85081112853E+03  0.85081112854E+03  0.50400001928E-02 0. -1.
       -1   -1    0    0    0  501  0.00000000000E+00  0.00000000000E+00 -0.94782764821E+02  0.94782764955E+02  0.50400001928E-02 0.  1.
    10030    2    1    2    0    0  0.00000000000E+00  0.00000000000E+00  0.75602836371E+03  0.94559389350E+03  0.56795151615E+03 0.  0.
        5    1    3    3  502    0 -0.23510994428E+02 -0.70590920360E+02 -0.78199129648E+02  0.10804183806E+03  0.46999998093E+01 0.  1.
       -5    1    3    3    0  502  0.23510994428E+02  0.70590920360E+02  0.83422749336E+03  0.83755205544E+03  0.46999998093E+01 0. -1.
</event>
<event>
 5   0  0.4684283E-02  0.7994951E+03  0.7818609E-02  0.9560748E-01
        2   -1    0    0  501    0  0.00000000000E+00  0.00000000000E+00  0.63327326383E+03  0.63327326383E+03  0.25500000920E-02 0. -1.
       -2   -1    0    0    0  501  0.00000000000E+00  0.00000000000E+00 -0.25233672047E+03  0.25233672048E+03  0.25500000920E-02 0.  1.
    10030    2    1    2    0    0  0.00000000000E+00  0.00000000000E+00  0.38093654336E+03  0.88560998432E+03  0.79949508707E+03 0.  0.
        1    1    3    3  502    0  0.20536545327E+03  0.30420294890E+03  0.36590578408E+03  0.51826773618E+03  0.50400001928E-02 0.  1.
       -1    1    3    3    0  502 -0.20536545327E+03 -0.30420294890E+03  0.15030759280E+02  0.36734224814E+03  0.50400001928E-02 0. -1.
</event>
<event>
 5   0  0.4700220E-02  0.8045903E+03  0.7818609E-02  0.9553396E-01
        2   -1    0    0  501    0  0.00000000000E+00  0.00000000000E+00  0.80213777395E+03  0.80213777396E+03  0.25500000920E-02 0. -1.
       -2   -1    0    0    0  501  0.00000000000E+00  0.00000000000E+00 -0.20176258822E+03  0.20176258823E+03  0.25500000920E-02 0.  1.
    10030    2    1    2    0    0  0.00000000000E+00  0.00000000000E+00  0.60037518574E+03  0.10039003622E+04  0.80459031411E+03 0.  0.
        4    1    3    3  502    0 -0.36382837196E+03 -0.12467608337E+03  0.15295406624E+03  0.41389825958E+03  0.12699999809E+01 0.  1.
       -4    1    3    3    0  502  0.36382837196E+03  0.12467608337E+03  0.44742111950E+03  0.59000210261E+03  0.12699999809E+01 0. -1.
</event>
<event>
 5   0  0.4684283E-02  0.8279764E+03  0.7818609E-02  0.9520383E-01
       -2   -1    0    0    0  501  0.00000000000E+00  0.00000000000E+00  0.14701249384E+03  0.14701249386E+03  0.25500000920E-02 0. -1.
        2   -1    0    0  501    0  0.00000000000E+00  0.00000000000E+00 -0.11657935896E+04  0.11657935896E+04  0.25500000920E-02 0.  1.
    10030    2    1    2    0    0  0.00000000000E+00  0.00000000000E+00 -0.10187810958E+04  0.13128060835E+04  0.82797638354E+03 0.  0.
        1    1    3    3  502    0 -0.40552132795E+03  0.98265545547E+01 -0.64054341635E+03  0.75818202092E+03  0.50400001928E-02 0.  1.
       -1    1    3    3    0  502  0.40552132795E+03 -0.98265545547E+01 -0.37823767944E+03  0.55462406256E+03  0.50400001928E-02 0. -1.
</event>
<event>
 5   0  0.4377843E-02  0.8035522E+03  0.7818609E-02  0.9554890E-01
        2   -1    0    0  501    0  0.00000000000E+00  0.00000000000E+00  0.92665623018E+03  0.92665623019E+03  0.25500000920E-02 0.  1.
       -2   -1    0    0    0  501  0.00000000000E+00  0.00000000000E+00 -0.17420055862E+03  0.17420055864E+03  0.25500000920E-02 0. -1.
    10030    2    1    2    0    0  0.00000000000E+00  0.00000000000E+00  0.75245567156E+03  0.11008567888E+04  0.80355219610E+03 0.  0.
        2    1    3    3  502    0  0.13480049875E+03 -0.30324064209E+03  0.65938515161E+02  0.33833999064E+03  0.25500000920E-02 0. -1.
       -2    1    3    3    0  502 -0.13480049875E+03  0.30324064209E+03  0.68651715640E+03  0.76251679818E+03  0.25500000920E-02 0.  1.
</event>
<event>
 5   0  0.2769394E-02  0.6524889E+03  0.7818609E-02  0.9802120E-01
       -1   -1    0    0    0  501  0.00000000000E+00  0.00000000000E+00  0.13361037034E+03  0.13361037043E+03  0.50400001928E-02 0.  1.
        1   -1    0    0  501    0  0.00000000000E+00  0.00000000000E+00 -0.79661072723E+03  0.79661072725E+03  0.50400001928E-02 0. -1.
    10030    2    1    2    0    0  0.00000000000E+00  0.00000000000E+00 -0.66300035689E+03  0.93022109768E+03  0.65248894039E+03 0.  0.
        2    1    3    3  502    0  0.13731267362E+01 -0.31059273976E+02 -0.79449402470E+03  0.79510208104E+03  0.25500000920E-02 0. -1.
       -2    1    3    3    0  502 -0.13731267362E+01  0.31059273976E+02  0.13149366781E+03  0.13511901664E+03  0.25500000920E-02 0.  1.
</event>
<event>
 5   0  0.2769394E-02  0.7825612E+03  0.7818609E-02  0.9585608E-01
       -1   -1    0    0    0  501  0.00000000000E+00  0.00000000000E+00  0.76190061296E+02  0.76190061463E+02  0.50400001928E-02 0. -1.
        1   -1    0    0  501    0  0.00000000000E+00  0.00000000000E+00 -0.20094553065E+04  0.20094553065E+04  0.50400001928E-02 0.  1.
    10030    2    1    2    0    0  0.00000000000E+00  0.00000000000E+00 -0.19332652452E+04  0.20856453680E+04  0.78256123890E+03 0.  0.
        2    1    3    3  502    0  0.57569071373E+02  0.36912232962E+02  0.60139155903E+02  0.91068265605E+02  0.25500000920E-02 0. -1.
       -2    1    3    3    0  502 -0.57569071373E+02 -0.36912232962E+02 -0.19934044011E+04  0.19945771024E+04  0.25500000920E-02 0.  1.
</event>
<event>
 5   0  0.4684283E-02  0.7746514E+03  0.7818609E-02  0.9597451E-01
       -2   -1    0    0    0  501  0.00000000000E+00  0.00000000000E+00  0.17089366295E+03  0.17089366297E+03  0.25500000920E-02 0.  1.
        2   -1    0    0  501    0  0.00000000000E+00  0.00000000000E+00 -0.87786286910E+03  0.87786286910E+03  0.25500000920E-02 0. -1.
    10030    2    1    2    0    0  0.00000000000E+00  0.00000000000E+00 -0.70696920614E+03  0.10487565321E+04  0.77465140878E+03 0.  0.
        1    1    3    3  502    0  0.13298342533E+03 -0.92350399658E+02  0.12288357402E+03  0.20325737506E+03  0.50400001928E-02 0.  1.
       -1    1    3    3    0  502 -0.13298342533E+03  0.92350399658E+02 -0.82985278016E+03  0.84549915701E+03  0.50400001928E-02 0. -1.
</event>
<event>
 5   0  0.2635243E-02  0.7955237E+03  0.7818609E-02  0.9566519E-01
        1   -1    0    0  501    0  0.00000000000E+00  0.00000000000E+00  0.11479128550E+04  0.11479128550E+04  0.50400001928E-02 0.  1.
       -1   -1    0    0    0  501  0.00000000000E+00  0.00000000000E+00 -0.13782796490E+03  0.13782796500E+03  0.50400001928E-02 0. -1.
    10030    2    1    2    0    0  0.00000000000E+00  0.00000000000E+00  0.10100848901E+04  0.12857408200E+04  0.79552370864E+03 0.  0.
        1    1    3    3  502    0 -0.12201007157E+03  0.70821003526E+02 -0.96035642528E+02  0.17066023780E+03  0.50400001928E-02 0. -1.
       -1    1    3    3    0  502  0.12201007157E+03 -0.70821003526E+02  0.11061205326E+04  0.11150805822E+04  0.50400001928E-02 0.  1.
</event>
<event>
 5   0  0.2606520E-02  0.5849566E+03  0.7818609E-02  0.9937117E-01
       -1   -1    0    0    0  501  0.00000000000E+00  0.00000000000E+00  0.34789618645E+03  0.34789618648E+03  0.50400001928E-02 0. -1.
        1   -1    0    0  501    0  0.00000000000E+00  0.00000000000E+00 -0.24588815477E+03  0.24588815482E+03  0.50400001928E-02 0.  1.
    10030    2    1    2    0    0  0.00000000000E+00  0.00000000000E+00  0.10200803168E+03  0.59378434131E+03  0.58495658425E+03 0.  0.
        5    1    3    3  502    0 -0.73031627863E+02 -0.21934835702E+03 -0.13079127269E+03  0.26566100091E+03  0.46999998093E+01 0.  1.
       -5    1    3    3    0  502  0.73031627863E+02  0.21934835702E+03  0.23279930437E+03  0.32812334039E+03  0.46999998093E+01 0. -1.
</event>
<event>
 5   0  0.4590462E-02  0.7987255E+03  0.7818609E-02  0.9561864E-01
        2   -1    0    0  501    0  0.00000000000E+00  0.00000000000E+00  0.67134823071E+03  0.67134823072E+03  0.25500000920E-02 0.  1.
       -2   -1    0    0    0  501  0.00000000000E+00  0.00000000000E+00 -0.23756763687E+03  0.23756763688E+03  0.25500000920E-02 0. -1.
    10030    2    1    2    0    0  0.00000000000E+00  0.00000000000E+00  0.43378059384E+03  0.90891586760E+03  0.79872551655E+03 0.  0.
        3    1    3    3  502    0 -0.53137354767E+02 -0.26384434352E+03 -0.11886159036E+03  0.29422016236E+03  0.10100000352E+00 0. -1.
       -3    1    3    3    0  502  0.53137354767E+02  0.26384434352E+03  0.55264218420E+03  0.61469570524E+03  0.10100000352E+00 0.  1.
</event>
<event>
 5   0  0.2689372E-02  0.7864958E+03  0.7818609E-02  0.9579772E-01
        1   -1    0    0  501    0  0.00000000000E+00  0.00000000000E+00  0.39633412772E+03  0.39633412776E+03  0.50400001928E-02 0.  1.
       -1   -1    0    0    0  501  0.00000000000E+00  0.00000000000E+00 -0.39018568798E+03  0.39018568801E+03  0.50400001928E-02 0. -1.
    10030    2    1    2    0    0  0.00000000000E+00  0.00000000000E+00  0.61484397458E+01  0.78651981577E+03  0.78649578338E+03 0.  0.
        4    1    3    3  502    0 -0.12214502097E+03  0.24979603134E+03 -0.27500769897E+03  0.39108606574E+03  0.12699999809E+01 0. -1.
       -4    1    3    3    0  502  0.12214502097E+03 -0.24979603134E+03  0.28115613872E+03  0.39543375003E+03  0.12699999809E+01 0.  1.
</event>
<event>
 5   0  0.4377843E-02  0.7931756E+03  0.7818609E-02  0.9569948E-01
        2   -1    0    0  501    0  0.00000000000E+00  0.00000000000E+00  0.45032205706E+03  0.45032205706E+03  0.25500000920E-02 0.  1.
       -2   -1    0    0    0  501  0.00000000000E+00  0.00000000000E+00 -0.34926531423E+03  0.34926531424E+03  0.25500000920E-02 0. -1.
    10030    2    1    2    0    0  0.00000000000E+00  0.00000000000E+00  0.10105674283E+03  0.79958737130E+03  0.79317557897E+03 0.  0.
        2    1    3    3  502    0  0.17554601379E+03 -0.35434445533E+03  0.80862793910E+02  0.40362753551E+03  0.25500000920E-02 0.  1.
       -2    1    3    3    0  502 -0.17554601379E+03  0.35434445533E+03  0.20193948916E+02  0.39595983579E+03  0.25500000920E-02 0. -1.
</event>
<event>
 5   0  0.2689372E-02  0.7981958E+03  0.7818609E-02  0.9562632E-01
       -1   -1    0    0    0  501  0.00000000000E+00  0.00000000000E+00  0.77401859283E+02  0.77401859447E+02  0.50400001928E-02 0.  1.
        1   -1    0    0  501    0  0.00000000000E+00  0.00000000000E+00 -0.20578206564E+04  0.20578206564E+04  0.50400001928E-02 0. -1.
    10030    2    1    2    0    0  0.00000000000E+00  0.00000000000E+00 -0.19804187972E+04  0.21352225159E+04  0.79819582826E+03 0.  0.
        4    1    3    3  502    0 -0.34355582260E+02  0.38958218440E+03 -0.77749666804E+03  0.87032020897E+03  0.12699999809E+01 0.  1.
       -4    1    3    3    0  502  0.34355582260E+02 -0.38958218440E+03 -0.12029221291E+04  0.12649023069E+04  0.12699999809E+01 0. -1.
</event>
<event>
 5   0  0.2635243E-02  0.8227128E+03  0.7818609E-02  0.9527711E-01
       -1   -1    0    0    0  501  0.00000000000E+00  0.00000000000E+00  0.59331891427E+03  0.59331891429E+03  0.50400001928E-02 0. -1.
        1   -1    0    0  501    0  0.00000000000E+00  0.00000000000E+00 -0.28519918810E+03  0.28519918814E+03  0.50400001928E-02 0.  1.
    10030    2    1    2    0    0  0.00000000000E+00  0.00000000000E+00  0.30811972617E+03  0.87851810243E+03  0.82271276314E+03 0.  0.
        1    1    3    3  502    0 -0.19909062120E+03 -0.14967023915E+03 -0.19552360043E+03  0.31665080813E+03  0.50400001928E-02 0.  1.
       -1    1    3    3    0  502  0.19909062120E+03  0.14967023915E+03  0.50364332661E+03  0.56186729430E+03  0.50400001928E-02 0. -1.
</event>
<event>
 5   0  0.4663634E-02  0.8116567E+03  0.7818609E-02  0.9543296E-01
       -2   -1    0    0    0  501  0.00000000000E+00  0.00000000000E+00  0.42770342295E+03  0.42770342295E+03  0.25500000920E-02 0. -1.
        2   -1    0    0  501    0  0.00000000000E+00  0.00000000000E+00 -0.38507206250E+03  0.38507206251E+03  0.25500000920E-02 0.  1.
    10030    2    1    2    0    0  0.00000000000E+00  0.00000000000E+00  0.42631360446E+02  0.81277548546E+03  0.81165667426E+03 0.  0.
        5    1    3    3  502    0  0.33474492605E+03  0.15648853407E+03  0.18927201690E+03  0.41519731838E+03  0.46999998093E+01 0. -1.
       -5    1    3    3    0  502 -0.33474492605E+03 -0.15648853407E+03 -0.14664065646E+03  0.39757816708E+03  0.46999998093E+01 0.  1.
</event>
<event>
 5   0  0.2759559E-02  0.8191020E+03  0.7818609E-02  0.9532772E-01
       -1   -1    0    0    0  501  0.00000000000E+00  0.00000000000E+00  0.13405698269E+03  0.13405698279E+03  0.50400001928E-02 0.  1.
        1   -1    0    0  501    0  0.00000000000E+00  0.00000000000E+00 -0.12511995903E+04  0.12511995903E+04  0.50400001928E-02 0. -1.
    10030    2    1    2    0    0  0.00000000000E+00  0.00000000000E+00 -0.11171426076E+04  0.13852565731E+04  0.81910204954E+03 0.  0.
        3    1    3    3  502    0 -0.10115349980E+03 -0.21919650168E+03 -0.11180787016E+04  0.11438440147E+04  0.10100000352E+00 0. -1.
       -3    1    3    3    0  502  0.10115349980E+03  0.21919650168E+03  0.93609397187E+00  0.24141255838E+03  0.10100000352E+00 0.  1.
</event>
<event>
 5   0  0.2759559E-02  0.8010001E+03  0.7818609E-02  0.9558571E-01
       -1   -1    0    0    0  501  0.00000000000E+00  0.00000000000E+00  0.15404419099E+03  0.15404419107E+03  0.50400001928E-02 0.  1.
        1   -1    0    0  501    0  0.00000000000E+00  0.00000000000E+00 -0.10412615983E+04  0.10412615984E+04  0.50400001928E-02 0. -1.
    10030    2    1    2    0    0  0.00000000000E+00  0.00000000000E+00 -0.88721740736E+03  0.11953057894E+04  0.80100012630E+03 0.  0.
        3    1    3    3  502    0  0.17174243260E+03  0.31126760165E+03 -0.16837830092E+03  0.39336274025E+03  0.10100000352E+00 0.  1.
       -3    1    3    3    0  502 -0.17174243260E+03 -0.31126760165E+03 -0.71883910644E+03  0.80194304919E+03  0.10100000352E+00 0. -1.
</event>
<event>
 5   0  0.4377843E-02  0.7725078E+03  0.7818609E-02  0.9600686E-01
        2   -1    0    0  501    0  0.00000000000E+00  0.00000000000E+00  0.21265063907E+04  0.21265063907E+04  0.25500000920E-02 0.  1.
       -2   -1    0    0    0  501  0.00000000000E+00  0.00000000000E+00 -0.70158298705E+02  0.70158298751E+02  0.25500000920E-02 0. -1.
    10030    2    1    2    0    0  0.00000000000E+00  0.00000000000E+00  0.20563480920E+04  0.21966646895E+04  0.77250778795E+03 0.  0.
        2    1    3    3  502    0  0.35761029437E+03  0.13208609066E+03  0.12048455538E+04  0.12637185868E+04  0.25500000920E-02 0.  1.
       -2    1    3    3    0  502 -0.35761029437E+03 -0.13208609066E+03  0.85150253816E+03  0.93294610266E+03  0.25500000920E-02 0. -1.
</event>
<event>
 5   0  0.4700220E-02  0.7703650E+03  0.7818609E-02  0.9603932E-01
        2   -1    0    0  501    0  0.00000000000E+00  0.00000000000E+00  0.16885484600E+04  0.16885484600E+04  0.25500000920E-02 0.  1.
       -2   -1    0    0    0  501  0.00000000000E+00  0.00000000000E+00 -0.87865742251E+02  0.87865742288E+02  0.25500000920E-02 0. -1.
    10030    2    1    2    0    0  0.00000000000E+00  0.00000000000E+00  0.16006827177E+04  0.17764142023E+04  0.77036501426E+03 0.  0.
        4    1    3    3  502    0  0.25478400394E+03 -0.27273863073E+02  0.13718782257E+03  0.29065592001E+03  0.12699999809E+01 0. -1.
       -4    1    3    3    0  502 -0.25478400394E+03  0.27273863073E+02  0.14634948952E+04  0.14857582823E+04  0.12699999809E+01 0.  1.
</event>
<event>
 5   0  0.2759559E-02  0.8133133E+03  0.7818609E-02  0.9540944E-01
       -1   -1    0    0    0  501  0.00000000000E+00  0.00000000000E+00  0.39680256133E+03  0.39680256136E+03  0.50400001928E-02 0. -1.
        1   -1    0    0  501    0  0.00000000000E+00  0.00000000000E+00 -0.41675549890E+03  0.41675549893E+03  0.50400001928E-02 0.  1.
    10030    2    1    2    0    0  0.00000000000E+00  0.00000000000E+00 -0.19952937577E+02  0.81355806029E+03  0.81331334536E+03 0.  0.
        3    1    3    3  502    0  0.10219492936E+03 -0.12214229560E+03 -0.38426427304E+03  0.41595863460E+03  0.10100000352E+00 0.  1.
       -3    1    3    3    0  502 -0.10219492936E+03  0.12214229560E+03  0.36431133546E+03  0.39759942569E+03  0.10100000352E+00 0. -1.
</event>
<event>
 5   0  0.4377843E-02  0.7963516E+03  0.7818609E-02  0.9565313E-01
        2   -1    0    0  501    0  0.00000000000E+00  0.00000000000E+00  0.34133132708E+03  0.34133132709E+03  0.25500000920E-02 0.  1.
       -2   -1    0    0    0  501  0.00000000000E+00  0.00000000000E+00 -0.46448706215E+03  0.46448706215E+03  0.25500000920E-02 0. -1.
    10030    2    1    2    0    0  0.00000000000E+00  0.00000000000E+00 -0.12315573506E+03  0.80581838924E+03  0.79635164429E+03 0.  0.
        2    1    3    3  502    0 -0.32636700765E+03  0.20365288873E+03  0.42376352720E+02  0.38702154726E+03  0.25500000920E-02 0.  1.
       -2    1    3    3    0  502  0.32636700765E+03 -0.20365288873E+03 -0.16553208778E+03  0.41879684199E+03  0.25500000920E-02 0. -1.
</event>
<event>
 5   0  0.4700220E-02  0.9670686E+03  0.7818609E-02  0.9345420E-01
        2   -1    0    0  501    0  0.00000000000E+00  0.00000000000E+00  0.66972180853E+03  0.66972180853E+03  0.25500000920E-02 0. -1.
       -2   -1    0    0    0  501  0.00000000000E+00  0.00000000000E+00 -0.34910824903E+03  0.34910824904E+03  0.25500000920E-02 0.  1.
    10030    2    1    2    0    0  0.00000000000E+00  0.00000000000E+00  0.32061355950E+03  0.10188300576E+04  0.96706857651E+03 0.  0.
        4    1    3    3  502    0 -0.14832273786E+03 -0.17595966612E+03 -0.28771028451E+03  0.36842944967E+03  0.12699999809E+01 0.  1.
       -4    1    3    3    0  502  0.14832273786E+03  0.17595966612E+03  0.60832384401E+03  0.65040060790E+03  0.12699999809E+01 0. -1.
</event>
<event>
 5   0  0.4590462E-02  0.7949633E+03  0.7818609E-02  0.9567336E-01
       -2   -1    0    0    0  501  0.00000000000E+00  0.00000000000E+00  0.99700494617E+02  0.99700494650E+02  0.25500000920E-02 0. -1.
        2   -1    0    0  501    0  0.00000000000E+00  0.00000000000E+00 -0.15846629191E+04  0.15846629191E+04  0.25500000920E-02 0.  1.
    10030    2    1    2    0    0  0.00000000000E+00  0.00000000000E+00 -0.14849624245E+04  0.16843634138E+04  0.79496333718E+03 0.  0.
        3    1    3    3  502    0  0.21053982548E+03 -0.13405086450E+02 -0.28711954063E+02  0.21291101654E+03  0.10100000352E+00 0. -1.
       -3    1    3    3    0  502 -0.21053982548E+03  0.13405086450E+02 -0.14562504704E+04  0.14714523972E+04  0.10100000352E+00 0.  1.
</event>
<event>
 5   0  0.2759559E-02  0.7703268E+03  0.7818609E-02  0.9603990E-01
        1   -1    0    0  501    0  0.00000000000E+00  0.00000000000E+00  0.76289869874E+03  0.76289869875E+03  0.50400001928E-02 0.  1.
       -1   -1    0    0    0  501  0.00000000000E+00  0.00000000000E+00 -0.19445682439E+03  0.19445682446E+03  0.50400001928E-02 0. -1.
    10030    2    1    2    0    0  0.00000000000E+00  0.00000000000E+00  0.56844187434E+03  0.95735552321E+03  0.77032683539E+03 0.  0.
        3    1    3    3  502    0 -0.43140396030E+02 -0.32407049360E+03  0.31142508763E+02  0.32840926394E+03  0.10100000352E+00 0. -1.
       -3    1    3    3    0  502  0.43140396030E+02  0.32407049360E+03  0.53729936558E+03  0.62894625927E+03  0.10100000352E+00 0.  1.
</event>
<event>
 5   0  0.4377843E-02  0.7190755E+03  0.7818609E-02  0.9685155E-01
        2   -1    0    0  501    0  0.00000000000E+00  0.00000000000E+00  0.15458578032E+04  0.15458578032E+04  0.25500000920E-02 0. -1.
       -2   -1    0    0    0  501  0.00000000000E+00  0.00000000000E+00 -0.83621789778E+02  0.83621789817E+02  0.25500000920E-02 0.  1.
    10030    2    1    2    0    0  0.00000000000E+00  0.00000000000E+00  0.14622360134E+04  0.16294795930E+04  0.71907550725E+03 0.  0.
        2    1    3    3  502    0 -0.15937492638E+03  0.96434689170E+02  0.34258694834E+02  0.18940347043E+03  0.25500000920E-02 0.  1.
       -2    1    3    3    0  502  0.15937492638E+03 -0.96434689170E+02  0.14279773186E+04  0.14400761226E+04  0.25500000920E-02 0. -1.
</event>
<event>
 5   0  0.2606520E-02  0.9801410E+03  0.7818609E-02  0.9330598E-01
       -1   -1    0    0    0  501  0.00000000000E+00  0.00000000000E+00  0.66254211198E+03  0.66254211200E+03  0.50400001928E-02 0.  1.
        1   -1    0    0  501    0  0.00000000000E+00  0.00000000000E+00 -0.36249630978E+03  0.36249630981E+03  0.50400001928E-02 0. -1.
    10030    2    1    2    0    0  0.00000000000E+00  0.00000000000E+00  0.30004580220E+03  0.10250384218E+04  0.98014095046E+03 0.  0.
        5    1    3    3  502    0 -0.99978089835E+02 -0.31347935930E+03  0.52981371880E+03  0.62369030278E+03  0.46999998093E+01 0.  1.
       -5    1    3    3    0  502  0.99978089835E+02  0.31347935930E+03 -0.22976791660E+03  0.40134811903E+03  0.46999998093E+01 0. -1.
</event>
<event>
 5   0  0.2689372E-02  0.8079673E+03  0.7818609E-02  0.9548556E-01
        1   -1    0    0  501    0  0.00000000000E+00  0.00000000000E+00  0.53746749699E+03  0.53746749701E+03  0.50400001928E-02 0.  1.
       -1   -1    0    0    0  501  0.00000000000E+00  0.00000000000E+00 -0.30365146974E+03  0.30365146978E+03  0.50400001928E-02 0. -1.
    10030    2    1    2    0    0  0.00000000000E+00  0.00000000000E+00  0.23381602725E+03  0.84111896679E+03  0.80796731475E+03 0.  0.
        4    1    3    3  502    0  0.21477109776E+03 -0.28034476529E+03  0.32112360683E+03  0.47732776540E+03  0.12699999809E+01 0.  1.
       -4    1    3    3    0  502 -0.21477109776E+03  0.28034476529E+03 -0.87307579586E+02  0.36379120139E+03  0.12699999809E+01 0. -1.
</event>
<event>
 5   0  0.4377843E-02  0.7949481E+03  0.7818609E-02  0.9567358E-01
       -2   -1    0    0    0  501  0.00000000000E+00  0.00000000000E+00  0.66209586187E+03  0.66209586188E+03  0.25500000920E-02 0.  1.
        2   -1    0    0  501    0  0.00000000000E+00  0.00000000000E+00 -0.23861444964E+03  0.23861444966E+03  0.25500000920E-02 0. -1.
    10030    2    1    2    0    0  0.00000000000E+00  0.00000000000E+00  0.42348141223E+03  0.90071031153E+03  0.79494814850E+03 0.  0.
        2    1    3    3  502    0  0.20151449196E+03 -0.13379316657E+03  0.56910202021E+03  0.61837352086E+03  0.25500000920E-02 0.  1.
       -2    1    3    3    0  502 -0.20151449196E+03  0.13379316657E+03 -0.14562060798E+03  0.28233679067E+03  0.25500000920E-02 0. -1.
</event>
<event>
 5   0  0.2606520E-02  0.8133869E+03  0.7818609E-02  0.9540840E-01
       -1   -1    0    0    0  501  0.00000000000E+00  0.00000000000E+00  0.24860457263E+03  0.24860457268E+03  0.50400001928E-02 0.  1.
        1   -1    0    0  501    0  0.00000000000E+00  0.00000000000E+00 -0.66531187060E+03  0.66531187062E+03  0.50400001928E-02 0. -1.
    10030    2    1    2    0    0  0.00000000000E+00  0.00000000000E+00 -0.41670729797E+03  0.91391644330E+03  0.81338692708E+03 0.  0.
        5    1    3    3  502    0  0.20265501018E+03  0.21260938579E+03 -0.52437260579E+03  0.60104951858E+03  0.46999998093E+01 0. -1.
       -5    1    3    3    0  502 -0.20265501018E+03 -0.21260938579E+03  0.10766530782E+03  0.31286692472E+03  0.46999998093E+01 0.  1.
</event>
<event>
 5   0  0.2759559E-02  0.8022876E+03  0.7818609E-02  0.9556712E-01
        1   -1    0    0  501    0  0.00000000000E+00  0.00000000000E+00  0.90198182977E+03  0.90198182979E+03  0.50400001928E-02 0.  1.
       -1   -1    0    0    0  501  0.00000000000E+00  0.00000000000E+00 -0.17840310247E+03  0.17840310254E+03  0.50400001928E-02 0. -1.
    10030    2    1    2    0    0  0.00000000000E+00  0.00000000000E+00  0.72357872730E+03  0.10803849323E+04  0.80228762137E+03 0.  0.
        3    1    3    3  502    0 -0.18490597049E+03 -0.19604378667E+03  0.76192890639E+03  0.80818256156E+03  0.10100000352E+00 0.  1.
       -3    1    3    3    0  502  0.18490597049E+03  0.19604378667E+03 -0.38350179093E+02  0.27220237077E+03  0.10100000352E+00 0. -1.
</event>
<event>
 5   0  0.2759559E-02  0.4402672E+03  0.7818609E-02  0.1030665E+00
        1   -1    0    0  501    0  0.00000000000E+00  0.00000000000E+00  0.12710399455E+04  0.12710399455E+04  0.50400001928E-02 0.  1.
       -1   -1    0    0    0  501  0.00000000000E+00  0.00000000000E+00 -0.38125317597E+02  0.38125317931E+02  0.50400001928E-02 0. -1.
    10030    2    1    2    0    0  0.00000000000E+00  0.00000000000E+00  0.12329146279E+04  0.13091652635E+04  0.44026719990E+03 0.  0.
        3    1    3    3  502    0 -0.98581183432E+02  0.17180563976E+03  0.90203404449E+03  0.92352631538E+03  0.10100000352E+00 0.  1.
       -3    1    3    3    0  502  0.98581183432E+02 -0.17180563976E+03  0.33088058342E+03  0.38563894807E+03  0.10100000352E+00 0. -1.
</event>
<event>
 5   0  0.2769394E-02  0.7888500E+03  0.7818609E-02  0.9576298E-01
       -1   -1    0    0    0  501  0.00000000000E+00  0.00000000000E+00  0.52167258401E+02  0.52167258645E+02  0.50400001928E-02 0. -1.
        1   -1    0    0  501    0  0.00000000000E+00  0.00000000000E+00 -0.29821596122E+04  0.29821596122E+04  0.50400001928E-02 0.  1.
    10030    2    1    2    0    0  0.00000000000E+00  0.00000000000E+00 -0.29299923538E+04  0.30343268709E+04  0.78885002747E+03 0.  0.
        2    1    3    3  502    0  0.32553059604E+03 -0.32823468610E+02 -0.23123097576E+04  0.23353423655E+04  0.25500000920E-02 0.  1.
       -2    1    3    3    0  502 -0.32553059604E+03  0.32823468610E+02 -0.61768259619E+03  0.69898450533E+03  0.25500000920E-02 0. -1.
</event>
<event>
 5   0  0.4663634E-02  0.8003506E+03  0.7818609E-02  0.9559510E-01
       -2   -1    0    0    0  501  0.00000000000E+00  0.00000000000E+00  0.27858148068E+03  0.27858148070E+03  0.25500000920E-02 0. -1.
        2   -1    0    0  501    0  0.00000000000E+00  0.00000000000E+00 -0.57484174976E+03  0.57484174977E+03  0.25500000920E-02 0.  1.
    10030    2    1    2    0    0  0.00000000000E+00  0.00000000000E+00 -0.29626026908E+03  0.85342323047E+03  0.80035058772E+03 0.  0.
        5    1    3    3  502    0  0.35718770802E+03 -0.17657707427E+03 -0.10886938322E+03  0.41308250328E+03  0.46999998093E+01 0.  1.
       -5    1    3    3    0  502 -0.35718770802E+03  0.17657707427E+03 -0.18739088586E+03  0.44034072718E+03  0.46999998093E+01 0. -1.
</event>
<event>
 5   0  0.2689372E-02  0.8172120E+03  0.7818609E-02  0.9535432E-01
        1   -1    0    0  501    0  0.00000000000E+00  0.00000000000E+00  0.16417528503E+03  0.16417528511E+03  0.50400001928E-02 0.  1.
       -1   -1    0    0    0  501  0.00000000000E+00  0.00000000000E+00 -0.10169548877E+04  0.10169548877E+04  0.50400001928E-02 0. -1.
    10030    2    1    2    0    0  0.00000000000E+00  0.00000000000E+00 -0.85277960266E+03  0.11811301728E+04  0.81721198867E+03 0.  0.
        4    1    3    3  502    0  0.21403941655E+03 -0.34440654877E+03 -0.49906643014E+03  0.64303783502E+03  0.12699999809E+01 0. -1.
       -4    1    3    3    0  502 -0.21403941655E+03  0.34440654877E+03 -0.35371317252E+03  0.53809233779E+03  0.12699999809E+01 0.  1.
</event>
<event>
 5   0  0.2759559E-02  0.8019920E+03  0.7818609E-02  0.9557138E-01
        1   -1    0    0  501    0  0.00000000000E+00  0.00000000000E+00  0.91868124543E+03  0.91868124544E+03  0.50400001928E-02 0. -1.
       -1   -1    0    0    0  501  0.00000000000E+00  0.00000000000E+00 -0.17503111598E+03  0.17503111605E+03  0.50400001928E-02 0.  1.
    10030    2    1    2    0    0  0.00000000000E+00  0.00000000000E+00  0.74365012945E+03  0.10937123615E+04  0.80199202905E+03 0.  0.
        3    1    3    3  502    0 -0.38305583877E+03  0.25262766552E+02  0.52985365655E+03  0.65430489112E+03  0.10100000352E+00 0.  1.
       -3    1    3    3    0  502  0.38305583877E+03 -0.25262766552E+02  0.21379647290E+03  0.43940747037E+03  0.10100000352E+00 0. -1.
</event>
<event>
 5   0  0.4377843E-02  0.7919087E+03  0.7818609E-02  0.9571803E-01
        2   -1    0    0  501    0  0.00000000000E+00  0.00000000000E+00  0.19699510495E+04  0.19699510495E+04  0.25500000920E-02 0.  1.
       -2   -1    0    0    0  501  0.00000000000E+00  0.00000000000E+00 -0.79585650438E+02  0.79585650479E+02  0.25500000920E-02 0. -1.
    10030    2    1    2    0    0  0.00000000000E+00  0.00000000000E+00  0.18903653990E+04  0.20495367000E+04  0.79190867061E+03 0.  0.
        2    1    3    3  502    0 -0.12686357695E+03 -0.36707065561E+03  0.11447282292E+04  0.12088167570E+04  0.25500000920E-02 0.  1.
       -2    1    3    3    0  502  0.12686357695E+03  0.36707065561E+03  0.74563716985E+03  0.84071994293E+03  0.25500000920E-02 0. -1.
</event>
<event>
 5   0  0.1786500E-02  0.8018761E+03  0.7818609E-02  0.9557305E-01
        4   -1    0    0  501    0  0.00000000000E+00  0.00000000000E+00  0.93417784114E+03  0.93417870441E+03  0.12699999809E+01 0. -1.
       -4   -1    0    0    0  501  0.00000000000E+00  0.00000000000E+00 -0.17207458388E+03  0.17207927045E+03  0.12699999809E+01 0.  1.
    10030    2    1    2    0    0  0.00000000000E+00  0.00000000000E+00  0.76210325725E+03  0.11062579749E+04  0.80187613271E+03 0.  0.
        5    1    3    3  502    0 -0.20830126663E+03 -0.53068763706E+02  0.84792219347E+03  0.87475702200E+03  0.46999998093E+01 0. -1.
       -5    1    3    3    0  502  0.20830126663E+03  0.53068763706E+02 -0.85818936215E+02  0.23150095286E+03  0.46999998093E+01 0.  1.
</event>
<event>
 5   0  0.4663634E-02  0.8049437E+03  0.7818609E-02  0.9552889E-01
       -2   -1    0    0    0  501  0.00000000000E+00  0.00000000000E+00  0.67252598835E+03  0.67252598836E+03  0.25500000920E-02 0.  1.
        2   -1    0    0  501    0  0.00000000000E+00  0.00000000000E+00 -0.24085851166E+03  0.24085851167E+03  0.25500000920E-02 0. -1.
    10030    2    1    2    0    0  0.00000000000E+00  0.00000000000E+00  0.43166747669E+03  0.91338450003E+03  0.80494374615E+03 0.  0.
        5    1    3    3  502    0 -0.10618457275E+03  0.73372843616E+02  0.64837253734E+03  0.66111101553E+03  0.46999998093E+01 0.  1.
       -5    1    3    3    0  502  0.10618457275E+03 -0.73372843616E+02 -0.21670506065E+03  0.25227348450E+03  0.46999998093E+01 0. -1.
</event>
<event>
 5   0  0.2635243E-02  0.6282601E+03  0.7818609E-02  0.9848450E-01
        1   -1    0    0  501    0  0.00000000000E+00  0.00000000000E+00  0.28189000054E+03  0.28189000059E+03  0.50400001928E-02 0.  1.
       -1   -1    0    0    0  501  0.00000000000E+00  0.00000000000E+00 -0.35005745483E+03  0.35005745486E+03  0.50400001928E-02 0. -1.
    10030    2    1    2    0    0  0.00000000000E+00  0.00000000000E+00 -0.68167454282E+02  0.63194745545E+03  0.62826012497E+03 0.  0.
        1    1    3    3  502    0 -0.19405724266E+02 -0.27981152633E+03 -0.17635865541E+03  0.33132076265E+03  0.50400001928E-02 0. -1.
       -1    1    3    3    0  502  0.19405724266E+02  0.27981152633E+03  0.10819120113E+03  0.30062669280E+03  0.50400001928E-02 0.  1.
</event>
<event>
 5   0  0.4590462E-02  0.7949656E+03  0.7818609E-02  0.9567333E-01
       -2   -1    0    0    0  501  0.00000000000E+00  0.00000000000E+00  0.22493525142E+03  0.22493525144E+03  0.25500000920E-02 0. -1.
        2   -1    0    0  501    0  0.00000000000E+00  0.00000000000E+00 -0.70239143867E+03  0.70239143867E+03  0.25500000920E-02 0.  1.
    10030    2    1    2    0    0  0.00000000000E+00  0.00000000000E+00 -0.47745618725E+03  0.92732669011E+03  0.79496564671E+03 0.  0.
        3    1    3    3  502    0 -0.18520567690E+03 -0.32507046991E+03 -0.39532003235E+03  0.54428842661E+03  0.10100000352E+00 0.  1.
       -3    1    3    3    0  502  0.18520567690E+03  0.32507046991E+03 -0.82136154899E+02  0.38303826350E+03  0.10100000352E+00 0. -1.
</event>
<event>
 5   0  0.4663634E-02  0.8143788E+03  0.7818609E-02  0.9539434E-01
        2   -1    0    0  501    0  0.00000000000E+00  0.00000000000E+00  0.20989838351E+04  0.20989838351E+04  0.25500000920E-02 0. -1.
       -2   -1    0    0    0  501  0.00000000000E+00  0.00000000000E+00 -0.78992141345E+02  0.78992141386E+02  0.25500000920E-02 0.  1.
    10030    2    1    2    0    0  0.00000000000E+00  0.00000000000E+00  0.20199916938E+04  0.21779759765E+04  0.81437884999E+03 0.  0.
        5    1    3    3  502    0  0.38426876068E+03  0.12920890149E+03  0.90908485845E+03  0.99539680054E+03  0.46999998093E+01 0.  1.
       -5    1    3    3    0  502 -0.38426876068E+03 -0.12920890149E+03  0.11109068353E+04  0.11825791760E+04  0.46999998093E+01 0. -1.
</event>
<event>
 5   0  0.2635243E-02  0.7068008E+03  0.7818609E-02  0.9705672E-01
       -1   -1    0    0    0  501  0.00000000000E+00  0.00000000000E+00  0.52944694685E+03  0.52944694687E+03  0.50400001928E-02 0.  1.
        1   -1    0    0  501    0  0.00000000000E+00  0.00000000000E+00 -0.23589114840E+03  0.23589114846E+03  0.50400001928E-02 0. -1.
    10030    2    1    2    0    0  0.00000000000E+00  0.00000000000E+00  0.29355579844E+03  0.76533809533E+03  0.70680081590E+03 0.  0.
        1    1    3    3  502    0  0.91327295816E+02  0.22503439108E+03 -0.13121534287E+03  0.27604097225E+03  0.50400001928E-02 0. -1.
       -1    1    3    3    0  502 -0.91327295816E+02 -0.22503439108E+03  0.42477114132E+03  0.48929712308E+03  0.50400001928E-02 0.  1.
</event>
<event>
 5   0  0.4377843E-02  0.7967173E+03  0.7818609E-02  0.9564781E-01
       -2   -1    0    0    0  501  0.00000000000E+00  0.00000000000E+00  0.34819271762E+03  0.34819271763E+03  0.25500000920E-02 0. -1.
        2   -1    0    0  501    0  0.00000000000E+00  0.00000000000E+00 -0.45575229534E+03  0.45575229535E+03  0.25500000920E-02 0.  1.
    10030    2    1    2    0    0  0.00000000000E+00  0.00000000000E+00 -0.10755957772E+03  0.80394501298E+03  0.79671734080E+03 0.  0.
        2    1    3    3  502    0 -0.66210997033E+02 -0.20290168912E+03 -0.39318906815E+03  0.44738197873E+03  0.25500000920E-02 0.  1.
       -2    1    3    3    0  502  0.66210997033E+02  0.20290168912E+03  0.28562949043E+03  0.35656303424E+03  0.25500000920E-02 0. -1.
</event>
<event>
 5   0  0.4663634E-02  0.7851185E+03  0.7818609E-02  0.9581811E-01
        2   -1    0    0  501    0  0.00000000000E+00  0.00000000000E+00  0.85112346056E+03  0.85112346056E+03  0.25500000920E-02 0. -1.
       -2   -1    0    0    0  501  0.00000000000E+00  0.00000000000E+00 -0.18105807467E+03  0.18105807469E+03  0.25500000920E-02 0.  1.
    10030    2    1    2    0    0  0.00000000000E+00  0.00000000000E+00  0.67006538588E+03  0.10321815353E+04  0.78511852631E+03 0.  0.
        5    1    3    3  502    0 -0.33292477489E+03 -0.17129445809E+03  0.18003398690E+03  0.41546964215E+03  0.46999998093E+01 0.  1.
       -5    1    3    3    0  502  0.33292477489E+03  0.17129445809E+03  0.49003139898E+03  0.61671189310E+03  0.46999998093E+01 0. -1.
</event>
<event>
 5   0  0.2769394E-02  0.7794151E+03  0.7818609E-02  0.9590300E-01
        1   -1    0    0  501    0  0.00000000000E+00  0.00000000000E+00  0.65584303008E+03  0.65584303010E+03  0.50400001928E-02 0.  1.
       -1   -1    0    0    0  501  0.00000000000E+00  0.00000000000E+00 -0.23156758676E+03  0.23156758682E+03  0.50400001928E-02 0. -1.
    10030    2    1    2    0    0  0.00000000000E+00  0.00000000000E+00  0.42427544331E+03  0.88741061692E+03  0.77941513407E+03 0.  0.
        2    1    3    3  502    0 -0.60283060560E+02  0.11379326722E+03 -0.20664338656E+03  0.24348397128E+03  0.25500000920E-02 0. -1.
       -2    1    3    3    0  502  0.60283060560E+02 -0.11379326722E+03  0.63091882988E+03  0.64392664563E+03  0.25500000920E-02 0.  1.
</event>
<event>
 5   0  0.4663634E-02  0.7902422E+03  0.7818609E-02  0.9574249E-01
       -2   -1    0    0    0  501  0.00000000000E+00  0.00000000000E+00  0.60270110174E+03  0.60270110174E+03  0.25500000920E-02 0. -1.
        2   -1    0    0  501    0  0.00000000000E+00  0.00000000000E+00 -0.25903503454E+03  0.25903503455E+03  0.25500000920E-02 0.  1.
    10030    2    1    2    0    0  0.00000000000E+00  0.00000000000E+00  0.34366606719E+03  0.86173613630E+03  0.79024224315E+03 0.  0.
        5    1    3    3  502    0  0.12898478817E+03  0.16030955032E+03  0.53963445590E+03  0.57754970651E+03  0.46999998093E+01 0. -1.
       -5    1    3    3    0  502 -0.12898478817E+03 -0.16030955032E+03 -0.19596838870E+03  0.28418642978E+03  0.46999998093E+01 0.  1.
</event>
<event>
 5   0  0.2689372E-02  0.8296767E+03  0.7818609E-02  0.9518028E-01
        1   -1    0    0  501    0  0.00000000000E+00  0.00000000000E+00  0.78118690630E+03  0.78118690631E+03  0.50400001928E-02 0. -1.
       -1   -1    0    0    0  501  0.00000000000E+00  0.00000000000E+00 -0.22029406316E+03  0.22029406322E+03  0.50400001928E-02 0.  1.
    10030    2    1    2    0    0  0.00000000000E+00  0.00000000000E+00  0.56089284313E+03  0.10014809695E+04  0.82967665440E+03 0.  0.
        4    1    3    3  502    0  0.20062817371E+03  0.22467851425E+03  0.62474214653E+03  0.69356792126E+03  0.12699999809E+01 0. -1.
       -4    1    3    3    0  502 -0.20062817371E+03 -0.22467851425E+03 -0.63849303398E+02  0.30791304827E+03  0.12699999809E+01 0.  1.
</event>
<event>
 5   0  0.2606520E-02  0.8004337E+03  0.7818609E-02  0.9559390E-01
       -1   -1    0    0    0  501  0.00000000000E+00  0.00000000000E+00  0.14257147740E+03  0.14257147749E+03  0.50400001928E-02 0.  1.
        1   -1    0    0  501    0  0.00000000000E+00  0.00000000000E+00 -0.11234611253E+04  0.11234611253E+04  0.50400001928E-02 0. -1.
    10030    2    1    2    0    0  0.00000000000E+00  0.00000000000E+00 -0.98088964787E+03  0.12660326028E+04  0.80043366369E+03 0.  0.
        5    1    3    3  502    0  0.24186677311E+03  0.22190378191E+03 -0.12834434236E+03  0.35247011870E+03  0.46999998093E+01 0.  1.
       -5    1    3    3    0  502 -0.24186677311E+03 -0.22190378191E+03 -0.85254530551E+03  0.91356248407E+03  0.46999998093E+01 0. -1.
</event>
<event>
 5   0  0.2606520E-02  0.6308976E+03  0.7818609E-02  0.9843299E-01
        1   -1    0    0  501    0  0.00000000000E+00  0.00000000000E+00  0.10792534644E+04  0.10792534644E+04  0.50400001928E-02 0.  1.
       -1   -1    0    0    0  501  0.00000000000E+00  0.00000000000E+00 -0.92200729919E+02  0.92200730056E+02  0.50400001928E-02 0. -1.
    10030    2    1    2    0    0  0.00000000000E+00  0.00000000000E+00  0.98705273444E+03  0.11714541944E+04  0.63089763756E+03 0.  0.
        5    1    3    3  502    0  0.30609985609E+03 -0.41755699242E+02  0.37542993348E+03  0.48622051095E+03  0.46999998093E+01 0. -1.
       -5    1    3    3    0  502 -0.30609985609E+03  0.41755699242E+02  0.61162280096E+03  0.68523368348E+03  0.46999998093E+01 0.  1.
</event>
<event>
 5   0  0.2606520E-02  0.7981468E+03  0.7818609E-02  0.9562703E-01
        1   -1    0    0  501    0  0.00000000000E+00  0.00000000000E+00  0.60922317238E+03  0.60922317240E+03  0.50400001928E-02 0. -1.
       -1   -1    0    0    0  501  0.00000000000E+00  0.00000000000E+00 -0.26141416534E+03  0.26141416539E+03  0.50400001928E-02 0.  1.
    10030    2    1    2    0    0  0.00000000000E+00  0.00000000000E+00  0.34780900704E+03  0.87063733780E+03  0.79814677133E+03 0.  0.
        5    1    3    3  502    0 -0.46635405222E+02 -0.39040133679E+03  0.24828405581E+03  0.46503239366E+03  0.46999998093E+01 0.  1.
       -5    1    3    3    0  502  0.46635405222E+02  0.39040133679E+03  0.99524951230E+02  0.40560494413E+03  0.46999998093E+01 0. -1.
</event>
<event>
 5   0  0.4590462E-02  0.7931741E+03  0.7818609E-02  0.9569950E-01
        2   -1    0    0  501    0  0.00000000000E+00  0.00000000000E+00  0.64801359884E+03  0.64801359885E+03  0.25500000920E-02 0. -1.
       -2   -1    0    0    0  501  0.00000000000E+00  0.00000000000E+00 -0.24271297404E+03  0.24271297405E+03  0.25500000920E-02 0.  1.
    10030    2    1    2    0    0  0.00000000000E+00  0.00000000000E+00  0.40530062481E+03  0.89072657290E+03  0.79317414935E+03 0.  0.
        3    1    3    3  502    0 -0.15938933103E+03  0.18149464009E+01  0.61045655912E+03  0.63092430104E+03  0.10100000352E+00 0. -1.
       -3    1    3    3    0  502  0.15938933103E+03 -0.18149464009E+01 -0.20515593431E+03  0.25980227185E+03  0.10100000352E+00 0.  1.
</event>
<event>
 5   0  0.2606520E-02  0.8046763E+03  0.7818609E-02  0.9553273E-01
       -1   -1    0    0    0  501  0.00000000000E+00  0.00000000000E+00  0.79133631785E+03  0.79133631787E+03  0.50400001928E-02 0.  1.
        1   -1    0    0  501    0  0.00000000000E+00  0.00000000000E+00 -0.20456030295E+03  0.20456030301E+03  0.50400001928E-02 0. -1.
    10030    2    1    2    0    0  0.00000000000E+00  0.00000000000E+00  0.58677601490E+03  0.99589662088E+03  0.80467632487E+03 0.  0.
        5    1    3    3  502    0  0.18292027974E+03 -0.29908856441E+03  0.49162165392E+02  0.35405198291E+03  0.46999998093E+01 0. -1.
       -5    1    3    3    0  502 -0.18292027974E+03  0.29908856441E+03  0.53761384951E+03  0.64184463796E+03  0.46999998093E+01 0.  1.
</event>
<event>
 5   0  0.2606520E-02  0.7955830E+03  0.7818609E-02  0.9566433E-01
       -1   -1    0    0    0  501  0.00000000000E+00  0.00000000000E+00  0.34415411740E+03  0.34415411744E+03  0.50400001928E-02 0. -1.
        1   -1    0    0  501    0  0.00000000000E+00  0.00000000000E+00 -0.45978841820E+03  0.45978841823E+03  0.50400001928E-02 0.  1.
    10030    2    1    2    0    0  0.00000000000E+00  0.00000000000E+00 -0.11563430079E+03  0.80394253566E+03  0.79558299952E+03 0.  0.
        5    1    3    3  502    0  0.12447574344E+03 -0.89159304343E+01  0.32383143167E+03  0.34707721138E+03  0.46999998093E+01 0. -1.
       -5    1    3    3    0  502 -0.12447574344E+03  0.89159304343E+01 -0.43946573247E+03  0.45686532428E+03  0.46999998093E+01 0.  1.
</event>
<event>
 5   0  0.4590462E-02  0.8114025E+03  0.7818609E-02  0.9543658E-01
       -2   -1    0    0    0  501  0.00000000000E+00  0.00000000000E+00  0.91661224437E+02  0.91661224473E+02  0.25500000920E-02 0.  1.
        2   -1    0    0  501    0  0.00000000000E+00  0.00000000000E+00 -0.17956719073E+04  0.17956719073E+04  0.25500000920E-02 0. -1.
    10030    2    1    2    0    0  0.00000000000E+00  0.00000000000E+00 -0.17040106828E+04  0.18873331317E+04  0.81140245438E+03 0.  0.
        3    1    3    3  502    0 -0.26877512360E+03 -0.25509235963E+03 -0.12361941856E+04  0.12905379706E+04  0.10100000352E+00 0. -1.
       -3    1    3    3    0  502  0.26877512360E+03  0.25509235963E+03 -0.46781649725E+03  0.59679516110E+03  0.10100000352E+00 0.  1.
</event>
<event>
 5   0  0.4684283E-02  0.8002896E+03  0.7818609E-02  0.9559598E-01
       -2   -1    0    0    0  501  0.00000000000E+00  0.00000000000E+00  0.78480448414E+02  0.78480448455E+02  0.25500000920E-02 0.  1.
        2   -1    0    0  501    0  0.00000000000E+00  0.00000000000E+00 -0.20402007359E+04  0.20402007359E+04  0.25500000920E-02 0. -1.
    10030    2    1    2    0    0  0.00000000000E+00  0.00000000000E+00 -0.19617202875E+04  0.21186811843E+04  0.80028961920E+03 0.  0.
        1    1    3    3  502    0  0.63684333096E+02 -0.14992479035E+03 -0.19484550782E+04  0.19552519861E+04  0.50400001928E-02 0. -1.
       -1    1    3    3    0  502 -0.63684333096E+02  0.14992479035E+03 -0.13265209211E+02  0.16342919826E+03  0.50400001928E-02 0.  1.
</event>
<event>
 5   0  0.4700220E-02  0.7847706E+03  0.7818609E-02  0.9582326E-01
        2   -1    0    0  501    0  0.00000000000E+00  0.00000000000E+00  0.89819195658E+03  0.89819195658E+03  0.25500000920E-02 0. -1.
       -2   -1    0    0    0  501  0.00000000000E+00  0.00000000000E+00 -0.17141795979E+03  0.17141795981E+03  0.25500000920E-02 0.  1.
    10030    2    1    2    0    0  0.00000000000E+00  0.00000000000E+00  0.72677399679E+03  0.10696099164E+04  0.78477062307E+03 0.  0.
        4    1    3    3  502    0 -0.11948010893E+03  0.37373043643E+03  0.36860986280E+03  0.53835376789E+03  0.12699999809E+01 0. -1.
       -4    1    3    3    0  502  0.11948010893E+03 -0.37373043643E+03  0.35816413400E+03  0.53125614851E+03  0.12699999809E+01 0.  1.
</event>
<event>
 5   0  0.2769394E-02  0.7873568E+03  0.7818609E-02  0.9578500E-01
       -1   -1    0    0    0  501  0.00000000000E+00  0.00000000000E+00  0.25202926591E+03  0.25202926596E+03  0.50400001928E-02 0. -1.
        1   -1    0    0  501    0  0.00000000000E+00  0.00000000000E+00 -0.61493916467E+03  0.61493916469E+03  0.50400001928E-02 0.  1.
    10030    2    1    2    0    0  0.00000000000E+00  0.00000000000E+00 -0.36290989876E+03  0.86696843065E+03  0.78735675849E+03 0.  0.
        2    1    3    3  502    0  0.21713894661E+03  0.86304035021E+02 -0.53032689238E+03  0.57952076872E+03  0.25500000920E-02 0.  1.
       -2    1    3    3    0  502 -0.21713894661E+03 -0.86304035021E+02  0.16741699361E+03  0.28744766193E+03  0.25500000920E-02 0. -1.
</event>
<event>
 5   0  0.1786500E-02  0.8084193E+03  0.7818609E-02  0.9547910E-01
        4   -1    0    0  501    0  0.00000000000E+00  0.00000000000E+00  0.24481773188E+03  0.24482102594E+03  0.12699999809E+01 0.  1.
       -4   -1    0    0    0  501  0.00000000000E+00  0.00000000000E+00 -0.66736752778E+03  0.66736873619E+03  0.12699999809E+01 0. -1.
    10030    2    1    2    0    0  0.00000000000E+00  0.00000000000E+00 -0.42254979590E+03  0.91218976212E+03  0.80841934174E+03 0.  0.
        2    1    3    3  502    0  0.36256281212E+02 -0.23389637473E+03 -0.58099807710E+03  0.62736018174E+03  0.25500000920E-02 0. -1.
       -2    1    3    3    0  502 -0.36256281212E+02  0.23389637473E+03  0.15844828120E+03  0.28482958038E+03  0.25500000920E-02 0.  1.
</event>
<event>
 5   0  0.2689372E-02  0.8055360E+03  0.7818609E-02  0.9552038E-01
       -1   -1    0    0    0  501  0.00000000000E+00  0.00000000000E+00  0.30274183223E+03  0.30274183228E+03  0.50400001928E-02 0.  1.
        1   -1    0    0  501    0  0.00000000000E+00  0.00000000000E+00 -0.53584293765E+03  0.53584293768E+03  0.50400001928E-02 0. -1.
    10030    2    1    2    0    0  0.00000000000E+00  0.00000000000E+00 -0.23310110542E+03  0.83858476995E+03  0.80553602716E+03 0.  0.
        4    1    3    3  502    0 -0.23551022387E+03  0.40166513232E+02 -0.45410995782E+03  0.51312365081E+03  0.12699999809E+01 0. -1.
       -4    1    3    3    0  502  0.23551022387E+03 -0.40166513232E+02  0.22100885240E+03  0.32546111914E+03  0.12699999809E+01 0.  1.
</event>
<event>
 5   0  0.4684283E-02  0.8231477E+03  0.7818609E-02  0.9527103E-01
       -2   -1    0    0    0  501  0.00000000000E+00  0.00000000000E+00  0.24499716919E+03  0.24499716920E+03  0.25500000920E-02 0.  1.
        2   -1    0    0  501    0  0.00000000000E+00  0.00000000000E+00 -0.69140813934E+03  0.69140813935E+03  0.25500000920E-02 0. -1.
    10030    2    1    2    0    0  0.00000000000E+00  0.00000000000E+00 -0.44641097016E+03  0.93640530855E+03  0.82314770704E+03 0.  0.
        1    1    3    3  502    0  0.24110794788E+03 -0.28945565498E+03 -0.41176925380E+03  0.55809635112E+03  0.50400001928E-02 0. -1.
       -1    1    3    3    0  502 -0.24110794788E+03  0.28945565498E+03 -0.34641716354E+02  0.37830895743E+03  0.50400001928E-02 0.  1.
</event>
<event>
 5   0  0.1786500E-02  0.8000980E+03  0.7818609E-02  0.9559875E-01
        4   -1    0    0  501    0  0.00000000000E+00  0.00000000000E+00  0.24888559307E+03  0.24888883330E+03  0.12699999809E+01 0.  1.
       -4   -1    0    0    0  501  0.00000000000E+00  0.00000000000E+00 -0.64301512759E+03  0.64301638176E+03  0.12699999809E+01 0. -1.
    10030    2    1    2    0    0  0.00000000000E+00  0.00000000000E+00 -0.39412953452E+03  0.89190521506E+03  0.80009800816E+03 0.  0.
        2    1    3    3  502    0  0.38753177902E+03  0.99269785490E+02 -0.19924796059E+03  0.44691735239E+03  0.25500000920E-02 0.  1.
       -2    1    3    3    0  502 -0.38753177902E+03 -0.99269785490E+02 -0.19488157393E+03  0.44498786267E+03  0.25500000920E-02 0. -1.
</event>
<event>
 5   0  0.4377843E-02  0.8023136E+03  0.7818609E-02  0.9556674E-01
        2   -1    0    0  501    0  0.00000000000E+00  0.00000000000E+00  0.66965880861E+03  0.66965880861E+03  0.25500000920E-02 0. -1.
       -2   -1    0    0    0  501  0.00000000000E+00  0.00000000000E+00 -0.24031157116E+03  0.24031157118E+03  0.25500000920E-02 0.  1.
    10030    2    1    2    0    0  0.00000000000E+00  0.00000000000E+00  0.42934723744E+03  0.90997037979E+03  0.80231355579E+03 0.  0.
        2    1    3    3  502    0  0.29560203204E+03  0.13286278133E+03 -0.53468156130E+02  0.32846906054E+03  0.25500000920E-02 0.  1.
       -2    1    3    3    0  502 -0.29560203204E+03 -0.13286278133E+03  0.48281539357E+03  0.58150131925E+03  0.25500000920E-02 0. -1.
</event>
<event>
 5   0  0.2635243E-02  0.7938380E+03  0.7818609E-02  0.9568979E-01
       -1   -1    0    0    0  501  0.00000000000E+00  0.00000000000E+00  0.24066137490E+03  0.24066137495E+03  0.50400001928E-02 0. -1.
        1   -1    0    0  501    0  0.00000000000E+00  0.00000000000E+00 -0.65463224225E+03  0.65463224227E+03  0.50400001928E-02 0.  1.
    10030    2    1    2    0    0  0.00000000000E+00  0.00000000000E+00 -0.41397086735E+03  0.89529361722E+03  0.79383800741E+03 0.  0.
        1    1    3    3  502    0 -0.35410823981E+03 -0.12150712815E+03 -0.35570197013E+03  0.51641119205E+03  0.50400001928E-02 0.  1.
       -1    1    3    3    0  502  0.35410823981E+03  0.12150712815E+03 -0.58268897224E+02  0.37888242517E+03  0.50400001928E-02 0. -1.
</event>
<event>
 5   0  0.2689372E-02  0.8065989E+03  0.7818609E-02  0.9550514E-01
        1   -1    0    0  501    0  0.00000000000E+00  0.00000000000E+00  0.18230899175E+03  0.18230899182E+03  0.50400001928E-02 0.  1.
       -1   -1    0    0    0  501  0.00000000000E+00  0.00000000000E+00 -0.89216911685E+03  0.89216911687E+03  0.50400001928E-02 0. -1.
    10030    2    1    2    0    0  0.00000000000E+00  0.00000000000E+00 -0.70986012510E+03  0.10744781087E+04  0.80659891448E+03 0.  0.
        4    1    3    3  502    0 -0.10027404517E+03 -0.33612488136E+03 -0.62006343311E+03  0.71240093626E+03  0.12699999809E+01 0. -1.
       -4    1    3    3    0  502  0.10027404517E+03  0.33612488136E+03 -0.89796691988E+02  0.36207717243E+03  0.12699999809E+01 0.  1.
</event>
<event>
 5   0  0.4377843E-02  0.7899402E+03  0.7818609E-02  0.9574694E-01
        2   -1    0    0  501    0  0.00000000000E+00  0.00000000000E+00  0.13478920701E+04  0.13478920701E+04  0.25500000920E-02 0. -1.
       -2   -1    0    0    0  501  0.00000000000E+00  0.00000000000E+00 -0.11573728691E+03  0.11573728693E+03  0.25500000920E-02 0.  1.
    10030    2    1    2    0    0  0.00000000000E+00  0.00000000000E+00  0.12321547831E+04  0.14636293570E+04  0.78994017812E+03 0.  0.
        2    1    3    3  502    0 -0.28719966200E+02 -0.24696767968E+02 -0.11236421147E+03  0.11857690683E+03  0.25500000920E-02 0.  1.
       -2    1    3    3    0  502  0.28719966200E+02  0.24696767968E+02  0.13445189946E+04  0.13450524502E+04  0.25500000920E-02 0. -1.
</event>
<event>
 5   0  0.4663634E-02  0.8290712E+03  0.7818609E-02  0.9518865E-01
        2   -1    0    0  501    0  0.00000000000E+00  0.00000000000E+00  0.69825093629E+03  0.69825093629E+03  0.25500000920E-02 0. -1.
       -2   -1    0    0    0  501  0.00000000000E+00  0.00000000000E+00 -0.24610031899E+03  0.24610031901E+03  0.25500000920E-02 0.  1.
    10030    2    1    2    0    0  0.00000000000E+00  0.00000000000E+00  0.45215061729E+03  0.94435125530E+03  0.82907123498E+03 0.  0.
        5    1    3    3  502    0 -0.49436652411E+02  0.25871955119E+03 -0.13848723578E+03  0.29762492040E+03  0.46999998093E+01 0.  1.
       -5    1    3    3    0  502  0.49436652411E+02 -0.25871955119E+03  0.59063785307E+03  0.64672633490E+03  0.46999998093E+01 0. -1.
</event>
<event>
 5   0  0.2689372E-02  0.8261727E+03  0.7818609E-02  0.9522887E-01
       -1   -1    0    0    0  501  0.00000000000E+00  0.00000000000E+00  0.31703059422E+03  0.31703059426E+03  0.50400001928E-02 0. -1.
        1   -1    0    0  501    0  0.00000000000E+00  0.00000000000E+00 -0.53824569319E+03  0.53824569322E+03  0.50400001928E-02 0.  1.
    10030    2    1    2    0    0  0.00000000000E+00  0.00000000000E+00 -0.22121509897E+03  0.85527628748E+03  0.82617274701E+03 0.  0.
        4    1    3    3  502    0  0.34116697069E+03 -0.14211366392E+03  0.80412282904E+02  0.37823133597E+03  0.12699999809E+01 0.  1.
       -4    1    3    3    0  502 -0.34116697069E+03  0.14211366392E+03 -0.30162738187E+03  0.47704495151E+03  0.12699999809E+01 0. -1.
</event>
<event>
 5   0  0.2769394E-02  0.7888718E+03  0.7818609E-02  0.9576266E-01
        1   -1    0    0  501    0  0.00000000000E+00  0.00000000000E+00  0.19898268132E+03  0.19898268138E+03  0.50400001928E-02 0.  1.
       -1   -1    0    0    0  501  0.00000000000E+00  0.00000000000E+00 -0.78187557472E+03  0.78187557473E+03  0.50400001928E-02 0. -1.
    10030    2    1    2    0    0  0.00000000000E+00  0.00000000000E+00 -0.58289289340E+03  0.98085825611E+03  0.78887184853E+03 0.  0.
        2    1    3    3  502    0 -0.27864459373E+03  0.21416528237E+02  0.54644002066E+02  0.28475857189E+03  0.25500000920E-02 0.  1.
       -2    1    3    3    0  502  0.27864459373E+03 -0.21416528237E+02 -0.63753689547E+03  0.69609968423E+03  0.25500000920E-02 0. -1.
</event>
<event>
 5   0  0.1786500E-02  0.7909885E+03  0.7818609E-02  0.9573153E-01
        3   -1    0    0  501    0  0.00000000000E+00  0.00000000000E+00  0.73846463723E+03  0.73846464414E+03  0.10100000352E+00 0. -1.
       -3   -1    0    0    0  501  0.00000000000E+00  0.00000000000E+00 -0.21181199995E+03  0.21181202403E+03  0.10100000352E+00 0.  1.
    10030    2    1    2    0    0  0.00000000000E+00  0.00000000000E+00  0.52665263728E+03  0.95027666816E+03  0.79098846117E+03 0.  0.
        3    1    3    3  502    0 -0.10899245924E+03 -0.10339923052E+03 -0.17619592911E+03  0.23155079934E+03  0.10100000352E+00 0.  1.
       -3    1    3    3    0  502  0.10899245924E+03  0.10339923052E+03  0.70284856639E+03  0.71872586882E+03  0.10100000352E+00 0. -1.
</event>
<event>
 5   0  0.4700220E-02  0.8009085E+03  0.7818609E-02  0.9558703E-01
        2   -1    0    0  501    0  0.00000000000E+00  0.00000000000E+00  0.44076991600E+03  0.44076991600E+03  0.25500000920E-02 0.  1.
       -2   -1    0    0    0  501  0.00000000000E+00  0.00000000000E+00 -0.36382610895E+03  0.36382610896E+03  0.25500000920E-02 0. -1.
    10030    2    1    2    0    0  0.00000000000E+00  0.00000000000E+00  0.76943807045E+02  0.80459602496E+03  0.80090849286E+03 0.  0.
        4    1    3    3  502    0  0.36685499770E+03  0.15051629307E+03  0.94624216283E+02  0.40766787833E+03  0.12699999809E+01 0. -1.
       -4    1    3    3    0  502 -0.36685499770E+03 -0.15051629307E+03 -0.17680409238E+02  0.39692814663E+03  0.12699999809E+01 0.  1.
</event>
<event>
 5   0  0.2606520E-02  0.8028408E+03  0.7818609E-02  0.9555914E-01
       -1   -1    0    0    0  501  0.00000000000E+00  0.00000000000E+00  0.19026897125E+03  0.19026897132E+03  0.50400001928E-02 0. -1.
        1   -1    0    0  501    0  0.00000000000E+00  0.00000000000E+00 -0.84689763524E+03  0.84689763526E+03  0.50400001928E-02 0.  1.
    10030    2    1    2    0    0  0.00000000000E+00  0.00000000000E+00 -0.65662866399E+03  0.10371666066E+04  0.80284081075E+03 0.  0.
        5    1    3    3  502    0  0.33474255782E+03 -0.19109987625E+03 -0.47300679876E+03  0.61018789269E+03  0.46999998093E+01 0.  1.
       -5    1    3    3    0  502 -0.33474255782E+03  0.19109987625E+03 -0.18362186523E+03  0.42697871388E+03  0.46999998093E+01 0. -1.
</event>
<event>
 5   0  0.4700220E-02  0.8544677E+03  0.7818609E-02  0.9484360E-01
       -2   -1    0    0    0  501  0.00000000000E+00  0.00000000000E+00  0.21968707906E+03  0.21968707907E+03  0.25500000920E-02 0. -1.
        2   -1    0    0  501    0  0.00000000000E+00  0.00000000000E+00 -0.83085795672E+03  0.83085795672E+03  0.25500000920E-02 0.  1.
    10030    2    1    2    0    0  0.00000000000E+00  0.00000000000E+00 -0.61117087766E+03  0.10505450358E+04  0.85446768840E+03 0.  0.
        4    1    3    3  502    0  0.42244233532E+03 -0.54020928498E+01 -0.38373618281E+03  0.57073792600E+03  0.12699999809E+01 0.  1.
       -4    1    3    3    0  502 -0.42244233532E+03  0.54020928498E+01 -0.22743469485E+03  0.47980710979E+03  0.12699999809E+01 0. -1.
</event>
<event>
 5   0  0.4700220E-02  0.7967622E+03  0.7818609E-02  0.9564715E-01
        2   -1    0    0  501    0  0.00000000000E+00  0.00000000000E+00  0.90599294958E+03  0.90599294958E+03  0.25500000920E-02 0.  1.
       -2   -1    0    0    0  501  0.00000000000E+00  0.00000000000E+00 -0.17517522124E+03  0.17517522126E+03  0.25500000920E-02 0. -1.
    10030    2    1    2    0    0  0.00000000000E+00  0.00000000000E+00  0.73081772834E+03  0.10811681708E+04  0.79676223654E+03 0.  0.
        4    1    3    3  502    0 -0.10487038136E+03  0.18892479322E+03  0.81956336768E+03  0.84757070556E+03  0.12699999809E+01 0.  1.
       -4    1    3    3    0  502  0.10487038136E+03 -0.18892479322E+03 -0.88745639341E+02  0.23359746528E+03  0.12699999809E+01 0. -1.
</event>
<event>
 5   0  0.4663634E-02  0.7929652E+03  0.7818609E-02  0.9570256E-01
        2   -1    0    0  501    0  0.00000000000E+00  0.00000000000E+00  0.15536802524E+03  0.15536802526E+03  0.25500000920E-02 0. -1.
       -2   -1    0    0    0  501  0.00000000000E+00  0.00000000000E+00 -0.10117813472E+04  0.10117813472E+04  0.25500000920E-02 0.  1.
    10030    2    1    2    0    0  0.00000000000E+00  0.00000000000E+00 -0.85641332197E+03  0.11671493725E+04  0.79296524490E+03 0.  0.
        5    1    3    3  502    0 -0.16212022319E+03 -0.27390771837E+03 -0.77610611954E+03  0.83885112132E+03  0.46999998093E+01 0.  1.
       -5    1    3    3    0  502  0.16212022319E+03  0.27390771837E+03 -0.80307202423E+02  0.32829825115E+03  0.46999998093E+01 0. -1.
</event>
<event>
 5   0  0.2769394E-02  0.8177715E+03  0.7818609E-02  0.9534644E-01
       -1   -1    0    0    0  501  0.00000000000E+00  0.00000000000E+00  0.18183568081E+03  0.18183568088E+03  0.50400001928E-02 0. -1.
        1   -1    0    0  501    0  0.00000000000E+00  0.00000000000E+00 -0.91944317501E+03  0.91944317503E+03  0.50400001928E-02 0.  1.
    10030    2    1    2    0    0  0.00000000000E+00  0.00000000000E+00 -0.73760749420E+03  0.11012788559E+04  0.81777154692E+03 0.  0.
        2    1    3    3  502    0 -0.21475336708E+03 -0.11124659127E+03  0.75178514904E+02  0.25327183391E+03  0.25500000920E-02 0. -1.
       -2    1    3    3    0  502  0.21475336708E+03  0.11124659127E+03 -0.81278600911E+03  0.84800702199E+03  0.25500000920E-02 0.  1.
</event>
<event>
 5   0  0.2689372E-02  0.8276132E+03  0.7818609E-02  0.9520886E-01
        1   -1    0    0  501    0  0.00000000000E+00  0.00000000000E+00  0.27425623683E+03  0.27425623687E+03  0.50400001928E-02 0. -1.
       -1   -1    0    0    0  501  0.00000000000E+00  0.00000000000E+00 -0.62436466450E+03  0.62436466452E+03  0.50400001928E-02 0.  1.
    10030    2    1    2    0    0  0.00000000000E+00  0.00000000000E+00 -0.35010842768E+03  0.89862090140E+03  0.82761320271E+03 0.  0.
        4    1    3    3  502    0 -0.39481945177E+03  0.34219025197E+02 -0.30435517609E+03  0.49968692928E+03  0.12699999809E+01 0. -1.
       -4    1    3    3    0  502  0.39481945177E+03 -0.34219025197E+02 -0.45753251584E+02  0.39893397212E+03  0.12699999809E+01 0.  1.
</event>
<event>
 5   0  0.2606520E-02  0.8026792E+03  0.7818609E-02  0.9556147E-01
       -1   -1    0    0    0  501  0.00000000000E+00  0.00000000000E+00  0.21120446758E+03  0.21120446764E+03  0.50400001928E-02 0. -1.
        1   -1    0    0  501    0  0.00000000000E+00  0.00000000000E+00 -0.76264235251E+03  0.76264235252E+03  0.50400001928E-02 0.  1.
    10030    2    1    2    0    0  0.00000000000E+00  0.00000000000E+00 -0.55143788493E+03  0.97384682016E+03  0.80267919383E+03 0.  0.
        5    1    3    3  502    0 -0.18546355266E+03 -0.31691830874E+03 -0.79272679390E+02  0.37568629397E+03  0.46999998093E+01 0.  1.
       -5    1    3    3    0  502  0.18546355266E+03  0.31691830874E+03 -0.47216520554E+03  0.59816052620E+03  0.46999998093E+01 0. -1.
</event>
<event>
 5   0  0.4684283E-02  0.7589388E+03  0.7818609E-02  0.9621430E-01
       -2   -1    0    0    0  501  0.00000000000E+00  0.00000000000E+00  0.52094429361E+03  0.52094429361E+03  0.25500000920E-02 0. -1.
        2   -1    0    0  501    0  0.00000000000E+00  0.00000000000E+00 -0.27641540238E+03  0.27641540239E+03  0.25500000920E-02 0.  1.
    10030    2    1    2    0    0  0.00000000000E+00  0.00000000000E+00  0.24452889123E+03  0.79735969600E+03  0.75893880265E+03 0.  0.
        1    1    3    3  502    0  0.28046457419E+03 -0.14917082231E+03 -0.95812187613E+02  0.33180157764E+03  0.50400001928E-02 0.  1.
       -1    1    3    3    0  502 -0.28046457419E+03  0.14917082231E+03  0.34034107884E+03  0.46555811836E+03  0.50400001928E-02 0. -1.
</event>
<event>
 5   0  0.1786500E-02  0.7840985E+03  0.7818609E-02  0.9583323E-01
        4   -1    0    0  501    0  0.00000000000E+00  0.00000000000E+00  0.16384409643E+03  0.16384901841E+03  0.12699999809E+01 0.  1.
       -4   -1    0    0    0  501  0.00000000000E+00  0.00000000000E+00 -0.93808348274E+03  0.93808434242E+03  0.12699999809E+01 0. -1.
    10030    2    1    2    0    0  0.00000000000E+00  0.00000000000E+00 -0.77423938631E+03  0.11019333608E+04  0.78409852977E+03 0.  0.
        2    1    3    3  502    0 -0.86201679658E+02 -0.90781025088E+01  0.15021237398E+03  0.17342692647E+03  0.25500000920E-02 0.  1.
       -2    1    3    3    0  502  0.86201679658E+02  0.90781025088E+01 -0.92445176030E+03  0.92850643436E+03  0.25500000920E-02 0. -1.
</event>
<event>
 5   0  0.4700220E-02  0.8122178E+03  0.7818609E-02  0.9542499E-01
       -2   -1    0    0    0  501  0.00000000000E+00  0.00000000000E+00  0.14042492678E+04  0.14042492678E+04  0.25500000920E-02 0. -1.
        2   -1    0    0  501    0  0.00000000000E+00  0.00000000000E+00 -0.11744668988E+03  0.11744668991E+03  0.25500000920E-02 0.  1.
    10030    2    1    2    0    0  0.00000000000E+00  0.00000000000E+00  0.12868025779E+04  0.15216959577E+04  0.81221777446E+03 0.  0.
        4    1    3    3  502    0 -0.39393861745E+03  0.98509678166E+02  0.65383663657E+03  0.76967249608E+03  0.12699999809E+01 0. -1.
       -4    1    3    3    0  502  0.39393861745E+03 -0.98509678166E+02  0.63296594131E+03  0.75202346159E+03  0.12699999809E+01 0.  1.
</event>
<event>
 5   0  0.2606520E-02  0.8074657E+03  0.7818609E-02  0.9549273E-01
        1   -1    0    0  501    0  0.00000000000E+00  0.00000000000E+00  0.69144933083E+03  0.69144933085E+03  0.50400001928E-02 0.  1.
       -1   -1    0    0    0  501  0.00000000000E+00  0.00000000000E+00 -0.23573701825E+03  0.23573701830E+03  0.50400001928E-02 0. -1.
    10030    2    1    2    0    0  0.00000000000E+00  0.00000000000E+00  0.45571231258E+03  0.92718634916E+03  0.80746567371E+03 0.  0.
        5    1    3    3  502    0  0.25371892959E+03 -0.76205371576E+01  0.58832198720E+03  0.64076221676E+03  0.46999998093E+01 0.  1.
       -5    1    3    3    0  502 -0.25371892959E+03  0.76205371576E+01 -0.13260967461E+03  0.28642413239E+03  0.46999998093E+01 0. -1.
</event>
<event>
 5   0  0.2635243E-02  0.7974306E+03  0.7818609E-02  0.9563744E-01
       -1   -1    0    0    0  501  0.00000000000E+00  0.00000000000E+00  0.12472305914E+03  0.12472305925E+03  0.50400001928E-02 0.  1.
        1   -1    0    0  501    0  0.00000000000E+00  0.00000000000E+00 -0.12746151485E+04  0.12746151485E+04  0.50400001928E-02 0. -1.
    10030    2    1    2    0    0  0.00000000000E+00  0.00000000000E+00 -0.11498920894E+04  0.13993382078E+04  0.79743062553E+03 0.  0.
        1    1    3    3  502    0 -0.79028330751E+02 -0.33798790203E+03 -0.91923129245E+03  0.98258204137E+03  0.50400001928E-02 0. -1.
       -1    1    3    3    0  502  0.79028330751E+02  0.33798790203E+03 -0.23066079694E+03  0.41675616642E+03  0.50400001928E-02 0.  1.
</event>
<event>
 5   0  0.2769394E-02  0.8357551E+03  0.7818609E-02  0.9509658E-01
        1   -1    0    0  501    0  0.00000000000E+00  0.00000000000E+00  0.19829406488E+03  0.19829406494E+03  0.50400001928E-02 0. -1.
       -1   -1    0    0    0  501  0.00000000000E+00  0.00000000000E+00 -0.88061965825E+03  0.88061965827E+03  0.50400001928E-02 0.  1.
    10030    2    1    2    0    0  0.00000000000E+00  0.00000000000E+00 -0.68232559338E+03  0.10789137232E+04  0.83575511172E+03 0.  0.
        2    1    3    3  502    0  0.52105914146E+02  0.39628212078E+03 -0.18375693663E+03  0.43991039690E+03  0.25500000920E-02 0. -1.
       -2    1    3    3    0  502 -0.52105914146E+02 -0.39628212078E+03 -0.49856865674E+03  0.63900332631E+03  0.25500000920E-02 0.  1.
</event>
<event>
 5   0  0.2769394E-02  0.7782914E+03  0.7818609E-02  0.9591982E-01
        1   -1    0    0  501    0  0.00000000000E+00  0.00000000000E+00  0.85302826509E+03  0.85302826511E+03  0.50400001928E-02 0. -1.
       -1   -1    0    0    0  501  0.00000000000E+00  0.00000000000E+00 -0.17752563136E+03  0.17752563143E+03  0.50400001928E-02 0.  1.
    10030    2    1    2    0    0  0.00000000000E+00  0.00000000000E+00  0.67550263374E+03  0.10305538965E+04  0.77829141425E+03 0.  0.
        2    1    3    3  502    0  0.24217405324E+03  0.27271067694E+03  0.51743733487E+03  0.63305669644E+03  0.25500000920E-02 0. -1.
       -2    1    3    3    0  502 -0.24217405324E+03 -0.27271067694E+03  0.15806529886E+03  0.39749720010E+03  0.25500000920E-02 0.  1.
</event>
<event>
 5   0  0.2606520E-02  0.8067119E+03  0.7818609E-02  0.9550352E-01
       -1   -1    0    0    0  501  0.00000000000E+00  0.00000000000E+00  0.30193808810E+03  0.30193808815E+03  0.50400001928E-02 0.  1.
        1   -1    0    0  501    0  0.00000000000E+00  0.00000000000E+00 -0.53883897295E+03  0.53883897297E+03  0.50400001928E-02 0. -1.
    10030    2    1    2    0    0  0.00000000000E+00  0.00000000000E+00 -0.23690088484E+03  0.84077706112E+03  0.80671186756E+03 0.  0.
        5    1    3    3  502    0  0.37535586787E+03  0.10658967006E+03 -0.22484205612E+03  0.45036587960E+03  0.46999998093E+01 0. -1.
       -5    1    3    3    0  502 -0.37535586787E+03 -0.10658967006E+03 -0.12058828728E+02  0.39041118152E+03  0.46999998093E+01 0.  1.
</event>
<event>
 5   0  0.4684283E-02  0.8074946E+03  0.7818609E-02  0.9549232E-01
       -2   -1    0    0    0  501  0.00000000000E+00  0.00000000000E+00  0.22665233024E+03  0.22665233026E+03  0.25500000920E-02 0.  1.
        2   -1    0    0  501    0  0.00000000000E+00  0.00000000000E+00 -0.71921564449E+03  0.71921564450E+03  0.25500000920E-02 0. -1.
    10030    2    1    2    0    0  0.00000000000E+00  0.00000000000E+00 -0.49256331425E+03  0.94586797475E+03  0.80749464836E+03 0.  0.
        1    1    3    3  502    0 -0.26932372089E+03  0.24418771893E+03 -0.40545148789E+02  0.36579614244E+03  0.50400001928E-02 0.  1.
       -1    1    3    3    0  502  0.26932372089E+03 -0.24418771893E+03 -0.45201816546E+03  0.58007183231E+03  0.50400001928E-02 0. -1.
</event>
<event>
 5   0  0.2769394E-02  0.7492382E+03  0.7818609E-02  0.9636546E-01
        1   -1    0    0  501    0  0.00000000000E+00  0.00000000000E+00  0.53570770583E+03  0.53570770586E+03  0.50400001928E-02 0. -1.
       -1   -1    0    0    0  501  0.00000000000E+00  0.00000000000E+00 -0.26197019935E+03  0.26197019940E+03  0.50400001928E-02 0.  1.
    10030    2    1    2    0    0  0.00000000000E+00  0.00000000000E+00  0.27373750648E+03  0.79767790526E+03  0.74923815845E+03 0.  0.
        2    1    3    3  502    0 -0.28098377287E+03 -0.17088178531E+03 -0.54137617675E+02  0.33329168430E+03  0.25500000920E-02 0.  1.
       -2    1    3    3    0  502  0.28098377287E+03  0.17088178531E+03  0.32787512416E+03  0.46438622096E+03  0.25500000920E-02 0. -1.
</event>
<event>
 5   0  0.2635243E-02  0.8142262E+03  0.7818609E-02  0.9539651E-01
        1   -1    0    0  501    0  0.00000000000E+00  0.00000000000E+00  0.23064479612E+03  0.23064479618E+03  0.50400001928E-02 0.  1.
       -1   -1    0    0    0  501  0.00000000000E+00  0.00000000000E+00 -0.71859873277E+03  0.71859873279E+03  0.50400001928E-02 0. -1.
    10030    2    1    2    0    0  0.00000000000E+00  0.00000000000E+00 -0.48795393665E+03  0.94924352897E+03  0.81422615593E+03 0.  0.
        1    1    3    3  502    0  0.18917810059E+03  0.29300066187E+03 -0.48880899122E+03  0.60047645377E+03  0.50400001928E-02 0.  1.
       -1    1    3    3    0  502 -0.18917810059E+03 -0.29300066187E+03  0.85505457421E+00  0.34876707520E+03  0.50400001928E-02 0. -1.
</event>
<event>
 5   0  0.4700220E-02  0.8370878E+03  0.7818609E-02  0.9507833E-01
        2   -1    0    0  501    0  0.00000000000E+00  0.00000000000E+00  0.11998396449E+03  0.11998396451E+03  0.25500000920E-02 0.  1.
       -2   -1    0    0    0  501  0.00000000000E+00  0.00000000000E+00 -0.14600201513E+04  0.14600201513E+04  0.25500000920E-02 0. -1.
    10030    2    1    2    0    0  0.00000000000E+00  0.00000000000E+00 -0.13400361868E+04  0.15800041158E+04  0.83708782337E+03 0.  0.
        4    1    3    3  502    0 -0.13351095598E+03 -0.30004699350E+03 -0.11597655758E+04  0.12053676523E+04  0.12699999809E+01 0.  1.
       -4    1    3    3    0  502  0.13351095598E+03  0.30004699350E+03 -0.18027061108E+03  0.37463646351E+03  0.12699999809E+01 0. -1.
</event>
<event>
 5   0  0.2606520E-02  0.7724901E+03  0.7818609E-02  0.9600713E-01
        1   -1    0    0  501    0  0.00000000000E+00  0.00000000000E+00  0.40115179751E+03  0.40115179754E+03  0.50400001928E-02 0.  1.
       -1   -1    0    0    0  501  0.00000000000E+00  0.00000000000E+00 -0.37189224010E+03  0.37189224014E+03  0.50400001928E-02 0. -1.
    10030    2    1    2    0    0  0.00000000000E+00  0.00000000000E+00  0.29259557406E+02  0.77304403768E+03  0.77249010511E+03 0.  0.
        5    1    3    3  502    0 -0.23469146880E+02  0.37928777319E+03  0.83622198732E+02  0.38913336771E+03  0.46999998093E+01 0.  1.
       -5    1    3    3    0  502  0.23469146880E+02 -0.37928777319E+03 -0.54362641326E+02  0.38391066997E+03  0.46999998093E+01 0. -1.
</event>
<event>
 5   0  0.2606520E-02  0.8140315E+03  0.7818609E-02  0.9539926E-01
       -1   -1    0    0    0  501  0.00000000000E+00  0.00000000000E+00  0.19603585918E+03  0.19603585925E+03  0.50400001928E-02 0. -1.
        1   -1    0    0  501    0  0.00000000000E+00  0.00000000000E+00 -0.84505882233E+03  0.84505882235E+03  0.50400001928E-02 0.  1.
    10030    2    1    2    0    0  0.00000000000E+00  0.00000000000E+00 -0.64902296315E+03  0.10410946816E+04  0.81403152847E+03 0.  0.
        5    1    3    3  502    0 -0.85854167073E+01 -0.28313026378E+03  0.49242901318E+02  0.28754722912E+03  0.46999998093E+01 0. -1.
       -5    1    3    3    0  502  0.85854167073E+01  0.28313026378E+03 -0.69826586447E+03  0.75354745247E+03  0.46999998093E+01 0.  1.
</event>
<event>
 5   0  0.1786500E-02  0.9030816E+03  0.7818609E-02  0.9421737E-01
        3   -1    0    0  501    0  0.00000000000E+00  0.00000000000E+00  0.26285979981E+03  0.26285981922E+03  0.10100000352E+00 0. -1.
       -3   -1    0    0    0  501  0.00000000000E+00  0.00000000000E+00 -0.77565716137E+03  0.77565716795E+03  0.10100000352E+00 0.  1.
    10030    2    1    2    0    0  0.00000000000E+00  0.00000000000E+00 -0.51279736156E+03  0.10385169872E+04  0.90308161238E+03 0.  0.
        5    1    3    3  502    0  0.43901069307E+03  0.17574589820E+02 -0.37606055800E+03  0.57834495599E+03  0.46999998093E+01 0. -1.
       -5    1    3    3    0  502 -0.43901069307E+03 -0.17574589820E+02 -0.13673680356E+03  0.46017203118E+03  0.46999998093E+01 0.  1.
</event>
<event>
 5   0  0.2769394E-02  0.7842318E+03  0.7818609E-02  0.9583126E-01
        1   -1    0    0  501    0  0.00000000000E+00  0.00000000000E+00  0.30410328955E+03  0.30410328960E+03  0.50400001928E-02 0. -1.
       -1   -1    0    0    0  501  0.00000000000E+00  0.00000000000E+00 -0.50560079956E+03  0.50560079959E+03  0.50400001928E-02 0.  1.
    10030    2    1    2    0    0  0.00000000000E+00  0.00000000000E+00 -0.20149751001E+03  0.80970408918E+03  0.78423176772E+03 0.  0.
        2    1    3    3  502    0  0.37407493937E+03  0.10601151787E+03 -0.15323660199E+03  0.41791381693E+03  0.25500000920E-02 0.  1.
       -2    1    3    3    0  502 -0.37407493937E+03 -0.10601151787E+03 -0.48260908011E+02  0.39179027225E+03  0.25500000920E-02 0. -1.
</event>
<event>
 5   0  0.4684283E-02  0.6975018E+03  0.7818609E-02  0.9721514E-01
        2   -1    0    0  501    0  0.00000000000E+00  0.00000000000E+00  0.45494777842E+03  0.45494777842E+03  0.25500000920E-02 0.  1.
       -2   -1    0    0    0  501  0.00000000000E+00  0.00000000000E+00 -0.26734320006E+03  0.26734320008E+03  0.25500000920E-02 0. -1.
    10030    2    1    2    0    0  0.00000000000E+00  0.00000000000E+00  0.18760457835E+03  0.72229097850E+03  0.69750181348E+03 0.  0.
        1    1    3    3  502    0  0.33482747324E+03 -0.97558322618E+02  0.94178197390E+02  0.36124312594E+03  0.50400001928E-02 0. -1.
       -1    1    3    3    0  502 -0.33482747324E+03  0.97558322618E+02  0.93426380962E+02  0.36104785256E+03  0.50400001928E-02 0.  1.
</event>
<event>
 5   0  0.2769394E-02  0.8195140E+03  0.7818609E-02  0.9532193E-01
        1   -1    0    0  501    0  0.00000000000E+00  0.00000000000E+00  0.42875752047E+03  0.42875752050E+03  0.50400001928E-02 0. -1.
       -1   -1    0    0    0  501  0.00000000000E+00  0.00000000000E+00 -0.39159847761E+03  0.39159847764E+03  0.50400001928E-02 0.  1.
    10030    2    1    2    0    0  0.00000000000E+00  0.00000000000E+00  0.37159042864E+02  0.82035599814E+03  0.81951398354E+03 0.  0.
        2    1    3    3  502    0  0.34112853253E+03 -0.22567498123E+03 -0.60001249904E+01  0.40906463348E+03  0.25500000920E-02 0. -1.
       -2    1    3    3    0  502 -0.34112853253E+03  0.22567498123E+03  0.43159167855E+02  0.41129136465E+03  0.25500000920E-02 0.  1.
</event>
<event>
 5   0  0.4684283E-02  0.7977049E+03  0.7818609E-02  0.9563345E-01
       -2   -1    0    0    0  501  0.00000000000E+00  0.00000000000E+00  0.65436213190E+02  0.65436213240E+02  0.25500000920E-02 0. -1.
        2   -1    0    0  501    0  0.00000000000E+00  0.00000000000E+00 -0.24311200879E+04  0.24311200879E+04  0.25500000920E-02 0.  1.
    10030    2    1    2    0    0  0.00000000000E+00  0.00000000000E+00 -0.23656838747E+04  0.24965563011E+04  0.79770493900E+03 0.  0.
        1    1    3    3  502    0 -0.16299376900E+02 -0.55624349002E+02  0.52184452515E+02  0.77993300988E+02  0.50400001928E-02 0. -1.
       -1    1    3    3    0  502  0.16299376900E+02  0.55624349002E+02 -0.24178683272E+04  0.24185630001E+04  0.50400001928E-02 0.  1.
</event>
<event>
 5   0  0.4590462E-02  0.8155970E+03  0.7818609E-02  0.9537712E-01
       -2   -1    0    0    0  501  0.00000000000E+00  0.00000000000E+00  0.19785363227E+03  0.19785363229E+03  0.25500000920E-02 0.  1.
        2   -1    0    0  501    0  0.00000000000E+00  0.00000000000E+00 -0.84051834418E+03  0.84051834418E+03  0.25500000920E-02 0. -1.
    10030    2    1    2    0    0  0.00000000000E+00  0.00000000000E+00 -0.64266471190E+03  0.10383719765E+04  0.81559697743E+03 0.  0.
        3    1    3    3  502    0 -0.36450859531E+03  0.13254590603E+03 -0.16097355890E+03  0.41993741215E+03  0.10100000352E+00 0.  1.
       -3    1    3    3    0  502  0.36450859531E+03 -0.13254590603E+03 -0.48169115300E+03  0.61843456432E+03  0.10100000352E+00 0. -1.
</event>
<event>
 5   0  0.4590462E-02  0.8137577E+03  0.7818609E-02  0.9540314E-01
        2   -1    0    0  501    0  0.00000000000E+00  0.00000000000E+00  0.89139582242E+03  0.89139582243E+03  0.25500000920E-02 0. -1.
       -2   -1    0    0    0  501  0.00000000000E+00  0.00000000000E+00 -0.18572041424E+03  0.18572041426E+03  0.25500000920E-02 0.  1.
    10030    2    1    2    0    0  0.00000000000E+00  0.00000000000E+00  0.70567540818E+03  0.10771162367E+04  0.81375770696E+03 0.  0.
        3    1    3    3  502    0 -0.70402151314E+02  0.37719052399E+03  0.53199927147E+03  0.65593626927E+03  0.10100000352E+00 0. -1.
       -3    1    3    3    0  502  0.70402151314E+02 -0.37719052399E+03  0.17367613671E+03  0.42117996742E+03  0.10100000352E+00 0.  1.
</event>
<event>
 5   0  0.2635243E-02  0.7924024E+03  0.7818609E-02  0.9571080E-01
        1   -1    0    0  501    0  0.00000000000E+00  0.00000000000E+00  0.38869563067E+03  0.38869563070E+03  0.50400001928E-02 0.  1.
       -1   -1    0    0    0  501  0.00000000000E+00  0.00000000000E+00 -0.40385173388E+03  0.40385173391E+03  0.50400001928E-02 0. -1.
    10030    2    1    2    0    0  0.00000000000E+00  0.00000000000E+00 -0.15156103213E+02  0.79254736462E+03  0.79240243418E+03 0.  0.
        1    1    3    3  502    0 -0.18023169789E+03  0.13799493050E+03 -0.33236708396E+03  0.40248471311E+03  0.50400001928E-02 0. -1.
       -1    1    3    3    0  502  0.18023169789E+03 -0.13799493050E+03  0.31721098074E+03  0.39006265150E+03  0.50400001928E-02 0.  1.
</event>
<event>
 5   0  0.2606520E-02  0.7870118E+03  0.7818609E-02  0.9579010E-01
       -1   -1    0    0    0  501  0.00000000000E+00  0.00000000000E+00  0.49132288064E+03  0.49132288066E+03  0.50400001928E-02 0.  1.
        1   -1    0    0  501    0  0.00000000000E+00  0.00000000000E+00 -0.31516321447E+03  0.31516321451E+03  0.50400001928E-02 0. -1.
    10030    2    1    2    0    0  0.00000000000E+00  0.00000000000E+00  0.17615966616E+03  0.80648609518E+03  0.78701181296E+03 0.  0.
        5    1    3    3  502    0  0.71540772452E+02  0.26391106560E+03 -0.20186616686E+03  0.33991053527E+03  0.46999998093E+01 0. -1.
       -5    1    3    3    0  502 -0.71540772452E+02 -0.26391106560E+03  0.37802583303E+03  0.46657555991E+03  0.46999998093E+01 0.  1.
</event>
<event>
 5   0  0.4590462E-02  0.7931235E+03  0.7818609E-02  0.9570024E-01
        2   -1    0    0  501    0  0.00000000000E+00  0.00000000000E+00  0.40093270925E+03  0.40093270926E+03  0.25500000920E-02 0. -1.
       -2   -1    0    0    0  501  0.00000000000E+00  0.00000000000E+00 -0.39223844901E+03  0.39223844902E+03  0.25500000920E-02 0.  1.
    10030    2    1    2    0    0  0.00000000000E+00  0.00000000000E+00  0.86942602370E+01  0.79317115828E+03  0.79312350625E+03 0.  0.
        3    1    3    3  502    0  0.48564762485E+02 -0.18505124984E+03 -0.34303336986E+03  0.39277780520E+03  0.10100000352E+00 0.  1.
       -3    1    3    3    0  502 -0.48564762485E+02  0.18505124984E+03  0.35172763009E+03  0.40039335308E+03  0.10100000352E+00 0. -1.
</event>
<event>
 5   0  0.2606520E-02  0.7963866E+03  0.7818609E-02  0.9565262E-01
       -1   -1    0    0    0  501  0.00000000000E+00  0.00000000000E+00  0.33432506392E+03  0.33432506396E+03  0.50400001928E-02 0. -1.
        1   -1    0    0  501    0  0.00000000000E+00  0.00000000000E+00 -0.47426273639E+03  0.47426273642E+03  0.50400001928E-02 0.  1.
    10030    2    1    2    0    0  0.00000000000E+00  0.00000000000E+00 -0.13993767247E+03  0.80858780037E+03  0.79638663897E+03 0.  0.
        5    1    3    3  502    0 -0.13626934415E+03  0.18815708151E+03  0.25834794745E+03  0.34747398957E+03  0.46999998093E+01 0. -1.
       -5    1    3    3    0  502  0.13626934415E+03 -0.18815708151E+03 -0.39828561992E+03  0.46111381080E+03  0.46999998093E+01 0.  1.
</event>
<event>
 5   0  0.4377843E-02  0.7848809E+03  0.7818609E-02  0.9582163E-01
        2   -1    0    0  501    0  0.00000000000E+00  0.00000000000E+00  0.35606325039E+03  0.35606325040E+03  0.25500000920E-02 0.  1.
       -2   -1    0    0    0  501  0.00000000000E+00  0.00000000000E+00 -0.43253413425E+03  0.43253413426E+03  0.25500000920E-02 0. -1.
    10030    2    1    2    0    0  0.00000000000E+00  0.00000000000E+00 -0.76470883859E+02  0.78859738466E+03  0.78488090754E+03 0.  0.
        2    1    3    3  502    0  0.30061892444E+03 -0.63418963573E+02  0.20708417702E+03  0.37050986364E+03  0.25500000920E-02 0.  1.
       -2    1    3    3    0  502 -0.30061892444E+03  0.63418963573E+02 -0.28355506088E+03  0.41808752102E+03  0.25500000920E-02 0. -1.
</event>
<event>
 5   0  0.2635243E-02  0.7961779E+03  0.7818609E-02  0.9565566E-01
        1   -1    0    0  501    0  0.00000000000E+00  0.00000000000E+00  0.14872513289E+04  0.14872513289E+04  0.50400001928E-02 0.  1.
       -1   -1    0    0    0  501  0.00000000000E+00  0.00000000000E+00 -0.10655549383E+03  0.10655549395E+03  0.50400001928E-02 0. -1.
    10030    2    1    2    0    0  0.00000000000E+00  0.00000000000E+00  0.13806958351E+04  0.15938068229E+04  0.79617786934E+03 0.  0.
        1    1    3    3  502    0 -0.24196890857E+03  0.24478839658E+02  0.13212448825E+04  0.13434419250E+04  0.50400001928E-02 0.  1.
       -1    1    3    3    0  502  0.24196890857E+03 -0.24478839658E+02  0.59450952606E+02  0.25036489789E+03  0.50400001928E-02 0. -1.
</event>
<event>
 5   0  0.2635243E-02  0.4531409E+03  0.7818609E-02  0.1026790E+00
        1   -1    0    0  501    0  0.00000000000E+00  0.00000000000E+00  0.24597903331E+03  0.24597903336E+03  0.50400001928E-02 0.  1.
       -1   -1    0    0    0  501  0.00000000000E+00  0.00000000000E+00 -0.20869323601E+03  0.20869323607E+03  0.50400001928E-02 0. -1.
    10030    2    1    2    0    0  0.00000000000E+00  0.00000000000E+00  0.37285797297E+02  0.45467226943E+03  0.45314086321E+03 0.  0.
        1    1    3    3  502    0 -0.60815917876E+02  0.19104506727E+03  0.12453327755E+03  0.23601976789E+03  0.50400001928E-02 0.  1.
       -1    1    3    3    0  502  0.60815917876E+02 -0.19104506727E+03 -0.87247480249E+02  0.21865250154E+03  0.50400001928E-02 0. -1.
</event>
<event>
 5   0  0.2689372E-02  0.5612276E+03  0.7818609E-02  0.9989281E-01
       -1   -1    0    0    0  501  0.00000000000E+00  0.00000000000E+00  0.70111404180E+03  0.70111404182E+03  0.50400001928E-02 0. -1.
        1   -1    0    0  501    0  0.00000000000E+00  0.00000000000E+00 -0.11231284199E+03  0.11231284211E+03  0.50400001928E-02 0.  1.
    10030    2    1    2    0    0  0.00000000000E+00  0.00000000000E+00  0.58880119981E+03  0.81342688393E+03  0.56122762102E+03 0.  0.
        4    1    3    3  502    0 -0.22624407685E+03 -0.12447898458E+03  0.45357488398E+03  0.52193216819E+03  0.12699999809E+01 0. -1.
       -4    1    3    3    0  502  0.22624407685E+03  0.12447898458E+03  0.13522631582E+03  0.29149471574E+03  0.12699999809E+01 0.  1.
</event>
<event>
 5   0  0.4700220E-02  0.8118762E+03  0.7818609E-02  0.9542984E-01
       -2   -1    0    0    0  501  0.00000000000E+00  0.00000000000E+00  0.17313232956E+03  0.17313232958E+03  0.25500000920E-02 0. -1.
        2   -1    0    0  501    0  0.00000000000E+00  0.00000000000E+00 -0.95179063516E+03  0.95179063517E+03  0.25500000920E-02 0.  1.
    10030    2    1    2    0    0  0.00000000000E+00  0.00000000000E+00 -0.77865830560E+03  0.11249229648E+04  0.81187617267E+03 0.  0.
        4    1    3    3  502    0 -0.33006836596E+03 -0.54717011063E+02 -0.70810330997E+02  0.34198653977E+03  0.12699999809E+01 0. -1.
       -4    1    3    3    0  502  0.33006836596E+03  0.54717011063E+02 -0.70784797460E+03  0.78293642498E+03  0.12699999809E+01 0.  1.
</event>
<event>
 5   0  0.2759559E-02  0.7990865E+03  0.7818609E-02  0.9561340E-01
       -1   -1    0    0    0  501  0.00000000000E+00  0.00000000000E+00  0.10050424325E+03  0.10050424338E+03  0.50400001928E-02 0.  1.
        1   -1    0    0  501    0  0.00000000000E+00  0.00000000000E+00 -0.15883391748E+04  0.15883391748E+04  0.50400001928E-02 0. -1.
    10030    2    1    2    0    0  0.00000000000E+00  0.00000000000E+00 -0.14878349316E+04  0.16888434182E+04  0.79908654578E+03 0.  0.
        3    1    3    3  502    0 -0.33435946657E+03 -0.17899192387E+03 -0.47825489923E+03  0.61037866979E+03  0.10100000352E+00 0.  1.
       -3    1    3    3    0  502  0.33435946657E+03  0.17899192387E+03 -0.10095800323E+04  0.10784647484E+04  0.10100000352E+00 0. -1.
</event>
<event>
 5   0  0.2606520E-02  0.9115581E+03  0.7818609E-02  0.9411247E-01
        1   -1    0    0  501    0  0.00000000000E+00  0.00000000000E+00  0.12077143291E+04  0.12077143291E+04  0.50400001928E-02 0.  1.
       -1   -1    0    0    0  501  0.00000000000E+00  0.00000000000E+00 -0.17200634950E+03  0.17200634957E+03  0.50400001928E-02 0. -1.
    10030    2    1    2    0    0  0.00000000000E+00  0.00000000000E+00  0.10357079796E+04  0.13797206787E+04  0.91155807943E+03 0.  0.
        5    1    3    3  502    0  0.23737693270E+03 -0.25234026115E+03  0.96606183651E+03  0.10263142684E+04  0.46999998093E+01 0.  1.
       -5    1    3    3    0  502 -0.23737693270E+03  0.25234026115E+03  0.69646143100E+02  0.35340641028E+03  0.46999998093E+01 0. -1.
</event>
<event>
 5   0  0.2689372E-02  0.7881955E+03  0.7818609E-02  0.9577262E-01
        1   -1    0    0  501    0  0.00000000000E+00  0.00000000000E+00  0.15347269621E+03  0.15347269629E+03  0.50400001928E-02 0. -1.
       -1   -1    0    0    0  501  0.00000000000E+00  0.00000000000E+00 -0.10119914378E+04  0.10119914379E+04  0.50400001928E-02 0.  1.
    10030    2    1    2    0    0  0.00000000000E+00  0.00000000000E+00 -0.85851874164E+03  0.11654641342E+04  0.78819554569E+03 0.  0.
        4    1    3    3  502    0  0.15272983626E+03  0.18188910565E+03 -0.89427348949E+03  0.92527657300E+03  0.12699999809E+01 0.  1.
       -4    1    3    3    0  502 -0.15272983626E+03 -0.18188910565E+03  0.35754747851E+02  0.24018756115E+03  0.12699999809E+01 0. -1.
</event>
<event>
 5   0  0.4377843E-02  0.7941866E+03  0.7818609E-02  0.9568470E-01
       -2   -1    0    0    0  501  0.00000000000E+00  0.00000000000E+00  0.13127836686E+03  0.13127836689E+03  0.25500000920E-02 0.  1.
        2   -1    0    0  501    0  0.00000000000E+00  0.00000000000E+00 -0.12011354464E+04  0.12011354464E+04  0.25500000920E-02 0. -1.
    10030    2    1    2    0    0  0.00000000000E+00  0.00000000000E+00 -0.10698570796E+04  0.13324138133E+04  0.79418662745E+03 0.  0.
        2    1    3    3  502    0 -0.55184977050E+02  0.77410336969E+02  0.11190455431E+03  0.14683450291E+03  0.25500000920E-02 0.  1.
       -2    1    3    3    0  502  0.55184977050E+02 -0.77410336969E+02 -0.11817616339E+04  0.11855793104E+04  0.25500000920E-02 0. -1.
</event>
<event>
 5   0  0.1786500E-02  0.8111727E+03  0.7818609E-02  0.9543984E-01
       -3   -1    0    0    0  501  0.00000000000E+00  0.00000000000E+00  0.51694431564E+03  0.51694432550E+03  0.10100000352E+00 0.  1.
        3   -1    0    0  501    0  0.00000000000E+00  0.00000000000E+00 -0.31821660547E+03  0.31821662150E+03  0.10100000352E+00 0. -1.
    10030    2    1    2    0    0  0.00000000000E+00  0.00000000000E+00  0.19872771017E+03  0.83516094700E+03  0.81117267250E+03 0.  0.
        1    1    3    3  502    0  0.30535512558E+03 -0.15699333494E+03 -0.12291796673E+03  0.36468820451E+03  0.50400001928E-02 0. -1.
       -1    1    3    3    0  502 -0.30535512558E+03  0.15699333494E+03  0.32164567690E+03  0.47047274249E+03  0.50400001928E-02 0.  1.
</event>
<event>
 5   0  0.4700220E-02  0.6216004E+03  0.7818609E-02  0.9861578E-01
       -2   -1    0    0    0  501  0.00000000000E+00  0.00000000000E+00  0.45998837853E+02  0.45998837924E+02  0.25500000920E-02 0. -1.
        2   -1    0    0  501    0  0.00000000000E+00  0.00000000000E+00 -0.20999826633E+04  0.20999826633E+04  0.25500000920E-02 0.  1.
    10030    2    1    2    0    0  0.00000000000E+00  0.00000000000E+00 -0.20539838254E+04  0.21459815012E+04  0.62160039286E+03 0.  0.
        4    1    3    3  502    0 -0.89378178381E+02  0.66318024299E+02 -0.20288193998E+04  0.20318701506E+04  0.12699999809E+01 0.  1.
       -4    1    3    3    0  502  0.89378178381E+02 -0.66318024299E+02 -0.25164425654E+02  0.11411135060E+03  0.12699999809E+01 0. -1.
</event>
<event>
 5   0  0.4700220E-02  0.8169320E+03  0.7818609E-02  0.9535827E-01
        2   -1    0    0  501    0  0.00000000000E+00  0.00000000000E+00  0.16527038319E+04  0.16527038319E+04  0.25500000920E-02 0. -1.
       -2   -1    0    0    0  501  0.00000000000E+00  0.00000000000E+00 -0.10095243663E+03  0.10095243667E+03  0.25500000920E-02 0.  1.
    10030    2    1    2    0    0  0.00000000000E+00  0.00000000000E+00  0.15517513952E+04  0.17536562686E+04  0.81693201405E+03 0.  0.
        4    1    3    3  502    0  0.37647815368E+03 -0.15843797827E+03  0.77133575574E+03  0.87281089254E+03  0.12699999809E+01 0. -1.
       -4    1    3    3    0  502 -0.37647815368E+03  0.15843797827E+03  0.78041563951E+03  0.88084537602E+03  0.12699999809E+01 0.  1.
</event>
<event>
 5   0  0.2689372E-02  0.7654925E+03  0.7818609E-02  0.9611354E-01
       -1   -1    0    0    0  501  0.00000000000E+00  0.00000000000E+00  0.39989205077E+03  0.39989205080E+03  0.50400001928E-02 0.  1.
        1   -1    0    0  501    0  0.00000000000E+00  0.00000000000E+00 -0.36633559925E+03  0.36633559929E+03  0.50400001928E-02 0. -1.
    10030    2    1    2    0    0  0.00000000000E+00  0.00000000000E+00  0.33556451514E+02  0.76622765009E+03  0.76549250572E+03 0.  0.
        4    1    3    3  502    0  0.16256407309E+03  0.96159086599E+02  0.34999345280E+03  0.39770677351E+03  0.12699999809E+01 0.  1.
       -4    1    3    3    0  502 -0.16256407309E+03 -0.96159086599E+02 -0.31643700128E+03  0.36852087658E+03  0.12699999809E+01 0. -1.
</event>
<event>
 5   0  0.4377843E-02  0.7882252E+03  0.7818609E-02  0.9577219E-01
       -2   -1    0    0    0  501  0.00000000000E+00  0.00000000000E+00  0.42884420082E+03  0.42884420083E+03  0.25500000920E-02 0. -1.
        2   -1    0    0  501    0  0.00000000000E+00  0.00000000000E+00 -0.36219389070E+03  0.36219389071E+03  0.25500000920E-02 0.  1.
    10030    2    1    2    0    0  0.00000000000E+00  0.00000000000E+00  0.66650310120E+02  0.79103809154E+03  0.78822522062E+03 0.  0.
        2    1    3    3  502    0  0.13895363343E+03  0.26113115511E+03  0.29469102647E+03  0.41754088842E+03  0.25500000920E-02 0. -1.
       -2    1    3    3    0  502 -0.13895363343E+03 -0.26113115511E+03 -0.22804071635E+03  0.37349720312E+03  0.25500000920E-02 0.  1.
</event>
<event>
 5   0  0.1786500E-02  0.8044175E+03  0.7818609E-02  0.9553645E-01
        3   -1    0    0  501    0  0.00000000000E+00  0.00000000000E+00  0.49521035519E+03  0.49521036549E+03  0.10100000352E+00 0. -1.
       -3   -1    0    0    0  501  0.00000000000E+00  0.00000000000E+00 -0.32667304285E+03  0.32667305846E+03  0.10100000352E+00 0.  1.
    10030    2    1    2    0    0  0.00000000000E+00  0.00000000000E+00  0.16853731233E+03  0.82188342395E+03  0.80441751405E+03 0.  0.
        3    1    3    3  502    0  0.33455159474E+00 -0.31650825818E+03 -0.16930195162E+03  0.35894393774E+03  0.10100000352E+00 0.  1.
       -3    1    3    3    0  502 -0.33455159474E+00  0.31650825818E+03  0.33783926395E+03  0.46293948621E+03  0.10100000352E+00 0. -1.
</event>
<event>
 5   0  0.4700220E-02  0.7019029E+03  0.7818609E-02  0.9713983E-01
        2   -1    0    0  501    0  0.00000000000E+00  0.00000000000E+00  0.54368516916E+03  0.54368516917E+03  0.25500000920E-02 0.  1.
       -2   -1    0    0    0  501  0.00000000000E+00  0.00000000000E+00 -0.22654089658E+03  0.22654089659E+03  0.25500000920E-02 0. -1.
    10030    2    1    2    0    0  0.00000000000E+00  0.00000000000E+00  0.31714427258E+03  0.77022606576E+03  0.70190291547E+03 0.  0.
        4    1    3    3  502    0 -0.34595372397E+03 -0.12211186973E+02  0.22191650847E+03  0.41119538160E+03  0.12699999809E+01 0.  1.
       -4    1    3    3    0  502  0.34595372397E+03  0.12211186973E+02  0.95227764114E+02  0.35903068417E+03  0.12699999809E+01 0. -1.
</event>
<event>
 5   0  0.4663634E-02  0.8165046E+03  0.7818609E-02  0.9536430E-01
       -2   -1    0    0    0  501  0.00000000000E+00  0.00000000000E+00  0.14542789427E+03  0.14542789429E+03  0.25500000920E-02 0. -1.
        2   -1    0    0  501    0  0.00000000000E+00  0.00000000000E+00 -0.11460658549E+04  0.11460658549E+04  0.25500000920E-02 0.  1.
    10030    2    1    2    0    0  0.00000000000E+00  0.00000000000E+00 -0.10006379607E+04  0.12914937492E+04  0.81650460868E+03 0.  0.
        5    1    3    3  502    0 -0.39419688010E+03 -0.99586097179E+02 -0.55820448725E+03  0.69059605459E+03  0.46999998093E+01 0.  1.
       -5    1    3    3    0  502  0.39419688010E+03  0.99586097179E+02 -0.44243347343E+03  0.60089769465E+03  0.46999998093E+01 0. -1.
</event>
<event>
 5   0  0.1786500E-02  0.8051527E+03  0.7818609E-02  0.9552589E-01
       -4   -1    0    0    0  501  0.00000000000E+00  0.00000000000E+00  0.74973859397E+03  0.74973966961E+03  0.12699999809E+01 0. -1.
        4   -1    0    0  501    0  0.00000000000E+00  0.00000000000E+00 -0.21616253230E+03  0.21616626303E+03  0.12699999809E+01 0.  1.
    10030    2    1    2    0    0  0.00000000000E+00  0.00000000000E+00  0.53357606166E+03  0.96590593264E+03  0.80515269180E+03 0.  0.
        1    1    3    3  502    0 -0.21817913376E+03  0.19417616586E+03 -0.65586281648E+02  0.29934608426E+03  0.50400001928E-02 0.  1.
       -1    1    3    3    0  502  0.21817913376E+03 -0.19417616586E+03  0.59916234331E+03  0.66655984838E+03  0.50400001928E-02 0. -1.
</event>
<event>
 5   0  0.4663634E-02  0.9273318E+03  0.7818609E-02  0.9392046E-01
       -2   -1    0    0    0  501  0.00000000000E+00  0.00000000000E+00  0.10784256669E+03  0.10784256672E+03  0.25500000920E-02 0. -1.
        2   -1    0    0  501    0  0.00000000000E+00  0.00000000000E+00 -0.19935175203E+04  0.19935175203E+04  0.25500000920E-02 0.  1.
    10030    2    1    2    0    0  0.00000000000E+00  0.00000000000E+00 -0.18856749536E+04  0.21013600870E+04  0.92733175543E+03 0.  0.
        5    1    3    3  502    0  0.21190991099E+03  0.36920256865E+03 -0.13591187287E+04  0.14242338838E+04  0.46999998093E+01 0.  1.
       -5    1    3    3    0  502 -0.21190991099E+03 -0.36920256865E+03 -0.52655622488E+03  0.67712620318E+03  0.46999998093E+01 0. -1.
</event>
<event>
 5   0  0.2606520E-02  0.7876696E+03  0.7818609E-02  0.9578038E-01
        1   -1    0    0  501    0  0.00000000000E+00  0.00000000000E+00  0.13300783134E+04  0.13300783134E+04  0.50400001928E-02 0.  1.
       -1   -1    0    0    0  501  0.00000000000E+00  0.00000000000E+00 -0.11661407115E+03  0.11661407126E+03  0.50400001928E-02 0. -1.
    10030    2    1    2    0    0  0.00000000000E+00  0.00000000000E+00  0.12134642423E+04  0.14466923847E+04  0.78766959358E+03 0.  0.
        5    1    3    3  502    0  0.10977856191E+03 -0.13128411270E+03  0.12581611310E+04  0.12697552412E+04  0.46999998093E+01 0.  1.
       -5    1    3    3    0  502 -0.10977856191E+03  0.13128411270E+03 -0.44696888715E+02  0.17693714354E+03  0.46999998093E+01 0. -1.
</event>
<event>
 5   0  0.2769394E-02  0.7779783E+03  0.7818609E-02  0.9592451E-01
        1   -1    0    0  501    0  0.00000000000E+00  0.00000000000E+00  0.18685666494E+03  0.18685666501E+03  0.50400001928E-02 0.  1.
       -1   -1    0    0    0  501  0.00000000000E+00  0.00000000000E+00 -0.80977877908E+03  0.80977877909E+03  0.50400001928E-02 0. -1.
    10030    2    1    2    0    0  0.00000000000E+00  0.00000000000E+00 -0.62292211413E+03  0.99663544410E+03  0.77797830828E+03 0.  0.
        2    1    3    3  502    0  0.20147834364E+03  0.14562289810E+03 -0.69473731902E+03  0.73787498524E+03  0.25500000920E-02 0. -1.
       -2    1    3    3    0  502 -0.20147834364E+03 -0.14562289810E+03  0.71815204883E+02  0.25876045886E+03  0.25500000920E-02 0.  1.
</event>
<event>
 5   0  0.4684283E-02  0.7832025E+03  0.7818609E-02  0.9584654E-01
        2   -1    0    0  501    0  0.00000000000E+00  0.00000000000E+00  0.11793138354E+03  0.11793138357E+03  0.25500000920E-02 0. -1.
       -2   -1    0    0    0  501  0.00000000000E+00  0.00000000000E+00 -0.13003455423E+04  0.13003455423E+04  0.25500000920E-02 0.  1.
    10030    2    1    2    0    0  0.00000000000E+00  0.00000000000E+00 -0.11824141588E+04  0.14182769259E+04  0.78320252532E+03 0.  0.
        1    1    3    3  502    0  0.34277011485E+03 -0.11248969161E+03 -0.31534653032E+03  0.47915416784E+03  0.50400001928E-02 0.  1.
       -1    1    3    3    0  502 -0.34277011485E+03  0.11248969161E+03 -0.86706762847E+03  0.93912275807E+03  0.50400001928E-02 0. -1.
</event>
<event>
 5   0  0.2689372E-02  0.8097558E+03  0.7818609E-02  0.9546002E-01
        1   -1    0    0  501    0  0.00000000000E+00  0.00000000000E+00  0.10019132044E+04  0.10019132044E+04  0.50400001928E-02 0. -1.
       -1   -1    0    0    0  501  0.00000000000E+00  0.00000000000E+00 -0.16361309604E+03  0.16361309612E+03  0.50400001928E-02 0.  1.
    10030    2    1    2    0    0  0.00000000000E+00  0.00000000000E+00  0.83830010836E+03  0.11655263005E+04  0.80975581848E+03 0.  0.
        4    1    3    3  502    0 -0.29130735120E+03 -0.16814463091E+03  0.94761658199E+02  0.34944809991E+03  0.12699999809E+01 0.  1.
       -4    1    3    3    0  502  0.29130735120E+03  0.16814463091E+03  0.74353845016E+03  0.81607820062E+03  0.12699999809E+01 0. -1.
</event>
<event>
 5   0  0.4590462E-02  0.8090921E+03  0.7818609E-02  0.9546949E-01
       -2   -1    0    0    0  501  0.00000000000E+00  0.00000000000E+00  0.99948443805E+02  0.99948443837E+02  0.25500000920E-02 0.  1.
        2   -1    0    0  501    0  0.00000000000E+00  0.00000000000E+00 -0.16374193085E+04  0.16374193085E+04  0.25500000920E-02 0. -1.
    10030    2    1    2    0    0  0.00000000000E+00  0.00000000000E+00 -0.15374708647E+04  0.17373677524E+04  0.80909211287E+03 0.  0.
        3    1    3    3  502    0  0.56043919605E+02  0.20758933165E+03 -0.15045541597E+04  0.15198412685E+04  0.10100000352E+00 0. -1.
       -3    1    3    3    0  502 -0.56043919605E+02 -0.20758933165E+03 -0.32916705013E+02  0.21752648393E+03  0.10100000352E+00 0.  1.
</event>
<event>
 5   0  0.2606520E-02  0.7711655E+03  0.7818609E-02  0.9602718E-01
       -1   -1    0    0    0  501  0.00000000000E+00  0.00000000000E+00  0.92307648025E+02  0.92307648162E+02  0.50400001928E-02 0. -1.
        1   -1    0    0  501    0  0.00000000000E+00  0.00000000000E+00 -0.16106365311E+04  0.16106365311E+04  0.50400001928E-02 0.  1.
    10030    2    1    2    0    0  0.00000000000E+00  0.00000000000E+00 -0.15183288830E+04  0.17029441792E+04  0.77116553380E+03 0.  0.
        5    1    3    3  502    0 -0.58576655118E+02  0.31450129855E+03 -0.12343779010E+04  0.12751679042E+04  0.46999998093E+01 0.  1.
       -5    1    3    3    0  502  0.58576655118E+02 -0.31450129855E+03 -0.28395098203E+03  0.42777627507E+03  0.46999998093E+01 0. -1.
</event>
<event>
 5   0  0.2759559E-02  0.5989991E+03  0.7818609E-02  0.9907485E-01
       -1   -1    0    0    0  501  0.00000000000E+00  0.00000000000E+00  0.44259291376E+03  0.44259291379E+03  0.50400001928E-02 0. -1.
        1   -1    0    0  501    0  0.00000000000E+00  0.00000000000E+00 -0.20266927410E+03  0.20266927416E+03  0.50400001928E-02 0.  1.
    10030    2    1    2    0    0  0.00000000000E+00  0.00000000000E+00  0.23992363966E+03  0.64526218795E+03  0.59899911380E+03 0.  0.
        3    1    3    3  502    0  0.10134398550E+03  0.19579117174E+03  0.33833812951E+03  0.40382853590E+03  0.10100000352E+00 0. -1.
       -3    1    3    3    0  502 -0.10134398550E+03 -0.19579117174E+03 -0.98414489845E+02  0.24143365205E+03  0.10100000352E+00 0.  1.
</event>
<event>
 5   0  0.2606520E-02  0.8154578E+03  0.7818609E-02  0.9537908E-01
       -1   -1    0    0    0  501  0.00000000000E+00  0.00000000000E+00  0.13152050075E+03  0.13152050085E+03  0.50400001928E-02 0.  1.
        1   -1    0    0  501    0  0.00000000000E+00  0.00000000000E+00 -0.12640071779E+04  0.12640071779E+04  0.50400001928E-02 0. -1.
    10030    2    1    2    0    0  0.00000000000E+00  0.00000000000E+00 -0.11324866771E+04  0.13955276787E+04  0.81545780285E+03 0.  0.
        5    1    3    3  502    0  0.14791095919E+03 -0.33241827338E+03 -0.88106157553E+03  0.95324244041E+03  0.46999998093E+01 0. -1.
       -5    1    3    3    0  502 -0.14791095919E+03  0.33241827338E+03 -0.25142510158E+03  0.44228523831E+03  0.46999998093E+01 0.  1.
</event>
<event>
 5   0  0.4377843E-02  0.7996313E+03  0.7818609E-02  0.9560551E-01
        2   -1    0    0  501    0  0.00000000000E+00  0.00000000000E+00  0.62057731244E+03  0.62057731245E+03  0.25500000920E-02 0. -1.
       -2   -1    0    0    0  501  0.00000000000E+00  0.00000000000E+00 -0.25758687030E+03  0.25758687031E+03  0.25500000920E-02 0.  1.
    10030    2    1    2    0    0  0.00000000000E+00  0.00000000000E+00  0.36299044215E+03  0.87816418276E+03  0.79963133430E+03 0.  0.
        2    1    3    3  502    0  0.39336203546E+03 -0.11208235149E+02  0.25909807040E+03  0.47115934201E+03  0.25500000920E-02 0. -1.
       -2    1    3    3    0  502 -0.39336203546E+03  0.11208235149E+02  0.10389237174E+03  0.40700484074E+03  0.25500000920E-02 0.  1.
</event>
<event>
 5   0  0.4663634E-02  0.8060076E+03  0.7818609E-02  0.9551362E-01
        2   -1    0    0  501    0  0.00000000000E+00  0.00000000000E+00  0.39168637673E+03  0.39168637674E+03  0.25500000920E-02 0.  1.
       -2   -1    0    0    0  501  0.00000000000E+00  0.00000000000E+00 -0.41464821731E+03  0.41464821732E+03  0.25500000920E-02 0. -1.
    10030    2    1    2    0    0  0.00000000000E+00  0.00000000000E+00 -0.22961840576E+02  0.80633459406E+03  0.80600758771E+03 0.  0.
        5    1    3    3  502    0 -0.15049210333E+03  0.15338357109E+03 -0.35252328405E+03  0.41287909712E+03  0.46999998093E+01 0. -1.
       -5    1    3    3    0  502  0.15049210333E+03 -0.15338357109E+03  0.32956144347E+03  0.39345549693E+03  0.46999998093E+01 0.  1.
</event>
<event>
 5   0  0.2689372E-02  0.7977462E+03  0.7818609E-02  0.9563285E-01
        1   -1    0    0  501    0  0.00000000000E+00  0.00000000000E+00  0.31806889826E+03  0.31806889830E+03  0.50400001928E-02 0.  1.
       -1   -1    0    0    0  501  0.00000000000E+00  0.00000000000E+00 -0.50020529346E+03  0.50020529349E+03  0.50400001928E-02 0. -1.
    10030    2    1    2    0    0  0.00000000000E+00  0.00000000000E+00 -0.18213639520E+03  0.81827419179E+03  0.79774619178E+03 0.  0.
        4    1    3    3  502    0 -0.55180467754E+02  0.34329603492E+03 -0.29154860988E+03  0.45376123285E+03  0.12699999809E+01 0.  1.
       -4    1    3    3    0  502  0.55180467754E+02 -0.34329603492E+03  0.10941221468E+03  0.36451295894E+03  0.12699999809E+01 0. -1.
</event>
<event>
 5   0  0.4700220E-02  0.8157691E+03  0.7818609E-02  0.9537468E-01
       -2   -1    0    0    0  501  0.00000000000E+00  0.00000000000E+00  0.37423286267E+03  0.37423286268E+03  0.25500000920E-02 0. -1.
        2   -1    0    0  501    0  0.00000000000E+00  0.00000000000E+00 -0.44456222508E+03  0.44456222508E+03  0.25500000920E-02 0.  1.
    10030    2    1    2    0    0  0.00000000000E+00  0.00000000000E+00 -0.70329362407E+02  0.81879508776E+03  0.81576907059E+03 0.  0.
        4    1    3    3  502    0 -0.91751793354E+02  0.15972729111E+03  0.33010416361E+03  0.37802324114E+03  0.12699999809E+01 0. -1.
       -4    1    3    3    0  502  0.91751793354E+02 -0.15972729111E+03 -0.40043352602E+03  0.44077184662E+03  0.12699999809E+01 0.  1.
</event>
<event>
 5   0  0.2606520E-02  0.7937428E+03  0.7818609E-02  0.9569119E-01
       -1   -1    0    0    0  501  0.00000000000E+00  0.00000000000E+00  0.32146775487E+03  0.32146775491E+03  0.50400001928E-02 0. -1.
        1   -1    0    0  501    0  0.00000000000E+00  0.00000000000E+00 -0.48996170796E+03  0.48996170799E+03  0.50400001928E-02 0.  1.
    10030    2    1    2    0    0  0.00000000000E+00  0.00000000000E+00 -0.16849395309E+03  0.81142946290E+03  0.79374275494E+03 0.  0.
        5    1    3    3  502    0 -0.29569922416E+03  0.25891878402E+03 -0.28181203699E+02  0.39407263052E+03  0.46999998093E+01 0.  1.
       -5    1    3    3    0  502  0.29569922416E+03 -0.25891878402E+03 -0.14031274939E+03  0.41735683237E+03  0.46999998093E+01 0. -1.
</event>
<event>
 5   0  0.4377843E-02  0.7928710E+03  0.7818609E-02  0.9570394E-01
       -2   -1    0    0    0  501  0.00000000000E+00  0.00000000000E+00  0.26614359884E+03  0.26614359886E+03  0.25500000920E-02 0. -1.
        2   -1    0    0  501    0  0.00000000000E+00  0.00000000000E+00 -0.59051238708E+03  0.59051238709E+03  0.25500000920E-02 0.  1.
    10030    2    1    2    0    0  0.00000000000E+00  0.00000000000E+00 -0.32436878824E+03  0.85665598594E+03  0.79287096521E+03 0.  0.
        2    1    3    3  502    0 -0.64299171745E+02  0.14021437377E+03 -0.55675755488E+03  0.57773127752E+03  0.25500000920E-02 0.  1.
       -2    1    3    3    0  502  0.64299171745E+02 -0.14021437377E+03  0.23238876665E+03  0.27892470842E+03  0.25500000920E-02 0. -1.
</event>
<event>
 5   0  0.4590462E-02  0.9329587E+03  0.7818609E-02  0.9385294E-01
       -2   -1    0    0    0  501  0.00000000000E+00  0.00000000000E+00  0.10668368158E+03  0.10668368161E+03  0.25500000920E-02 0. -1.
        2   -1    0    0  501    0  0.00000000000E+00  0.00000000000E+00 -0.20397023931E+04  0.20397023931E+04  0.25500000920E-02 0.  1.
    10030    2    1    2    0    0  0.00000000000E+00  0.00000000000E+00 -0.19330187115E+04  0.21463860747E+04  0.93295865002E+03 0.  0.
        3    1    3    3  502    0  0.28337156724E+03 -0.27752617044E+03 -0.40164794997E+03  0.56448322057E+03  0.10100000352E+00 0. -1.
       -3    1    3    3    0  502 -0.28337156724E+03  0.27752617044E+03 -0.15313707616E+04  0.15819028542E+04  0.10100000352E+00 0.  1.
</event>
<event>
 5   0  0.2769394E-02  0.7701694E+03  0.7818609E-02  0.9604229E-01
        1   -1    0    0  501    0  0.00000000000E+00  0.00000000000E+00  0.77268835844E+03  0.77268835845E+03  0.50400001928E-02 0.  1.
       -1   -1    0    0    0  501  0.00000000000E+00  0.00000000000E+00 -0.19191466519E+03  0.19191466525E+03  0.50400001928E-02 0. -1.
    10030    2    1    2    0    0  0.00000000000E+00  0.00000000000E+00  0.58077369325E+03  0.96460302370E+03  0.77016940381E+03 0.  0.
        2    1    3    3  502    0 -0.41328162556E+02  0.50428030777E+02 -0.18495138300E+03  0.19610715793E+03  0.25500000920E-02 0. -1.
       -2    1    3    3    0  502  0.41328162556E+02 -0.50428030777E+02  0.76572507625E+03  0.76849586578E+03  0.25500000920E-02 0.  1.
</event>
<event>
 5   0  0.2606520E-02  0.7546104E+03  0.7818609E-02  0.9628145E-01
       -1   -1    0    0    0  501  0.00000000000E+00  0.00000000000E+00  0.34630437578E+03  0.34630437582E+03  0.50400001928E-02 0.  1.
        1   -1    0    0  501    0  0.00000000000E+00  0.00000000000E+00 -0.41108117898E+03  0.41108117901E+03  0.50400001928E-02 0. -1.
    10030    2    1    2    0    0  0.00000000000E+00  0.00000000000E+00 -0.64776803196E+02  0.75738555482E+03  0.75461039247E+03 0.  0.
        5    1    3    3  502    0  0.11786392292E+03 -0.27840321190E+03 -0.25891038534E+03  0.39806648987E+03  0.46999998093E+01 0. -1.
       -5    1    3    3    0  502 -0.11786392292E+03  0.27840321190E+03  0.19413358214E+03  0.35931906495E+03  0.46999998093E+01 0.  1.
</event>
<event>
 5   0  0.4590462E-02  0.7949335E+03  0.7818609E-02  0.9567380E-01
       -2   -1    0    0    0  501  0.00000000000E+00  0.00000000000E+00  0.13963994949E+03  0.13963994951E+03  0.25500000920E-02 0.  1.
        2   -1    0    0  501    0  0.00000000000E+00  0.00000000000E+00 -0.11313369564E+04  0.11313369564E+04  0.25500000920E-02 0. -1.
    10030    2    1    2    0    0  0.00000000000E+00  0.00000000000E+00 -0.99169700690E+03  0.12709769059E+04  0.79493354555E+03 0.  0.
        3    1    3    3  502    0 -0.25802078474E+03 -0.98018969163E+02 -0.95312253217E+03  0.99228272947E+03  0.10100000352E+00 0. -1.
       -3    1    3    3    0  502  0.25802078474E+03  0.98018969163E+02 -0.38574474721E+02  0.27869417642E+03  0.10100000352E+00 0.  1.
</event>
<event>
 5   0  0.4590462E-02  0.8055051E+03  0.7818609E-02  0.9552083E-01
       -2   -1    0    0    0  501  0.00000000000E+00  0.00000000000E+00  0.71491776621E+02  0.71491776667E+02  0.25500000920E-02 0.  1.
        2   -1    0    0  501    0  0.00000000000E+00  0.00000000000E+00 -0.22689269004E+04  0.22689269004E+04  0.25500000920E-02 0. -1.
    10030    2    1    2    0    0  0.00000000000E+00  0.00000000000E+00 -0.21974351238E+04  0.23404186771E+04  0.80550509667E+03 0.  0.
        3    1    3    3  502    0 -0.78365416555E+02 -0.29998808469E+03 -0.35184608970E+03  0.46896659850E+03  0.10100000352E+00 0.  1.
       -3    1    3    3    0  502  0.78365416555E+02  0.29998808469E+03 -0.18455890341E+04  0.18714520786E+04  0.10100000352E+00 0. -1.
</event>
<event>
 5   0  0.4377843E-02  0.8501377E+03  0.7818609E-02  0.9490152E-01
        2   -1    0    0  501    0  0.00000000000E+00  0.00000000000E+00  0.61311028001E+03  0.61311028001E+03  0.25500000920E-02 0. -1.
       -2   -1    0    0    0  501  0.00000000000E+00  0.00000000000E+00 -0.29469990928E+03  0.29469990929E+03  0.25500000920E-02 0.  1.
    10030    2    1    2    0    0  0.00000000000E+00  0.00000000000E+00  0.31841037072E+03  0.90781018931E+03  0.85013773921E+03 0.  0.
        2    1    3    3  502    0  0.98053094357E+02  0.25648299880E+03 -0.18728445771E+03  0.33237539935E+03  0.25500000920E-02 0.  1.
       -2    1    3    3    0  502 -0.98053094357E+02 -0.25648299880E+03  0.50569482843E+03  0.57543478996E+03  0.25500000920E-02 0. -1.
</event>
<event>
 5   0  0.2635243E-02  0.8004567E+03  0.7818609E-02  0.9559356E-01
        1   -1    0    0  501    0  0.00000000000E+00  0.00000000000E+00  0.17467965591E+04  0.17467965591E+04  0.50400001928E-02 0. -1.
       -1   -1    0    0    0  501  0.00000000000E+00  0.00000000000E+00 -0.91700843952E+02  0.91700844090E+02  0.50400001928E-02 0.  1.
    10030    2    1    2    0    0  0.00000000000E+00  0.00000000000E+00  0.16550957151E+04  0.18384974032E+04  0.80045666669E+03 0.  0.
        1    1    3    3  502    0  0.12555853271E+03 -0.26424341527E+03  0.14548471363E+04  0.14839709288E+04  0.50400001928E-02 0. -1.
       -1    1    3    3    0  502 -0.12555853271E+03  0.26424341527E+03  0.20024857883E+03  0.35452647433E+03  0.50400001928E-02 0.  1.
</event>
<event>
 5   0  0.4700220E-02  0.7485388E+03  0.7818609E-02  0.9637646E-01
       -2   -1    0    0    0  501  0.00000000000E+00  0.00000000000E+00  0.15065513487E+03  0.15065513489E+03  0.25500000920E-02 0. -1.
        2   -1    0    0  501    0  0.00000000000E+00  0.00000000000E+00 -0.92978954600E+03  0.92978954600E+03  0.25500000920E-02 0.  1.
    10030    2    1    2    0    0  0.00000000000E+00  0.00000000000E+00 -0.77913441113E+03  0.10804446809E+04  0.74853876176E+03 0.  0.
        4    1    3    3  502    0  0.67320380746E+02  0.34959867041E+03 -0.55618325765E+03  0.66037314680E+03  0.12699999809E+01 0.  1.
       -4    1    3    3    0  502 -0.67320380746E+02 -0.34959867041E+03 -0.22295115347E+03  0.42007153409E+03  0.12699999809E+01 0. -1.
</event>
<event>
 5   0  0.4590462E-02  0.6049236E+03  0.7818609E-02  0.9895243E-01
       -2   -1    0    0    0  501  0.00000000000E+00  0.00000000000E+00  0.12375951377E+03  0.12375951379E+03  0.25500000920E-02 0.  1.
        2   -1    0    0  501    0  0.00000000000E+00  0.00000000000E+00 -0.73920095878E+03  0.73920095879E+03  0.25500000920E-02 0. -1.
    10030    2    1    2    0    0  0.00000000000E+00  0.00000000000E+00 -0.61544144501E+03  0.86296047258E+03  0.60492363567E+03 0.  0.
        3    1    3    3  502    0 -0.62712943886E+02 -0.27817594321E+03 -0.16386866763E+03  0.32888861206E+03  0.10100000352E+00 0.  1.
       -3    1    3    3    0  502  0.62712943886E+02  0.27817594321E+03 -0.45157277739E+03  0.53407186052E+03  0.10100000352E+00 0. -1.
</event>
<event>
 5   0  0.2769394E-02  0.8082311E+03  0.7818609E-02  0.9548179E-01
        1   -1    0    0  501    0  0.00000000000E+00  0.00000000000E+00  0.51532256155E+03  0.51532256157E+03  0.50400001928E-02 0. -1.
       -1   -1    0    0    0  501  0.00000000000E+00  0.00000000000E+00 -0.31690706483E+03  0.31690706487E+03  0.50400001928E-02 0.  1.
    10030    2    1    2    0    0  0.00000000000E+00  0.00000000000E+00  0.19841549672E+03  0.83222962645E+03  0.80823105719E+03 0.  0.
        2    1    3    3  502    0  0.24757067915E+03 -0.14299131872E+03 -0.19488013617E+03  0.34600003741E+03  0.25500000920E-02 0.  1.
       -2    1    3    3    0  502 -0.24757067915E+03  0.14299131872E+03  0.39329563289E+03  0.48622958904E+03  0.25500000920E-02 0. -1.
</event>
<event>
 5   0  0.2635243E-02  0.8020595E+03  0.7818609E-02  0.9557041E-01
        1   -1    0    0  501    0  0.00000000000E+00  0.00000000000E+00  0.10781072143E+04  0.10781072143E+04  0.50400001928E-02 0.  1.
       -1   -1    0    0    0  501  0.00000000000E+00  0.00000000000E+00 -0.14917333418E+03  0.14917333427E+03  0.50400001928E-02 0. -1.
    10030    2    1    2    0    0  0.00000000000E+00  0.00000000000E+00  0.92893388009E+03  0.12272805485E+04  0.80205946866E+03 0.  0.
        1    1    3    3  502    0  0.38252633805E+02 -0.39860542790E+03  0.43110743065E+03  0.58839031938E+03  0.50400001928E-02 0.  1.
       -1    1    3    3    0  502 -0.38252633805E+02  0.39860542790E+03  0.49782644943E+03  0.63889022917E+03  0.50400001928E-02 0. -1.
</event>
<event>
 5   0  0.4684283E-02  0.8002855E+03  0.7818609E-02  0.9559604E-01
        2   -1    0    0  501    0  0.00000000000E+00  0.00000000000E+00  0.49073678689E+03  0.49073678690E+03  0.25500000920E-02 0.  1.
       -2   -1    0    0    0  501  0.00000000000E+00  0.00000000000E+00 -0.32627309660E+03  0.32627309661E+03  0.25500000920E-02 0. -1.
    10030    2    1    2    0    0  0.00000000000E+00  0.00000000000E+00  0.16446369029E+03  0.81700988351E+03  0.80028547677E+03 0.  0.
        1    1    3    3  502    0 -0.11846291740E+02 -0.19684597050E+03 -0.27321890818E+03  0.33695287882E+03  0.50400001928E-02 0. -1.
       -1    1    3    3    0  502  0.11846291740E+02  0.19684597050E+03  0.43768259846E+03  0.48005700469E+03  0.50400001928E-02 0.  1.
</event>
<event>
 5   0  0.2606520E-02  0.7865424E+03  0.7818609E-02  0.9579703E-01
       -1   -1    0    0    0  501  0.00000000000E+00  0.00000000000E+00  0.28585522472E+03  0.28585522477E+03  0.50400001928E-02 0.  1.
        1   -1    0    0  501    0  0.00000000000E+00  0.00000000000E+00 -0.54105094524E+03  0.54105094526E+03  0.50400001928E-02 0. -1.
    10030    2    1    2    0    0  0.00000000000E+00  0.00000000000E+00 -0.25519572052E+03  0.82690617003E+03  0.78654240716E+03 0.  0.
        5    1    3    3  502    0  0.16346483879E+02  0.91768510132E+02  0.27404342203E+03  0.28950052529E+03  0.46999998093E+01 0.  1.
       -5    1    3    3    0  502 -0.16346483879E+02 -0.91768510132E+02 -0.52923914255E+03  0.53740564474E+03  0.46999998093E+01 0. -1.
</event>
<event>
 5   0  0.2689372E-02  0.7872050E+03  0.7818609E-02  0.9578724E-01
       -1   -1    0    0    0  501  0.00000000000E+00  0.00000000000E+00  0.77486226949E+02  0.77486227113E+02  0.50400001928E-02 0. -1.
        1   -1    0    0  501    0  0.00000000000E+00  0.00000000000E+00 -0.19993608573E+04  0.19993608573E+04  0.50400001928E-02 0.  1.
    10030    2    1    2    0    0  0.00000000000E+00  0.00000000000E+00 -0.19218746303E+04  0.20768470844E+04  0.78720500333E+03 0.  0.
        4    1    3    3  502    0  0.26981034122E+03  0.39599557394E+02 -0.21213967631E+03  0.34550050700E+03  0.12699999809E+01 0. -1.
       -4    1    3    3    0  502 -0.26981034122E+03 -0.39599557394E+02 -0.17097349540E+04  0.17313465774E+04  0.12699999809E+01 0.  1.
</event>
<event>
 5   0  0.4590462E-02  0.7981727E+03  0.7818609E-02  0.9562666E-01
        2   -1    0    0  501    0  0.00000000000E+00  0.00000000000E+00  0.54749817603E+03  0.54749817603E+03  0.25500000920E-02 0. -1.
       -2   -1    0    0    0  501  0.00000000000E+00  0.00000000000E+00 -0.29090489720E+03  0.29090489721E+03  0.25500000920E-02 0.  1.
    10030    2    1    2    0    0  0.00000000000E+00  0.00000000000E+00  0.25659327883E+03  0.83840307324E+03  0.79817266458E+03 0.  0.
        3    1    3    3  502    0 -0.31327206912E+03  0.73775809166E+02 -0.11957987658E+03  0.34333892350E+03  0.10100000352E+00 0.  1.
       -3    1    3    3    0  502  0.31327206912E+03 -0.73775809166E+02  0.37617315541E+03  0.49506414974E+03  0.10100000352E+00 0. -1.
</event>
<event>
 5   0  0.2689372E-02  0.8004910E+03  0.7818609E-02  0.9559307E-01
        1   -1    0    0  501    0  0.00000000000E+00  0.00000000000E+00  0.12859771662E+04  0.12859771662E+04  0.50400001928E-02 0. -1.
       -1   -1    0    0    0  501  0.00000000000E+00  0.00000000000E+00 -0.12457177902E+03  0.12457177912E+03  0.50400001928E-02 0.  1.
    10030    2    1    2    0    0  0.00000000000E+00  0.00000000000E+00  0.11614053872E+04  0.14105489453E+04  0.80049100794E+03 0.  0.
        4    1    3    3  502    0 -0.97367688206E+01 -0.23405049309E+03  0.88449864709E+01  0.23442330231E+03  0.12699999809E+01 0.  1.
       -4    1    3    3    0  502  0.97367688206E+01  0.23405049309E+03  0.11525604007E+04  0.11761256430E+04  0.12699999809E+01 0. -1.
</event>
<event>
 5   0  0.2635243E-02  0.7828296E+03  0.7818609E-02  0.9585209E-01
       -1   -1    0    0    0  501  0.00000000000E+00  0.00000000000E+00  0.36877708006E+03  0.36877708009E+03  0.50400001928E-02 0.  1.
        1   -1    0    0  501    0  0.00000000000E+00  0.00000000000E+00 -0.41544211336E+03  0.41544211339E+03  0.50400001928E-02 0. -1.
    10030    2    1    2    0    0  0.00000000000E+00  0.00000000000E+00 -0.46665033304E+02  0.78421919348E+03  0.78282955878E+03 0.  0.
        1    1    3    3  502    0 -0.14879985485E+03  0.36201877691E+03 -0.25893979138E+02  0.39226201680E+03  0.50400001928E-02 0. -1.
       -1    1    3    3    0  502  0.14879985485E+03 -0.36201877691E+03 -0.20771054167E+02  0.39195717669E+03  0.50400001928E-02 0.  1.
</event>
<event>
 5   0  0.2769394E-02  0.8035647E+03  0.7818609E-02  0.9554872E-01
        1   -1    0    0  501    0  0.00000000000E+00  0.00000000000E+00  0.12727141496E+04  0.12727141496E+04  0.50400001928E-02 0. -1.
       -1   -1    0    0    0  501  0.00000000000E+00  0.00000000000E+00 -0.12683842109E+03  0.12683842119E+03  0.50400001928E-02 0.  1.
    10030    2    1    2    0    0  0.00000000000E+00  0.00000000000E+00  0.11458757285E+04  0.13995525708E+04  0.80356469138E+03 0.  0.
        2    1    3    3  502    0 -0.18848454826E+03 -0.27956575532E+03  0.95350836782E+03  0.10113662264E+04  0.25500000920E-02 0. -1.
       -2    1    3    3    0  502  0.18848454826E+03  0.27956575532E+03  0.19236736071E+03  0.38818634437E+03  0.25500000920E-02 0.  1.
</event>
<event>
 5   0  0.4684283E-02  0.8014569E+03  0.7818609E-02  0.9557911E-01
        2   -1    0    0  501    0  0.00000000000E+00  0.00000000000E+00  0.10865348234E+04  0.10865348234E+04  0.25500000920E-02 0.  1.
       -2   -1    0    0    0  501  0.00000000000E+00  0.00000000000E+00 -0.14779396142E+03  0.14779396145E+03  0.25500000920E-02 0. -1.
    10030    2    1    2    0    0  0.00000000000E+00  0.00000000000E+00  0.93874086200E+03  0.12343287849E+04  0.80145688791E+03 0.  0.
        1    1    3    3  502    0  0.21951437984E+03  0.38417398695E+02 -0.43558551805E+02  0.22706784655E+03  0.50400001928E-02 0. -1.
       -1    1    3    3    0  502 -0.21951437984E+03 -0.38417398695E+02  0.98229941380E+03  0.10072609383E+04  0.50400001928E-02 0.  1.
</event>
<event>
 5   0  0.2606520E-02  0.7488295E+03  0.7818609E-02  0.9637188E-01
        1   -1    0    0  501    0  0.00000000000E+00  0.00000000000E+00  0.70967747646E+03  0.70967747648E+03  0.50400001928E-02 0.  1.
       -1   -1    0    0    0  501  0.00000000000E+00  0.00000000000E+00 -0.19753537979E+03  0.19753537985E+03  0.50400001928E-02 0. -1.
    10030    2    1    2    0    0  0.00000000000E+00  0.00000000000E+00  0.51214209667E+03  0.90721285633E+03  0.74882951298E+03 0.  0.
        5    1    3    3  502    0 -0.14261135313E+03 -0.13177371981E+03 -0.13172883686E+03  0.23468465594E+03  0.46999998093E+01 0. -1.
       -5    1    3    3    0  502  0.14261135313E+03  0.13177371981E+03  0.64387093353E+03  0.67252820039E+03  0.46999998093E+01 0.  1.
</event>
<event>
 5   0  0.4590462E-02  0.7184177E+03  0.7818609E-02  0.9686244E-01
        2   -1    0    0  501    0  0.00000000000E+00  0.00000000000E+00  0.11126543995E+04  0.11126543995E+04  0.25500000920E-02 0.  1.
       -2   -1    0    0    0  501  0.00000000000E+00  0.00000000000E+00 -0.11596682352E+03  0.11596682355E+03  0.25500000920E-02 0. -1.
    10030    2    1    2    0    0  0.00000000000E+00  0.00000000000E+00  0.99668757596E+03  0.12286212230E+04  0.71841769578E+03 0.  0.
        3    1    3    3  502    0  0.18167175486E+03 -0.27766892713E+03  0.26306966846E+03  0.42345049329E+03  0.10100000352E+00 0.  1.
       -3    1    3    3    0  502 -0.18167175486E+03  0.27766892713E+03  0.73361790750E+03  0.80517072973E+03  0.10100000352E+00 0. -1.
</event>
<event>
 5   0  0.4377843E-02  0.8312145E+03  0.7818609E-02  0.9515903E-01
        2   -1    0    0  501    0  0.00000000000E+00  0.00000000000E+00  0.26498320649E+03  0.26498320650E+03  0.25500000920E-02 0. -1.
       -2   -1    0    0    0  501  0.00000000000E+00  0.00000000000E+00 -0.65185025182E+03  0.65185025182E+03  0.25500000920E-02 0.  1.
    10030    2    1    2    0    0  0.00000000000E+00  0.00000000000E+00 -0.38686704533E+03  0.91683345832E+03  0.83121446061E+03 0.  0.
        2    1    3    3  502    0 -0.79046444061E+02  0.19734005231E+03 -0.58734356363E+03  0.62463100973E+03  0.25500000920E-02 0.  1.
       -2    1    3    3    0  502  0.79046444061E+02 -0.19734005231E+03  0.20047651831E+03  0.29220244859E+03  0.25500000920E-02 0. -1.
</event>
<event>
 5   0  0.4684283E-02  0.8105506E+03  0.7818609E-02  0.9544870E-01
        2   -1    0    0  501    0  0.00000000000E+00  0.00000000000E+00  0.14298650285E+04  0.14298650285E+04  0.25500000920E-02 0. -1.
       -2   -1    0    0    0  501  0.00000000000E+00  0.00000000000E+00 -0.11486963245E+03  0.11486963248E+03  0.25500000920E-02 0.  1.
    10030    2    1    2    0    0  0.00000000000E+00  0.00000000000E+00  0.13149953960E+04  0.15447346609E+04  0.81055060371E+03 0.  0.
        1    1    3    3  502    0  0.40124206561E+03  0.33267905811E+02  0.56920985425E+03  0.69721001640E+03  0.50400001928E-02 0. -1.
       -1    1    3    3    0  502 -0.40124206561E+03 -0.33267905811E+02  0.74578554176E+03  0.84752464454E+03  0.50400001928E-02 0.  1.
</event>
<event>
 5   0  0.4590462E-02  0.7809201E+03  0.7818609E-02  0.9588053E-01
        2   -1    0    0  501    0  0.00000000000E+00  0.00000000000E+00  0.71280751637E+03  0.71280751637E+03  0.25500000920E-02 0. -1.
       -2   -1    0    0    0  501  0.00000000000E+00  0.00000000000E+00 -0.21388532693E+03  0.21388532694E+03  0.25500000920E-02 0.  1.
    10030    2    1    2    0    0  0.00000000000E+00  0.00000000000E+00  0.49892218944E+03  0.92669284332E+03  0.78092014620E+03 0.  0.
        3    1    3    3  502    0 -0.23559886617E+03 -0.30217102809E+03  0.16030369257E+03  0.41534496508E+03  0.10100000352E+00 0.  1.
       -3    1    3    3    0  502  0.23559886617E+03  0.30217102809E+03  0.33861849687E+03  0.51134787824E+03  0.10100000352E+00 0. -1.
</event>
<event>
 5   0  0.2635243E-02  0.7935858E+03  0.7818609E-02  0.9569348E-01
       -1   -1    0    0    0  501  0.00000000000E+00  0.00000000000E+00  0.53375829731E+03  0.53375829734E+03  0.50400001928E-02 0. -1.
        1   -1    0    0  501    0  0.00000000000E+00  0.00000000000E+00 -0.29497358567E+03  0.29497358571E+03  0.50400001928E-02 0.  1.
    10030    2    1    2    0    0  0.00000000000E+00  0.00000000000E+00  0.23878471165E+03  0.82873188305E+03  0.79358578330E+03 0.  0.
        1    1    3    3  502    0 -0.81300663307E+02 -0.88115804007E+02  0.51439051642E+03  0.52817780735E+03  0.50400001928E-02 0. -1.
       -1    1    3    3    0  502  0.81300663307E+02  0.88115804007E+02 -0.27560580477E+03  0.30055407570E+03  0.50400001928E-02 0.  1.
</event>
<event>
 5   0  0.2606520E-02  0.7917304E+03  0.7818609E-02  0.9572065E-01
       -1   -1    0    0    0  501  0.00000000000E+00  0.00000000000E+00  0.74809603911E+03  0.74809603912E+03  0.50400001928E-02 0. -1.
        1   -1    0    0  501    0  0.00000000000E+00  0.00000000000E+00 -0.20947743937E+03  0.20947743943E+03  0.50400001928E-02 0.  1.
    10030    2    1    2    0    0  0.00000000000E+00  0.00000000000E+00  0.53861859974E+03  0.95757347855E+03  0.79173036499E+03 0.  0.
        5    1    3    3  502    0  0.65091105238E+02 -0.62792593197E+02 -0.19677968751E+03  0.21661970629E+03  0.46999998093E+01 0.  1.
       -5    1    3    3    0  502 -0.65091105238E+02  0.62792593197E+02  0.73539828725E+03  0.74095377226E+03  0.46999998093E+01 0. -1.
</event>
<event>
 5   0  0.1786500E-02  0.7984903E+03  0.7818609E-02  0.9562205E-01
        3   -1    0    0  501    0  0.00000000000E+00  0.00000000000E+00  0.12653741887E+04  0.12653741927E+04  0.10100000352E+00 0. -1.
       -3   -1    0    0    0  501  0.00000000000E+00  0.00000000000E+00 -0.12596798968E+03  0.12596803017E+03  0.10100000352E+00 0.  1.
    10030    2    1    2    0    0  0.00000000000E+00  0.00000000000E+00  0.11394061990E+04  0.13913422229E+04  0.79849025971E+03 0.  0.
        4    1    3    3  502    0 -0.30150851152E+03 -0.10911836831E+03  0.98417883803E+03  0.10350960337E+04  0.12699999809E+01 0. -1.
       -4    1    3    3    0  502  0.30150851152E+03  0.10911836831E+03  0.15522736098E+03  0.35624618920E+03  0.12699999809E+01 0.  1.
</event>
<event>
 5   0  0.4700220E-02  0.7458448E+03  0.7818609E-02  0.9641892E-01
        2   -1    0    0  501    0  0.00000000000E+00  0.00000000000E+00  0.22347814560E+04  0.22347814560E+04  0.25500000920E-02 0. -1.
       -2   -1    0    0    0  501  0.00000000000E+00  0.00000000000E+00 -0.62230292628E+02  0.62230292681E+02  0.25500000920E-02 0.  1.
    10030    2    1    2    0    0  0.00000000000E+00  0.00000000000E+00  0.21725511634E+04  0.22970117487E+04  0.74584476677E+03 0.  0.
        4    1    3    3  502    0  0.90690540860E+02 -0.80291230020E+02  0.46239035439E-01  0.12113245171E+03  0.12699999809E+01 0.  1.
       -4    1    3    3    0  502 -0.90690540860E+02  0.80291230020E+02  0.21725049244E+04  0.21758792970E+04  0.12699999809E+01 0. -1.
</event>
<event>
 5   0  0.4377843E-02  0.8069922E+03  0.7818609E-02  0.9549951E-01
        2   -1    0    0  501    0  0.00000000000E+00  0.00000000000E+00  0.36260955113E+03  0.36260955113E+03  0.25500000920E-02 0. -1.
       -2   -1    0    0    0  501  0.00000000000E+00  0.00000000000E+00 -0.44899281983E+03  0.44899281984E+03  0.25500000920E-02 0.  1.
    10030    2    1    2    0    0  0.00000000000E+00  0.00000000000E+00 -0.86383268708E+02  0.81160237098E+03  0.80699215576E+03 0.  0.
        2    1    3    3  502    0 -0.39587824997E+03  0.17358259234E+02  0.33323133822E+02  0.39765730122E+03  0.25500000920E-02 0. -1.
       -2    1    3    3    0  502  0.39587824997E+03 -0.17358259234E+02 -0.11970640253E+03  0.41394506975E+03  0.25500000920E-02 0.  1.
</event>
<event>
 5   0  0.2769394E-02  0.7976253E+03  0.7818609E-02  0.9563461E-01
        1   -1    0    0  501    0  0.00000000000E+00  0.00000000000E+00  0.73275351511E+03  0.73275351513E+03  0.50400001928E-02 0.  1.
       -1   -1    0    0    0  501  0.00000000000E+00  0.00000000000E+00 -0.21706009679E+03  0.21706009685E+03  0.50400001928E-02 0. -1.
    10030    2    1    2    0    0  0.00000000000E+00  0.00000000000E+00  0.51569341832E+03  0.94981361197E+03  0.79762534801E+03 0.  0.
        2    1    3    3  502    0  0.97308953878E+02  0.36266641604E+03  0.97837400190E+02  0.38803107957E+03  0.25500000920E-02 0. -1.
       -2    1    3    3    0  502 -0.97308953878E+02 -0.36266641604E+03  0.41785601813E+03  0.56178253241E+03  0.25500000920E-02 0.  1.
</event>
<event>
 5   0  0.1786500E-02  0.8026893E+03  0.7818609E-02  0.9556133E-01
       -4   -1    0    0    0  501  0.00000000000E+00  0.00000000000E+00  0.84556835014E+02  0.84566371848E+02  0.12699999809E+01 0.  1.
        4   -1    0    0  501    0  0.00000000000E+00  0.00000000000E+00 -0.19048445341E+04  0.19048449574E+04  0.12699999809E+01 0. -1.
    10030    2    1    2    0    0  0.00000000000E+00  0.00000000000E+00 -0.18202876990E+04  0.19894113293E+04  0.80268931085E+03 0.  0.
        3    1    3    3  502    0 -0.21582219172E+03  0.29417510415E+02 -0.74677083374E+02  0.23026351283E+03  0.10100000352E+00 0.  1.
       -3    1    3    3    0  502  0.21582219172E+03 -0.29417510415E+02 -0.17456106157E+04  0.17591478164E+04  0.10100000352E+00 0. -1.
</event>
<event>
 5   0  0.4684283E-02  0.8125180E+03  0.7818609E-02  0.9542073E-01
       -2   -1    0    0    0  501  0.00000000000E+00  0.00000000000E+00  0.74119974612E+03  0.74119974612E+03  0.25500000920E-02 0.  1.
        2   -1    0    0  501    0  0.00000000000E+00  0.00000000000E+00 -0.22267462290E+03  0.22267462291E+03  0.25500000920E-02 0. -1.
    10030    2    1    2    0    0  0.00000000000E+00  0.00000000000E+00  0.51852512322E+03  0.96387436904E+03  0.81251799726E+03 0.  0.
        1    1    3    3  502    0  0.15076042898E+02 -0.29706188646E+03 -0.69003653764E+02  0.30534334071E+03  0.50400001928E-02 0. -1.
       -1    1    3    3    0  502 -0.15076042898E+02  0.29706188646E+03  0.58752877698E+03  0.65853102833E+03  0.50400001928E-02 0.  1.
</event>
<event>
 5   0  0.2689372E-02  0.7581879E+03  0.7818609E-02  0.9622592E-01
       -1   -1    0    0    0  501  0.00000000000E+00  0.00000000000E+00  0.49946306136E+03  0.49946306139E+03  0.50400001928E-02 0. -1.
        1   -1    0    0  501    0  0.00000000000E+00  0.00000000000E+00 -0.28773346220E+03  0.28773346225E+03  0.50400001928E-02 0.  1.
    10030    2    1    2    0    0  0.00000000000E+00  0.00000000000E+00  0.21172959916E+03  0.78719652363E+03  0.75818793426E+03 0.  0.
        4    1    3    3  502    0 -0.12525574135E+03  0.85761006045E+02 -0.25479685141E+03  0.29659231158E+03  0.12699999809E+01 0.  1.
       -4    1    3    3    0  502  0.12525574135E+03 -0.85761006045E+02  0.46652645057E+03  0.49060421205E+03  0.12699999809E+01 0. -1.
</event>
<event>
 5   0  0.2606520E-02  0.8012993E+03  0.7818609E-02  0.9558138E-01
        1   -1    0    0  501    0  0.00000000000E+00  0.00000000000E+00  0.78546589238E+03  0.78546589240E+03  0.50400001928E-02 0. -1.
       -1   -1    0    0    0  501  0.00000000000E+00  0.00000000000E+00 -0.20436294724E+03  0.20436294730E+03  0.50400001928E-02 0.  1.
    10030    2    1    2    0    0  0.00000000000E+00  0.00000000000E+00  0.58110294514E+03  0.98982883970E+03  0.80129925686E+03 0.  0.
        5    1    3    3  502    0 -0.28449850962E+03 -0.27735494411E+03  0.35393550821E+03  0.53212555000E+03  0.46999998093E+01 0. -1.
       -5    1    3    3    0  502  0.28449850962E+03  0.27735494411E+03  0.22716743694E+03  0.45770328970E+03  0.46999998093E+01 0.  1.
</event>
<event>
 5   0  0.2635243E-02  0.8013990E+03  0.7818609E-02  0.9557994E-01
        1   -1    0    0  501    0  0.00000000000E+00  0.00000000000E+00  0.95480884327E+03  0.95480884329E+03  0.50400001928E-02 0. -1.
       -1   -1    0    0    0  501  0.00000000000E+00  0.00000000000E+00 -0.16815939550E+03  0.16815939557E+03  0.50400001928E-02 0.  1.
    10030    2    1    2    0    0  0.00000000000E+00  0.00000000000E+00  0.78664944778E+03  0.11229682389E+04  0.80139897168E+03 0.  0.
        1    1    3    3  502    0  0.15576539719E+03 -0.26478261821E+03  0.75382558025E+03  0.81401824263E+03  0.50400001928E-02 0. -1.
       -1    1    3    3    0  502 -0.15576539719E+03  0.26478261821E+03  0.32823867521E+02  0.30894999623E+03  0.50400001928E-02 0.  1.
</event>
<event>
 5   0  0.2759559E-02  0.7992552E+03  0.7818609E-02  0.9561096E-01
       -1   -1    0    0    0  501  0.00000000000E+00  0.00000000000E+00  0.13697504294E+03  0.13697504303E+03  0.50400001928E-02 0.  1.
        1   -1    0    0  501    0  0.00000000000E+00  0.00000000000E+00 -0.11659221327E+04  0.11659221327E+04  0.50400001928E-02 0. -1.
    10030    2    1    2    0    0  0.00000000000E+00  0.00000000000E+00 -0.10289470898E+04  0.13028971758E+04  0.79925523898E+03 0.  0.
        3    1    3    3  502    0 -0.32807436072E+03 -0.17232942694E+03 -0.75829791977E+03  0.84400590216E+03  0.10100000352E+00 0.  1.
       -3    1    3    3    0  502  0.32807436072E+03  0.17232942694E+03 -0.27064917000E+03  0.45889127359E+03  0.10100000352E+00 0. -1.
</event>
<event>
 5   0  0.4590462E-02  0.8054591E+03  0.7818609E-02  0.9552149E-01
       -2   -1    0    0    0  501  0.00000000000E+00  0.00000000000E+00  0.23810565337E+03  0.23810565338E+03  0.25500000920E-02 0. -1.
        2   -1    0    0  501    0  0.00000000000E+00  0.00000000000E+00 -0.68117281834E+03  0.68117281834E+03  0.25500000920E-02 0.  1.
    10030    2    1    2    0    0  0.00000000000E+00  0.00000000000E+00 -0.44306716497E+03  0.91927847172E+03  0.80545912118E+03 0.  0.
        3    1    3    3  502    0 -0.29265173338E+03  0.23957195481E+03 -0.63589609668E+02  0.38351454632E+03  0.10100000352E+00 0. -1.
       -3    1    3    3    0  502  0.29265173338E+03 -0.23957195481E+03 -0.37947755531E+03  0.53576392540E+03  0.10100000352E+00 0.  1.
</event>
<event>
 5   0  0.4684283E-02  0.8541344E+03  0.7818609E-02  0.9484805E-01
       -2   -1    0    0    0  501  0.00000000000E+00  0.00000000000E+00  0.18592227775E+03  0.18592227777E+03  0.25500000920E-02 0.  1.
        2   -1    0    0  501    0  0.00000000000E+00  0.00000000000E+00 -0.98098203608E+03  0.98098203608E+03  0.25500000920E-02 0. -1.
    10030    2    1    2    0    0  0.00000000000E+00  0.00000000000E+00 -0.79505975833E+03  0.11669043139E+04  0.85413444982E+03 0.  0.
        1    1    3    3  502    0  0.25835051684E+03  0.17767525550E+03 -0.14004622507E+01  0.31355294176E+03  0.50400001928E-02 0.  1.
       -1    1    3    3    0  502 -0.25835051684E+03 -0.17767525550E+03 -0.79365929608E+03  0.85335137209E+03  0.50400001928E-02 0. -1.
</event>
<event>
 5   0  0.1786500E-02  0.7945195E+03  0.7818609E-02  0.9567984E-01
        3   -1    0    0  501    0  0.00000000000E+00  0.00000000000E+00  0.40600764041E+03  0.40600765298E+03  0.10100000352E+00 0. -1.
       -3   -1    0    0    0  501  0.00000000000E+00  0.00000000000E+00 -0.38870033884E+03  0.38870035196E+03  0.10100000352E+00 0.  1.
    10030    2    1    2    0    0  0.00000000000E+00  0.00000000000E+00  0.17307301574E+02  0.79470800494E+03  0.79451952174E+03 0.  0.
        2    1    3    3  502    0 -0.39675148837E+02 -0.24044916968E+03 -0.30514899619E+03  0.39051994894E+03  0.25500000920E-02 0.  1.
       -2    1    3    3    0  502  0.39675148837E+02  0.24044916968E+03  0.32245629776E+03  0.40418805600E+03  0.25500000920E-02 0. -1.
</event>
<event>
 5   0  0.4700220E-02  0.7970644E+03  0.7818609E-02  0.9564276E-01
       -2   -1    0    0    0  501  0.00000000000E+00  0.00000000000E+00  0.14814532346E+03  0.14814532348E+03  0.25500000920E-02 0. -1.
        2   -1    0    0  501    0  0.00000000000E+00  0.00000000000E+00 -0.10721089212E+04  0.10721089212E+04  0.25500000920E-02 0.  1.
    10030    2    1    2    0    0  0.00000000000E+00  0.00000000000E+00 -0.92396359771E+03  0.12202542446E+04  0.79706442129E+03 0.  0.
        4    1    3    3  502    0 -0.29569618002E+03  0.14718658626E+03 -0.12059282768E+03  0.35163100694E+03  0.12699999809E+01 0. -1.
       -4    1    3    3    0  502  0.29569618002E+03 -0.14718658626E+03 -0.80337077002E+03  0.86862323770E+03  0.12699999809E+01 0.  1.
</event>
<event>
 5   0  0.2769394E-02  0.8027057E+03  0.7818609E-02  0.9556109E-01
        1   -1    0    0  501    0  0.00000000000E+00  0.00000000000E+00  0.29945055055E+03  0.29945055060E+03  0.50400001928E-02 0. -1.
       -1   -1    0    0    0  501  0.00000000000E+00  0.00000000000E+00 -0.53793227135E+03  0.53793227138E+03  0.50400001928E-02 0.  1.
    10030    2    1    2    0    0  0.00000000000E+00  0.00000000000E+00 -0.23848172080E+03  0.83738282197E+03  0.80270571157E+03 0.  0.
        2    1    3    3  502    0  0.14728851538E+02  0.37231682059E+03 -0.27483991151E+03  0.46300510896E+03  0.25500000920E-02 0. -1.
       -2    1    3    3    0  502 -0.14728851538E+02 -0.37231682059E+03  0.36358190709E+02  0.37437771301E+03  0.25500000920E-02 0.  1.
</event>
<event>
 5   0  0.4663634E-02  0.8037703E+03  0.7818609E-02  0.9554576E-01
        2   -1    0    0  501    0  0.00000000000E+00  0.00000000000E+00  0.13715850778E+04  0.13715850778E+04  0.25500000920E-02 0. -1.
       -2   -1    0    0    0  501  0.00000000000E+00  0.00000000000E+00 -0.11775549534E+03  0.11775549537E+03  0.25500000920E-02 0.  1.
    10030    2    1    2    0    0  0.00000000000E+00  0.00000000000E+00  0.12538295825E+04  0.14893405732E+04  0.80377031611E+03 0.  0.
        5    1    3    3  502    0  0.69730788100E+00 -0.10437745422E+03  0.13459771292E+04  0.13500265410E+04  0.46999998093E+01 0. -1.
       -5    1    3    3    0  502 -0.69730788100E+00  0.10437745422E+03 -0.92147546728E+02  0.13931403215E+03  0.46999998093E+01 0.  1.
</event>
<event>
 5   0  0.4663634E-02  0.8114233E+03  0.7818609E-02  0.9543628E-01
       -2   -1    0    0    0  501  0.00000000000E+00  0.00000000000E+00  0.13506668694E+03  0.13506668697E+03  0.25500000920E-02 0.  1.
        2   -1    0    0  501    0  0.00000000000E+00  0.00000000000E+00 -0.12186716576E+04  0.12186716576E+04  0.25500000920E-02 0. -1.
    10030    2    1    2    0    0  0.00000000000E+00  0.00000000000E+00 -0.10836049706E+04  0.13537383445E+04  0.81142330082E+03 0.  0.
        5    1    3    3  502    0 -0.15364291728E+03 -0.86376571048E+02  0.67802766587E+02  0.18890834606E+03  0.46999998093E+01 0.  1.
       -5    1    3    3    0  502  0.15364291728E+03  0.86376571048E+02 -0.11514077372E+04  0.11648299985E+04  0.46999998093E+01 0. -1.
</event>
<event>
 5   0  0.4590462E-02  0.7271664E+03  0.7818609E-02  0.9671870E-01
        2   -1    0    0  501    0  0.00000000000E+00  0.00000000000E+00  0.84471078551E+03  0.84471078551E+03  0.25500000920E-02 0.  1.
       -2   -1    0    0    0  501  0.00000000000E+00  0.00000000000E+00 -0.15649467996E+03  0.15649467998E+03  0.25500000920E-02 0. -1.
    10030    2    1    2    0    0  0.00000000000E+00  0.00000000000E+00  0.68821610555E+03  0.10012054655E+04  0.72716640200E+03 0.  0.
        3    1    3    3  502    0 -0.19674370388E+03 -0.13720477788E+03 -0.32103336624E+02  0.24199973246E+03  0.10100000352E+00 0. -1.
       -3    1    3    3    0  502  0.19674370388E+03  0.13720477788E+03  0.72031944217E+03  0.75920573303E+03  0.10100000352E+00 0.  1.
</event>
<event>
 5   0  0.4663634E-02  0.8040081E+03  0.7818609E-02  0.9554234E-01
        2   -1    0    0  501    0  0.00000000000E+00  0.00000000000E+00  0.60501376310E+03  0.60501376310E+03  0.25500000920E-02 0. -1.
       -2   -1    0    0    0  501  0.00000000000E+00  0.00000000000E+00 -0.26711335355E+03  0.26711335356E+03  0.25500000920E-02 0.  1.
    10030    2    1    2    0    0  0.00000000000E+00  0.00000000000E+00  0.33790040955E+03  0.87212711667E+03  0.80400809750E+03 0.  0.
        5    1    3    3  502    0  0.18031977420E+03  0.20506342826E+03  0.48893272031E+03  0.56003886076E+03  0.46999998093E+01 0.  1.
       -5    1    3    3    0  502 -0.18031977420E+03 -0.20506342826E+03 -0.15103231076E+03  0.31208825590E+03  0.46999998093E+01 0. -1.
</event>
<event>
 5   0  0.4377843E-02  0.8234213E+03  0.7818609E-02  0.9526721E-01
        2   -1    0    0  501    0  0.00000000000E+00  0.00000000000E+00  0.70964344922E+03  0.70964344922E+03  0.25500000920E-02 0. -1.
       -2   -1    0    0    0  501  0.00000000000E+00  0.00000000000E+00 -0.23886031298E+03  0.23886031299E+03  0.25500000920E-02 0.  1.
    10030    2    1    2    0    0  0.00000000000E+00  0.00000000000E+00  0.47078313624E+03  0.94850376222E+03  0.82342129288E+03 0.  0.
        2    1    3    3  502    0  0.82224294866E+02 -0.28999735128E+03  0.55843154645E+03  0.63459049039E+03  0.25500000920E-02 0. -1.
       -2    1    3    3    0  502 -0.82224294866E+02  0.28999735128E+03 -0.87648410210E+02  0.31391327183E+03  0.25500000920E-02 0.  1.
</event>
<event>
 5   0  0.4663634E-02  0.8096773E+03  0.7818609E-02  0.9546114E-01
        2   -1    0    0  501    0  0.00000000000E+00  0.00000000000E+00  0.82397611938E+03  0.82397611938E+03  0.25500000920E-02 0.  1.
       -2   -1    0    0    0  501  0.00000000000E+00  0.00000000000E+00 -0.19890664534E+03  0.19890664536E+03  0.25500000920E-02 0. -1.
    10030    2    1    2    0    0  0.00000000000E+00  0.00000000000E+00  0.62506947403E+03  0.10228827647E+04  0.80967728327E+03 0.  0.
        5    1    3    3  502    0 -0.51681000686E+02  0.19469884301E+03 -0.13105786760E+03  0.24036809264E+03  0.46999998093E+01 0. -1.
       -5    1    3    3    0  502  0.51681000686E+02 -0.19469884301E+03  0.75612734163E+03  0.78251467210E+03  0.46999998093E+01 0.  1.
</event>
<event>
 5   0  0.4377843E-02  0.8188300E+03  0.7818609E-02  0.9533154E-01
        2   -1    0    0  501    0  0.00000000000E+00  0.00000000000E+00  0.14923499961E+04  0.14923499961E+04  0.25500000920E-02 0.  1.
       -2   -1    0    0    0  501  0.00000000000E+00  0.00000000000E+00 -0.11231991462E+03  0.11231991465E+03  0.25500000920E-02 0. -1.
    10030    2    1    2    0    0  0.00000000000E+00  0.00000000000E+00  0.13800300815E+04  0.16046699108E+04  0.81882995590E+03 0.  0.
        2    1    3    3  502    0  0.15865681186E+03  0.19458412673E+02  0.14286726787E+04  0.14375869492E+04  0.25500000920E-02 0.  1.
       -2    1    3    3    0  502 -0.15865681186E+03 -0.19458412673E+02 -0.48642597171E+02  0.16708296155E+03  0.25500000920E-02 0. -1.
</event>
<event>
 5   0  0.4700220E-02  0.8082762E+03  0.7818609E-02  0.9548114E-01
       -2   -1    0    0    0  501  0.00000000000E+00  0.00000000000E+00  0.34950630413E+03  0.34950630414E+03  0.25500000920E-02 0.  1.
        2   -1    0    0  501    0  0.00000000000E+00  0.00000000000E+00 -0.46730943546E+03  0.46730943547E+03  0.25500000920E-02 0. -1.
    10030    2    1    2    0    0  0.00000000000E+00  0.00000000000E+00 -0.11780313133E+03  0.81681573960E+03  0.80827617478E+03 0.  0.
        4    1    3    3  502    0  0.18148231690E+03  0.34307705201E+03  0.54930809256E+02  0.39199069080E+03  0.12699999809E+01 0.  1.
       -4    1    3    3    0  502 -0.18148231690E+03 -0.34307705201E+03 -0.17273394058E+03  0.42482504881E+03  0.12699999809E+01 0. -1.
</event>
<event>
 5   0  0.4684283E-02  0.8144749E+03  0.7818609E-02  0.9539298E-01
       -2   -1    0    0    0  501  0.00000000000E+00  0.00000000000E+00  0.23357205177E+03  0.23357205179E+03  0.25500000920E-02 0.  1.
        2   -1    0    0  501    0  0.00000000000E+00  0.00000000000E+00 -0.71002649254E+03  0.71002649255E+03  0.25500000920E-02 0. -1.
    10030    2    1    2    0    0  0.00000000000E+00  0.00000000000E+00 -0.47645444077E+03  0.94359854433E+03  0.81447490983E+03 0.  0.
        1    1    3    3  502    0 -0.28090791547E+03  0.19633348839E+03  0.16614501079E+02  0.34312117001E+03  0.50400001928E-02 0.  1.
       -1    1    3    3    0  502  0.28090791547E+03 -0.19633348839E+03 -0.49306894185E+03  0.60047737432E+03  0.50400001928E-02 0. -1.
</event>
<event>
 5   0  0.2635243E-02  0.7691661E+03  0.7818609E-02  0.9605752E-01
       -1   -1    0    0    0  501  0.00000000000E+00  0.00000000000E+00  0.10020484577E+03  0.10020484590E+03  0.50400001928E-02 0. -1.
        1   -1    0    0  501    0  0.00000000000E+00  0.00000000000E+00 -0.14760176443E+04  0.14760176443E+04  0.50400001928E-02 0.  1.
    10030    2    1    2    0    0  0.00000000000E+00  0.00000000000E+00 -0.13758127985E+04  0.15762224902E+04  0.76916609523E+03 0.  0.
        1    1    3    3  502    0  0.66080574854E+02 -0.23519971119E+03 -0.12965701028E+04  0.13193860610E+04  0.50400001928E-02 0.  1.
       -1    1    3    3    0  502 -0.66080574854E+02  0.23519971119E+03 -0.79242695755E+02  0.25683642922E+03  0.50400001928E-02 0. -1.
</event>
<event>
 5   0  0.2606520E-02  0.7779017E+03  0.7818609E-02  0.9592566E-01
        1   -1    0    0  501    0  0.00000000000E+00  0.00000000000E+00  0.10954217635E+04  0.10954217635E+04  0.50400001928E-02 0.  1.
       -1   -1    0    0    0  501  0.00000000000E+00  0.00000000000E+00 -0.13810457042E+03  0.13810457051E+03  0.50400001928E-02 0. -1.
    10030    2    1    2    0    0  0.00000000000E+00  0.00000000000E+00  0.95731719311E+03  0.12335263340E+04  0.77790167025E+03 0.  0.
        5    1    3    3  502    0 -0.17703978042E+03 -0.10596104757E+02 -0.70201602241E+02  0.19080282032E+03  0.46999998093E+01 0. -1.
       -5    1    3    3    0  502  0.17703978042E+03  0.10596104757E+02  0.10275187954E+04  0.10427235137E+04  0.46999998093E+01 0.  1.
</event>
<event>
 5   0  0.2769394E-02  0.7970212E+03  0.7818609E-02  0.9564339E-01
       -1   -1    0    0    0  501  0.00000000000E+00  0.00000000000E+00  0.50970905311E+03  0.50970905314E+03  0.50400001928E-02 0.  1.
        1   -1    0    0  501    0  0.00000000000E+00  0.00000000000E+00 -0.31157131141E+03  0.31157131145E+03  0.50400001928E-02 0. -1.
    10030    2    1    2    0    0  0.00000000000E+00  0.00000000000E+00  0.19813774170E+03  0.82128036459E+03  0.79702124976E+03 0.  0.
        2    1    3    3  502    0  0.98104224742E+02 -0.35383469546E+03 -0.60523493774E+02  0.37213777546E+03  0.25500000920E-02 0.  1.
       -2    1    3    3    0  502 -0.98104224742E+02  0.35383469546E+03  0.25866123548E+03  0.44914258912E+03  0.25500000920E-02 0. -1.
</event>
<event>
 5   0  0.2606520E-02  0.8046268E+03  0.7818609E-02  0.9553344E-01
        1   -1    0    0  501    0  0.00000000000E+00  0.00000000000E+00  0.13236732849E+04  0.13236732849E+04  0.50400001928E-02 0.  1.
       -1   -1    0    0    0  501  0.00000000000E+00  0.00000000000E+00 -0.12227795434E+03  0.12227795445E+03  0.50400001928E-02 0. -1.
    10030    2    1    2    0    0  0.00000000000E+00  0.00000000000E+00  0.12013953306E+04  0.14459512394E+04  0.80462677455E+03 0.  0.
        5    1    3    3  502    0  0.17634635413E+03 -0.27368568800E+03  0.10253182738E+04  0.10757795058E+04  0.46999998093E+01 0.  1.
       -5    1    3    3    0  502 -0.17634635413E+03  0.27368568800E+03  0.17607705672E+03  0.37017173357E+03  0.46999998093E+01 0. -1.
</event>
<event>
 5   0  0.4590462E-02  0.7984017E+03  0.7818609E-02  0.9562333E-01
        2   -1    0    0  501    0  0.00000000000E+00  0.00000000000E+00  0.16384385323E+03  0.16384385325E+03  0.25500000920E-02 0.  1.
       -2   -1    0    0    0  501  0.00000000000E+00  0.00000000000E+00 -0.97264152212E+03  0.97264152212E+03  0.25500000920E-02 0. -1.
    10030    2    1    2    0    0  0.00000000000E+00  0.00000000000E+00 -0.80879766889E+03  0.11364853754E+04  0.79840174050E+03 0.  0.
        3    1    3    3  502    0 -0.13509078474E+02  0.39128473918E+03 -0.29345109475E+03  0.48928498600E+03  0.10100000352E+00 0.  1.
       -3    1    3    3    0  502  0.13509078474E+02 -0.39128473918E+03 -0.51534657414E+03  0.64720038937E+03  0.10100000352E+00 0. -1.
</event>
<event>
 5   0  0.4700220E-02  0.7842732E+03  0.7818609E-02  0.9583064E-01
        2   -1    0    0  501    0  0.00000000000E+00  0.00000000000E+00  0.10169279519E+04  0.10169279519E+04  0.25500000920E-02 0.  1.
       -2   -1    0    0    0  501  0.00000000000E+00  0.00000000000E+00 -0.15121141314E+03  0.15121141316E+03  0.25500000920E-02 0. -1.
    10030    2    1    2    0    0  0.00000000000E+00  0.00000000000E+00  0.86571653878E+03  0.11681393651E+04  0.78427319904E+03 0.  0.
        4    1    3    3  502    0  0.98701900996E+02 -0.31043709959E+03  0.10770570743E+03  0.34309676532E+03  0.12699999809E+01 0.  1.
       -4    1    3    3    0  502 -0.98701900996E+02  0.31043709959E+03  0.75801083136E+03  0.82504259976E+03  0.12699999809E+01 0. -1.
</event>
<event>
 5   0  0.2689372E-02  0.7923980E+03  0.7818609E-02  0.9571086E-01
        1   -1    0    0  501    0  0.00000000000E+00  0.00000000000E+00  0.29493444379E+03  0.29493444384E+03  0.50400001928E-02 0. -1.
       -1   -1    0    0    0  501  0.00000000000E+00  0.00000000000E+00 -0.53223239846E+03  0.53223239849E+03  0.50400001928E-02 0.  1.
    10030    2    1    2    0    0  0.00000000000E+00  0.00000000000E+00 -0.23729795467E+03  0.82716684232E+03  0.79239804754E+03 0.  0.
        4    1    3    3  502    0  0.22299091071E+03  0.15341340193E+03  0.18337548137E+03  0.32693852361E+03  0.12699999809E+01 0. -1.
       -4    1    3    3    0  502 -0.22299091071E+03 -0.15341340193E+03 -0.42067343604E+03  0.50022831871E+03  0.12699999809E+01 0.  1.
</event>
<event>
 5   0  0.2769394E-02  0.6717291E+03  0.7818609E-02  0.9766839E-01
        1   -1    0    0  501    0  0.00000000000E+00  0.00000000000E+00  0.19148808837E+03  0.19148808844E+03  0.50400001928E-02 0.  1.
       -1   -1    0    0    0  501  0.00000000000E+00  0.00000000000E+00 -0.58909668085E+03  0.58909668087E+03  0.50400001928E-02 0. -1.
    10030    2    1    2    0    0  0.00000000000E+00  0.00000000000E+00 -0.39760859248E+03  0.78058476931E+03  0.67172910408E+03 0.  0.
        2    1    3    3  502    0 -0.19198773853E+02 -0.20308709048E+03  0.11125276092E+03  0.23235777597E+03  0.25500000920E-02 0.  1.
       -2    1    3    3    0  502  0.19198773853E+02  0.20308709048E+03 -0.50886135340E+03  0.54822699334E+03  0.25500000920E-02 0. -1.
</event>
<event>
 5   0  0.2769394E-02  0.8137149E+03  0.7818609E-02  0.9540375E-01
        1   -1    0    0  501    0  0.00000000000E+00  0.00000000000E+00  0.64776932910E+03  0.64776932912E+03  0.50400001928E-02 0.  1.
       -1   -1    0    0    0  501  0.00000000000E+00  0.00000000000E+00 -0.25554310987E+03  0.25554310992E+03  0.50400001928E-02 0. -1.
    10030    2    1    2    0    0  0.00000000000E+00  0.00000000000E+00  0.39222621923E+03  0.90331243904E+03  0.81371491044E+03 0.  0.
        2    1    3    3  502    0 -0.32901945439E+03  0.84840734277E+02 -0.52316434073E+02  0.34378592298E+03  0.25500000920E-02 0. -1.
       -2    1    3    3    0  502  0.32901945439E+03 -0.84840734277E+02  0.44454265330E+03  0.55952651606E+03  0.25500000920E-02 0.  1.
</event>
<event>
 5   0  0.4377843E-02  0.7021207E+03  0.7818609E-02  0.9713612E-01
        2   -1    0    0  501    0  0.00000000000E+00  0.00000000000E+00  0.48136851279E+03  0.48136851279E+03  0.25500000920E-02 0. -1.
       -2   -1    0    0    0  501  0.00000000000E+00  0.00000000000E+00 -0.25602705771E+03  0.25602705772E+03  0.25500000920E-02 0.  1.
    10030    2    1    2    0    0  0.00000000000E+00  0.00000000000E+00  0.22534145507E+03  0.73739557052E+03  0.70212068481E+03 0.  0.
        2    1    3    3  502    0 -0.81747845364E+02  0.14871815468E+03 -0.21008573073E+03  0.27006631411E+03  0.25500000920E-02 0.  1.
       -2    1    3    3    0  502  0.81747845364E+02 -0.14871815468E+03  0.43542718580E+03  0.46732925641E+03  0.25500000920E-02 0. -1.
</event>
<event>
 5   0  0.2635243E-02  0.8087077E+03  0.7818609E-02  0.9547498E-01
        1   -1    0    0  501    0  0.00000000000E+00  0.00000000000E+00  0.39849765607E+03  0.39849765610E+03  0.50400001928E-02 0.  1.
       -1   -1    0    0    0  501  0.00000000000E+00  0.00000000000E+00 -0.41029611603E+03  0.41029611606E+03  0.50400001928E-02 0. -1.
    10030    2    1    2    0    0  0.00000000000E+00  0.00000000000E+00 -0.11798459962E+02  0.80879377216E+03  0.80870771124E+03 0.  0.
        1    1    3    3  502    0 -0.37204393134E+02  0.31988770027E+02  0.39550939069E+03  0.39854124809E+03  0.50400001928E-02 0.  1.
       -1    1    3    3    0  502  0.37204393134E+02 -0.31988770027E+02 -0.40730785065E+03  0.41025252407E+03  0.50400001928E-02 0. -1.
</event>
<event>
 5   0  0.2769394E-02  0.7978154E+03  0.7818609E-02  0.9563185E-01
       -1   -1    0    0    0  501  0.00000000000E+00  0.00000000000E+00  0.16974830445E+03  0.16974830453E+03  0.50400001928E-02 0.  1.
        1   -1    0    0  501    0  0.00000000000E+00  0.00000000000E+00 -0.93743127104E+03  0.93743127105E+03  0.50400001928E-02 0. -1.
    10030    2    1    2    0    0  0.00000000000E+00  0.00000000000E+00 -0.76768296659E+03  0.11071795756E+04  0.79781543944E+03 0.  0.
        2    1    3    3  502    0 -0.25316742133E+03 -0.97578871202E+02  0.21974487388E+02  0.27220995102E+03  0.25500000920E-02 0.  1.
       -2    1    3    3    0  502  0.25316742133E+03  0.97578871202E+02 -0.78965745397E+03  0.83496962457E+03  0.25500000920E-02 0. -1.
</event>
<event>
 5   0  0.2759559E-02  0.8242111E+03  0.7818609E-02  0.9525619E-01
       -1   -1    0    0    0  501  0.00000000000E+00  0.00000000000E+00  0.45760151382E+03  0.45760151385E+03  0.50400001928E-02 0.  1.
        1   -1    0    0  501    0  0.00000000000E+00  0.00000000000E+00 -0.37113288266E+03  0.37113288269E+03  0.50400001928E-02 0. -1.
    10030    2    1    2    0    0  0.00000000000E+00  0.00000000000E+00  0.86468631161E+02  0.82873439654E+03  0.82421106267E+03 0.  0.
        3    1    3    3  502    0 -0.14703299500E+03 -0.24871263002E+03 -0.25223941195E+03  0.38353800997E+03  0.10100000352E+00 0. -1.
       -3    1    3    3    0  502  0.14703299500E+03  0.24871263002E+03  0.33870804311E+03  0.44519638657E+03  0.10100000352E+00 0.  1.
</event>
<event>
 5   0  0.2689372E-02  0.8342557E+03  0.7818609E-02  0.9511715E-01
       -1   -1    0    0    0  501  0.00000000000E+00  0.00000000000E+00  0.33247485554E+03  0.33247485558E+03  0.50400001928E-02 0. -1.
        1   -1    0    0  501    0  0.00000000000E+00  0.00000000000E+00 -0.52333480253E+03  0.52333480256E+03  0.50400001928E-02 0.  1.
    10030    2    1    2    0    0  0.00000000000E+00  0.00000000000E+00 -0.19085994699E+03  0.85580965813E+03  0.83425574711E+03 0.  0.
        4    1    3    3  502    0  0.38442869120E+03 -0.90160174795E+02 -0.23336497312E+03  0.45866665381E+03  0.12699999809E+01 0. -1.
       -4    1    3    3    0  502 -0.38442869120E+03  0.90160174795E+02  0.42505026127E+02  0.39714300432E+03  0.12699999809E+01 0.  1.
</event>
<event>
 5   0  0.4700220E-02  0.8130098E+03  0.7818609E-02  0.9541375E-01
        2   -1    0    0  501    0  0.00000000000E+00  0.00000000000E+00  0.82289078920E+03  0.82289078921E+03  0.25500000920E-02 0.  1.
       -2   -1    0    0    0  501  0.00000000000E+00  0.00000000000E+00 -0.20081186008E+03  0.20081186010E+03  0.25500000920E-02 0. -1.
    10030    2    1    2    0    0  0.00000000000E+00  0.00000000000E+00  0.62207892912E+03  0.10237026493E+04  0.81300979092E+03 0.  0.
        4    1    3    3  502    0 -0.34853093995E+03 -0.20884706095E+03  0.29542871708E+03  0.50236505725E+03  0.12699999809E+01 0.  1.
       -4    1    3    3    0  502  0.34853093995E+03  0.20884706095E+03  0.32665021204E+03  0.52133759206E+03  0.12699999809E+01 0. -1.
</event>
<event>
 5   0  0.4377843E-02  0.7755321E+03  0.7818609E-02  0.9596125E-01
        2   -1    0    0  501    0  0.00000000000E+00  0.00000000000E+00  0.51661710975E+03  0.51661710975E+03  0.25500000920E-02 0. -1.
       -2   -1    0    0    0  501  0.00000000000E+00  0.00000000000E+00 -0.29105212129E+03  0.29105212130E+03  0.25500000920E-02 0.  1.
    10030    2    1    2    0    0  0.00000000000E+00  0.00000000000E+00  0.22556498845E+03  0.80766923106E+03  0.77553209010E+03 0.  0.
        2    1    3    3  502    0 -0.15774283319E+03  0.37043121123E+02  0.47966989603E+03  0.50629853191E+03  0.25500000920E-02 0. -1.
       -2    1    3    3    0  502  0.15774283319E+03 -0.37043121123E+02 -0.25410490758E+03  0.30137069915E+03  0.25500000920E-02 0.  1.
</event>
<event>
 5   0  0.4663634E-02  0.8297312E+03  0.7818609E-02  0.9517952E-01
        2   -1    0    0  501    0  0.00000000000E+00  0.00000000000E+00  0.11747521621E+04  0.11747521621E+04  0.25500000920E-02 0.  1.
       -2   -1    0    0    0  501  0.00000000000E+00  0.00000000000E+00 -0.14651046515E+03  0.14651046517E+03  0.25500000920E-02 0. -1.
    10030    2    1    2    0    0  0.00000000000E+00  0.00000000000E+00  0.10282416969E+04  0.13212626273E+04  0.82973124737E+03 0.  0.
        5    1    3    3  502    0  0.39806114451E+03  0.64323412302E+02  0.66933859809E+03  0.78142589222E+03  0.46999998093E+01 0.  1.
       -5    1    3    3    0  502 -0.39806114451E+03 -0.64323412302E+02  0.35890309886E+03  0.53983673505E+03  0.46999998093E+01 0. -1.
</event>
<event>
 5   0  0.4590462E-02  0.8183333E+03  0.7818609E-02  0.9533853E-01
       -2   -1    0    0    0  501  0.00000000000E+00  0.00000000000E+00  0.10347245295E+03  0.10347245298E+03  0.25500000920E-02 0.  1.
        2   -1    0    0  501    0  0.00000000000E+00  0.00000000000E+00 -0.16179894995E+04  0.16179894995E+04  0.25500000920E-02 0. -1.
    10030    2    1    2    0    0  0.00000000000E+00  0.00000000000E+00 -0.15145170465E+04  0.17214619525E+04  0.81833328757E+03 0.  0.
        3    1    3    3  502    0  0.14600470205E+03  0.27325159677E+03 -0.19502304272E+03  0.36608442407E+03  0.10100000352E+00 0.  1.
       -3    1    3    3    0  502 -0.14600470205E+03 -0.27325159677E+03 -0.13194940038E+04  0.13553775284E+04  0.10100000352E+00 0. -1.
</event>
<event>
 5   0  0.4684283E-02  0.8035190E+03  0.7818609E-02  0.9554937E-01
        2   -1    0    0  501    0  0.00000000000E+00  0.00000000000E+00  0.37128372862E+03  0.37128372863E+03  0.25500000920E-02 0. -1.
       -2   -1    0    0    0  501  0.00000000000E+00  0.00000000000E+00 -0.43473673864E+03  0.43473673865E+03  0.25500000920E-02 0.  1.
    10030    2    1    2    0    0  0.00000000000E+00  0.00000000000E+00 -0.63453010023E+02  0.80602046728E+03  0.80351895385E+03 0.  0.
        1    1    3    3  502    0 -0.77813475750E+01  0.11895322090E+03 -0.41658779541E+03  0.43330798452E+03  0.50400001928E-02 0.  1.
       -1    1    3    3    0  502  0.77813475750E+01 -0.11895322090E+03  0.35313478539E+03  0.37271248277E+03  0.50400001928E-02 0. -1.
</event>
<event>
 5   0  0.2759559E-02  0.8166275E+03  0.7818609E-02  0.9536256E-01
        1   -1    0    0  501    0  0.00000000000E+00  0.00000000000E+00  0.31747760675E+03  0.31747760679E+03  0.50400001928E-02 0.  1.
       -1   -1    0    0    0  501  0.00000000000E+00  0.00000000000E+00 -0.52513982317E+03  0.52513982319E+03  0.50400001928E-02 0. -1.
    10030    2    1    2    0    0  0.00000000000E+00  0.00000000000E+00 -0.20766221642E+03  0.84261742998E+03  0.81662753883E+03 0.  0.
        3    1    3    3  502    0  0.25639628130E+03  0.26290583750E+03  0.80347908746E+02  0.37591798188E+03  0.10100000352E+00 0. -1.
       -3    1    3    3    0  502 -0.25639628130E+03 -0.26290583750E+03 -0.28801012516E+03  0.46669944810E+03  0.10100000352E+00 0.  1.
</event>
<event>
 5   0  0.2759559E-02  0.8041068E+03  0.7818609E-02  0.9554092E-01
       -1   -1    0    0    0  501  0.00000000000E+00  0.00000000000E+00  0.16547384117E+03  0.16547384124E+03  0.50400001928E-02 0. -1.
        1   -1    0    0  501    0  0.00000000000E+00  0.00000000000E+00 -0.97687296438E+03  0.97687296439E+03  0.50400001928E-02 0.  1.
    10030    2    1    2    0    0  0.00000000000E+00  0.00000000000E+00 -0.81139912321E+03  0.11423468056E+04  0.80410676356E+03 0.  0.
        3    1    3    3  502    0 -0.28804216301E+03 -0.19509637532E+03 -0.11939189149E+03  0.36781152414E+03  0.10100000352E+00 0. -1.
       -3    1    3    3    0  502  0.28804216301E+03  0.19509637532E+03 -0.69200723172E+03  0.77453528150E+03  0.10100000352E+00 0.  1.
</event>
<event>
 5   0  0.4663634E-02  0.8017186E+03  0.7818609E-02  0.9557533E-01
       -2   -1    0    0    0  501  0.00000000000E+00  0.00000000000E+00  0.18313820744E+03  0.18313820745E+03  0.25500000920E-02 0. -1.
        2   -1    0    0  501    0  0.00000000000E+00  0.00000000000E+00 -0.87741492301E+03  0.87741492301E+03  0.25500000920E-02 0.  1.
    10030    2    1    2    0    0  0.00000000000E+00  0.00000000000E+00 -0.69427671557E+03  0.10605531305E+04  0.80171864439E+03 0.  0.
        5    1    3    3  502    0 -0.36839684618E+03  0.35596871370E+02 -0.14356246266E+03  0.39700836793E+03  0.46999998093E+01 0.  1.
       -5    1    3    3    0  502  0.36839684618E+03 -0.35596871370E+02 -0.55071425292E+03  0.66354476254E+03  0.46999998093E+01 0. -1.
</event>
<event>
 5   0  0.2689372E-02  0.8008805E+03  0.7818609E-02  0.9558743E-01
        1   -1    0    0  501    0  0.00000000000E+00  0.00000000000E+00  0.36411847959E+03  0.36411847962E+03  0.50400001928E-02 0. -1.
       -1   -1    0    0    0  501  0.00000000000E+00  0.00000000000E+00 -0.44038522993E+03  0.44038522996E+03  0.50400001928E-02 0.  1.
    10030    2    1    2    0    0  0.00000000000E+00  0.00000000000E+00 -0.76266750343E+02  0.80450370958E+03  0.80088051638E+03 0.  0.
        4    1    3    3  502    0  0.26072413343E+01  0.33328685300E+03  0.18482539297E+03  0.38111541937E+03  0.12699999809E+01 0.  1.
       -4    1    3    3    0  502 -0.26072413343E+01 -0.33328685300E+03 -0.26109214331E+03  0.42338829022E+03  0.12699999809E+01 0. -1.
</event>
<event>
 5   0  0.4684283E-02  0.7897267E+03  0.7818609E-02  0.9575008E-01
        2   -1    0    0  501    0  0.00000000000E+00  0.00000000000E+00  0.92150496241E+03  0.92150496242E+03  0.25500000920E-02 0. -1.
       -2   -1    0    0    0  501  0.00000000000E+00  0.00000000000E+00 -0.16919827789E+03  0.16919827791E+03  0.25500000920E-02 0.  1.
    10030    2    1    2    0    0  0.00000000000E+00  0.00000000000E+00  0.75230668452E+03  0.10907032403E+04  0.78972666846E+03 0.  0.
        1    1    3    3  502    0  0.38156512255E+03  0.55430379177E+02  0.49377198225E+03  0.62647844349E+03  0.50400001928E-02 0. -1.
       -1    1    3    3    0  502 -0.38156512255E+03 -0.55430379177E+02  0.25853470228E+03  0.46422479683E+03  0.50400001928E-02 0.  1.
</event>
<event>
 5   0  0.4590462E-02  0.6464944E+03  0.7818609E-02  0.9813380E-01
        2   -1    0    0  501    0  0.00000000000E+00  0.00000000000E+00  0.25117600306E+04  0.25117600306E+04  0.25500000920E-02 0. -1.
       -2   -1    0    0    0  501  0.00000000000E+00  0.00000000000E+00 -0.41599814633E+02  0.41599814712E+02  0.25500000920E-02 0.  1.
    10030    2    1    2    0    0  0.00000000000E+00  0.00000000000E+00  0.24701602160E+04  0.25533598453E+04  0.64649439836E+03 0.  0.
        3    1    3    3  502    0 -0.98149377915E+02  0.26944128181E+03  0.64585807365E+03  0.70665731881E+03  0.10100000352E+00 0. -1.
       -3    1    3    3    0  502  0.98149377915E+02 -0.26944128181E+03  0.18243021423E+04  0.18467025265E+04  0.10100000352E+00 0.  1.
</event>
<event>
 5   0  0.1786500E-02  0.7039575E+03  0.7818609E-02  0.9710488E-01
        3   -1    0    0  501    0  0.00000000000E+00  0.00000000000E+00  0.13541864053E+03  0.13541867820E+03  0.10100000352E+00 0. -1.
       -3   -1    0    0    0  501  0.00000000000E+00  0.00000000000E+00 -0.91485934073E+03  0.91485934631E+03  0.10100000352E+00 0.  1.
    10030    2    1    2    0    0  0.00000000000E+00  0.00000000000E+00 -0.77944070020E+03  0.10502780245E+04  0.70395747288E+03 0.  0.
        3    1    3    3  502    0 -0.33752693992E+03  0.50469347885E+02 -0.51821486725E+03  0.62049838765E+03  0.10100000352E+00 0.  1.
       -3    1    3    3    0  502  0.33752693992E+03 -0.50469347885E+02 -0.26122583295E+03  0.42977963685E+03  0.10100000352E+00 0. -1.
</event>
<event>
 5   0  0.2635243E-02  0.7934271E+03  0.7818609E-02  0.9569580E-01
        1   -1    0    0  501    0  0.00000000000E+00  0.00000000000E+00  0.11797173244E+04  0.11797173244E+04  0.50400001928E-02 0. -1.
       -1   -1    0    0    0  501  0.00000000000E+00  0.00000000000E+00 -0.13340622958E+03  0.13340622967E+03  0.50400001928E-02 0.  1.
    10030    2    1    2    0    0  0.00000000000E+00  0.00000000000E+00  0.10463110948E+04  0.13131235541E+04  0.79342709881E+03 0.  0.
        1    1    3    3  502    0  0.39563788304E+02 -0.19928095772E+03  0.10870802493E+04  0.11059030979E+04  0.50400001928E-02 0. -1.
       -1    1    3    3    0  502 -0.39563788304E+02  0.19928095772E+03 -0.40769154539E+02  0.20722045614E+03  0.50400001928E-02 0.  1.
</event>
<event>
 5   0  0.4590462E-02  0.8309978E+03  0.7818609E-02  0.9516202E-01
       -2   -1    0    0    0  501  0.00000000000E+00  0.00000000000E+00  0.18493477368E+03  0.18493477369E+03  0.25500000920E-02 0. -1.
        2   -1    0    0  501    0  0.00000000000E+00  0.00000000000E+00 -0.93351474928E+03  0.93351474929E+03  0.25500000920E-02 0.  1.
    10030    2    1    2    0    0  0.00000000000E+00  0.00000000000E+00 -0.74857997561E+03  0.11184495230E+04  0.83099780720E+03 0.  0.
        3    1    3    3  502    0  0.28151568022E+03 -0.30509695048E+03 -0.35081930945E+03  0.54351580059E+03  0.10100000352E+00 0. -1.
       -3    1    3    3    0  502 -0.28151568022E+03  0.30509695048E+03 -0.39776066615E+03  0.57493372239E+03  0.10100000352E+00 0.  1.
</event>
<event>
 5   0  0.4684283E-02  0.8196469E+03  0.7818609E-02  0.9532006E-01
       -2   -1    0    0    0  501  0.00000000000E+00  0.00000000000E+00  0.20018098158E+03  0.20018098159E+03  0.25500000920E-02 0.  1.
        2   -1    0    0  501    0  0.00000000000E+00  0.00000000000E+00 -0.83901708383E+03  0.83901708383E+03  0.25500000920E-02 0. -1.
    10030    2    1    2    0    0  0.00000000000E+00  0.00000000000E+00 -0.63883610225E+03  0.10391980654E+04  0.81964690791E+03 0.  0.
        1    1    3    3  502    0 -0.35892807623E+03  0.94660030086E+02 -0.99213692006E+02  0.38423071443E+03  0.50400001928E-02 0.  1.
       -1    1    3    3    0  502  0.35892807623E+03 -0.94660030086E+02 -0.53962241024E+03  0.65496735099E+03  0.50400001928E-02 0. -1.
</event>
<event>
 5   0  0.2769394E-02  0.6668884E+03  0.7818609E-02  0.9775595E-01
       -1   -1    0    0    0  501  0.00000000000E+00  0.00000000000E+00  0.24756770347E+03  0.24756770352E+03  0.50400001928E-02 0. -1.
        1   -1    0    0  501    0  0.00000000000E+00  0.00000000000E+00 -0.44910966265E+03  0.44910966267E+03  0.50400001928E-02 0.  1.
    10030    2    1    2    0    0  0.00000000000E+00  0.00000000000E+00 -0.20154195917E+03  0.69667736620E+03  0.66688843989E+03 0.  0.
        2    1    3    3  502    0 -0.18463154977E+03  0.16961877186E+03 -0.33042160774E+03  0.41477436735E+03  0.25500000920E-02 0.  1.
       -2    1    3    3    0  502  0.18463154977E+03 -0.16961877186E+03  0.12887964857E+03  0.28190299885E+03  0.25500000920E-02 0. -1.
</event>
<event>
 5   0  0.4700220E-02  0.8230797E+03  0.7818609E-02  0.9527198E-01
        2   -1    0    0  501    0  0.00000000000E+00  0.00000000000E+00  0.11423178907E+04  0.11423178907E+04  0.25500000920E-02 0.  1.
       -2   -1    0    0    0  501  0.00000000000E+00  0.00000000000E+00 -0.14826438349E+03  0.14826438351E+03  0.25500000920E-02 0. -1.
    10030    2    1    2    0    0  0.00000000000E+00  0.00000000000E+00  0.99405350719E+03  0.12905822742E+04  0.82307972355E+03 0.  0.
        4    1    3    3  502    0  0.43196984079E+02 -0.40351488161E+03  0.38983749992E+03  0.56273006704E+03  0.12699999809E+01 0. -1.
       -4    1    3    3    0  502 -0.43196984079E+02  0.40351488161E+03  0.60421600727E+03  0.72785220716E+03  0.12699999809E+01 0.  1.
</event>
<event>
 5   0  0.4377843E-02  0.7781545E+03  0.7818609E-02  0.9592187E-01
        2   -1    0    0  501    0  0.00000000000E+00  0.00000000000E+00  0.12525887240E+04  0.12525887240E+04  0.25500000920E-02 0. -1.
       -2   -1    0    0    0  501  0.00000000000E+00  0.00000000000E+00 -0.12085460234E+03  0.12085460237E+03  0.25500000920E-02 0.  1.
    10030    2    1    2    0    0  0.00000000000E+00  0.00000000000E+00  0.11317341217E+04  0.13734433264E+04  0.77815451464E+03 0.  0.
        2    1    3    3  502    0 -0.10733593556E+03 -0.28696799562E+03  0.14259985910E+03  0.33794430516E+03  0.25500000920E-02 0. -1.
       -2    1    3    3    0  502  0.10733593556E+03  0.28696799562E+03  0.98913426259E+03  0.10354990212E+04  0.25500000920E-02 0.  1.
</event>
<event>
 5   0  0.2759559E-02  0.9530187E+03  0.7818609E-02  0.9361629E-01
       -1   -1    0    0    0  501  0.00000000000E+00  0.00000000000E+00  0.15354551943E+04  0.15354551943E+04  0.50400001928E-02 0.  1.
        1   -1    0    0  501    0  0.00000000000E+00  0.00000000000E+00 -0.14787871418E+03  0.14787871427E+03  0.50400001928E-02 0. -1.
    10030    2    1    2    0    0  0.00000000000E+00  0.00000000000E+00  0.13875764801E+04  0.16833339086E+04  0.95301865647E+03 0.  0.
        3    1    3    3  502    0 -0.19096027503E+03  0.41697860263E+03  0.92221178669E+03  0.10299570726E+04  0.10100000352E+00 0.  1.
       -3    1    3    3    0  502  0.19096027503E+03 -0.41697860263E+03  0.46536469341E+03  0.65337683596E+03  0.10100000352E+00 0. -1.
</event>
<event>
 5   0  0.2689372E-02  0.7829031E+03  0.7818609E-02  0.9585099E-01
       -1   -1    0    0    0  501  0.00000000000E+00  0.00000000000E+00  0.50947615790E+03  0.50947615793E+03  0.50400001928E-02 0. -1.
        1   -1    0    0  501    0  0.00000000000E+00  0.00000000000E+00 -0.30076834314E+03  0.30076834319E+03  0.50400001928E-02 0.  1.
    10030    2    1    2    0    0  0.00000000000E+00  0.00000000000E+00  0.20870781476E+03  0.81024450111E+03  0.78290305891E+03 0.  0.
        4    1    3    3  502    0  0.12052464093E+03  0.33818971154E+03 -0.57088189675E+02  0.36353699174E+03  0.12699999809E+01 0.  1.
       -4    1    3    3    0  502 -0.12052464093E+03 -0.33818971154E+03  0.26579600444E+03  0.44670750938E+03  0.12699999809E+01 0. -1.
</event>
<event>
 5   0  0.2606520E-02  0.7864085E+03  0.7818609E-02  0.9579901E-01
        1   -1    0    0  501    0  0.00000000000E+00  0.00000000000E+00  0.31541923331E+03  0.31541923335E+03  0.50400001928E-02 0.  1.
       -1   -1    0    0    0  501  0.00000000000E+00  0.00000000000E+00 -0.49017171150E+03  0.49017171153E+03  0.50400001928E-02 0. -1.
    10030    2    1    2    0    0  0.00000000000E+00  0.00000000000E+00 -0.17475247819E+03  0.80559094488E+03  0.78640850825E+03 0.  0.
        5    1    3    3  502    0  0.30775345412E+03  0.24449188574E+03 -0.77182389101E+02  0.40058417580E+03  0.46999998093E+01 0.  1.
       -5    1    3    3    0  502 -0.30775345412E+03 -0.24449188574E+03 -0.97570089091E+02  0.40500676908E+03  0.46999998093E+01 0. -1.
</event>
<event>
 5   0  0.2689372E-02  0.7941042E+03  0.7818609E-02  0.9568590E-01
       -1   -1    0    0    0  501  0.00000000000E+00  0.00000000000E+00  0.47342042956E+03  0.47342042959E+03  0.50400001928E-02 0. -1.
        1   -1    0    0  501    0  0.00000000000E+00  0.00000000000E+00 -0.33300291011E+03  0.33300291015E+03  0.50400001928E-02 0.  1.
    10030    2    1    2    0    0  0.00000000000E+00  0.00000000000E+00  0.14041751945E+03  0.80642333974E+03  0.79410422685E+03 0.  0.
        4    1    3    3  502    0 -0.18356846398E+03  0.35194746132E+03  0.60880875158E+02  0.40158746290E+03  0.12699999809E+01 0.  1.
       -4    1    3    3    0  502  0.18356846398E+03 -0.35194746132E+03  0.79536644296E+02  0.40483587684E+03  0.12699999809E+01 0. -1.
</event>
<event>
 5   0  0.2635243E-02  0.8996533E+03  0.7818609E-02  0.9426015E-01
        1   -1    0    0  501    0  0.00000000000E+00  0.00000000000E+00  0.87634170334E+03  0.87634170336E+03  0.50400001928E-02 0.  1.
       -1   -1    0    0    0  501  0.00000000000E+00  0.00000000000E+00 -0.23089624745E+03  0.23089624750E+03  0.50400001928E-02 0. -1.
    10030    2    1    2    0    0  0.00000000000E+00  0.00000000000E+00  0.64544545590E+03  0.11072379509E+04  0.89965329060E+03 0.  0.
        1    1    3    3  502    0  0.32831909018E+03  0.14352631298E+03  0.65740844535E+03  0.74871829919E+03  0.50400001928E-02 0.  1.
       -1    1    3    3    0  502 -0.32831909018E+03 -0.14352631298E+03 -0.11962989458E+02  0.35851965167E+03  0.50400001928E-02 0. -1.
</event>
<event>
 5   0  0.4663634E-02  0.8091242E+03  0.7818609E-02  0.9546903E-01
       -2   -1    0    0    0  501  0.00000000000E+00  0.00000000000E+00  0.12399278167E+03  0.12399278170E+03  0.25500000920E-02 0.  1.
        2   -1    0    0  501    0  0.00000000000E+00  0.00000000000E+00 -0.13200000451E+04  0.13200000451E+04  0.25500000920E-02 0. -1.
    10030    2    1    2    0    0  0.00000000000E+00  0.00000000000E+00 -0.11960072635E+04  0.14439928268E+04  0.80912416210E+03 0.  0.
        5    1    3    3  502    0 -0.10991078760E+03  0.14502566276E+03  0.46780423650E+02  0.18794499760E+03  0.46999998093E+01 0.  1.
       -5    1    3    3    0  502  0.10991078760E+03 -0.14502566276E+03 -0.12427876871E+04  0.12560478292E+04  0.46999998093E+01 0. -1.
</event>
<event>
 5   0  0.2689372E-02  0.7970870E+03  0.7818609E-02  0.9564243E-01
        1   -1    0    0  501    0  0.00000000000E+00  0.00000000000E+00  0.23171208701E+04  0.23171208701E+04  0.50400001928E-02 0. -1.
       -1   -1    0    0    0  501  0.00000000000E+00  0.00000000000E+00 -0.68549261663E+02  0.68549261849E+02  0.50400001928E-02 0.  1.
    10030    2    1    2    0    0  0.00000000000E+00  0.00000000000E+00  0.22485716084E+04  0.23856701319E+04  0.79708700919E+03 0.  0.
        4    1    3    3  502    0  0.17098561318E+03 -0.13561595065E+03  0.21223806002E+04  0.21335718387E+04  0.12699999809E+01 0. -1.
       -4    1    3    3    0  502 -0.17098561318E+03  0.13561595065E+03  0.12619100821E+03  0.25209829320E+03  0.12699999809E+01 0.  1.
</event>
<event>
 5   0  0.1786500E-02  0.6346970E+03  0.7818609E-02  0.9835926E-01
        4   -1    0    0  501    0  0.00000000000E+00  0.00000000000E+00  0.48512507010E+03  0.48512673245E+03  0.12699999809E+01 0. -1.
       -4   -1    0    0    0  501  0.00000000000E+00  0.00000000000E+00 -0.20759212216E+03  0.20759600690E+03  0.12699999809E+01 0.  1.
    10030    2    1    2    0    0  0.00000000000E+00  0.00000000000E+00  0.27753294794E+03  0.69272273935E+03  0.63469698000E+03 0.  0.
        4    1    3    3  502    0  0.16771673821E+03  0.36553494216E+02 -0.15255016946E+03  0.22964805533E+03  0.12699999809E+01 0.  1.
       -4    1    3    3    0  502 -0.16771673821E+03 -0.36553494216E+02  0.43008311740E+03  0.46307468402E+03  0.12699999809E+01 0. -1.
</event>
<event>
 5   0  0.4590462E-02  0.7789191E+03  0.7818609E-02  0.9591042E-01
       -2   -1    0    0    0  501  0.00000000000E+00  0.00000000000E+00  0.16139609753E+03  0.16139609755E+03  0.25500000920E-02 0. -1.
        2   -1    0    0  501    0  0.00000000000E+00  0.00000000000E+00 -0.93979176204E+03  0.93979176205E+03  0.25500000920E-02 0.  1.
    10030    2    1    2    0    0  0.00000000000E+00  0.00000000000E+00 -0.77839566451E+03  0.11011878596E+04  0.77891905330E+03 0.  0.
        3    1    3    3  502    0 -0.21142240922E+03 -0.31465819628E+03 -0.51540515257E+03  0.63980598395E+03  0.10100000352E+00 0. -1.
       -3    1    3    3    0  502  0.21142240922E+03  0.31465819628E+03 -0.26299051194E+03  0.46138187565E+03  0.10100000352E+00 0.  1.
</event>
<event>
 5   0  0.4590462E-02  0.8224746E+03  0.7818609E-02  0.9528044E-01
       -2   -1    0    0    0  501  0.00000000000E+00  0.00000000000E+00  0.87215848427E+02  0.87215848464E+02  0.25500000920E-02 0. -1.
        2   -1    0    0  501    0  0.00000000000E+00  0.00000000000E+00 -0.19390525807E+04  0.19390525807E+04  0.25500000920E-02 0.  1.
    10030    2    1    2    0    0  0.00000000000E+00  0.00000000000E+00 -0.18518367323E+04  0.20262684292E+04  0.82247459782E+03 0.  0.
        3    1    3    3  502    0  0.64214609028E+02  0.39080090070E+03 -0.65305324978E+03  0.76375874283E+03  0.10100000352E+00 0.  1.
       -3    1    3    3    0  502 -0.64214609028E+02 -0.39080090070E+03 -0.11987834825E+04  0.12625096864E+04  0.10100000352E+00 0. -1.
</event>
<event>
 5   0  0.2606520E-02  0.5953636E+03  0.7818609E-02  0.9915072E-01
       -1   -1    0    0    0  501  0.00000000000E+00  0.00000000000E+00  0.58902951810E+02  0.58902952025E+02  0.50400001928E-02 0. -1.
        1   -1    0    0  501    0  0.00000000000E+00  0.00000000000E+00 -0.15044145268E+04  0.15044145268E+04  0.50400001928E-02 0.  1.
    10030    2    1    2    0    0  0.00000000000E+00  0.00000000000E+00 -0.14455115750E+04  0.15633174788E+04  0.59536360839E+03 0.  0.
        5    1    3    3  502    0  0.27192392580E+03 -0.11074310308E+03 -0.85101062259E+03  0.90024875788E+03  0.46999998093E+01 0.  1.
       -5    1    3    3    0  502 -0.27192392580E+03  0.11074310308E+03 -0.59450095237E+03  0.66306872093E+03  0.46999998093E+01 0. -1.
</event>
<event>
 5   0  0.4663634E-02  0.4796681E+03  0.7818609E-02  0.1019226E+00
        2   -1    0    0  501    0  0.00000000000E+00  0.00000000000E+00  0.17835205985E+03  0.17835205987E+03  0.25500000920E-02 0.  1.
       -2   -1    0    0    0  501  0.00000000000E+00  0.00000000000E+00 -0.32251025988E+03  0.32251025989E+03  0.25500000920E-02 0. -1.
    10030    2    1    2    0    0  0.00000000000E+00  0.00000000000E+00 -0.14415820003E+03  0.50086231976E+03  0.47966809016E+03 0.  0.
        5    1    3    3  502    0  0.10917087587E+03 -0.12340652520E+03 -0.25399171150E+03  0.30278925032E+03  0.46999998093E+01 0. -1.
       -5    1    3    3    0  502 -0.10917087587E+03  0.12340652520E+03  0.10983351147E+03  0.19807306944E+03  0.46999998093E+01 0.  1.
</event>
<event>
 5   0  0.4590462E-02  0.7991961E+03  0.7818609E-02  0.9561181E-01
        2   -1    0    0  501    0  0.00000000000E+00  0.00000000000E+00  0.86353099868E+03  0.86353099869E+03  0.25500000920E-02 0.  1.
       -2   -1    0    0    0  501  0.00000000000E+00  0.00000000000E+00 -0.18491358899E+03  0.18491358900E+03  0.25500000920E-02 0. -1.
    10030    2    1    2    0    0  0.00000000000E+00  0.00000000000E+00  0.67861740970E+03  0.10484445877E+04  0.79919613657E+03 0.  0.
        3    1    3    3  502    0  0.33540501742E+03  0.21082272159E+03  0.27069054502E+03  0.47980842741E+03  0.10100000352E+00 0. -1.
       -3    1    3    3    0  502 -0.33540501742E+03 -0.21082272159E+03  0.40792686468E+03  0.56863616028E+03  0.10100000352E+00 0.  1.
</event>
<event>
 5   0  0.2759559E-02  0.8006675E+03  0.7818609E-02  0.9559051E-01
        1   -1    0    0  501    0  0.00000000000E+00  0.00000000000E+00  0.14158205976E+04  0.14158205976E+04  0.50400001928E-02 0.  1.
       -1   -1    0    0    0  501  0.00000000000E+00  0.00000000000E+00 -0.11319733212E+03  0.11319733224E+03  0.50400001928E-02 0. -1.
    10030    2    1    2    0    0  0.00000000000E+00  0.00000000000E+00  0.13026232655E+04  0.15290179299E+04  0.80066750779E+03 0.  0.
        3    1    3    3  502    0  0.23999589504E+03  0.31503515119E+03  0.76302260181E+03  0.85967940373E+03  0.10100000352E+00 0. -1.
       -3    1    3    3    0  502 -0.23999589504E+03 -0.31503515119E+03  0.53960066370E+03  0.66933852615E+03  0.10100000352E+00 0.  1.
</event>
<event>
 5   0  0.2759559E-02  0.7897126E+03  0.7818609E-02  0.9575028E-01
       -1   -1    0    0    0  501  0.00000000000E+00  0.00000000000E+00  0.38483922837E+03  0.38483922841E+03  0.50400001928E-02 0. -1.
        1   -1    0    0  501    0  0.00000000000E+00  0.00000000000E+00 -0.40513414241E+03  0.40513414244E+03  0.50400001928E-02 0.  1.
    10030    2    1    2    0    0  0.00000000000E+00  0.00000000000E+00 -0.20294914038E+02  0.78997337085E+03  0.78971263325E+03 0.  0.
        3    1    3    3  502    0  0.61325443148E+02  0.39001872028E+03 -0.16156804909E+02  0.39514106936E+03  0.10100000352E+00 0.  1.
       -3    1    3    3    0  502 -0.61325443148E+02 -0.39001872028E+03 -0.41381091288E+01  0.39483230149E+03  0.10100000352E+00 0. -1.
</event>
<event>
 5   0  0.2689372E-02  0.7877950E+03  0.7818609E-02  0.9577853E-01
       -1   -1    0    0    0  501  0.00000000000E+00  0.00000000000E+00  0.28056442907E+03  0.28056442911E+03  0.50400001928E-02 0.  1.
        1   -1    0    0  501    0  0.00000000000E+00  0.00000000000E+00 -0.55301109144E+03  0.55301109146E+03  0.50400001928E-02 0. -1.
    10030    2    1    2    0    0  0.00000000000E+00  0.00000000000E+00 -0.27244666237E+03  0.83357552057E+03  0.78779500167E+03 0.  0.
        4    1    3    3  502    0 -0.29965465510E+03  0.22328515772E+03 -0.44704947358E+01  0.37372553057E+03  0.12699999809E+01 0. -1.
       -4    1    3    3    0  502  0.29965465510E+03 -0.22328515772E+03 -0.26797616764E+03  0.45984999000E+03  0.12699999809E+01 0.  1.
</event>
<event>
 5   0  0.1786500E-02  0.7903401E+03  0.7818609E-02  0.9574106E-01
        3   -1    0    0  501    0  0.00000000000E+00  0.00000000000E+00  0.26384510450E+03  0.26384512384E+03  0.10100000352E+00 0.  1.
       -3   -1    0    0    0  501  0.00000000000E+00  0.00000000000E+00 -0.59185998210E+03  0.59185999072E+03  0.10100000352E+00 0. -1.
    10030    2    1    2    0    0  0.00000000000E+00  0.00000000000E+00 -0.32801487760E+03  0.85570511456E+03  0.79034010600E+03 0.  0.
        3    1    3    3  502    0 -0.38477476929E+03  0.40330041018E+02 -0.25117174270E+03  0.46126498872E+03  0.10100000352E+00 0.  1.
       -3    1    3    3    0  502  0.38477476929E+03 -0.40330041018E+02 -0.76843134899E+02  0.39444012584E+03  0.10100000352E+00 0. -1.
</event>
<event>
 5   0  0.4684283E-02  0.8038735E+03  0.7818609E-02  0.9554427E-01
       -2   -1    0    0    0  501  0.00000000000E+00  0.00000000000E+00  0.26747528013E+03  0.26747528014E+03  0.25500000920E-02 0. -1.
        2   -1    0    0  501    0  0.00000000000E+00  0.00000000000E+00 -0.60399284917E+03  0.60399284918E+03  0.25500000920E-02 0.  1.
    10030    2    1    2    0    0  0.00000000000E+00  0.00000000000E+00 -0.33651756904E+03  0.87146812932E+03  0.80387351378E+03 0.  0.
        1    1    3    3  502    0  0.18946152758E+03  0.29969906661E+03  0.36968643594E+02  0.35648545776E+03  0.50400001928E-02 0. -1.
       -1    1    3    3    0  502 -0.18946152758E+03 -0.29969906661E+03 -0.37348621264E+03  0.51498267157E+03  0.50400001928E-02 0.  1.
</event>
<event>
 5   0  0.1786500E-02  0.7727690E+03  0.7818609E-02  0.9600291E-01
        4   -1    0    0  501    0  0.00000000000E+00  0.00000000000E+00  0.53589509351E+03  0.53589659837E+03  0.12699999809E+01 0. -1.
       -4   -1    0    0    0  501  0.00000000000E+00  0.00000000000E+00 -0.27858284537E+03  0.27858574018E+03  0.12699999809E+01 0.  1.
    10030    2    1    2    0    0  0.00000000000E+00  0.00000000000E+00  0.25731224814E+03  0.81448233855E+03  0.77276897373E+03 0.  0.
        4    1    3    3  502    0  0.12242812288E+03 -0.86207550575E+02 -0.24676017798E+03  0.28863919585E+03  0.12699999809E+01 0.  1.
       -4    1    3    3    0  502 -0.12242812288E+03  0.86207550575E+02  0.50407242612E+03  0.52584314270E+03  0.12699999809E+01 0. -1.
</event>
<event>
 5   0  0.4377843E-02  0.7850204E+03  0.7818609E-02  0.9581956E-01
       -2   -1    0    0    0  501  0.00000000000E+00  0.00000000000E+00  0.11101368119E+03  0.11101368122E+03  0.25500000920E-02 0.  1.
        2   -1    0    0  501    0  0.00000000000E+00  0.00000000000E+00 -0.13877953279E+04  0.13877953279E+04  0.25500000920E-02 0. -1.
    10030    2    1    2    0    0  0.00000000000E+00  0.00000000000E+00 -0.12767816467E+04  0.14988090091E+04  0.78502042802E+03 0.  0.
        2    1    3    3  502    0  0.11143794969E+03 -0.37612773402E+03 -0.66355972081E+03  0.77084498572E+03  0.25500000920E-02 0. -1.
       -2    1    3    3    0  502 -0.11143794969E+03  0.37612773402E+03 -0.61322192586E+03  0.72796402335E+03  0.25500000920E-02 0.  1.
</event>
<event>
 5   0  0.4590462E-02  0.8214256E+03  0.7818609E-02  0.9529512E-01
       -2   -1    0    0    0  501  0.00000000000E+00  0.00000000000E+00  0.19452545665E+03  0.19452545667E+03  0.25500000920E-02 0. -1.
        2   -1    0    0  501    0  0.00000000000E+00  0.00000000000E+00 -0.86716152285E+03  0.86716152286E+03  0.25500000920E-02 0.  1.
    10030    2    1    2    0    0  0.00000000000E+00  0.00000000000E+00 -0.67263606620E+03  0.10616869795E+04  0.82142556872E+03 0.  0.
        3    1    3    3  502    0  0.31362138188E+03  0.25911967226E+03 -0.40924495518E+03  0.57704663526E+03  0.10100000352E+00 0.  1.
       -3    1    3    3    0  502 -0.31362138188E+03 -0.25911967226E+03 -0.26339111102E+03  0.48464034427E+03  0.10100000352E+00 0. -1.
</event>
<event>
 5   0  0.2769394E-02  0.8079297E+03  0.7818609E-02  0.9548610E-01
        1   -1    0    0  501    0  0.00000000000E+00  0.00000000000E+00  0.69480879315E+03  0.69480879317E+03  0.50400001928E-02 0. -1.
       -1   -1    0    0    0  501  0.00000000000E+00  0.00000000000E+00 -0.23486692627E+03  0.23486692633E+03  0.50400001928E-02 0.  1.
    10030    2    1    2    0    0  0.00000000000E+00  0.00000000000E+00  0.45994186687E+03  0.92967571949E+03  0.80792971384E+03 0.  0.
        2    1    3    3  502    0 -0.13479658449E+03 -0.81226282273E+02 -0.19814065241E+03  0.25303665004E+03  0.25500000920E-02 0.  1.
       -2    1    3    3    0  502  0.13479658449E+03  0.81226282273E+02  0.65808251928E+03  0.67663906945E+03  0.25500000920E-02 0. -1.
</event>
<event>
 5   0  0.2635243E-02  0.8099781E+03  0.7818609E-02  0.9545685E-01
        1   -1    0    0  501    0  0.00000000000E+00  0.00000000000E+00  0.18419142132E+04  0.18419142132E+04  0.50400001928E-02 0.  1.
       -1   -1    0    0    0  501  0.00000000000E+00  0.00000000000E+00 -0.89046572199E+02  0.89046572342E+02  0.50400001928E-02 0. -1.
    10030    2    1    2    0    0  0.00000000000E+00  0.00000000000E+00  0.17528676410E+04  0.19309607855E+04  0.80997814072E+03 0.  0.
        1    1    3    3  502    0  0.36560095881E+02 -0.13104087484E+03  0.17858093975E+04  0.17909839630E+04  0.50400001928E-02 0.  1.
       -1    1    3    3    0  502 -0.36560095881E+02  0.13104087484E+03 -0.32941756541E+02  0.13997682251E+03  0.50400001928E-02 0. -1.
</event>
<event>
 5   0  0.4590462E-02  0.7776230E+03  0.7818609E-02  0.9592984E-01
        2   -1    0    0  501    0  0.00000000000E+00  0.00000000000E+00  0.78825632432E+03  0.78825632433E+03  0.25500000920E-02 0.  1.
       -2   -1    0    0    0  501  0.00000000000E+00  0.00000000000E+00 -0.19178326947E+03  0.19178326949E+03  0.25500000920E-02 0. -1.
    10030    2    1    2    0    0  0.00000000000E+00  0.00000000000E+00  0.59647305485E+03  0.98003959381E+03  0.77762298081E+03 0.  0.
        3    1    3    3  502    0 -0.11715834437E+03  0.80183113001E+02  0.75442215832E+03  0.76766412736E+03  0.10100000352E+00 0.  1.
       -3    1    3    3    0  502  0.11715834437E+03 -0.80183113001E+02 -0.15794910347E+03  0.21237546646E+03  0.10100000352E+00 0. -1.
</event>
<event>
 5   0  0.4663634E-02  0.7650306E+03  0.7818609E-02  0.9612060E-01
        2   -1    0    0  501    0  0.00000000000E+00  0.00000000000E+00  0.15654594110E+03  0.15654594112E+03  0.25500000920E-02 0.  1.
       -2   -1    0    0    0  501  0.00000000000E+00  0.00000000000E+00 -0.93466455010E+03  0.93466455010E+03  0.25500000920E-02 0. -1.
    10030    2    1    2    0    0  0.00000000000E+00  0.00000000000E+00 -0.77811860900E+03  0.10912104912E+04  0.76503056571E+03 0.  0.
        5    1    3    3  502    0 -0.12586283583E+03  0.24876598179E+03 -0.76256433426E+03  0.81194360704E+03  0.46999998093E+01 0. -1.
       -5    1    3    3    0  502  0.12586283583E+03 -0.24876598179E+03 -0.15554274743E+02  0.27926688418E+03  0.46999998093E+01 0.  1.
</event>
<event>
 5   0  0.2759559E-02  0.7979134E+03  0.7818609E-02  0.9563042E-01
       -1   -1    0    0    0  501  0.00000000000E+00  0.00000000000E+00  0.91068926098E+03  0.91068926099E+03  0.50400001928E-02 0. -1.
        1   -1    0    0  501    0  0.00000000000E+00  0.00000000000E+00 -0.17477581954E+03  0.17477581961E+03  0.50400001928E-02 0.  1.
    10030    2    1    2    0    0  0.00000000000E+00  0.00000000000E+00  0.73591344144E+03  0.10854650806E+04  0.79791343384E+03 0.  0.
        3    1    3    3  502    0 -0.11163800031E+03 -0.38216066856E+03  0.33309722310E+03  0.51909882484E+03  0.10100000352E+00 0.  1.
       -3    1    3    3    0  502  0.11163800031E+03  0.38216066856E+03  0.40281621834E+03  0.56636625576E+03  0.10100000352E+00 0. -1.
</event>
<event>
 5   0  0.2769394E-02  0.8239849E+03  0.7818609E-02  0.9525934E-01
        1   -1    0    0  501    0  0.00000000000E+00  0.00000000000E+00  0.30471817696E+03  0.30471817701E+03  0.50400001928E-02 0. -1.
       -1   -1    0    0    0  501  0.00000000000E+00  0.00000000000E+00 -0.55703201277E+03  0.55703201279E+03  0.50400001928E-02 0.  1.
    10030    2    1    2    0    0  0.00000000000E+00  0.00000000000E+00 -0.25231383581E+03  0.86175018980E+03  0.82398490149E+03 0.  0.
        2    1    3    3  502    0 -0.38821465974E+03  0.75570386231E+02 -0.54718615153E+01  0.39553943746E+03  0.25500000920E-02 0. -1.
       -2    1    3    3    0  502  0.38821465974E+03 -0.75570386231E+02 -0.24684197429E+03  0.46621075233E+03  0.25500000920E-02 0.  1.
</event>
<event>
 5   0  0.2769394E-02  0.8096517E+03  0.7818609E-02  0.9546151E-01
        1   -1    0    0  501    0  0.00000000000E+00  0.00000000000E+00  0.77952506325E+03  0.77952506326E+03  0.50400001928E-02 0. -1.
       -1   -1    0    0    0  501  0.00000000000E+00  0.00000000000E+00 -0.21023565497E+03  0.21023565503E+03  0.50400001928E-02 0.  1.
    10030    2    1    2    0    0  0.00000000000E+00  0.00000000000E+00  0.56928940828E+03  0.98976071829E+03  0.80965168381E+03 0.  0.
        2    1    3    3  502    0  0.24533418941E+03 -0.11235774912E+03 -0.84266331488E+02  0.28269054266E+03  0.25500000920E-02 0.  1.
       -2    1    3    3    0  502 -0.24533418941E+03  0.11235774912E+03  0.65355573977E+03  0.70707017563E+03  0.25500000920E-02 0. -1.
</event>
<event>
 5   0  0.4700220E-02  0.7962464E+03  0.7818609E-02  0.9565466E-01
       -2   -1    0    0    0  501  0.00000000000E+00  0.00000000000E+00  0.43501094587E+03  0.43501094588E+03  0.25500000920E-02 0.  1.
        2   -1    0    0  501    0  0.00000000000E+00  0.00000000000E+00 -0.36436342441E+03  0.36436342442E+03  0.25500000920E-02 0. -1.
    10030    2    1    2    0    0  0.00000000000E+00  0.00000000000E+00  0.70647521454E+02  0.79937437030E+03  0.79624638875E+03 0.  0.
        4    1    3    3  502    0 -0.11467719929E+03 -0.22264620129E+03  0.34602017942E+03  0.42714607390E+03  0.12699999809E+01 0.  1.
       -4    1    3    3    0  502  0.11467719929E+03  0.22264620129E+03 -0.27537265796E+03  0.37222829640E+03  0.12699999809E+01 0. -1.
</event>
<event>
 5   0  0.2606520E-02  0.7572627E+03  0.7818609E-02  0.9624025E-01
       -1   -1    0    0    0  501  0.00000000000E+00  0.00000000000E+00  0.28566313013E+03  0.28566313018E+03  0.50400001928E-02 0. -1.
        1   -1    0    0  501    0  0.00000000000E+00  0.00000000000E+00 -0.50185576928E+03  0.50185576930E+03  0.50400001928E-02 0.  1.
    10030    2    1    2    0    0  0.00000000000E+00  0.00000000000E+00 -0.21619263915E+03  0.78751889948E+03  0.75726267557E+03 0.  0.
        5    1    3    3  502    0 -0.17088493114E+03 -0.21401905397E+03  0.16375545441E+03  0.31912968211E+03  0.46999998093E+01 0.  1.
       -5    1    3    3    0  502  0.17088493114E+03  0.21401905397E+03 -0.37994809356E+03  0.46838921737E+03  0.46999998093E+01 0. -1.
</event>
<event>
 5   0  0.4663634E-02  0.8319686E+03  0.7818609E-02  0.9514863E-01
       -2   -1    0    0    0  501  0.00000000000E+00  0.00000000000E+00  0.37122744484E+03  0.37122744485E+03  0.25500000920E-02 0. -1.
        2   -1    0    0  501    0  0.00000000000E+00  0.00000000000E+00 -0.46613722689E+03  0.46613722690E+03  0.25500000920E-02 0.  1.
    10030    2    1    2    0    0  0.00000000000E+00  0.00000000000E+00 -0.94909782053E+02  0.83736467175E+03  0.83196858520E+03 0.  0.
        5    1    3    3  502    0 -0.12213980974E+03  0.84196901422E+02  0.34367024110E+03  0.37435087277E+03  0.46999998093E+01 0. -1.
       -5    1    3    3    0  502  0.12213980974E+03 -0.84196901422E+02 -0.43858002315E+03  0.46301379897E+03  0.46999998093E+01 0.  1.
</event>
<event>
 5   0  0.2769394E-02  0.8142489E+03  0.7818609E-02  0.9539618E-01
        1   -1    0    0  501    0  0.00000000000E+00  0.00000000000E+00  0.47910876853E+03  0.47910876856E+03  0.50400001928E-02 0. -1.
       -1   -1    0    0    0  501  0.00000000000E+00  0.00000000000E+00 -0.34595548591E+03  0.34595548595E+03  0.50400001928E-02 0.  1.
    10030    2    1    2    0    0  0.00000000000E+00  0.00000000000E+00  0.13315328262E+03  0.82506425451E+03  0.81424887313E+03 0.  0.
        2    1    3    3  502    0  0.16868481776E+03 -0.14886671977E+03  0.41039829912E+03  0.46801990547E+03  0.25500000920E-02 0. -1.
       -2    1    3    3    0  502 -0.16868481776E+03  0.14886671977E+03 -0.27724501650E+03  0.35704434903E+03  0.25500000920E-02 0.  1.
</event>
<event>
 5   0  0.4684283E-02  0.7893822E+03  0.7818609E-02  0.9575514E-01
       -2   -1    0    0    0  501  0.00000000000E+00  0.00000000000E+00  0.13829342978E+03  0.13829342981E+03  0.25500000920E-02 0.  1.
        2   -1    0    0  501    0  0.00000000000E+00  0.00000000000E+00 -0.11264530408E+04  0.11264530408E+04  0.25500000920E-02 0. -1.
    10030    2    1    2    0    0  0.00000000000E+00  0.00000000000E+00 -0.98815961101E+03  0.12647464706E+04  0.78938217491E+03 0.  0.
        1    1    3    3  502    0 -0.24237068164E+03  0.95279651062E+02 -0.96925857806E+03  0.10036353672E+04  0.50400001928E-02 0. -1.
       -1    1    3    3    0  502  0.24237068164E+03 -0.95279651062E+02 -0.18901032953E+02  0.26111110336E+03  0.50400001928E-02 0.  1.
</event>
<event>
 5   0  0.2606520E-02  0.7573445E+03  0.7818609E-02  0.9623898E-01
        1   -1    0    0  501    0  0.00000000000E+00  0.00000000000E+00  0.58135153780E+03  0.58135153782E+03  0.50400001928E-02 0. -1.
       -1   -1    0    0    0  501  0.00000000000E+00  0.00000000000E+00 -0.24665400421E+03  0.24665400426E+03  0.50400001928E-02 0.  1.
    10030    2    1    2    0    0  0.00000000000E+00  0.00000000000E+00  0.33469753359E+03  0.82800554208E+03  0.75734453106E+03 0.  0.
        5    1    3    3  502    0  0.22254372678E+03  0.19346138733E+03 -0.92336291008E+02  0.30903252152E+03  0.46999998093E+01 0.  1.
       -5    1    3    3    0  502 -0.22254372678E+03 -0.19346138733E+03  0.42703382460E+03  0.51897302056E+03  0.46999998093E+01 0. -1.
</event>
<event>
 5   0  0.1786500E-02  0.5120703E+03  0.7818609E-02  0.1010676E+00
        4   -1    0    0  501    0  0.00000000000E+00  0.00000000000E+00  0.21251776761E+03  0.21252156231E+03  0.12699999809E+01 0.  1.
       -4   -1    0    0    0  501  0.00000000000E+00  0.00000000000E+00 -0.30845576334E+03  0.30845837780E+03  0.12699999809E+01 0. -1.
    10030    2    1    2    0    0  0.00000000000E+00  0.00000000000E+00 -0.95937995732E+02  0.52097994012E+03  0.51207030668E+03 0.  0.
        5    1    3    3  502    0 -0.29792229972E+02 -0.13535899013E+03  0.17100187819E+03  0.22016667668E+03  0.46999998093E+01 0.  1.
       -5    1    3    3    0  502  0.29792229972E+02  0.13535899013E+03 -0.26693987392E+03  0.30081326344E+03  0.46999998093E+01 0. -1.
</event>
<event>
 5   0  0.4377843E-02  0.7795771E+03  0.7818609E-02  0.9590058E-01
        2   -1    0    0  501    0  0.00000000000E+00  0.00000000000E+00  0.78545988831E+03  0.78545988831E+03  0.25500000920E-02 0. -1.
       -2   -1    0    0    0  501  0.00000000000E+00  0.00000000000E+00 -0.19343461209E+03  0.19343461210E+03  0.25500000920E-02 0.  1.
    10030    2    1    2    0    0  0.00000000000E+00  0.00000000000E+00  0.59202527622E+03  0.97889450042E+03  0.77957713875E+03 0.  0.
        2    1    3    3  502    0 -0.15183494200E+03  0.81927305588E+02  0.73490462449E+03  0.75488458728E+03  0.25500000920E-02 0. -1.
       -2    1    3    3    0  502  0.15183494200E+03 -0.81927305588E+02 -0.14287934827E+03  0.22400991313E+03  0.25500000920E-02 0.  1.
</event>
<event>
 5   0  0.4377843E-02  0.7971034E+03  0.7818609E-02  0.9564219E-01
       -2   -1    0    0    0  501  0.00000000000E+00  0.00000000000E+00  0.20953981246E+03  0.20953981248E+03  0.25500000920E-02 0.  1.
        2   -1    0    0  501    0  0.00000000000E+00  0.00000000000E+00 -0.75805854039E+03  0.75805854039E+03  0.25500000920E-02 0. -1.
    10030    2    1    2    0    0  0.00000000000E+00  0.00000000000E+00 -0.54851872792E+03  0.96759835287E+03  0.79710336694E+03 0.  0.
        2    1    3    3  502    0 -0.23061482921E+03  0.84157046304E+02 -0.65538671642E+03  0.69985523929E+03  0.25500000920E-02 0. -1.
       -2    1    3    3    0  502  0.23061482921E+03 -0.84157046304E+02  0.10686798850E+03  0.26774311358E+03  0.25500000920E-02 0.  1.
</event>
<event>
 5   0  0.4700220E-02  0.7658864E+03  0.7818609E-02  0.9610752E-01
       -2   -1    0    0    0  501  0.00000000000E+00  0.00000000000E+00  0.10899033017E+03  0.10899033020E+03  0.25500000920E-02 0.  1.
        2   -1    0    0  501    0  0.00000000000E+00  0.00000000000E+00 -0.13454909681E+04  0.13454909681E+04  0.25500000920E-02 0. -1.
    10030    2    1    2    0    0  0.00000000000E+00  0.00000000000E+00 -0.12365006379E+04  0.14544812983E+04  0.76588642728E+03 0.  0.
        4    1    3    3  502    0  0.30295169521E+03 -0.22980251947E+02 -0.17557237765E+03  0.35090610468E+03  0.12699999809E+01 0.  1.
       -4    1    3    3    0  502 -0.30295169521E+03  0.22980251947E+02 -0.10609282603E+04  0.11035751936E+04  0.12699999809E+01 0. -1.
</event>
<event>
 5   0  0.4377843E-02  0.8087623E+03  0.7818609E-02  0.9547420E-01
       -2   -1    0    0    0  501  0.00000000000E+00  0.00000000000E+00  0.12198942758E+03  0.12198942761E+03  0.25500000920E-02 0. -1.
        2   -1    0    0  501    0  0.00000000000E+00  0.00000000000E+00 -0.13404778137E+04  0.13404778137E+04  0.25500000920E-02 0.  1.
    10030    2    1    2    0    0  0.00000000000E+00  0.00000000000E+00 -0.12184883862E+04  0.14624672413E+04  0.80876231663E+03 0.  0.
        2    1    3    3  502    0 -0.13197561258E+03 -0.21197735305E+03 -0.11844135653E+04  0.12104492778E+04  0.25500000920E-02 0.  1.
       -2    1    3    3    0  502  0.13197561258E+03  0.21197735305E+03 -0.34074820891E+02  0.25201796355E+03  0.25500000920E-02 0. -1.
</event>
<event>
 5   0  0.4377843E-02  0.7978969E+03  0.7818609E-02  0.9563066E-01
       -2   -1    0    0    0  501  0.00000000000E+00  0.00000000000E+00  0.12942266127E+03  0.12942266130E+03  0.25500000920E-02 0.  1.
        2   -1    0    0  501    0  0.00000000000E+00  0.00000000000E+00 -0.12297682559E+04  0.12297682559E+04  0.25500000920E-02 0. -1.
    10030    2    1    2    0    0  0.00000000000E+00  0.00000000000E+00 -0.11003455946E+04  0.13591909172E+04  0.79789693682E+03 0.  0.
        2    1    3    3  502    0  0.23015819158E+03  0.93345978339E+02 -0.10820081512E+04  0.11101476947E+04  0.25500000920E-02 0. -1.
       -2    1    3    3    0  502 -0.23015819158E+03 -0.93345978339E+02 -0.18337443423E+02  0.24904322247E+03  0.25500000920E-02 0.  1.
</event>
<event>
 5   0  0.4590462E-02  0.7853558E+03  0.7818609E-02  0.9581459E-01
        2   -1    0    0  501    0  0.00000000000E+00  0.00000000000E+00  0.15537203150E+04  0.15537203150E+04  0.25500000920E-02 0. -1.
       -2   -1    0    0    0  501  0.00000000000E+00  0.00000000000E+00 -0.99243038704E+02  0.99243038737E+02  0.25500000920E-02 0.  1.
    10030    2    1    2    0    0  0.00000000000E+00  0.00000000000E+00  0.14544772763E+04  0.16529633538E+04  0.78535578024E+03 0.  0.
        3    1    3    3  502    0  0.31552356944E+03  0.22496136632E+03  0.59357281820E+03  0.70886630610E+03  0.10100000352E+00 0.  1.
       -3    1    3    3    0  502 -0.31552356944E+03 -0.22496136632E+03  0.86090445813E+03  0.94409704768E+03  0.10100000352E+00 0. -1.
</event>
<event>
 5   0  0.2689372E-02  0.8039665E+03  0.7818609E-02  0.9554293E-01
       -1   -1    0    0    0  501  0.00000000000E+00  0.00000000000E+00  0.14626745037E+03  0.14626745046E+03  0.50400001928E-02 0.  1.
        1   -1    0    0  501    0  0.00000000000E+00  0.00000000000E+00 -0.11047607295E+04  0.11047607295E+04  0.50400001928E-02 0. -1.
    10030    2    1    2    0    0  0.00000000000E+00  0.00000000000E+00 -0.95849327910E+03  0.12510281799E+04  0.80396650485E+03 0.  0.
        4    1    3    3  502    0  0.39120610378E+03  0.75049079783E+02 -0.39524274550E+03  0.56115329526E+03  0.12699999809E+01 0.  1.
       -4    1    3    3    0  502 -0.39120610378E+03 -0.75049079783E+02 -0.56325053360E+03  0.68987488468E+03  0.12699999809E+01 0. -1.
</event>
<event>
 5   0  0.2635243E-02  0.7559038E+03  0.7818609E-02  0.9626134E-01
       -1   -1    0    0    0  501  0.00000000000E+00  0.00000000000E+00  0.82643521849E+03  0.82643521851E+03  0.50400001928E-02 0. -1.
        1   -1    0    0  501    0  0.00000000000E+00  0.00000000000E+00 -0.17284793556E+03  0.17284793563E+03  0.50400001928E-02 0.  1.
    10030    2    1    2    0    0  0.00000000000E+00  0.00000000000E+00  0.65358728294E+03  0.99928315414E+03  0.75590375428E+03 0.  0.
        1    1    3    3  502    0  0.13816563534E+03  0.23607086845E+03 -0.18006366965E+02  0.27412301435E+03  0.50400001928E-02 0. -1.
       -1    1    3    3    0  502 -0.13816563534E+03 -0.23607086845E+03  0.67159364990E+03  0.72516013979E+03  0.50400001928E-02 0.  1.
</event>
<event>
 5   0  0.2759559E-02  0.7901096E+03  0.7818609E-02  0.9574444E-01
       -1   -1    0    0    0  501  0.00000000000E+00  0.00000000000E+00  0.34572555950E+03  0.34572555954E+03  0.50400001928E-02 0. -1.
        1   -1    0    0  501    0  0.00000000000E+00  0.00000000000E+00 -0.45142244122E+03  0.45142244125E+03  0.50400001928E-02 0.  1.
    10030    2    1    2    0    0  0.00000000000E+00  0.00000000000E+00 -0.10569688172E+03  0.79714800079E+03  0.79010955213E+03 0.  0.
        3    1    3    3  502    0 -0.73170055973E+02 -0.38447944485E+03 -0.10708572842E+03  0.40576552840E+03  0.10100000352E+00 0. -1.
       -3    1    3    3    0  502  0.73170055973E+02  0.38447944485E+03  0.13888467004E+01  0.39138247240E+03  0.10100000352E+00 0.  1.
</event>
<event>
 5   0  0.1786500E-02  0.7091367E+03  0.7818609E-02  0.9701734E-01
       -3   -1    0    0    0  501  0.00000000000E+00  0.00000000000E+00  0.19811490512E+03  0.19811493087E+03  0.10100000352E+00 0.  1.
        3   -1    0    0  501    0  0.00000000000E+00  0.00000000000E+00 -0.63457462452E+03  0.63457463256E+03  0.10100000352E+00 0. -1.
    10030    2    1    2    0    0  0.00000000000E+00  0.00000000000E+00 -0.43645971940E+03  0.83268956343E+03  0.70913667398E+03 0.  0.
        3    1    3    3  502    0 -0.29280137223E+03 -0.53247975991E+02  0.80973162323E+01  0.29771390168E+03  0.10100000352E+00 0.  1.
       -3    1    3    3    0  502  0.29280137223E+03  0.53247975991E+02 -0.44455703563E+03  0.53497566174E+03  0.10100000352E+00 0. -1.
</event>
<event>
 5   0  0.2769394E-02  0.8095673E+03  0.7818609E-02  0.9546271E-01
        1   -1    0    0  501    0  0.00000000000E+00  0.00000000000E+00  0.28273560331E+03  0.28273560335E+03  0.50400001928E-02 0. -1.
       -1   -1    0    0    0  501  0.00000000000E+00  0.00000000000E+00 -0.57951599568E+03  0.57951599570E+03  0.50400001928E-02 0.  1.
    10030    2    1    2    0    0  0.00000000000E+00  0.00000000000E+00 -0.29678039238E+03  0.86225159905E+03  0.80956730342E+03 0.  0.
        2    1    3    3  502    0  0.66692196839E+02 -0.27041101736E+03 -0.46123987064E+03  0.53880625989E+03  0.25500000920E-02 0.  1.
       -2    1    3    3    0  502 -0.66692196839E+02  0.27041101736E+03  0.16445947826E+03  0.32344533916E+03  0.25500000920E-02 0. -1.
</event>
<event>
 5   0  0.2635243E-02  0.8036699E+03  0.7818609E-02  0.9554720E-01
        1   -1    0    0  501    0  0.00000000000E+00  0.00000000000E+00  0.31716180653E+03  0.31716180657E+03  0.50400001928E-02 0.  1.
       -1   -1    0    0    0  501  0.00000000000E+00  0.00000000000E+00 -0.50911342664E+03  0.50911342666E+03  0.50400001928E-02 0. -1.
    10030    2    1    2    0    0  0.00000000000E+00  0.00000000000E+00 -0.19195162010E+03  0.82627523324E+03  0.80366991769E+03 0.  0.
        1    1    3    3  502    0  0.84037993502E+02  0.47603317740E+02  0.30505046724E+03  0.31997538624E+03  0.50400001928E-02 0.  1.
       -1    1    3    3    0  502 -0.84037993502E+02 -0.47603317740E+02 -0.49700208735E+03  0.50629984699E+03  0.50400001928E-02 0. -1.
</event>
<event>
 5   0  0.4700220E-02  0.7771025E+03  0.7818609E-02  0.9593765E-01
        2   -1    0    0  501    0  0.00000000000E+00  0.00000000000E+00  0.10437025706E+04  0.10437025706E+04  0.25500000920E-02 0.  1.
       -2   -1    0    0    0  501  0.00000000000E+00  0.00000000000E+00 -0.14465047260E+03  0.14465047262E+03  0.25500000920E-02 0. -1.
    10030    2    1    2    0    0  0.00000000000E+00  0.00000000000E+00  0.89905209801E+03  0.11883530432E+04  0.77710249030E+03 0.  0.
        4    1    3    3  502    0 -0.31911073879E+03  0.65846673876E+02  0.12584239069E+03  0.34929266849E+03  0.12699999809E+01 0. -1.
       -4    1    3    3    0  502  0.31911073879E+03 -0.65846673876E+02  0.77320970732E+03  0.83906037474E+03  0.12699999809E+01 0.  1.
</event>
<event>
 5   0  0.4700220E-02  0.7782740E+03  0.7818609E-02  0.9592008E-01
        2   -1    0    0  501    0  0.00000000000E+00  0.00000000000E+00  0.42048589445E+03  0.42048589445E+03  0.25500000920E-02 0.  1.
       -2   -1    0    0    0  501  0.00000000000E+00  0.00000000000E+00 -0.36012525251E+03  0.36012525252E+03  0.25500000920E-02 0. -1.
    10030    2    1    2    0    0  0.00000000000E+00  0.00000000000E+00  0.60360641935E+02  0.78061114698E+03  0.77827395928E+03 0.  0.
        4    1    3    3  502    0  0.36535638121E+03  0.99272069753E+02  0.12037113788E+03  0.39727956512E+03  0.12699999809E+01 0.  1.
       -4    1    3    3    0  502 -0.36535638121E+03 -0.99272069753E+02 -0.60010495947E+02  0.38333158186E+03  0.12699999809E+01 0. -1.
</event>
<event>
 5   0  0.4377843E-02  0.7599094E+03  0.7818609E-02  0.9619931E-01
       -2   -1    0    0    0  501  0.00000000000E+00  0.00000000000E+00  0.92225180616E+02  0.92225180651E+02  0.25500000920E-02 0.  1.
        2   -1    0    0  501    0  0.00000000000E+00  0.00000000000E+00 -0.15653594360E+04  0.15653594360E+04  0.25500000920E-02 0. -1.
    10030    2    1    2    0    0  0.00000000000E+00  0.00000000000E+00 -0.14731342554E+04  0.16575846167E+04  0.75990935445E+03 0.  0.
        2    1    3    3  502    0 -0.30047466847E+02  0.32084421067E+03 -0.29747288803E+03  0.43855897768E+03  0.25500000920E-02 0.  1.
       -2    1    3    3    0  502  0.30047466847E+02 -0.32084421067E+03 -0.11756613674E+04  0.12190256390E+04  0.25500000920E-02 0. -1.
</event>
<event>
 5   0  0.2606520E-02  0.8324367E+03  0.7818609E-02  0.9514218E-01
        1   -1    0    0  501    0  0.00000000000E+00  0.00000000000E+00  0.10085227210E+04  0.10085227210E+04  0.50400001928E-02 0.  1.
       -1   -1    0    0    0  501  0.00000000000E+00  0.00000000000E+00 -0.17177374884E+03  0.17177374891E+03  0.50400001928E-02 0. -1.
    10030    2    1    2    0    0  0.00000000000E+00  0.00000000000E+00  0.83674897219E+03  0.11802964700E+04  0.83243673304E+03 0.  0.
        5    1    3    3  502    0 -0.26634171708E+03  0.29444196710E+03  0.59536365240E+03  0.71562137394E+03  0.46999998093E+01 0.  1.
       -5    1    3    3    0  502  0.26634171708E+03 -0.29444196710E+03  0.24138531979E+03  0.46467509601E+03  0.46999998093E+01 0. -1.
</event>
<event>
 5   0  0.2689372E-02  0.7965931E+03  0.7818609E-02  0.9564962E-01
        1   -1    0    0  501    0  0.00000000000E+00  0.00000000000E+00  0.37220607847E+03  0.37220607851E+03  0.50400001928E-02 0.  1.
       -1   -1    0    0    0  501  0.00000000000E+00  0.00000000000E+00 -0.42621591472E+03  0.42621591475E+03  0.50400001928E-02 0. -1.
    10030    2    1    2    0    0  0.00000000000E+00  0.00000000000E+00 -0.54009836249E+02  0.79842199326E+03  0.79659313135E+03 0.  0.
        4    1    3    3  502    0 -0.23372789868E+03 -0.10542974550E+03  0.27848061846E+03  0.37854620539E+03  0.12699999809E+01 0.  1.
       -4    1    3    3    0  502  0.23372789868E+03  0.10542974550E+03 -0.33249045471E+03  0.41987578786E+03  0.12699999809E+01 0. -1.
</event>
<event>
 5   0  0.2759559E-02  0.7899439E+03  0.7818609E-02  0.9574688E-01
        1   -1    0    0  501    0  0.00000000000E+00  0.00000000000E+00  0.48478153378E+03  0.48478153381E+03  0.50400001928E-02 0. -1.
       -1   -1    0    0    0  501  0.00000000000E+00  0.00000000000E+00 -0.32180028987E+03  0.32180028991E+03  0.50400001928E-02 0.  1.
    10030    2    1    2    0    0  0.00000000000E+00  0.00000000000E+00  0.16298124392E+03  0.80658182372E+03  0.78994389198E+03 0.  0.
        3    1    3    3  502    0 -0.16963263896E+03 -0.75445031981E+02  0.43745293231E+03  0.47521812175E+03  0.10100000352E+00 0. -1.
       -3    1    3    3    0  502  0.16963263896E+03  0.75445031981E+02 -0.27447168839E+03  0.33136370197E+03  0.10100000352E+00 0.  1.
</event>
<event>
 5   0  0.1786500E-02  0.7239094E+03  0.7818609E-02  0.9677196E-01
        3   -1    0    0  501    0  0.00000000000E+00  0.00000000000E+00  0.42934226190E+03  0.42934227378E+03  0.10100000352E+00 0.  1.
       -3   -1    0    0    0  501  0.00000000000E+00  0.00000000000E+00 -0.30514395253E+03  0.30514396924E+03  0.10100000352E+00 0. -1.
    10030    2    1    2    0    0  0.00000000000E+00  0.00000000000E+00  0.12419830937E+03  0.73448624302E+03  0.72390940119E+03 0.  0.
        1    1    3    3  502    0  0.13971063008E+03  0.32433479091E+03 -0.18427249072E+02  0.35362647000E+03  0.50400001928E-02 0. -1.
       -1    1    3    3    0  502 -0.13971063008E+03 -0.32433479091E+03  0.14262555845E+03  0.38085977302E+03  0.50400001928E-02 0.  1.
</event>
<event>
 5   0  0.2689372E-02  0.7964226E+03  0.7818609E-02  0.9565210E-01
       -1   -1    0    0    0  501  0.00000000000E+00  0.00000000000E+00  0.33995071172E+03  0.33995071176E+03  0.50400001928E-02 0.  1.
        1   -1    0    0  501    0  0.00000000000E+00  0.00000000000E+00 -0.46645656162E+03  0.46645656165E+03  0.50400001928E-02 0. -1.
    10030    2    1    2    0    0  0.00000000000E+00  0.00000000000E+00 -0.12650584991E+03  0.80640727341E+03  0.79642260173E+03 0.  0.
        4    1    3    3  502    0 -0.20073457597E+03  0.28754548428E+03 -0.25428150753E+03  0.43317141352E+03  0.12699999809E+01 0. -1.
       -4    1    3    3    0  502  0.20073457597E+03 -0.28754548428E+03  0.12777565763E+03  0.37323585988E+03  0.12699999809E+01 0.  1.
</event>
<event>
 5   0  0.2689372E-02  0.6503553E+03  0.7818609E-02  0.9806113E-01
        1   -1    0    0  501    0  0.00000000000E+00  0.00000000000E+00  0.24352382539E+03  0.24352382544E+03  0.50400001928E-02 0. -1.
       -1   -1    0    0    0  501  0.00000000000E+00  0.00000000000E+00 -0.43421011285E+03  0.43421011288E+03  0.50400001928E-02 0.  1.
    10030    2    1    2    0    0  0.00000000000E+00  0.00000000000E+00 -0.19068628746E+03  0.67773393832E+03  0.65035531130E+03 0.  0.
        4    1    3    3  502    0  0.19445456923E+03 -0.25377322214E+03 -0.33467907016E+02  0.32145783778E+03  0.12699999809E+01 0. -1.
       -4    1    3    3    0  502 -0.19445456923E+03  0.25377322214E+03 -0.15721838044E+03  0.35627610054E+03  0.12699999809E+01 0.  1.
</event>
<event>
 5   0  0.4684283E-02  0.7975043E+03  0.7818609E-02  0.9563637E-01
       -2   -1    0    0    0  501  0.00000000000E+00  0.00000000000E+00  0.10320017966E+04  0.10320017966E+04  0.25500000920E-02 0.  1.
        2   -1    0    0  501    0  0.00000000000E+00  0.00000000000E+00 -0.15407267641E+03  0.15407267643E+03  0.25500000920E-02 0. -1.
    10030    2    1    2    0    0  0.00000000000E+00  0.00000000000E+00  0.87792912017E+03  0.11860744730E+04  0.79750430436E+03 0.  0.
        1    1    3    3  502    0  0.38087421368E+03  0.23931352900E+02  0.26702732243E+03  0.46576975776E+03  0.50400001928E-02 0.  1.
       -1    1    3    3    0  502 -0.38087421368E+03 -0.23931352900E+02  0.61090179774E+03  0.72030471524E+03  0.50400001928E-02 0. -1.
</event>
<event>
 5   0  0.4377843E-02  0.8003559E+03  0.7818609E-02  0.9559502E-01
        2   -1    0    0  501    0  0.00000000000E+00  0.00000000000E+00  0.56918689966E+03  0.56918689967E+03  0.25500000920E-02 0. -1.
       -2   -1    0    0    0  501  0.00000000000E+00  0.00000000000E+00 -0.28135294568E+03  0.28135294570E+03  0.25500000920E-02 0.  1.
    10030    2    1    2    0    0  0.00000000000E+00  0.00000000000E+00  0.28783395398E+03  0.85053984536E+03  0.80035594799E+03 0.  0.
        2    1    3    3  502    0 -0.11146307608E+03 -0.10287806557E+02  0.55221110602E+03  0.56344206616E+03  0.25500000920E-02 0. -1.
       -2    1    3    3    0  502  0.11146307608E+03  0.10287806557E+02 -0.26437715205E+03  0.28709777921E+03  0.25500000920E-02 0.  1.
</event>
<event>
 5   0  0.4590462E-02  0.8140116E+03  0.7818609E-02  0.9539954E-01
        2   -1    0    0  501    0  0.00000000000E+00  0.00000000000E+00  0.26177030680E+03  0.26177030682E+03  0.25500000920E-02 0. -1.
       -2   -1    0    0    0  501  0.00000000000E+00  0.00000000000E+00 -0.63282092254E+03  0.63282092254E+03  0.25500000920E-02 0.  1.
    10030    2    1    2    0    0  0.00000000000E+00  0.00000000000E+00 -0.37105061573E+03  0.89459122936E+03  0.81401161430E+03 0.  0.
        3    1    3    3  502    0  0.25597350870E+03  0.18699471019E+03  0.95017256211E+02  0.33093465816E+03  0.10100000352E+00 0. -1.
       -3    1    3    3    0  502 -0.25597350870E+03 -0.18699471019E+03 -0.46606787194E+03  0.56365657120E+03  0.10100000352E+00 0.  1.
</event>
<event>
 5   0  0.4663634E-02  0.7973678E+03  0.7818609E-02  0.9563835E-01
        2   -1    0    0  501    0  0.00000000000E+00  0.00000000000E+00  0.25943153067E+04  0.25943153067E+04  0.25500000920E-02 0. -1.
       -2   -1    0    0    0  501  0.00000000000E+00  0.00000000000E+00 -0.61268133742E+02  0.61268133796E+02  0.25500000920E-02 0.  1.
    10030    2    1    2    0    0  0.00000000000E+00  0.00000000000E+00  0.25330471729E+04  0.26555834405E+04  0.79736781287E+03 0.  0.
        5    1    3    3  502    0  0.36359987658E+02  0.70245579761E+02 -0.34779614553E+02  0.86534396428E+02  0.46999998093E+01 0.  1.
       -5    1    3    3    0  502 -0.36359987658E+02 -0.70245579761E+02  0.25678267875E+04  0.25690490440E+04  0.46999998093E+01 0. -1.
</event>
<event>
 5   0  0.1786500E-02  0.7845955E+03  0.7818609E-02  0.9582586E-01
       -3   -1    0    0    0  501  0.00000000000E+00  0.00000000000E+00  0.28464270043E+03  0.28464271835E+03  0.10100000352E+00 0. -1.
        3   -1    0    0  501    0  0.00000000000E+00  0.00000000000E+00 -0.54066916374E+03  0.54066917317E+03  0.10100000352E+00 0.  1.
    10030    2    1    2    0    0  0.00000000000E+00  0.00000000000E+00 -0.25602646331E+03  0.82531189153E+03  0.78459554446E+03 0.  0.
        5    1    3    3  502    0  0.21909854553E+03  0.32076689335E+03 -0.18543434667E+03  0.43046899941E+03  0.46999998093E+01 0. -1.
       -5    1    3    3    0  502 -0.21909854553E+03 -0.32076689335E+03 -0.70592116634E+02  0.39484289212E+03  0.46999998093E+01 0.  1.
</event>
<event>
 5   0  0.2606520E-02  0.7774710E+03  0.7818609E-02  0.9593212E-01
       -1   -1    0    0    0  501  0.00000000000E+00  0.00000000000E+00  0.32841135282E+03  0.32841135286E+03  0.50400001928E-02 0.  1.
        1   -1    0    0  501    0  0.00000000000E+00  0.00000000000E+00 -0.46014023845E+03  0.46014023848E+03  0.50400001928E-02 0. -1.
    10030    2    1    2    0    0  0.00000000000E+00  0.00000000000E+00 -0.13172888563E+03  0.78855159133E+03  0.77747097237E+03 0.  0.
        5    1    3    3  502    0  0.62763130571E+02  0.23633415042E+03 -0.37232999666E+03  0.44547138811E+03  0.46999998093E+01 0. -1.
       -5    1    3    3    0  502 -0.62763130571E+02 -0.23633415042E+03  0.24060111103E+03  0.34308020322E+03  0.46999998093E+01 0.  1.
</event>
<event>
 5   0  0.2769394E-02  0.7966334E+03  0.7818609E-02  0.9564903E-01
       -1   -1    0    0    0  501  0.00000000000E+00  0.00000000000E+00  0.44588769884E+03  0.44588769886E+03  0.50400001928E-02 0. -1.
        1   -1    0    0  501    0  0.00000000000E+00  0.00000000000E+00 -0.35582095226E+03  0.35582095230E+03  0.50400001928E-02 0.  1.
    10030    2    1    2    0    0  0.00000000000E+00  0.00000000000E+00  0.90066746576E+02  0.80170865116E+03  0.79663338024E+03 0.  0.
        2    1    3    3  502    0 -0.52975047372E+02  0.50069164787E+02  0.43911838577E+03  0.44512721062E+03  0.25500000920E-02 0. -1.
       -2    1    3    3    0  502  0.52975047372E+02 -0.50069164787E+02 -0.34905163919E+03  0.35658144054E+03  0.25500000920E-02 0.  1.
</event>
<event>
 5   0  0.2606520E-02  0.7888016E+03  0.7818609E-02  0.9576369E-01
       -1   -1    0    0    0  501  0.00000000000E+00  0.00000000000E+00  0.67045791147E+03  0.67045791149E+03  0.50400001928E-02 0.  1.
        1   -1    0    0  501    0  0.00000000000E+00  0.00000000000E+00 -0.23200859928E+03  0.23200859933E+03  0.50400001928E-02 0. -1.
    10030    2    1    2    0    0  0.00000000000E+00  0.00000000000E+00  0.43844931219E+03  0.90246651082E+03  0.78880162512E+03 0.  0.
        5    1    3    3  502    0  0.19218842127E+03  0.29466740458E+03  0.15316178054E+02  0.35216749410E+03  0.46999998093E+01 0. -1.
       -5    1    3    3    0  502 -0.19218842127E+03 -0.29466740458E+03  0.42313313414E+03  0.55029901671E+03  0.46999998093E+01 0.  1.
</event>
<event>
 5   0  0.4377843E-02  0.8026698E+03  0.7818609E-02  0.9556161E-01
       -2   -1    0    0    0  501  0.00000000000E+00  0.00000000000E+00  0.91743179667E+03  0.91743179668E+03  0.25500000920E-02 0. -1.
        2   -1    0    0  501    0  0.00000000000E+00  0.00000000000E+00 -0.17556586267E+03  0.17556586269E+03  0.25500000920E-02 0.  1.
    10030    2    1    2    0    0  0.00000000000E+00  0.00000000000E+00  0.74186593400E+03  0.10929976594E+04  0.80266980718E+03 0.  0.
        2    1    3    3  502    0  0.33771877677E+02  0.24437913014E+03  0.80198878851E+03  0.83907551262E+03  0.25500000920E-02 0. -1.
       -2    1    3    3    0  502 -0.33771877677E+02 -0.24437913014E+03 -0.60122854508E+02  0.25392214675E+03  0.25500000920E-02 0.  1.
</event>
<event>
 5   0  0.4684283E-02  0.7846490E+03  0.7818609E-02  0.9582507E-01
       -2   -1    0    0    0  501  0.00000000000E+00  0.00000000000E+00  0.62484231918E+02  0.62484231970E+02  0.25500000920E-02 0. -1.
        2   -1    0    0  501    0  0.00000000000E+00  0.00000000000E+00 -0.24633174934E+04  0.24633174934E+04  0.25500000920E-02 0.  1.
    10030    2    1    2    0    0  0.00000000000E+00  0.00000000000E+00 -0.24008332615E+04  0.25258017253E+04  0.78464897020E+03 0.  0.
        1    1    3    3  502    0  0.20168275990E+03  0.33494239813E+03 -0.10958031007E+04  0.11634632702E+04  0.50400001928E-02 0. -1.
       -1    1    3    3    0  502 -0.20168275990E+03 -0.33494239813E+03 -0.13050301608E+04  0.13623384551E+04  0.50400001928E-02 0.  1.
</event>
<event>
 5   0  0.4684283E-02  0.7945486E+03  0.7818609E-02  0.9567942E-01
       -2   -1    0    0    0  501  0.00000000000E+00  0.00000000000E+00  0.16346471179E+03  0.16346471181E+03  0.25500000920E-02 0.  1.
        2   -1    0    0  501    0  0.00000000000E+00  0.00000000000E+00 -0.96551026180E+03  0.96551026180E+03  0.25500000920E-02 0. -1.
    10030    2    1    2    0    0  0.00000000000E+00  0.00000000000E+00 -0.80204555001E+03  0.11289749736E+04  0.79454856791E+03 0.  0.
        1    1    3    3  502    0 -0.15889251253E+03 -0.85593876458E+02  0.10185121415E+03  0.20723612638E+03  0.50400001928E-02 0.  1.
       -1    1    3    3    0  502  0.15889251253E+03  0.85593876458E+02 -0.90389676416E+03  0.92173884724E+03  0.50400001928E-02 0. -1.
</event>
<event>
 5   0  0.4590462E-02  0.7926153E+03  0.7818609E-02  0.9570768E-01
       -2   -1    0    0    0  501  0.00000000000E+00  0.00000000000E+00  0.25915316364E+03  0.25915316365E+03  0.25500000920E-02 0. -1.
        2   -1    0    0  501    0  0.00000000000E+00  0.00000000000E+00 -0.60604990240E+03  0.60604990240E+03  0.25500000920E-02 0.  1.
    10030    2    1    2    0    0  0.00000000000E+00  0.00000000000E+00 -0.34689673876E+03  0.86520306606E+03  0.79261529014E+03 0.  0.
        3    1    3    3  502    0  0.39306714876E+03 -0.49737262051E+02 -0.16343430923E+03  0.42858647004E+03  0.10100000352E+00 0.  1.
       -3    1    3    3    0  502 -0.39306714876E+03  0.49737262051E+02 -0.18346242952E+03  0.43661659601E+03  0.10100000352E+00 0. -1.
</event>
<event>
 5   0  0.2689372E-02  0.7632263E+03  0.7818609E-02  0.9614826E-01
        1   -1    0    0  501    0  0.00000000000E+00  0.00000000000E+00  0.81295636159E+03  0.81295636161E+03  0.50400001928E-02 0.  1.
       -1   -1    0    0    0  501  0.00000000000E+00  0.00000000000E+00 -0.17913458703E+03  0.17913458710E+03  0.50400001928E-02 0. -1.
    10030    2    1    2    0    0  0.00000000000E+00  0.00000000000E+00  0.63382177456E+03  0.99209094871E+03  0.76322631546E+03 0.  0.
        4    1    3    3  502    0 -0.26080215093E+03 -0.10321844403E+02 -0.44962404251E+02  0.26485379571E+03  0.12699999809E+01 0. -1.
       -4    1    3    3    0  502  0.26080215093E+03  0.10321844403E+02  0.67878417881E+03  0.72723715301E+03  0.12699999809E+01 0.  1.
</event>
<event>
 5   0  0.4590462E-02  0.8025246E+03  0.7818609E-02  0.9556370E-01
       -2   -1    0    0    0  501  0.00000000000E+00  0.00000000000E+00  0.91631018033E+02  0.91631018068E+02  0.25500000920E-02 0.  1.
        2   -1    0    0  501    0  0.00000000000E+00  0.00000000000E+00 -0.17571717312E+04  0.17571717312E+04  0.25500000920E-02 0. -1.
    10030    2    1    2    0    0  0.00000000000E+00  0.00000000000E+00 -0.16655407131E+04  0.18488027492E+04  0.80252460304E+03 0.  0.
        3    1    3    3  502    0  0.32439920423E+03 -0.10642007985E+02 -0.28924875593E+03  0.43475619495E+03  0.10100000352E+00 0.  1.
       -3    1    3    3    0  502 -0.32439920423E+03  0.10642007985E+02 -0.13762919572E+04  0.14140465543E+04  0.10100000352E+00 0. -1.
</event>
<event>
 5   0  0.2769394E-02  0.8284687E+03  0.7818609E-02  0.9519700E-01
       -1   -1    0    0    0  501  0.00000000000E+00  0.00000000000E+00  0.42968589366E+03  0.42968589369E+03  0.50400001928E-02 0. -1.
        1   -1    0    0  501    0  0.00000000000E+00  0.00000000000E+00 -0.39933847128E+03  0.39933847132E+03  0.50400001928E-02 0.  1.
    10030    2    1    2    0    0  0.00000000000E+00  0.00000000000E+00  0.30347422379E+02  0.82902436501E+03  0.82846872707E+03 0.  0.
        2    1    3    3  502    0 -0.94723576582E+02 -0.24189477691E+03  0.33804234918E+03  0.42633117281E+03  0.25500000920E-02 0. -1.
       -2    1    3    3    0  502  0.94723576582E+02  0.24189477691E+03 -0.30769492680E+03  0.40269319220E+03  0.25500000920E-02 0.  1.
</event>
<event>
 5   0  0.1786500E-02  0.7287134E+03  0.7818609E-02  0.9669350E-01
        4   -1    0    0  501    0  0.00000000000E+00  0.00000000000E+00  0.17520760927E+03  0.17521221203E+03  0.12699999809E+01 0. -1.
       -4   -1    0    0    0  501  0.00000000000E+00  0.00000000000E+00 -0.75769064653E+03  0.75769171088E+03  0.12699999809E+01 0.  1.
    10030    2    1    2    0    0  0.00000000000E+00  0.00000000000E+00 -0.58248303726E+03  0.93290392291E+03  0.72871341464E+03 0.  0.
        2    1    3    3  502    0 -0.13064919529E+03 -0.32591549733E+03 -0.16668793887E+03  0.38868366650E+03  0.25500000920E-02 0. -1.
       -2    1    3    3    0  502  0.13064919529E+03  0.32591549733E+03 -0.41579509840E+03  0.54422025641E+03  0.25500000920E-02 0.  1.
</event>
<event>
 5   0  0.4590462E-02  0.7953388E+03  0.7818609E-02  0.9566789E-01
       -2   -1    0    0    0  501  0.00000000000E+00  0.00000000000E+00  0.54807305638E+03  0.54807305639E+03  0.25500000920E-02 0. -1.
        2   -1    0    0  501    0  0.00000000000E+00  0.00000000000E+00 -0.28853990883E+03  0.28853990885E+03  0.25500000920E-02 0.  1.
    10030    2    1    2    0    0  0.00000000000E+00  0.00000000000E+00  0.25953314755E+03  0.83661296523E+03  0.79533879506E+03 0.  0.
        3    1    3    3  502    0 -0.29146624924E+03  0.36522722305E+02 -0.15220107056E+03  0.33083479226E+03  0.10100000352E+00 0.  1.
       -3    1    3    3    0  502  0.29146624924E+03 -0.36522722305E+02  0.41173421810E+03  0.50577817297E+03  0.10100000352E+00 0. -1.
</event>
<event>
 5   0  0.2769394E-02  0.8147667E+03  0.7818609E-02  0.9538886E-01
        1   -1    0    0  501    0  0.00000000000E+00  0.00000000000E+00  0.78794829801E+03  0.78794829803E+03  0.50400001928E-02 0.  1.
       -1   -1    0    0    0  501  0.00000000000E+00  0.00000000000E+00 -0.21062445678E+03  0.21062445684E+03  0.50400001928E-02 0. -1.
    10030    2    1    2    0    0  0.00000000000E+00  0.00000000000E+00  0.57732384123E+03  0.99857275487E+03  0.81476667158E+03 0.  0.
        2    1    3    3  502    0  0.56338105786E+02  0.22465112516E+03  0.69940779532E+03  0.73675869480E+03  0.25500000920E-02 0.  1.
       -2    1    3    3    0  502 -0.56338105786E+02 -0.22465112516E+03 -0.12208395409E+03  0.26181406007E+03  0.25500000920E-02 0. -1.
</event>
<event>
 5   0  0.2769394E-02  0.8124766E+03  0.7818609E-02  0.9542131E-01
        1   -1    0    0  501    0  0.00000000000E+00  0.00000000000E+00  0.51968171494E+03  0.51968171496E+03  0.50400001928E-02 0.  1.
       -1   -1    0    0    0  501  0.00000000000E+00  0.00000000000E+00 -0.31755891885E+03  0.31755891889E+03  0.50400001928E-02 0. -1.
    10030    2    1    2    0    0  0.00000000000E+00  0.00000000000E+00  0.20212279609E+03  0.83724063385E+03  0.81247661768E+03 0.  0.
        2    1    3    3  502    0 -0.32788241566E+03 -0.58160653332E+02  0.34083349773E+03  0.47650499817E+03  0.25500000920E-02 0.  1.
       -2    1    3    3    0  502  0.32788241566E+03  0.58160653332E+02 -0.13871070165E+03  0.36073563568E+03  0.25500000920E-02 0. -1.
</event>
<event>
 5   0  0.1786500E-02  0.7505956E+03  0.7818609E-02  0.9634416E-01
        3   -1    0    0  501    0  0.00000000000E+00  0.00000000000E+00  0.55045486054E+03  0.55045486981E+03  0.10100000352E+00 0. -1.
       -3   -1    0    0    0  501  0.00000000000E+00  0.00000000000E+00 -0.25587646114E+03  0.25587648108E+03  0.10100000352E+00 0.  1.
    10030    2    1    2    0    0  0.00000000000E+00  0.00000000000E+00  0.29457839940E+03  0.80633135089E+03  0.75059563949E+03 0.  0.
        5    1    3    3  502    0 -0.23812063580E+03 -0.26867812739E+03  0.26465861119E+03  0.44604444152E+03  0.46999998093E+01 0. -1.
       -5    1    3    3    0  502  0.23812063580E+03  0.26867812739E+03  0.29919788207E+02  0.36028690936E+03  0.46999998093E+01 0.  1.
</event>
<event>
 5   0  0.2606520E-02  0.5434455E+03  0.7818609E-02  0.1003023E+00
       -1   -1    0    0    0  501  0.00000000000E+00  0.00000000000E+00  0.17379845001E+03  0.17379845008E+03  0.50400001928E-02 0.  1.
        1   -1    0    0  501    0  0.00000000000E+00  0.00000000000E+00 -0.42482111035E+03  0.42482111037E+03  0.50400001928E-02 0. -1.
    10030    2    1    2    0    0  0.00000000000E+00  0.00000000000E+00 -0.25102266033E+03  0.59861956046E+03  0.54344549144E+03 0.  0.
        5    1    3    3  502    0 -0.10990808085E+03 -0.14829258172E+03  0.94078683271E+02  0.20722780865E+03  0.46999998093E+01 0.  1.
       -5    1    3    3    0  502  0.10990808085E+03  0.14829258172E+03 -0.34510134361E+03  0.39139175181E+03  0.46999998093E+01 0. -1.
</event>
<event>
 5   0  0.4377843E-02  0.8014940E+03  0.7818609E-02  0.9557857E-01
        2   -1    0    0  501    0  0.00000000000E+00  0.00000000000E+00  0.14321301695E+04  0.14321301695E+04  0.25500000920E-02 0.  1.
       -2   -1    0    0    0  501  0.00000000000E+00  0.00000000000E+00 -0.11213934693E+03  0.11213934696E+03  0.25500000920E-02 0. -1.
    10030    2    1    2    0    0  0.00000000000E+00  0.00000000000E+00  0.13199908225E+04  0.15442695164E+04  0.80149395992E+03 0.  0.
        2    1    3    3  502    0 -0.23813649126E+02  0.39463118935E+03  0.53369071718E+03  0.66417365734E+03  0.25500000920E-02 0. -1.
       -2    1    3    3    0  502  0.23813649126E+02 -0.39463118935E+03  0.78630010536E+03  0.88009585909E+03  0.25500000920E-02 0.  1.
</event>
<event>
 5   0  0.4377843E-02  0.7901696E+03  0.7818609E-02  0.9574356E-01
       -2   -1    0    0    0  501  0.00000000000E+00  0.00000000000E+00  0.17684829151E+03  0.17684829152E+03  0.25500000920E-02 0.  1.
        2   -1    0    0  501    0  0.00000000000E+00  0.00000000000E+00 -0.88263214759E+03  0.88263214760E+03  0.25500000920E-02 0. -1.
    10030    2    1    2    0    0  0.00000000000E+00  0.00000000000E+00 -0.70578385609E+03  0.10594804391E+04  0.79016957001E+03 0.  0.
        2    1    3    3  502    0  0.15217379148E+02 -0.34790083672E+03 -0.60311126227E+03  0.69642641786E+03  0.25500000920E-02 0.  1.
       -2    1    3    3    0  502 -0.15217379148E+02  0.34790083672E+03 -0.10267259382E+03  0.36305402125E+03  0.25500000920E-02 0. -1.
</event>
<event>
 5   0  0.2759559E-02  0.8058698E+03  0.7818609E-02  0.9551559E-01
        1   -1    0    0  501    0  0.00000000000E+00  0.00000000000E+00  0.23285957378E+03  0.23285957383E+03  0.50400001928E-02 0.  1.
       -1   -1    0    0    0  501  0.00000000000E+00  0.00000000000E+00 -0.69722943137E+03  0.69722943138E+03  0.50400001928E-02 0. -1.
    10030    2    1    2    0    0  0.00000000000E+00  0.00000000000E+00 -0.46436985759E+03  0.93008900522E+03  0.80586983626E+03 0.  0.
        3    1    3    3  502    0  0.60893947940E+01 -0.12664212065E+03 -0.67360686635E+03  0.68543528363E+03  0.10100000352E+00 0. -1.
       -3    1    3    3    0  502 -0.60893947940E+01  0.12664212065E+03  0.20923700876E+03  0.24465372159E+03  0.10100000352E+00 0.  1.
</event>
<event>
 5   0  0.4700220E-02  0.8208460E+03  0.7818609E-02  0.9530324E-01
        2   -1    0    0  501    0  0.00000000000E+00  0.00000000000E+00  0.10995707449E+04  0.10995707449E+04  0.25500000920E-02 0. -1.
       -2   -1    0    0    0  501  0.00000000000E+00  0.00000000000E+00 -0.15319346814E+03  0.15319346816E+03  0.25500000920E-02 0.  1.
    10030    2    1    2    0    0  0.00000000000E+00  0.00000000000E+00  0.94637727674E+03  0.12527642130E+04  0.82084604132E+03 0.  0.
        4    1    3    3  502    0  0.16292090139E+01 -0.40987577609E+03  0.44100683669E+03  0.60207096679E+03  0.12699999809E+01 0.  1.
       -4    1    3    3    0  502 -0.16292090139E+01  0.40987577609E+03  0.50537044005E+03  0.65069324626E+03  0.12699999809E+01 0. -1.
</event>
<event>
 5   0  0.2635243E-02  0.7312830E+03  0.7818609E-02  0.9665181E-01
        1   -1    0    0  501    0  0.00000000000E+00  0.00000000000E+00  0.77759379448E+03  0.77759379449E+03  0.50400001928E-02 0.  1.
       -1   -1    0    0    0  501  0.00000000000E+00  0.00000000000E+00 -0.17193257714E+03  0.17193257721E+03  0.50400001928E-02 0. -1.
    10030    2    1    2    0    0  0.00000000000E+00  0.00000000000E+00  0.60566121734E+03  0.94952637170E+03  0.73128299609E+03 0.  0.
        1    1    3    3  502    0 -0.17223180069E+03 -0.21754633437E+02  0.72067112329E+03  0.74128531971E+03  0.50400001928E-02 0.  1.
       -1    1    3    3    0  502  0.17223180069E+03  0.21754633437E+02 -0.11500990595E+03  0.20824105200E+03  0.50400001928E-02 0. -1.
</event>
<event>
 5   0  0.4377843E-02  0.7813442E+03  0.7818609E-02  0.9587420E-01
       -2   -1    0    0    0  501  0.00000000000E+00  0.00000000000E+00  0.13234364404E+03  0.13234364406E+03  0.25500000920E-02 0.  1.
        2   -1    0    0  501    0  0.00000000000E+00  0.00000000000E+00 -0.11532452995E+04  0.11532452995E+04  0.25500000920E-02 0. -1.
    10030    2    1    2    0    0  0.00000000000E+00  0.00000000000E+00 -0.10209016554E+04  0.12855889435E+04  0.78134418899E+03 0.  0.
        2    1    3    3  502    0 -0.34601358946E+03 -0.11608656433E+03 -0.73975926331E+03  0.82489106078E+03  0.25500000920E-02 0. -1.
       -2    1    3    3    0  502  0.34601358946E+03  0.11608656433E+03 -0.28114239213E+03  0.46069788275E+03  0.25500000920E-02 0.  1.
</event>
<event>
 5   0  0.2759559E-02  0.7437957E+03  0.7818609E-02  0.9645134E-01
       -1   -1    0    0    0  501  0.00000000000E+00  0.00000000000E+00  0.27449138881E+03  0.27449138886E+03  0.50400001928E-02 0. -1.
        1   -1    0    0  501    0  0.00000000000E+00  0.00000000000E+00 -0.50387016592E+03  0.50387016594E+03  0.50400001928E-02 0.  1.
    10030    2    1    2    0    0  0.00000000000E+00  0.00000000000E+00 -0.22937877711E+03  0.77836155480E+03  0.74379572908E+03 0.  0.
        3    1    3    3  502    0 -0.25078014164E+03  0.10472264458E+03 -0.38035836415E+03  0.46747193189E+03  0.10100000352E+00 0.  1.
       -3    1    3    3    0  502  0.25078014164E+03 -0.10472264458E+03  0.15097958704E+03  0.31088962291E+03  0.10100000352E+00 0. -1.
</event>
<event>
 5   0  0.1786500E-02  0.7843803E+03  0.7818609E-02  0.9582905E-01
        3   -1    0    0  501    0  0.00000000000E+00  0.00000000000E+00  0.36111482681E+03  0.36111484094E+03  0.10100000352E+00 0.  1.
       -3   -1    0    0    0  501  0.00000000000E+00  0.00000000000E+00 -0.42593963912E+03  0.42593965110E+03  0.10100000352E+00 0. -1.
    10030    2    1    2    0    0  0.00000000000E+00  0.00000000000E+00 -0.64824812310E+02  0.78705449203E+03  0.78438033959E+03 0.  0.
        5    1    3    3  502    0 -0.29348938911E+03 -0.15770451293E+03  0.17513644795E+03  0.37643273014E+03  0.46999998093E+01 0.  1.
       -5    1    3    3    0  502  0.29348938911E+03  0.15770451293E+03 -0.23996126026E+03  0.41062176190E+03  0.46999998093E+01 0. -1.
</event>
<event>
 5   0  0.4684283E-02  0.7713167E+03  0.7818609E-02  0.9602489E-01
        2   -1    0    0  501    0  0.00000000000E+00  0.00000000000E+00  0.56846591304E+03  0.56846591305E+03  0.25500000920E-02 0. -1.
       -2   -1    0    0    0  501  0.00000000000E+00  0.00000000000E+00 -0.26163816088E+03  0.26163816089E+03  0.25500000920E-02 0.  1.
    10030    2    1    2    0    0  0.00000000000E+00  0.00000000000E+00  0.30682775216E+03  0.83010407394E+03  0.77131673395E+03 0.  0.
        1    1    3    3  502    0 -0.20173987907E+03 -0.26674272633E+03  0.36009715665E+03  0.49144747747E+03  0.50400001928E-02 0. -1.
       -1    1    3    3    0  502  0.20173987907E+03  0.26674272633E+03 -0.53269404489E+02  0.33865659647E+03  0.50400001928E-02 0.  1.
</event>
<event>
 5   0  0.1786500E-02  0.7793498E+03  0.7818609E-02  0.9590398E-01
        4   -1    0    0  501    0  0.00000000000E+00  0.00000000000E+00  0.47763858286E+03  0.47764027126E+03  0.12699999809E+01 0. -1.
       -4   -1    0    0    0  501  0.00000000000E+00  0.00000000000E+00 -0.31790741411E+03  0.31790995085E+03  0.12699999809E+01 0.  1.
    10030    2    1    2    0    0  0.00000000000E+00  0.00000000000E+00  0.15973116874E+03  0.79555022211E+03  0.77934979928E+03 0.  0.
        4    1    3    3  502    0  0.15931595522E+03  0.18791949150E+02 -0.28263631530E+03  0.32499170846E+03  0.12699999809E+01 0.  1.
       -4    1    3    3    0  502 -0.15931595522E+03 -0.18791949150E+02  0.44236748404E+03  0.47055851366E+03  0.12699999809E+01 0. -1.
</event>
<event>
 5   0  0.2635243E-02  0.7930823E+03  0.7818609E-02  0.9570084E-01
       -1   -1    0    0    0  501  0.00000000000E+00  0.00000000000E+00  0.97237341925E+02  0.97237342055E+02  0.50400001928E-02 0. -1.
        1   -1    0    0  501    0  0.00000000000E+00  0.00000000000E+00 -0.16171245172E+04  0.16171245173E+04  0.50400001928E-02 0.  1.
    10030    2    1    2    0    0  0.00000000000E+00  0.00000000000E+00 -0.15198871753E+04  0.17143618593E+04  0.79308231537E+03 0.  0.
        1    1    3    3  502    0 -0.12047980341E+03 -0.25987456567E+03 -0.13527022295E+04  0.13826979043E+04  0.50400001928E-02 0.  1.
       -1    1    3    3    0  502  0.12047980341E+03  0.25987456567E+03 -0.16718494585E+03  0.33166395501E+03  0.50400001928E-02 0. -1.
</event>
<event>
 5   0  0.2689372E-02  0.8314198E+03  0.7818609E-02  0.9515620E-01
       -1   -1    0    0    0  501  0.00000000000E+00  0.00000000000E+00  0.98417340859E+02  0.98417340988E+02  0.50400001928E-02 0. -1.
        1   -1    0    0  501    0  0.00000000000E+00  0.00000000000E+00 -0.17559376996E+04  0.17559376996E+04  0.50400001928E-02 0.  1.
    10030    2    1    2    0    0  0.00000000000E+00  0.00000000000E+00 -0.16575203587E+04  0.18543550406E+04  0.83141979585E+03 0.  0.
        4    1    3    3  502    0 -0.23022271550E+03  0.33063180555E+03 -0.10572289530E+04  0.11313949627E+04  0.12699999809E+01 0.  1.
       -4    1    3    3    0  502  0.23022271550E+03 -0.33063180555E+03 -0.60029140573E+03  0.72296007792E+03  0.12699999809E+01 0. -1.
</event>
<event>
 5   0  0.2689372E-02  0.8036181E+03  0.7818609E-02  0.9554795E-01
        1   -1    0    0  501    0  0.00000000000E+00  0.00000000000E+00  0.68532732335E+03  0.68532732336E+03  0.50400001928E-02 0.  1.
       -1   -1    0    0    0  501  0.00000000000E+00  0.00000000000E+00 -0.23558163364E+03  0.23558163370E+03  0.50400001928E-02 0. -1.
    10030    2    1    2    0    0  0.00000000000E+00  0.00000000000E+00  0.44974568970E+03  0.92090895706E+03  0.80361814426E+03 0.  0.
        4    1    3    3  502    0  0.69748136685E+02 -0.37704358938E+03  0.87252252407E+02  0.39324450322E+03  0.12699999809E+01 0. -1.
       -4    1    3    3    0  502 -0.69748136685E+02  0.37704358938E+03  0.36249343730E+03  0.52766445384E+03  0.12699999809E+01 0.  1.
</event>
<event>
 5   0  0.4377843E-02  0.8126600E+03  0.7818609E-02  0.9541871E-01
       -2   -1    0    0    0  501  0.00000000000E+00  0.00000000000E+00  0.11700436790E+03  0.11700436793E+03  0.25500000920E-02 0.  1.
        2   -1    0    0  501    0  0.00000000000E+00  0.00000000000E+00 -0.14110932238E+04  0.14110932238E+04  0.25500000920E-02 0. -1.
    10030    2    1    2    0    0  0.00000000000E+00  0.00000000000E+00 -0.12940888559E+04  0.15280975917E+04  0.81266000449E+03 0.  0.
        2    1    3    3  502    0  0.17286664439E+03  0.24949203181E+03 -0.13908500759E+03  0.33387690849E+03  0.25500000920E-02 0.  1.
       -2    1    3    3    0  502 -0.17286664439E+03 -0.24949203181E+03 -0.11550038483E+04  0.11942206832E+04  0.25500000920E-02 0. -1.
</event>
<event>
 5   0  0.4377843E-02  0.8070076E+03  0.7818609E-02  0.9549929E-01
        2   -1    0    0  501    0  0.00000000000E+00  0.00000000000E+00  0.67510725142E+03  0.67510725142E+03  0.25500000920E-02 0.  1.
       -2   -1    0    0    0  501  0.00000000000E+00  0.00000000000E+00 -0.24116952807E+03  0.24116952808E+03  0.25500000920E-02 0. -1.
    10030    2    1    2    0    0  0.00000000000E+00  0.00000000000E+00  0.43393772335E+03  0.91627677950E+03  0.80700755195E+03 0.  0.
        2    1    3    3  502    0  0.18385678696E+03 -0.27013001921E+03  0.48575380265E+03  0.58543172291E+03  0.25500000920E-02 0.  1.
       -2    1    3    3    0  502 -0.18385678696E+03  0.27013001921E+03 -0.51816079300E+02  0.33084505659E+03  0.25500000920E-02 0. -1.
</event>
<event>
 5   0  0.4700220E-02  0.8167645E+03  0.7818609E-02  0.9536063E-01
       -2   -1    0    0    0  501  0.00000000000E+00  0.00000000000E+00  0.22982786685E+03  0.22982786686E+03  0.25500000920E-02 0.  1.
        2   -1    0    0  501    0  0.00000000000E+00  0.00000000000E+00 -0.72565637206E+03  0.72565637207E+03  0.25500000920E-02 0. -1.
    10030    2    1    2    0    0  0.00000000000E+00  0.00000000000E+00 -0.49582850521E+03  0.95548423893E+03  0.81676448518E+03 0.  0.
        4    1    3    3  502    0  0.26673272677E+03 -0.30913636976E+03 -0.25718486312E+03  0.48255290834E+03  0.12699999809E+01 0. -1.
       -4    1    3    3    0  502 -0.26673272677E+03  0.30913636976E+03 -0.23864364209E+03  0.47293133058E+03  0.12699999809E+01 0.  1.
</event>
<event>
 5   0  0.4663634E-02  0.7749118E+03  0.7818609E-02  0.9597058E-01
       -2   -1    0    0    0  501  0.00000000000E+00  0.00000000000E+00  0.13621085392E+03  0.13621085394E+03  0.25500000920E-02 0.  1.
        2   -1    0    0  501    0  0.00000000000E+00  0.00000000000E+00 -0.11021301263E+04  0.11021301263E+04  0.25500000920E-02 0. -1.
    10030    2    1    2    0    0  0.00000000000E+00  0.00000000000E+00 -0.96591927241E+03  0.12383409803E+04  0.77491182892E+03 0.  0.
        5    1    3    3  502    0  0.11052973123E+01 -0.95050867018E+02 -0.10831599474E+04  0.10873331829E+04  0.46999998093E+01 0. -1.
       -5    1    3    3    0  502 -0.11052973123E+01  0.95050867018E+02  0.11724067497E+03  0.15100779738E+03  0.46999998093E+01 0.  1.
</event>
<event>
 5   0  0.4377843E-02  0.8021709E+03  0.7818609E-02  0.9556880E-01
        2   -1    0    0  501    0  0.00000000000E+00  0.00000000000E+00  0.14249064022E+04  0.14249064022E+04  0.25500000920E-02 0. -1.
       -2   -1    0    0    0  501  0.00000000000E+00  0.00000000000E+00 -0.11289832603E+03  0.11289832606E+03  0.25500000920E-02 0.  1.
    10030    2    1    2    0    0  0.00000000000E+00  0.00000000000E+00  0.13120080762E+04  0.15378047282E+04  0.80217092338E+03 0.  0.
        2    1    3    3  502    0 -0.34247407368E+02 -0.31077081283E+03  0.11376317380E+04  0.11798124234E+04  0.25500000920E-02 0. -1.
       -2    1    3    3    0  502  0.34247407368E+02  0.31077081283E+03  0.17437633810E+03  0.35799230483E+03  0.25500000920E-02 0.  1.
</event>
<event>
 5   0  0.4684283E-02  0.7983773E+03  0.7818609E-02  0.9562369E-01
       -2   -1    0    0    0  501  0.00000000000E+00  0.00000000000E+00  0.28827182076E+03  0.28827182077E+03  0.25500000920E-02 0.  1.
        2   -1    0    0  501    0  0.00000000000E+00  0.00000000000E+00 -0.55278234058E+03  0.55278234059E+03  0.25500000920E-02 0. -1.
    10030    2    1    2    0    0  0.00000000000E+00  0.00000000000E+00 -0.26451051983E+03  0.84105416136E+03  0.79837728377E+03 0.  0.
        1    1    3    3  502    0  0.13907728251E+03 -0.18037847072E+03  0.21309902534E+03  0.31191357430E+03  0.50400001928E-02 0.  1.
       -1    1    3    3    0  502 -0.13907728251E+03  0.18037847072E+03 -0.47760954516E+03  0.52914058705E+03  0.50400001928E-02 0. -1.
</event>
<event>
 5   0  0.4700220E-02  0.8038993E+03  0.7818609E-02  0.9554390E-01
        2   -1    0    0  501    0  0.00000000000E+00  0.00000000000E+00  0.70595757689E+03  0.70595757689E+03  0.25500000920E-02 0.  1.
       -2   -1    0    0    0  501  0.00000000000E+00  0.00000000000E+00 -0.22885727478E+03  0.22885727479E+03  0.25500000920E-02 0. -1.
    10030    2    1    2    0    0  0.00000000000E+00  0.00000000000E+00  0.47710030211E+03  0.93481485168E+03  0.80389931500E+03 0.  0.
        4    1    3    3  502    0  0.12299079664E+03  0.36818825969E+03  0.11729775669E+03  0.40552399098E+03  0.12699999809E+01 0.  1.
       -4    1    3    3    0  502 -0.12299079664E+03 -0.36818825969E+03  0.35980254543E+03  0.52929086071E+03  0.12699999809E+01 0. -1.
</event>
<event>
 5   0  0.4700220E-02  0.8053457E+03  0.7818609E-02  0.9552311E-01
       -2   -1    0    0    0  501  0.00000000000E+00  0.00000000000E+00  0.35045761692E+03  0.35045761693E+03  0.25500000920E-02 0.  1.
        2   -1    0    0  501    0  0.00000000000E+00  0.00000000000E+00 -0.46266772464E+03  0.46266772464E+03  0.25500000920E-02 0. -1.
    10030    2    1    2    0    0  0.00000000000E+00  0.00000000000E+00 -0.11221010771E+03  0.81312534158E+03  0.80534571014E+03 0.  0.
        4    1    3    3  502    0 -0.17722453255E+03 -0.20963868830E+03 -0.35354701536E+03  0.44760922638E+03  0.12699999809E+01 0. -1.
       -4    1    3    3    0  502  0.17722453255E+03  0.20963868830E+03  0.24133690765E+03  0.36551611519E+03  0.12699999809E+01 0.  1.
</event>
<event>
 5   0  0.4663634E-02  0.7546477E+03  0.7818609E-02  0.9628087E-01
       -2   -1    0    0    0  501  0.00000000000E+00  0.00000000000E+00  0.16818726594E+03  0.16818726596E+03  0.25500000920E-02 0.  1.
        2   -1    0    0  501    0  0.00000000000E+00  0.00000000000E+00 -0.84651645722E+03  0.84651645722E+03  0.25500000920E-02 0. -1.
    10030    2    1    2    0    0  0.00000000000E+00  0.00000000000E+00 -0.67832919128E+03  0.10147037232E+04  0.75464770198E+03 0.  0.
        5    1    3    3  502    0 -0.12214713406E+03  0.23869171604E+03 -0.69607461560E+03  0.74594612282E+03  0.46999998093E+01 0. -1.
       -5    1    3    3    0  502  0.12214713406E+03 -0.23869171604E+03  0.17745424327E+02  0.26875760036E+03  0.46999998093E+01 0.  1.
</event>
<event>
 5   0  0.2689372E-02  0.8306357E+03  0.7818609E-02  0.9516702E-01
        1   -1    0    0  501    0  0.00000000000E+00  0.00000000000E+00  0.15944915731E+04  0.15944915731E+04  0.50400001928E-02 0. -1.
       -1   -1    0    0    0  501  0.00000000000E+00  0.00000000000E+00 -0.10817800202E+03  0.10817800214E+03  0.50400001928E-02 0.  1.
    10030    2    1    2    0    0  0.00000000000E+00  0.00000000000E+00  0.14863135711E+04  0.17026695752E+04  0.83063569082E+03 0.  0.
        4    1    3    3  502    0 -0.44800559560E+02  0.40085886353E+03  0.94600161584E+03  0.10284043897E+04  0.12699999809E+01 0. -1.
       -4    1    3    3    0  502  0.44800559560E+02 -0.40085886353E+03  0.54031195523E+03  0.67426518557E+03  0.12699999809E+01 0.  1.
</event>
<event>
 5   0  0.4663634E-02  0.8085156E+03  0.7818609E-02  0.9547772E-01
       -2   -1    0    0    0  501  0.00000000000E+00  0.00000000000E+00  0.14904467399E+03  0.14904467401E+03  0.25500000920E-02 0.  1.
        2   -1    0    0  501    0  0.00000000000E+00  0.00000000000E+00 -0.10964791503E+04  0.10964791503E+04  0.25500000920E-02 0. -1.
    10030    2    1    2    0    0  0.00000000000E+00  0.00000000000E+00 -0.94743447635E+03  0.12455238244E+04  0.80851562140E+03 0.  0.
        5    1    3    3  502    0  0.12438706681E+03 -0.42769218021E+02  0.11511303161E+03  0.17485550733E+03  0.46999998093E+01 0.  1.
       -5    1    3    3    0  502 -0.12438706681E+03  0.42769218021E+02 -0.10625475080E+04  0.10706683170E+04  0.46999998093E+01 0. -1.
</event>
<event>
 5   0  0.4590462E-02  0.8018677E+03  0.7818609E-02  0.9557318E-01
        2   -1    0    0  501    0  0.00000000000E+00  0.00000000000E+00  0.13889367364E+04  0.13889367364E+04  0.25500000920E-02 0.  1.
       -2   -1    0    0    0  501  0.00000000000E+00  0.00000000000E+00 -0.11573452456E+03  0.11573452459E+03  0.25500000920E-02 0. -1.
    10030    2    1    2    0    0  0.00000000000E+00  0.00000000000E+00  0.12732022119E+04  0.15046712610E+04  0.80186765205E+03 0.  0.
        3    1    3    3  502    0  0.25587543952E+03 -0.27301575340E+03  0.36637754670E+03  0.52368154358E+03  0.10100000352E+00 0. -1.
       -3    1    3    3    0  502 -0.25587543952E+03  0.27301575340E+03  0.90682466516E+03  0.98098971743E+03  0.10100000352E+00 0.  1.
</event>
<event>
 5   0  0.1786500E-02  0.7105684E+03  0.7818609E-02  0.9699328E-01
        4   -1    0    0  501    0  0.00000000000E+00  0.00000000000E+00  0.55703613835E+03  0.55703758610E+03  0.12699999809E+01 0.  1.
       -4   -1    0    0    0  501  0.00000000000E+00  0.00000000000E+00 -0.22660093843E+03  0.22660449731E+03  0.12699999809E+01 0. -1.
    10030    2    1    2    0    0  0.00000000000E+00  0.00000000000E+00  0.33043519992E+03  0.78364208341E+03  0.71056842988E+03 0.  0.
        4    1    3    3  502    0 -0.77325097653E+01  0.34006166303E+03  0.27835147145E+03  0.43952574546E+03  0.12699999809E+01 0.  1.
       -4    1    3    3    0  502  0.77325097653E+01 -0.34006166303E+03  0.52083728466E+02  0.34411633794E+03  0.12699999809E+01 0. -1.
</event>
<event>
 5   0  0.2635243E-02  0.8048722E+03  0.7818609E-02  0.9552991E-01
        1   -1    0    0  501    0  0.00000000000E+00  0.00000000000E+00  0.11994596989E+04  0.11994596989E+04  0.50400001928E-02 0.  1.
       -1   -1    0    0    0  501  0.00000000000E+00  0.00000000000E+00 -0.13502315295E+03  0.13502315304E+03  0.50400001928E-02 0. -1.
    10030    2    1    2    0    0  0.00000000000E+00  0.00000000000E+00  0.10644365459E+04  0.13344828519E+04  0.80487223941E+03 0.  0.
        1    1    3    3  502    0 -0.24470315414E+03  0.30605071640E+03  0.38018577782E+03  0.54597426710E+03  0.50400001928E-02 0. -1.
       -1    1    3    3    0  502  0.24470315414E+03 -0.30605071640E+03  0.68425076810E+03  0.78850858481E+03  0.50400001928E-02 0.  1.
</event>
<event>
 5   0  0.2606520E-02  0.7974962E+03  0.7818609E-02  0.9563648E-01
        1   -1    0    0  501    0  0.00000000000E+00  0.00000000000E+00  0.30399862188E+03  0.30399862193E+03  0.50400001928E-02 0. -1.
       -1   -1    0    0    0  501  0.00000000000E+00  0.00000000000E+00 -0.52302890506E+03  0.52302890509E+03  0.50400001928E-02 0.  1.
    10030    2    1    2    0    0  0.00000000000E+00  0.00000000000E+00 -0.21903028318E+03  0.82702752701E+03  0.79749624795E+03 0.  0.
        5    1    3    3  502    0  0.36455401735E+02 -0.28125025368E+03  0.18112585736E+03  0.33654029137E+03  0.46999998093E+01 0. -1.
       -5    1    3    3    0  502 -0.36455401735E+02  0.28125025368E+03 -0.40015614054E+03  0.49048723564E+03  0.46999998093E+01 0.  1.
</event>
<event>
 5   0  0.2606520E-02  0.7995278E+03  0.7818609E-02  0.9560701E-01
       -1   -1    0    0    0  501  0.00000000000E+00  0.00000000000E+00  0.72792524959E+03  0.72792524961E+03  0.50400001928E-02 0. -1.
        1   -1    0    0  501    0  0.00000000000E+00  0.00000000000E+00 -0.21954337563E+03  0.21954337568E+03  0.50400001928E-02 0.  1.
    10030    2    1    2    0    0  0.00000000000E+00  0.00000000000E+00  0.50838187397E+03  0.94746862530E+03  0.79952777697E+03 0.  0.
        5    1    3    3  502    0  0.53386911626E+02 -0.33764877152E+03  0.49973133795E+03  0.60548357151E+03  0.46999998093E+01 0. -1.
       -5    1    3    3    0  502 -0.53386911626E+02  0.33764877152E+03  0.86505360133E+01  0.34198505378E+03  0.46999998093E+01 0.  1.
</event>
<event>
 5   0  0.1786500E-02  0.8137492E+03  0.7818609E-02  0.9540326E-01
       -3   -1    0    0    0  501  0.00000000000E+00  0.00000000000E+00  0.34031998095E+03  0.34031999594E+03  0.10100000352E+00 0. -1.
        3   -1    0    0  501    0  0.00000000000E+00  0.00000000000E+00 -0.48644489630E+03  0.48644490679E+03  0.10100000352E+00 0.  1.
    10030    2    1    2    0    0  0.00000000000E+00  0.00000000000E+00 -0.14612491535E+03  0.82676490272E+03  0.81374917111E+03 0.  0.
        3    1    3    3  502    0 -0.20898869739E+03 -0.20945915943E+03  0.21068489786E+03  0.36323209039E+03  0.10100000352E+00 0. -1.
       -3    1    3    3    0  502  0.20898869739E+03  0.20945915943E+03 -0.35680981321E+03  0.46353281233E+03  0.10100000352E+00 0.  1.
</event>
<event>
 5   0  0.4684283E-02  0.8121792E+03  0.7818609E-02  0.9542554E-01
       -2   -1    0    0    0  501  0.00000000000E+00  0.00000000000E+00  0.24497438835E+03  0.24497438837E+03  0.25500000920E-02 0.  1.
        2   -1    0    0  501    0  0.00000000000E+00  0.00000000000E+00 -0.67316735703E+03  0.67316735704E+03  0.25500000920E-02 0. -1.
    10030    2    1    2    0    0  0.00000000000E+00  0.00000000000E+00 -0.42819296868E+03  0.91814174541E+03  0.81217919589E+03 0.  0.
        1    1    3    3  502    0  0.34562924742E+03 -0.21731171888E+02  0.25650322013E+02  0.34726036277E+03  0.50400001928E-02 0.  1.
       -1    1    3    3    0  502 -0.34562924742E+03  0.21731171888E+02 -0.45384329069E+03  0.57088138263E+03  0.50400001928E-02 0. -1.
</event>
<event>
 5   0  0.4684283E-02  0.8100219E+03  0.7818609E-02  0.9545623E-01
        2   -1    0    0  501    0  0.00000000000E+00  0.00000000000E+00  0.91985319869E+03  0.91985319869E+03  0.25500000920E-02 0. -1.
       -2   -1    0    0    0  501  0.00000000000E+00  0.00000000000E+00 -0.17832612659E+03  0.17832612661E+03  0.25500000920E-02 0.  1.
    10030    2    1    2    0    0  0.00000000000E+00  0.00000000000E+00  0.74152707210E+03  0.10981793253E+04  0.81002187123E+03 0.  0.
        1    1    3    3  502    0  0.21528307713E+03 -0.19183265965E+03 -0.14818371971E+02  0.28873198088E+03  0.50400001928E-02 0.  1.
       -1    1    3    3    0  502 -0.21528307713E+03  0.19183265965E+03  0.75634544407E+03  0.80944734442E+03  0.50400001928E-02 0. -1.
</event>
<event>
 5   0  0.2689372E-02  0.7980895E+03  0.7818609E-02  0.9562787E-01
       -1   -1    0    0    0  501  0.00000000000E+00  0.00000000000E+00  0.34069184481E+03  0.34069184485E+03  0.50400001928E-02 0.  1.
        1   -1    0    0  501    0  0.00000000000E+00  0.00000000000E+00 -0.46739225132E+03  0.46739225134E+03  0.50400001928E-02 0. -1.
    10030    2    1    2    0    0  0.00000000000E+00  0.00000000000E+00 -0.12670040650E+03  0.80808409620E+03  0.79808953979E+03 0.  0.
        4    1    3    3  502    0  0.18309143835E+03  0.34805706793E+03  0.50900534248E+01  0.39331122394E+03  0.12699999809E+01 0. -1.
       -4    1    3    3    0  502 -0.18309143835E+03 -0.34805706793E+03 -0.13179045993E+03  0.41477287226E+03  0.12699999809E+01 0.  1.
</event>
<event>
 5   0  0.4377843E-02  0.8368571E+03  0.7818609E-02  0.9508149E-01
        2   -1    0    0  501    0  0.00000000000E+00  0.00000000000E+00  0.39237010695E+03  0.39237010695E+03  0.25500000920E-02 0.  1.
       -2   -1    0    0    0  501  0.00000000000E+00  0.00000000000E+00 -0.44621757599E+03  0.44621757599E+03  0.25500000920E-02 0. -1.
    10030    2    1    2    0    0  0.00000000000E+00  0.00000000000E+00 -0.53847469040E+02  0.83858768295E+03  0.83685706789E+03 0.  0.
        2    1    3    3  502    0 -0.18188584439E+03 -0.16335414803E+03 -0.36720719888E+03  0.44114415443E+03  0.25500000920E-02 0. -1.
       -2    1    3    3    0  502  0.18188584439E+03  0.16335414803E+03  0.31335972984E+03  0.39744352852E+03  0.25500000920E-02 0.  1.
</event>
<event>
 5   0  0.1786500E-02  0.8034583E+03  0.7818609E-02  0.9555025E-01
        3   -1    0    0  501    0  0.00000000000E+00  0.00000000000E+00  0.55856268936E+03  0.55856269849E+03  0.10100000352E+00 0.  1.
       -3   -1    0    0    0  501  0.00000000000E+00  0.00000000000E+00 -0.28893136830E+03  0.28893138596E+03  0.10100000352E+00 0. -1.
    10030    2    1    2    0    0  0.00000000000E+00  0.00000000000E+00  0.26963132106E+03  0.84749408445E+03  0.80345825895E+03 0.  0.
        2    1    3    3  502    0 -0.66655357700E+02  0.28436515926E+02  0.55161123824E+03  0.55635108547E+03  0.25500000920E-02 0.  1.
       -2    1    3    3    0  502  0.66655357700E+02 -0.28436515926E+02 -0.28197991718E+03  0.29114299897E+03  0.25500000920E-02 0. -1.
</event>
<event>
 5   0  0.4663634E-02  0.7931918E+03  0.7818609E-02  0.9569924E-01
        2   -1    0    0  501    0  0.00000000000E+00  0.00000000000E+00  0.12599614277E+04  0.12599614277E+04  0.25500000920E-02 0.  1.
       -2   -1    0    0    0  501  0.00000000000E+00  0.00000000000E+00 -0.12483581946E+03  0.12483581949E+03  0.25500000920E-02 0. -1.
    10030    2    1    2    0    0  0.00000000000E+00  0.00000000000E+00  0.11351256083E+04  0.13847972472E+04  0.79319182381E+03 0.  0.
        5    1    3    3  502    0  0.90730628659E+02 -0.33415495410E+03  0.23004513552E+03  0.41573361026E+03  0.46999998093E+01 0. -1.
       -5    1    3    3    0  502 -0.90730628659E+02  0.33415495410E+03  0.90508047276E+03  0.96906363696E+03  0.46999998093E+01 0.  1.
</event>
<event>
 5   0  0.4663634E-02  0.7702925E+03  0.7818609E-02  0.9604042E-01
        2   -1    0    0  501    0  0.00000000000E+00  0.00000000000E+00  0.10188659998E+04  0.10188659998E+04  0.25500000920E-02 0. -1.
       -2   -1    0    0    0  501  0.00000000000E+00  0.00000000000E+00 -0.14559091272E+03  0.14559091275E+03  0.25500000920E-02 0.  1.
    10030    2    1    2    0    0  0.00000000000E+00  0.00000000000E+00  0.87327508708E+03  0.11644569126E+04  0.77029249216E+03 0.  0.
        5    1    3    3  502    0  0.18006271795E+03  0.29530200918E+03  0.18058409784E+03  0.39020323604E+03  0.46999998093E+01 0.  1.
       -5    1    3    3    0  502 -0.18006271795E+03 -0.29530200918E+03  0.69269098924E+03  0.77425367651E+03  0.46999998093E+01 0. -1.
</event>
<event>
 5   0  0.2635243E-02  0.8067502E+03  0.7818609E-02  0.9550298E-01
       -1   -1    0    0    0  501  0.00000000000E+00  0.00000000000E+00  0.52863027914E+03  0.52863027916E+03  0.50400001928E-02 0. -1.
        1   -1    0    0  501    0  0.00000000000E+00  0.00000000000E+00 -0.30779825920E+03  0.30779825924E+03  0.50400001928E-02 0.  1.
    10030    2    1    2    0    0  0.00000000000E+00  0.00000000000E+00  0.22083201993E+03  0.83642853840E+03  0.80675022084E+03 0.  0.
        1    1    3    3  502    0  0.25743043280E+03  0.15700633945E+03  0.38820940241E+03  0.49155666865E+03  0.50400001928E-02 0. -1.
       -1    1    3    3    0  502 -0.25743043280E+03 -0.15700633945E+03 -0.16737738248E+03  0.34487186975E+03  0.50400001928E-02 0.  1.
</event>
<event>
 5   0  0.2689372E-02  0.7989123E+03  0.7818609E-02  0.9561593E-01
       -1   -1    0    0    0  501  0.00000000000E+00  0.00000000000E+00  0.27010714309E+03  0.27010714313E+03  0.50400001928E-02 0.  1.
        1   -1    0    0  501    0  0.00000000000E+00  0.00000000000E+00 -0.59074787964E+03  0.59074787966E+03  0.50400001928E-02 0. -1.
    10030    2    1    2    0    0  0.00000000000E+00  0.00000000000E+00 -0.32064073655E+03  0.86085502280E+03  0.79891231580E+03 0.  0.
        4    1    3    3  502    0 -0.20552329345E+03 -0.18928163433E+03  0.14728910695E+03  0.31585290116E+03  0.12699999809E+01 0.  1.
       -4    1    3    3    0  502  0.20552329345E+03  0.18928163433E+03 -0.46792984350E+03  0.54500212164E+03  0.12699999809E+01 0. -1.
</event>
<event>
 5   0  0.4590462E-02  0.7921440E+03  0.7818609E-02  0.9571458E-01
       -2   -1    0    0    0  501  0.00000000000E+00  0.00000000000E+00  0.18780431999E+03  0.18780432000E+03  0.25500000920E-02 0.  1.
        2   -1    0    0  501    0  0.00000000000E+00  0.00000000000E+00 -0.83530038779E+03  0.83530038779E+03  0.25500000920E-02 0. -1.
    10030    2    1    2    0    0  0.00000000000E+00  0.00000000000E+00 -0.64749606780E+03  0.10231047078E+04  0.79214398015E+03 0.  0.
        3    1    3    3  502    0  0.17763031396E+03  0.21701134260E+02  0.13261392558E+03  0.22273286943E+03  0.10100000352E+00 0.  1.
       -3    1    3    3    0  502 -0.17763031396E+03 -0.21701134260E+02 -0.78010999338E+03  0.80037183836E+03  0.10100000352E+00 0. -1.
</event>
<event>
 5   0  0.4684283E-02  0.8040312E+03  0.7818609E-02  0.9554200E-01
       -2   -1    0    0    0  501  0.00000000000E+00  0.00000000000E+00  0.15342954364E+03  0.15342954366E+03  0.25500000920E-02 0. -1.
        2   -1    0    0  501    0  0.00000000000E+00  0.00000000000E+00 -0.10533600376E+04  0.10533600376E+04  0.25500000920E-02 0.  1.
    10030    2    1    2    0    0  0.00000000000E+00  0.00000000000E+00 -0.89993049393E+03  0.12067895812E+04  0.80403121797E+03 0.  0.
        1    1    3    3  502    0 -0.16430598808E+02 -0.11308692581E+03  0.12853901654E+03  0.17199097698E+03  0.50400001928E-02 0. -1.
       -1    1    3    3    0  502  0.16430598808E+02  0.11308692581E+03 -0.10284695105E+04  0.10347986042E+04  0.50400001928E-02 0.  1.
</event>
<event>
 5   0  0.4663634E-02  0.7487282E+03  0.7818609E-02  0.9637348E-01
       -2   -1    0    0    0  501  0.00000000000E+00  0.00000000000E+00  0.75881235349E+02  0.75881235392E+02  0.25500000920E-02 0.  1.
        2   -1    0    0  501    0  0.00000000000E+00  0.00000000000E+00 -0.18469449408E+04  0.18469449408E+04  0.25500000920E-02 0. -1.
    10030    2    1    2    0    0  0.00000000000E+00  0.00000000000E+00 -0.17710637054E+04  0.19228261762E+04  0.74872815834E+03 0.  0.
        5    1    3    3  502    0 -0.20992064212E+03  0.28069053298E+03 -0.12230473686E+04  0.12722895925E+04  0.46999998093E+01 0. -1.
       -5    1    3    3    0  502  0.20992064212E+03 -0.28069053298E+03 -0.54801633681E+03  0.65053658368E+03  0.46999998093E+01 0.  1.
</event>
<event>
 5   0  0.1786500E-02  0.7988530E+03  0.7818609E-02  0.9561679E-01
        4   -1    0    0  501    0  0.00000000000E+00  0.00000000000E+00  0.51638395791E+03  0.51638551963E+03  0.12699999809E+01 0.  1.
       -4   -1    0    0    0  501  0.00000000000E+00  0.00000000000E+00 -0.30895578806E+03  0.30895839830E+03  0.12699999809E+01 0. -1.
    10030    2    1    2    0    0  0.00000000000E+00  0.00000000000E+00  0.20742816985E+03  0.82534391793E+03  0.79885301352E+03 0.  0.
        1    1    3    3  502    0 -0.34855798808E+03 -0.13476043440E+03 -0.41989073864E+02  0.37605335802E+03  0.50400001928E-02 0. -1.
       -1    1    3    3    0  502  0.34855798808E+03  0.13476043440E+03  0.24941724371E+03  0.44929055990E+03  0.50400001928E-02 0.  1.
</event>
<event>
 5   0  0.4590462E-02  0.8031133E+03  0.7818609E-02  0.9555522E-01
       -2   -1    0    0    0  501  0.00000000000E+00  0.00000000000E+00  0.21876948627E+03  0.21876948629E+03  0.25500000920E-02 0.  1.
        2   -1    0    0  501    0  0.00000000000E+00  0.00000000000E+00 -0.73706695051E+03  0.73706695051E+03  0.25500000920E-02 0. -1.
    10030    2    1    2    0    0  0.00000000000E+00  0.00000000000E+00 -0.51829746424E+03  0.95583643680E+03  0.80311333726E+03 0.  0.
        3    1    3    3  502    0  0.39179315578E+02 -0.13852461781E+03 -0.70529931950E+03  0.71984111358E+03  0.10100000352E+00 0. -1.
       -3    1    3    3    0  502 -0.39179315578E+02  0.13852461781E+03  0.18700185527E+03  0.23599532322E+03  0.10100000352E+00 0.  1.
</event>
<event>
 5   0  0.4700220E-02  0.8310979E+03  0.7818609E-02  0.9516064E-01
       -2   -1    0    0    0  501  0.00000000000E+00  0.00000000000E+00  0.32135787439E+03  0.32135787440E+03  0.25500000920E-02 0. -1.
        2   -1    0    0  501    0  0.00000000000E+00  0.00000000000E+00 -0.53734780279E+03  0.53734780280E+03  0.25500000920E-02 0.  1.
    10030    2    1    2    0    0  0.00000000000E+00  0.00000000000E+00 -0.21598992840E+03  0.85870567719E+03  0.83109794301E+03 0.  0.
        4    1    3    3  502    0 -0.37552712277E+03  0.45493791266E+02 -0.28572363367E+03  0.47405686654E+03  0.12699999809E+01 0. -1.
       -4    1    3    3    0  502  0.37552712277E+03 -0.45493791266E+02  0.69733705263E+02  0.38464881065E+03  0.12699999809E+01 0.  1.
</event>
<event>
 5   0  0.2606520E-02  0.7724241E+03  0.7818609E-02  0.9600813E-01
        1   -1    0    0  501    0  0.00000000000E+00  0.00000000000E+00  0.30786322135E+03  0.30786322139E+03  0.50400001928E-02 0.  1.
       -1   -1    0    0    0  501  0.00000000000E+00  0.00000000000E+00 -0.48450003990E+03  0.48450003993E+03  0.50400001928E-02 0. -1.
    10030    2    1    2    0    0  0.00000000000E+00  0.00000000000E+00 -0.17663681855E+03  0.79236326132E+03  0.77242408833E+03 0.  0.
        5    1    3    3  502    0  0.18168465422E+02 -0.35772545964E+03 -0.23640575770E+03  0.42919386049E+03  0.46999998093E+01 0. -1.
       -5    1    3    3    0  502 -0.18168465422E+02  0.35772545964E+03  0.59768939152E+02  0.36316940083E+03  0.46999998093E+01 0.  1.
</event>
<event>
 5   0  0.4590462E-02  0.7809094E+03  0.7818609E-02  0.9588069E-01
        2   -1    0    0  501    0  0.00000000000E+00  0.00000000000E+00  0.12181124830E+03  0.12181124832E+03  0.25500000920E-02 0. -1.
       -2   -1    0    0    0  501  0.00000000000E+00  0.00000000000E+00 -0.12515664172E+04  0.12515664172E+04  0.25500000920E-02 0.  1.
    10030    2    1    2    0    0  0.00000000000E+00  0.00000000000E+00 -0.11297551689E+04  0.13733776655E+04  0.78090938688E+03 0.  0.
        3    1    3    3  502    0  0.28490358365E+03  0.16251610239E+03 -0.19232854531E+03  0.38022600523E+03  0.10100000352E+00 0.  1.
       -3    1    3    3    0  502 -0.28490358365E+03 -0.16251610239E+03 -0.93742662361E+03  0.99315166031E+03  0.10100000352E+00 0. -1.
</event>
<event>
 5   0  0.4700220E-02  0.8137666E+03  0.7818609E-02  0.9540302E-01
       -2   -1    0    0    0  501  0.00000000000E+00  0.00000000000E+00  0.13837847774E+03  0.13837847777E+03  0.25500000920E-02 0.  1.
        2   -1    0    0  501    0  0.00000000000E+00  0.00000000000E+00 -0.11963856120E+04  0.11963856120E+04  0.25500000920E-02 0. -1.
    10030    2    1    2    0    0  0.00000000000E+00  0.00000000000E+00 -0.10580071342E+04  0.13347640897E+04  0.81376659994E+03 0.  0.
        4    1    3    3  502    0  0.11440772481E+03 -0.83557407418E+02  0.96613297413E+02  0.17148384754E+03  0.12699999809E+01 0.  1.
       -4    1    3    3    0  502 -0.11440772481E+03  0.83557407418E+02 -0.11546204316E+04  0.11632802422E+04  0.12699999809E+01 0. -1.
</event>
<event>
 5   0  0.4684283E-02  0.6946164E+03  0.7818609E-02  0.9726483E-01
       -2   -1    0    0    0  501  0.00000000000E+00  0.00000000000E+00  0.70179944494E+02  0.70179944540E+02  0.25500000920E-02 0. -1.
        2   -1    0    0  501    0  0.00000000000E+00  0.00000000000E+00 -0.17187672236E+04  0.17187672236E+04  0.25500000920E-02 0.  1.
    10030    2    1    2    0    0  0.00000000000E+00  0.00000000000E+00 -0.16485872791E+04  0.17889471682E+04  0.69461640751E+03 0.  0.
        1    1    3    3  502    0  0.87092496442E+02 -0.32168701493E+03 -0.10760472884E+04  0.11264747691E+04  0.50400001928E-02 0.  1.
       -1    1    3    3    0  502 -0.87092496442E+02  0.32168701493E+03 -0.57253999069E+03  0.66247239903E+03  0.50400001928E-02 0. -1.
</event>
<event>
 5   0  0.2689372E-02  0.6794155E+03  0.7818609E-02  0.9753097E-01
        1   -1    0    0  501    0  0.00000000000E+00  0.00000000000E+00  0.13987747199E+03  0.13987747209E+03  0.50400001928E-02 0.  1.
       -1   -1    0    0    0  501  0.00000000000E+00  0.00000000000E+00 -0.82501744474E+03  0.82501744475E+03  0.50400001928E-02 0. -1.
    10030    2    1    2    0    0  0.00000000000E+00  0.00000000000E+00 -0.68513997274E+03  0.96489491684E+03  0.67941549753E+03 0.  0.
        4    1    3    3  502    0  0.79503534785E+02  0.22552372679E+03 -0.68523765469E+03  0.72576443816E+03  0.12699999809E+01 0. -1.
       -4    1    3    3    0  502 -0.79503534785E+02 -0.22552372679E+03  0.97681951816E-01  0.23913047868E+03  0.12699999809E+01 0.  1.
</event>
<event>
 5   0  0.4590462E-02  0.7805121E+03  0.7818609E-02  0.9588661E-01
        2   -1    0    0  501    0  0.00000000000E+00  0.00000000000E+00  0.85593543088E+03  0.85593543088E+03  0.25500000920E-02 0.  1.
       -2   -1    0    0    0  501  0.00000000000E+00  0.00000000000E+00 -0.17793373031E+03  0.17793373033E+03  0.25500000920E-02 0. -1.
    10030    2    1    2    0    0  0.00000000000E+00  0.00000000000E+00  0.67800170056E+03  0.10338691612E+04  0.78051209890E+03 0.  0.
        3    1    3    3  502    0  0.99544661549E+02  0.14719631476E+03  0.79923891271E+03  0.81875438595E+03  0.10100000352E+00 0.  1.
       -3    1    3    3    0  502 -0.99544661549E+02 -0.14719631476E+03 -0.12123721215E+03  0.21511477526E+03  0.10100000352E+00 0. -1.
</event>
<event>
 5   0  0.4663634E-02  0.7383220E+03  0.7818609E-02  0.9653852E-01
       -2   -1    0    0    0  501  0.00000000000E+00  0.00000000000E+00  0.10537835136E+03  0.10537835139E+03  0.25500000920E-02 0. -1.
        2   -1    0    0  501    0  0.00000000000E+00  0.00000000000E+00 -0.12932431833E+04  0.12932431833E+04  0.25500000920E-02 0.  1.
    10030    2    1    2    0    0  0.00000000000E+00  0.00000000000E+00 -0.11878648320E+04  0.13986215347E+04  0.73832197473E+03 0.  0.
        5    1    3    3  502    0 -0.32861369970E+03 -0.16493956427E+03 -0.53209145952E+03  0.64678855493E+03  0.46999998093E+01 0. -1.
       -5    1    3    3    0  502  0.32861369970E+03  0.16493956427E+03 -0.65577337246E+03  0.75183297980E+03  0.46999998093E+01 0.  1.
</event>
<event>
 5   0  0.2759559E-02  0.7500472E+03  0.7818609E-02  0.9635276E-01
       -1   -1    0    0    0  501  0.00000000000E+00  0.00000000000E+00  0.35954923589E+03  0.35954923592E+03  0.50400001928E-02 0. -1.
        1   -1    0    0  501    0  0.00000000000E+00  0.00000000000E+00 -0.39116400103E+03  0.39116400107E+03  0.50400001928E-02 0.  1.
    10030    2    1    2    0    0  0.00000000000E+00  0.00000000000E+00 -0.31614765147E+02  0.75071323699E+03  0.75004724572E+03 0.  0.
        3    1    3    3  502    0 -0.25526137358E+03  0.22642122969E+03  0.13995137955E+03  0.36879715418E+03  0.10100000352E+00 0. -1.
       -3    1    3    3    0  502  0.25526137358E+03 -0.22642122969E+03 -0.17156614470E+03  0.38191608280E+03  0.10100000352E+00 0.  1.
</event>
<event>
 5   0  0.1786500E-02  0.7907269E+03  0.7818609E-02  0.9573537E-01
       -3   -1    0    0    0  501  0.00000000000E+00  0.00000000000E+00  0.27325340574E+03  0.27325342441E+03  0.10100000352E+00 0.  1.
        3   -1    0    0  501    0  0.00000000000E+00  0.00000000000E+00 -0.57204139300E+03  0.57204140192E+03  0.10100000352E+00 0. -1.
    10030    2    1    2    0    0  0.00000000000E+00  0.00000000000E+00 -0.29878798726E+03  0.84529482633E+03  0.79072693270E+03 0.  0.
        1    1    3    3  502    0  0.23889221088E+02 -0.29359546647E+03 -0.43130319895E+03  0.52229440191E+03  0.50400001928E-02 0. -1.
       -1    1    3    3    0  502 -0.23889221088E+02  0.29359546647E+03  0.13251521169E+03  0.32300042442E+03  0.50400001928E-02 0.  1.
</event>
<event>
 5   0  0.2689372E-02  0.8831246E+03  0.7818609E-02  0.9446926E-01
       -1   -1    0    0    0  501  0.00000000000E+00  0.00000000000E+00  0.35450721519E+03  0.35450721522E+03  0.50400001928E-02 0. -1.
        1   -1    0    0  501    0  0.00000000000E+00  0.00000000000E+00 -0.54999519367E+03  0.54999519369E+03  0.50400001928E-02 0.  1.
    10030    2    1    2    0    0  0.00000000000E+00  0.00000000000E+00 -0.19548797848E+03  0.90450240892E+03  0.88312459937E+03 0.  0.
        4    1    3    3  502    0  0.30035667856E+03  0.31963930894E+03 -0.45597573383E+02  0.44098092223E+03  0.12699999809E+01 0.  1.
       -4    1    3    3    0  502 -0.30035667856E+03 -0.31963930894E+03 -0.14989040510E+03  0.46352148668E+03  0.12699999809E+01 0. -1.
</event>
<event>
 5   0  0.4700220E-02  0.9056937E+03  0.7818609E-02  0.9418492E-01
        2   -1    0    0  501    0  0.00000000000E+00  0.00000000000E+00  0.30561998949E+03  0.30561998950E+03  0.25500000920E-02 0. -1.
       -2   -1    0    0    0  501  0.00000000000E+00  0.00000000000E+00 -0.67099761971E+03  0.67099761972E+03  0.25500000920E-02 0.  1.
    10030    2    1    2    0    0  0.00000000000E+00  0.00000000000E+00 -0.36537763022E+03  0.97661760922E+03  0.90569373519E+03 0.  0.
        4    1    3    3  502    0 -0.22200102377E+03 -0.65826827294E+02 -0.60233118095E+03  0.64530774844E+03  0.12699999809E+01 0.  1.
       -4    1    3    3    0  502  0.22200102377E+03  0.65826827294E+02  0.23695355073E+03  0.33130986078E+03  0.12699999809E+01 0. -1.
</event>
<event>
 5   0  0.2759559E-02  0.8602242E+03  0.7818609E-02  0.9476716E-01
        1   -1    0    0  501    0  0.00000000000E+00  0.00000000000E+00  0.40115928865E+03  0.40115928868E+03  0.50400001928E-02 0. -1.
       -1   -1    0    0    0  501  0.00000000000E+00  0.00000000000E+00 -0.46115457092E+03  0.46115457095E+03  0.50400001928E-02 0.  1.
    10030    2    1    2    0    0  0.00000000000E+00  0.00000000000E+00 -0.59995282274E+02  0.86231385963E+03  0.86022424903E+03 0.  0.
        3    1    3    3  502    0 -0.50228314076E+02 -0.28461037213E+03 -0.34931574907E+03  0.45337341145E+03  0.10100000352E+00 0.  1.
       -3    1    3    3    0  502  0.50228314076E+02  0.28461037213E+03  0.28932046679E+03  0.40894044819E+03  0.10100000352E+00 0. -1.
</event>
<event>
 5   0  0.4663634E-02  0.7973983E+03  0.7818609E-02  0.9563791E-01
        2   -1    0    0  501    0  0.00000000000E+00  0.00000000000E+00  0.12772930027E+04  0.12772930027E+04  0.25500000920E-02 0. -1.
       -2   -1    0    0    0  501  0.00000000000E+00  0.00000000000E+00 -0.12445150142E+03  0.12445150145E+03  0.25500000920E-02 0.  1.
    10030    2    1    2    0    0  0.00000000000E+00  0.00000000000E+00  0.11528415013E+04  0.14017445042E+04  0.79739834954E+03 0.  0.
        5    1    3    3  502    0 -0.95608778707E+02 -0.68237037657E+02 -0.93293434625E+02  0.15007693632E+03  0.46999998093E+01 0.  1.
       -5    1    3    3    0  502  0.95608778707E+02  0.68237037657E+02  0.12461349359E+04  0.12516675678E+04  0.46999998093E+01 0. -1.
</event>
<event>
 5   0  0.4377843E-02  0.8115618E+03  0.7818609E-02  0.9543431E-01
        2   -1    0    0  501    0  0.00000000000E+00  0.00000000000E+00  0.28080471202E+03  0.28080471203E+03  0.25500000920E-02 0.  1.
       -2   -1    0    0    0  501  0.00000000000E+00  0.00000000000E+00 -0.58637959505E+03  0.58637959506E+03  0.25500000920E-02 0. -1.
    10030    2    1    2    0    0  0.00000000000E+00  0.00000000000E+00 -0.30557488303E+03  0.86718430708E+03  0.81156183579E+03 0.  0.
        2    1    3    3  502    0 -0.94883095875E+02  0.60329396603E+02 -0.56940161226E+03  0.58039696246E+03  0.25500000920E-02 0. -1.
       -2    1    3    3    0  502  0.94883095875E+02 -0.60329396603E+02  0.26382672923E+03  0.28678734463E+03  0.25500000920E-02 0.  1.
</event>
<event>
 5   0  0.4663634E-02  0.8030898E+03  0.7818609E-02  0.9555556E-01
        2   -1    0    0  501    0  0.00000000000E+00  0.00000000000E+00  0.53700337122E+03  0.53700337123E+03  0.25500000920E-02 0. -1.
       -2   -1    0    0    0  501  0.00000000000E+00  0.00000000000E+00 -0.30025566323E+03  0.30025566324E+03  0.25500000920E-02 0.  1.
    10030    2    1    2    0    0  0.00000000000E+00  0.00000000000E+00  0.23674770799E+03  0.83725903447E+03  0.80308979172E+03 0.  0.
        5    1    3    3  502    0  0.22493243465E+01 -0.58976493626E+02 -0.29568008296E+03  0.30154947806E+03  0.46999998093E+01 0.  1.
       -5    1    3    3    0  502 -0.22493243465E+01  0.58976493626E+02  0.53242779095E+03  0.53570955641E+03  0.46999998093E+01 0. -1.
</event>
<event>
 5   0  0.2606520E-02  0.8004675E+03  0.7818609E-02  0.9559341E-01
        1   -1    0    0  501    0  0.00000000000E+00  0.00000000000E+00  0.61406769180E+03  0.61406769182E+03  0.50400001928E-02 0. -1.
       -1   -1    0    0    0  501  0.00000000000E+00  0.00000000000E+00 -0.26086220359E+03  0.26086220364E+03  0.50400001928E-02 0.  1.
    10030    2    1    2    0    0  0.00000000000E+00  0.00000000000E+00  0.35320548821E+03  0.87492989546E+03  0.80046749158E+03 0.  0.
        5    1    3    3  502    0 -0.75525404542E+02 -0.43896068724E+02  0.60348971562E+03  0.60979740770E+03  0.46999998093E+01 0. -1.
       -5    1    3    3    0  502  0.75525404542E+02  0.43896068724E+02 -0.25028422741E+03  0.26513248776E+03  0.46999998093E+01 0.  1.
</event>
<event>
 5   0  0.2689372E-02  0.7651754E+03  0.7818609E-02  0.9611839E-01
       -1   -1    0    0    0  501  0.00000000000E+00  0.00000000000E+00  0.11266535978E+03  0.11266535989E+03  0.50400001928E-02 0. -1.
        1   -1    0    0  501    0  0.00000000000E+00  0.00000000000E+00 -0.12991869034E+04  0.12991869035E+04  0.50400001928E-02 0.  1.
    10030    2    1    2    0    0  0.00000000000E+00  0.00000000000E+00 -0.11865215437E+04  0.14118522633E+04  0.76517543082E+03 0.  0.
        4    1    3    3  502    0  0.23240685470E+03 -0.11729645618E+03 -0.75963180234E+02  0.27118890537E+03  0.12699999809E+01 0. -1.
       -4    1    3    3    0  502 -0.23240685470E+03  0.11729645618E+03 -0.11105583634E+04  0.11406633580E+04  0.12699999809E+01 0.  1.
</event>
<event>
 5   0  0.4590462E-02  0.8186072E+03  0.7818609E-02  0.9533468E-01
        2   -1    0    0  501    0  0.00000000000E+00  0.00000000000E+00  0.31811324321E+03  0.31811324322E+03  0.25500000920E-02 0. -1.
       -2   -1    0    0    0  501  0.00000000000E+00  0.00000000000E+00 -0.52663454202E+03  0.52663454202E+03  0.25500000920E-02 0.  1.
    10030    2    1    2    0    0  0.00000000000E+00  0.00000000000E+00 -0.20852129880E+03  0.84474778525E+03  0.81860716380E+03 0.  0.
        3    1    3    3  502    0  0.11416651510E+03  0.22341733395E+02  0.30069421089E+03  0.32241303460E+03  0.10100000352E+00 0. -1.
       -3    1    3    3    0  502 -0.11416651510E+03 -0.22341733395E+02 -0.50921550969E+03  0.52233475065E+03  0.10100000352E+00 0.  1.
</event>
<event>
 5   0  0.2769394E-02  0.8005131E+03  0.7818609E-02  0.9559275E-01
        1   -1    0    0  501    0  0.00000000000E+00  0.00000000000E+00  0.14177145964E+03  0.14177145973E+03  0.50400001928E-02 0.  1.
       -1   -1    0    0    0  501  0.00000000000E+00  0.00000000000E+00 -0.11300251004E+04  0.11300251005E+04  0.50400001928E-02 0. -1.
    10030    2    1    2    0    0  0.00000000000E+00  0.00000000000E+00 -0.98825364080E+03  0.12717965602E+04  0.80051310541E+03 0.  0.
        2    1    3    3  502    0  0.23693754780E+02  0.17458152379E+03  0.76854590484E+02  0.19221532340E+03  0.25500000920E-02 0.  1.
       -2    1    3    3    0  502 -0.23693754780E+02 -0.17458152379E+03 -0.10651082313E+04  0.10795812368E+04  0.25500000920E-02 0. -1.
</event>
<event>
 5   0  0.4700220E-02  0.7808684E+03  0.7818609E-02  0.9588130E-01
        2   -1    0    0  501    0  0.00000000000E+00  0.00000000000E+00  0.87504441663E+03  0.87504441664E+03  0.25500000920E-02 0. -1.
       -2   -1    0    0    0  501  0.00000000000E+00  0.00000000000E+00 -0.17420700106E+03  0.17420700108E+03  0.25500000920E-02 0.  1.
    10030    2    1    2    0    0  0.00000000000E+00  0.00000000000E+00  0.70083741557E+03  0.10492514177E+04  0.78086839769E+03 0.  0.
        4    1    3    3  502    0 -0.21071459378E+03 -0.19974831406E+03  0.70116567814E+03  0.75890378184E+03  0.12699999809E+01 0. -1.
       -4    1    3    3    0  502  0.21071459378E+03  0.19974831406E+03 -0.32826256754E+00  0.29034763587E+03  0.12699999809E+01 0.  1.
</event>
<event>
 5   0  0.2689372E-02  0.7884183E+03  0.7818609E-02  0.9576934E-01
        1   -1    0    0  501    0  0.00000000000E+00  0.00000000000E+00  0.88957457497E+03  0.88957457498E+03  0.50400001928E-02 0. -1.
       -1   -1    0    0    0  501  0.00000000000E+00  0.00000000000E+00 -0.17469119007E+03  0.17469119014E+03  0.50400001928E-02 0.  1.
    10030    2    1    2    0    0  0.00000000000E+00  0.00000000000E+00  0.71488338490E+03  0.10642657651E+04  0.78841826768E+03 0.  0.
        4    1    3    3  502    0 -0.72723132379E+02  0.38641909682E+03  0.39540308213E+03  0.55763212123E+03  0.12699999809E+01 0. -1.
       -4    1    3    3    0  502  0.72723132379E+02 -0.38641909682E+03  0.31948030277E+03  0.50663364389E+03  0.12699999809E+01 0.  1.
</event>
<event>
 5   0  0.2635243E-02  0.8207483E+03  0.7818609E-02  0.9530461E-01
        1   -1    0    0  501    0  0.00000000000E+00  0.00000000000E+00  0.41495726034E+03  0.41495726037E+03  0.50400001928E-02 0. -1.
       -1   -1    0    0    0  501  0.00000000000E+00  0.00000000000E+00 -0.40584167626E+03  0.40584167629E+03  0.50400001928E-02 0.  1.
    10030    2    1    2    0    0  0.00000000000E+00  0.00000000000E+00  0.91155840860E+01  0.82079893666E+03  0.82074831742E+03 0.  0.
        1    1    3    3  502    0  0.17132120126E+03  0.29850180859E+03  0.22807250785E+03  0.41288176588E+03  0.50400001928E-02 0.  1.
       -1    1    3    3    0  502 -0.17132120126E+03 -0.29850180859E+03 -0.21895692376E+03  0.40791717079E+03  0.50400001928E-02 0. -1.
</event>
<event>
 5   0  0.2606520E-02  0.8090708E+03  0.7818609E-02  0.9546979E-01
       -1   -1    0    0    0  501  0.00000000000E+00  0.00000000000E+00  0.11083429245E+03  0.11083429257E+03  0.50400001928E-02 0.  1.
        1   -1    0    0  501    0  0.00000000000E+00  0.00000000000E+00 -0.14765186365E+04  0.14765186365E+04  0.50400001928E-02 0. -1.
    10030    2    1    2    0    0  0.00000000000E+00  0.00000000000E+00 -0.13656843441E+04  0.15873529291E+04  0.80907082130E+03 0.  0.
        5    1    3    3  502    0  0.32873386667E+03  0.16079845840E+03 -0.34469978737E+03  0.50275454521E+03  0.46999998093E+01 0.  1.
       -5    1    3    3    0  502 -0.32873386667E+03 -0.16079845840E+03 -0.10209845567E+04  0.10845983839E+04  0.46999998093E+01 0. -1.
</event>
<event>
 5   0  0.2759559E-02  0.8013227E+03  0.7818609E-02  0.9558105E-01
        1   -1    0    0  501    0  0.00000000000E+00  0.00000000000E+00  0.68265104233E+03  0.68265104235E+03  0.50400001928E-02 0. -1.
       -1   -1    0    0    0  501  0.00000000000E+00  0.00000000000E+00 -0.23515605287E+03  0.23515605292E+03  0.50400001928E-02 0.  1.
    10030    2    1    2    0    0  0.00000000000E+00  0.00000000000E+00  0.44749498947E+03  0.91780709527E+03  0.80132271809E+03 0.  0.
        3    1    3    3  502    0  0.30958884868E+03 -0.32099179655E+02  0.51271996494E+03  0.59979778693E+03  0.10100000352E+00 0. -1.
       -3    1    3    3    0  502 -0.30958884868E+03  0.32099179655E+02 -0.65224975469E+02  0.31800930834E+03  0.10100000352E+00 0.  1.
</event>
<event>
 5   0  0.4377843E-02  0.4777720E+03  0.7818609E-02  0.1019749E+00
        2   -1    0    0  501    0  0.00000000000E+00  0.00000000000E+00  0.87878674894E+03  0.87878674894E+03  0.25500000920E-02 0.  1.
       -2   -1    0    0    0  501  0.00000000000E+00  0.00000000000E+00 -0.64937853219E+02  0.64937853269E+02  0.25500000920E-02 0. -1.
    10030    2    1    2    0    0  0.00000000000E+00  0.00000000000E+00  0.81384889572E+03  0.94372460221E+03  0.47777201651E+03 0.  0.
        2    1    3    3  502    0  0.23296518244E+03 -0.40273526203E+02  0.47454049736E+03  0.53017300647E+03  0.25500000920E-02 0.  1.
       -2    1    3    3    0  502 -0.23296518244E+03  0.40273526203E+02  0.33930839835E+03  0.41355159574E+03  0.25500000920E-02 0. -1.
</event>
<event>
 5   0  0.2689372E-02  0.7885465E+03  0.7818609E-02  0.9576745E-01
       -1   -1    0    0    0  501  0.00000000000E+00  0.00000000000E+00  0.12401621679E+03  0.12401621689E+03  0.50400001928E-02 0. -1.
        1   -1    0    0  501    0  0.00000000000E+00  0.00000000000E+00 -0.12534764019E+04  0.12534764019E+04  0.50400001928E-02 0.  1.
    10030    2    1    2    0    0  0.00000000000E+00  0.00000000000E+00 -0.11294601851E+04  0.13774926188E+04  0.78854651422E+03 0.  0.
        4    1    3    3  502    0  0.30967786460E+03 -0.21507636651E+03 -0.36333447040E+03  0.52361414566E+03  0.12699999809E+01 0. -1.
       -4    1    3    3    0  502 -0.30967786460E+03  0.21507636651E+03 -0.76612571468E+03  0.85387847311E+03  0.12699999809E+01 0.  1.
</event>
<event>
 5   0  0.4663634E-02  0.8110528E+03  0.7818609E-02  0.9544155E-01
       -2   -1    0    0    0  501  0.00000000000E+00  0.00000000000E+00  0.54106363994E+03  0.54106363995E+03  0.25500000920E-02 0.  1.
        2   -1    0    0  501    0  0.00000000000E+00  0.00000000000E+00 -0.30394145264E+03  0.30394145265E+03  0.25500000920E-02 0. -1.
    10030    2    1    2    0    0  0.00000000000E+00  0.00000000000E+00  0.23712218731E+03  0.84500509260E+03  0.81105281875E+03 0.  0.
        5    1    3    3  502    0  0.20209370971E+03 -0.30689647526E+03  0.29721008958E+03  0.47263436331E+03  0.46999998093E+01 0.  1.
       -5    1    3    3    0  502 -0.20209370971E+03  0.30689647526E+03 -0.60087902272E+02  0.37237072929E+03  0.46999998093E+01 0. -1.
</event>
<event>
 5   0  0.1786500E-02  0.8246202E+03  0.7818609E-02  0.9525048E-01
        3   -1    0    0  501    0  0.00000000000E+00  0.00000000000E+00  0.99250326020E+03  0.99250326534E+03  0.10100000352E+00 0.  1.
       -3   -1    0    0    0  501  0.00000000000E+00  0.00000000000E+00 -0.17128368438E+03  0.17128371416E+03  0.10100000352E+00 0. -1.
    10030    2    1    2    0    0  0.00000000000E+00  0.00000000000E+00  0.82121957582E+03  0.11637869795E+04  0.82462024105E+03 0.  0.
        1    1    3    3  502    0  0.32303884538E+03 -0.14168327954E+03  0.10933302798E+03  0.36929928020E+03  0.50400001928E-02 0. -1.
       -1    1    3    3    0  502 -0.32303884538E+03  0.14168327954E+03  0.71188654784E+03  0.79448769930E+03  0.50400001928E-02 0.  1.
</event>
<event>
 5   0  0.4700220E-02  0.8360155E+03  0.7818609E-02  0.9509301E-01
        2   -1    0    0  501    0  0.00000000000E+00  0.00000000000E+00  0.84849856991E+03  0.84849856991E+03  0.25500000920E-02 0.  1.
       -2   -1    0    0    0  501  0.00000000000E+00  0.00000000000E+00 -0.20592903315E+03  0.20592903317E+03  0.25500000920E-02 0. -1.
    10030    2    1    2    0    0  0.00000000000E+00  0.00000000000E+00  0.64256953675E+03  0.10544276031E+04  0.83601552652E+03 0.  0.
        4    1    3    3  502    0  0.32615633290E+03  0.26015919694E+03  0.28868396079E+03  0.50734682749E+03  0.12699999809E+01 0.  1.
       -4    1    3    3    0  502 -0.32615633290E+03 -0.26015919694E+03  0.35388557596E+03  0.54708077559E+03  0.12699999809E+01 0. -1.
</event>
<event>
 5   0  0.2635243E-02  0.7963572E+03  0.7818609E-02  0.9565305E-01
       -1   -1    0    0    0  501  0.00000000000E+00  0.00000000000E+00  0.28245088888E+03  0.28245088893E+03  0.50400001928E-02 0. -1.
        1   -1    0    0  501    0  0.00000000000E+00  0.00000000000E+00 -0.56132309052E+03  0.56132309054E+03  0.50400001928E-02 0.  1.
    10030    2    1    2    0    0  0.00000000000E+00  0.00000000000E+00 -0.27887220163E+03  0.84377397947E+03  0.79635722109E+03 0.  0.
        1    1    3    3  502    0  0.32621144346E+03  0.14784371224E+03  0.44919764500E+02  0.36095630534E+03  0.50400001928E-02 0.  1.
       -1    1    3    3    0  502 -0.32621144346E+03 -0.14784371224E+03 -0.32379196613E+03  0.48281767413E+03  0.50400001928E-02 0. -1.
</event>
<event>
 5   0  0.4663634E-02  0.7977073E+03  0.7818609E-02  0.9563342E-01
        2   -1    0    0  501    0  0.00000000000E+00  0.00000000000E+00  0.45681483726E+03  0.45681483726E+03  0.25500000920E-02 0. -1.
       -2   -1    0    0    0  501  0.00000000000E+00  0.00000000000E+00 -0.34824660789E+03  0.34824660790E+03  0.25500000920E-02 0.  1.
    10030    2    1    2    0    0  0.00000000000E+00  0.00000000000E+00  0.10856822937E+03  0.80506144516E+03  0.79770725837E+03 0.  0.
        5    1    3    3  502    0 -0.19071172305E+03 -0.20904875887E+03  0.33792637929E+03  0.44078188791E+03  0.46999998093E+01 0. -1.
       -5    1    3    3    0  502  0.19071172305E+03  0.20904875887E+03 -0.22935814992E+03  0.36427955725E+03  0.46999998093E+01 0.  1.
</event>
<event>
 5   0  0.1786500E-02  0.7768479E+03  0.7818609E-02  0.9594147E-01
        3   -1    0    0  501    0  0.00000000000E+00  0.00000000000E+00  0.35146892512E+03  0.35146893963E+03  0.10100000352E+00 0.  1.
       -3   -1    0    0    0  501  0.00000000000E+00  0.00000000000E+00 -0.42926460397E+03  0.42926461585E+03  0.10100000352E+00 0. -1.
    10030    2    1    2    0    0  0.00000000000E+00  0.00000000000E+00 -0.77795678856E+02  0.78073355548E+03  0.77684793686E+03 0.  0.
        4    1    3    3  502    0  0.13395912292E+03 -0.29745177150E+03  0.17298590892E+03  0.36925376175E+03  0.12699999809E+01 0.  1.
       -4    1    3    3    0  502 -0.13395912292E+03  0.29745177150E+03 -0.25078158778E+03  0.41147979373E+03  0.12699999809E+01 0. -1.
</event>
<event>
 5   0  0.4684283E-02  0.8121836E+03  0.7818609E-02  0.9542547E-01
        2   -1    0    0  501    0  0.00000000000E+00  0.00000000000E+00  0.81256646553E+03  0.81256646554E+03  0.25500000920E-02 0. -1.
       -2   -1    0    0    0  501  0.00000000000E+00  0.00000000000E+00 -0.20295024092E+03  0.20295024094E+03  0.25500000920E-02 0.  1.
    10030    2    1    2    0    0  0.00000000000E+00  0.00000000000E+00  0.60961622461E+03  0.10155167065E+04  0.81218362444E+03 0.  0.
        1    1    3    3  502    0 -0.46495360341E+02  0.23383239185E+03  0.71585156785E+03  0.75450836525E+03  0.50400001928E-02 0. -1.
       -1    1    3    3    0  502  0.46495360341E+02 -0.23383239185E+03 -0.10623534324E+03  0.26100834122E+03  0.50400001928E-02 0.  1.
</event>
<event>
 5   0  0.4590462E-02  0.8232357E+03  0.7818609E-02  0.9526980E-01
        2   -1    0    0  501    0  0.00000000000E+00  0.00000000000E+00  0.55021601267E+03  0.55021601268E+03  0.25500000920E-02 0. -1.
       -2   -1    0    0    0  501  0.00000000000E+00  0.00000000000E+00 -0.30793223588E+03  0.30793223589E+03  0.25500000920E-02 0.  1.
    10030    2    1    2    0    0  0.00000000000E+00  0.00000000000E+00  0.24228377679E+03  0.85814824857E+03  0.82323568194E+03 0.  0.
        3    1    3    3  502    0  0.17166035475E+02 -0.15036698225E+03  0.52016037166E+03  0.54173030612E+03  0.10100000352E+00 0. -1.
       -3    1    3    3    0  502 -0.17166035475E+02  0.15036698225E+03 -0.27787659487E+03  0.31641794244E+03  0.10100000352E+00 0.  1.
</event>
<event>
 5   0  0.2635243E-02  0.8417766E+03  0.7818609E-02  0.9501441E-01
        1   -1    0    0  501    0  0.00000000000E+00  0.00000000000E+00  0.73164550517E+03  0.73164550519E+03  0.50400001928E-02 0.  1.
       -1   -1    0    0    0  501  0.00000000000E+00  0.00000000000E+00 -0.24212132322E+03  0.24212132327E+03  0.50400001928E-02 0. -1.
    10030    2    1    2    0    0  0.00000000000E+00  0.00000000000E+00  0.48952418196E+03  0.97376682846E+03  0.84177663991E+03 0.  0.
        1    1    3    3  502    0  0.11629105649E+03 -0.38289057002E+03  0.39567092225E+03  0.56274708099E+03  0.50400001928E-02 0.  1.
       -1    1    3    3    0  502 -0.11629105649E+03  0.38289057002E+03  0.93853259705E+02  0.41101974747E+03  0.50400001928E-02 0. -1.
</event>
<event>
 5   0  0.2769394E-02  0.7911952E+03  0.7818609E-02  0.9572850E-01
        1   -1    0    0  501    0  0.00000000000E+00  0.00000000000E+00  0.38979134899E+03  0.38979134902E+03  0.50400001928E-02 0. -1.
       -1   -1    0    0    0  501  0.00000000000E+00  0.00000000000E+00 -0.40149030411E+03  0.40149030414E+03  0.50400001928E-02 0.  1.
    10030    2    1    2    0    0  0.00000000000E+00  0.00000000000E+00 -0.11698955115E+02  0.79128165316E+03  0.79119516497E+03 0.  0.
        2    1    3    3  502    0 -0.24160320302E+03 -0.15422121573E+03  0.26683607399E+03  0.39160922037E+03  0.25500000920E-02 0. -1.
       -2    1    3    3    0  502  0.24160320302E+03  0.15422121573E+03 -0.27853502910E+03  0.39967243279E+03  0.25500000920E-02 0.  1.
</event>
<event>
 5   0  0.4684283E-02  0.8020183E+03  0.7818609E-02  0.9557100E-01
       -2   -1    0    0    0  501  0.00000000000E+00  0.00000000000E+00  0.11244117921E+03  0.11244117924E+03  0.25500000920E-02 0. -1.
        2   -1    0    0  501    0  0.00000000000E+00  0.00000000000E+00 -0.14301551522E+04  0.14301551522E+04  0.25500000920E-02 0.  1.
    10030    2    1    2    0    0  0.00000000000E+00  0.00000000000E+00 -0.13177139730E+04  0.15425963315E+04  0.80201828356E+03 0.  0.
        1    1    3    3  502    0  0.21951450883E+03 -0.31253671227E+03 -0.89397174167E+03  0.97213748566E+03  0.50400001928E-02 0.  1.
       -1    1    3    3    0  502 -0.21951450883E+03  0.31253671227E+03 -0.42374223135E+03  0.57045884580E+03  0.50400001928E-02 0. -1.
</event>
<event>
 5   0  0.4590462E-02  0.7913184E+03  0.7818609E-02  0.9572669E-01
       -2   -1    0    0    0  501  0.00000000000E+00  0.00000000000E+00  0.17530587574E+03  0.17530587576E+03  0.25500000920E-02 0. -1.
        2   -1    0    0  501    0  0.00000000000E+00  0.00000000000E+00 -0.89298886083E+03  0.89298886083E+03  0.25500000920E-02 0.  1.
    10030    2    1    2    0    0  0.00000000000E+00  0.00000000000E+00 -0.71768298509E+03  0.10682947366E+04  0.79131837913E+03 0.  0.
        3    1    3    3  502    0 -0.61236614163E+02  0.36389367509E+03 -0.55155711946E+03  0.66361419207E+03  0.10100000352E+00 0.  1.
       -3    1    3    3    0  502  0.61236614163E+02 -0.36389367509E+03 -0.16612586562E+03  0.40468054452E+03  0.10100000352E+00 0. -1.
</event>
<event>
 5   0  0.2606520E-02  0.8158130E+03  0.7818609E-02  0.9537406E-01
        1   -1    0    0  501    0  0.00000000000E+00  0.00000000000E+00  0.80232042396E+03  0.80232042398E+03  0.50400001928E-02 0.  1.
       -1   -1    0    0    0  501  0.00000000000E+00  0.00000000000E+00 -0.20738309720E+03  0.20738309727E+03  0.50400001928E-02 0. -1.
    10030    2    1    2    0    0  0.00000000000E+00  0.00000000000E+00  0.59493732676E+03  0.10097035212E+04  0.81581295530E+03 0.  0.
        5    1    3    3  502    0  0.25524114398E+03  0.27103880044E+03  0.50366362444E+03  0.62634591840E+03  0.46999998093E+01 0. -1.
       -5    1    3    3    0  502 -0.25524114398E+03 -0.27103880044E+03  0.91273702320E+02  0.38335760284E+03  0.46999998093E+01 0.  1.
</event>
<event>
 5   0  0.4590462E-02  0.7890405E+03  0.7818609E-02  0.9576017E-01
        2   -1    0    0  501    0  0.00000000000E+00  0.00000000000E+00  0.18164147773E+04  0.18164147773E+04  0.25500000920E-02 0. -1.
       -2   -1    0    0    0  501  0.00000000000E+00  0.00000000000E+00 -0.85688706032E+02  0.85688706070E+02  0.25500000920E-02 0.  1.
    10030    2    1    2    0    0  0.00000000000E+00  0.00000000000E+00  0.17307260712E+04  0.19021034833E+04  0.78904051080E+03 0.  0.
        3    1    3    3  502    0 -0.10467107236E+03  0.18773538925E+03  0.67856930114E+02  0.22540005087E+03  0.10100000352E+00 0.  1.
       -3    1    3    3    0  502  0.10467107236E+03 -0.18773538925E+03  0.16628691411E+04  0.16767034325E+04  0.10100000352E+00 0. -1.
</event>
<event>
 5   0  0.2769394E-02  0.7267809E+03  0.7818609E-02  0.9672499E-01
        1   -1    0    0  501    0  0.00000000000E+00  0.00000000000E+00  0.11666682748E+04  0.11666682748E+04  0.50400001928E-02 0.  1.
       -1   -1    0    0    0  501  0.00000000000E+00  0.00000000000E+00 -0.11318780053E+03  0.11318780064E+03  0.50400001928E-02 0. -1.
    10030    2    1    2    0    0  0.00000000000E+00  0.00000000000E+00  0.10534804743E+04  0.12798560754E+04  0.72678089145E+03 0.  0.
        2    1    3    3  502    0 -0.15883486364E+03 -0.32577704543E+03  0.48036827835E+03  0.60175815747E+03  0.25500000920E-02 0. -1.
       -2    1    3    3    0  502  0.15883486364E+03  0.32577704543E+03  0.57311219591E+03  0.67809791796E+03  0.25500000920E-02 0.  1.
</event>
<event>
 5   0  0.2689372E-02  0.8035365E+03  0.7818609E-02  0.9554912E-01
        1   -1    0    0  501    0  0.00000000000E+00  0.00000000000E+00  0.40082137727E+03  0.40082137730E+03  0.50400001928E-02 0.  1.
       -1   -1    0    0    0  501  0.00000000000E+00  0.00000000000E+00 -0.40271734987E+03  0.40271734990E+03  0.50400001928E-02 0. -1.
    10030    2    1    2    0    0  0.00000000000E+00  0.00000000000E+00 -0.18959726008E+01  0.80353872720E+03  0.80353649040E+03 0.  0.
        4    1    3    3  502    0 -0.43009695338E+02 -0.37801770739E+03 -0.13005639717E+03  0.40207399859E+03  0.12699999809E+01 0.  1.
       -4    1    3    3    0  502  0.43009695338E+02  0.37801770739E+03  0.12816042457E+03  0.40146472861E+03  0.12699999809E+01 0. -1.
</event>
<event>
 5   0  0.4590462E-02  0.8978049E+03  0.7818609E-02  0.9428330E-01
        2   -1    0    0  501    0  0.00000000000E+00  0.00000000000E+00  0.95295392951E+03  0.95295392951E+03  0.25500000920E-02 0. -1.
       -2   -1    0    0    0  501  0.00000000000E+00  0.00000000000E+00 -0.21146185664E+03  0.21146185666E+03  0.25500000920E-02 0.  1.
    10030    2    1    2    0    0  0.00000000000E+00  0.00000000000E+00  0.74149207286E+03  0.11644157862E+04  0.89780489471E+03 0.  0.
        3    1    3    3  502    0 -0.27306553256E+03  0.13540583410E+03  0.79817974032E+03  0.85439477587E+03  0.10100000352E+00 0. -1.
       -3    1    3    3    0  502  0.27306553256E+03 -0.13540583410E+03 -0.56687667457E+02  0.31002101029E+03  0.10100000352E+00 0.  1.
</event>
<event>
 5   0  0.2759559E-02  0.7149168E+03  0.7818609E-02  0.9692057E-01
        1   -1    0    0  501    0  0.00000000000E+00  0.00000000000E+00  0.35346876087E+03  0.35346876091E+03  0.50400001928E-02 0. -1.
       -1   -1    0    0    0  501  0.00000000000E+00  0.00000000000E+00 -0.36149311794E+03  0.36149311797E+03  0.50400001928E-02 0.  1.
    10030    2    1    2    0    0  0.00000000000E+00  0.00000000000E+00 -0.80243570679E+01  0.71496187888E+03  0.71491684687E+03 0.  0.
        3    1    3    3  502    0  0.34958354517E+03 -0.73339216413E+02  0.97443619777E+01  0.35732654325E+03  0.10100000352E+00 0.  1.
       -3    1    3    3    0  502 -0.34958354517E+03  0.73339216413E+02 -0.17768719046E+02  0.35763533563E+03  0.10100000352E+00 0. -1.
</event>
<event>
 5   0  0.2635243E-02  0.6708213E+03  0.7818609E-02  0.9768475E-01
       -1   -1    0    0    0  501  0.00000000000E+00  0.00000000000E+00  0.24478361185E+03  0.24478361190E+03  0.50400001928E-02 0.  1.
        1   -1    0    0  501    0  0.00000000000E+00  0.00000000000E+00 -0.45959085368E+03  0.45959085371E+03  0.50400001928E-02 0. -1.
    10030    2    1    2    0    0  0.00000000000E+00  0.00000000000E+00 -0.21480724184E+03  0.70437446561E+03  0.67082131500E+03 0.  0.
        1    1    3    3  502    0 -0.25052054403E+03 -0.81849644531E+02  0.11043501508E+03  0.28575478977E+03  0.50400001928E-02 0.  1.
       -1    1    3    3    0  502  0.25052054403E+03  0.81849644531E+02 -0.32524225692E+03  0.41861967585E+03  0.50400001928E-02 0. -1.
</event>
<event>
 5   0  0.2689372E-02  0.8282401E+03  0.7818609E-02  0.9520017E-01
       -1   -1    0    0    0  501  0.00000000000E+00  0.00000000000E+00  0.66042832417E+03  0.66042832419E+03  0.50400001928E-02 0.  1.
        1   -1    0    0  501    0  0.00000000000E+00  0.00000000000E+00 -0.25967302447E+03  0.25967302452E+03  0.50400001928E-02 0. -1.
    10030    2    1    2    0    0  0.00000000000E+00  0.00000000000E+00  0.40075529969E+03  0.92010134871E+03  0.82824011112E+03 0.  0.
        4    1    3    3  502    0  0.13283299299E+03  0.25449742835E+03 -0.13118847382E+03  0.31563519073E+03  0.12699999809E+01 0. -1.
       -4    1    3    3    0  502 -0.13283299299E+03 -0.25449742835E+03  0.53194377352E+03  0.60446615798E+03  0.12699999809E+01 0.  1.
</event>
<event>
 5   0  0.4377843E-02  0.8051531E+03  0.7818609E-02  0.9552588E-01
        2   -1    0    0  501    0  0.00000000000E+00  0.00000000000E+00  0.14003253909E+04  0.14003253909E+04  0.25500000920E-02 0.  1.
       -2   -1    0    0    0  501  0.00000000000E+00  0.00000000000E+00 -0.11573587392E+03  0.11573587395E+03  0.25500000920E-02 0. -1.
    10030    2    1    2    0    0  0.00000000000E+00  0.00000000000E+00  0.12845895170E+04  0.15160612649E+04  0.80515311069E+03 0.  0.
        2    1    3    3  502    0 -0.16220923930E+03 -0.41352397817E+02 -0.47095664978E+02  0.17389611780E+03  0.25500000920E-02 0. -1.
       -2    1    3    3    0  502  0.16220923930E+03  0.41352397817E+02  0.13316851820E+04  0.13421651471E+04  0.25500000920E-02 0.  1.
</event>
<event>
 5   0  0.4377843E-02  0.8007256E+03  0.7818609E-02  0.9558967E-01
       -2   -1    0    0    0  501  0.00000000000E+00  0.00000000000E+00  0.55214511931E+03  0.55214511932E+03  0.25500000920E-02 0. -1.
        2   -1    0    0  501    0  0.00000000000E+00  0.00000000000E+00 -0.29030475649E+03  0.29030475650E+03  0.25500000920E-02 0.  1.
    10030    2    1    2    0    0  0.00000000000E+00  0.00000000000E+00  0.26184036282E+03  0.84244987582E+03  0.80072555702E+03 0.  0.
        2    1    3    3  502    0  0.11110046192E+03 -0.51283790583E+02 -0.27014837415E+03  0.29656952621E+03  0.25500000920E-02 0.  1.
       -2    1    3    3    0  502 -0.11110046192E+03  0.51283790583E+02  0.53198873697E+03  0.54588034961E+03  0.25500000920E-02 0. -1.
</event>
<event>
 5   0  0.4377843E-02  0.7835813E+03  0.7818609E-02  0.9584091E-01
        2   -1    0    0  501    0  0.00000000000E+00  0.00000000000E+00  0.70333763976E+03  0.70333763976E+03  0.25500000920E-02 0. -1.
       -2   -1    0    0    0  501  0.00000000000E+00  0.00000000000E+00 -0.21824499279E+03  0.21824499281E+03  0.25500000920E-02 0.  1.
    10030    2    1    2    0    0  0.00000000000E+00  0.00000000000E+00  0.48509264697E+03  0.92158263257E+03  0.78358131200E+03 0.  0.
        2    1    3    3  502    0  0.73354959051E+02  0.24621462508E+02 -0.20916917774E+03  0.22302222166E+03  0.25500000920E-02 0.  1.
       -2    1    3    3    0  502 -0.73354959051E+02 -0.24621462508E+02  0.69426182470E+03  0.69856041090E+03  0.25500000920E-02 0. -1.
</event>
<event>
 5   0  0.2769394E-02  0.8318359E+03  0.7818609E-02  0.9515046E-01
       -1   -1    0    0    0  501  0.00000000000E+00  0.00000000000E+00  0.17036138093E+03  0.17036138100E+03  0.50400001928E-02 0. -1.
        1   -1    0    0  501    0  0.00000000000E+00  0.00000000000E+00 -0.10154163903E+04  0.10154163903E+04  0.50400001928E-02 0.  1.
    10030    2    1    2    0    0  0.00000000000E+00  0.00000000000E+00 -0.84505500937E+03  0.11857777713E+04  0.83183589372E+03 0.  0.
        2    1    3    3  502    0 -0.95218986372E+02 -0.33170616167E+03 -0.75345147332E+03  0.82872477682E+03  0.25500000920E-02 0.  1.
       -2    1    3    3    0  502  0.95218986372E+02  0.33170616167E+03 -0.91603536056E+02  0.35705299450E+03  0.25500000920E-02 0. -1.
</event>
<event>
 5   0  0.2689372E-02  0.7990794E+03  0.7818609E-02  0.9561351E-01
       -1   -1    0    0    0  501  0.00000000000E+00  0.00000000000E+00  0.15134822121E+03  0.15134822129E+03  0.50400001928E-02 0.  1.
        1   -1    0    0  501    0  0.00000000000E+00  0.00000000000E+00 -0.10547330693E+04  0.10547330693E+04  0.50400001928E-02 0. -1.
    10030    2    1    2    0    0  0.00000000000E+00  0.00000000000E+00 -0.90338484805E+03  0.12060812906E+04  0.79907940516E+03 0.  0.
        4    1    3    3  502    0 -0.30890672800E+03 -0.11994919141E+02 -0.69668401312E+02  0.31689516204E+03  0.12699999809E+01 0.  1.
       -4    1    3    3    0  502  0.30890672800E+03  0.11994919141E+02 -0.83371644673E+03  0.88918612851E+03  0.12699999809E+01 0. -1.
</event>
<event>
 5   0  0.2759559E-02  0.8146102E+03  0.7818609E-02  0.9539107E-01
       -1   -1    0    0    0  501  0.00000000000E+00  0.00000000000E+00  0.15436282815E+03  0.15436282823E+03  0.50400001928E-02 0. -1.
        1   -1    0    0  501    0  0.00000000000E+00  0.00000000000E+00 -0.10747239234E+04  0.10747239234E+04  0.50400001928E-02 0.  1.
    10030    2    1    2    0    0  0.00000000000E+00  0.00000000000E+00 -0.92036109525E+03  0.12290867516E+04  0.81461015058E+03 0.  0.
        3    1    3    3  502    0 -0.10777412791E+03  0.14219713947E+03  0.92260283067E+02  0.20086627182E+03  0.10100000352E+00 0. -1.
       -3    1    3    3    0  502  0.10777412791E+03 -0.14219713947E+03 -0.10126213783E+04  0.10282204798E+04  0.10100000352E+00 0.  1.
</event>
<event>
 5   0  0.4663634E-02  0.7122162E+03  0.7818609E-02  0.9696566E-01
       -2   -1    0    0    0  501  0.00000000000E+00  0.00000000000E+00  0.62629156681E+02  0.62629156733E+02  0.25500000920E-02 0. -1.
        2   -1    0    0  501    0  0.00000000000E+00  0.00000000000E+00 -0.20248235535E+04  0.20248235535E+04  0.25500000920E-02 0.  1.
    10030    2    1    2    0    0  0.00000000000E+00  0.00000000000E+00 -0.19621943969E+04  0.20874527103E+04  0.71221623582E+03 0.  0.
        5    1    3    3  502    0  0.98372196842E+02  0.14732562313E+03 -0.75782884338E+02  0.19273573592E+03  0.46999998093E+01 0. -1.
       -5    1    3    3    0  502 -0.98372196842E+02 -0.14732562313E+03 -0.18864115125E+04  0.18947169744E+04  0.46999998093E+01 0.  1.
</event>
<event>
 5   0  0.2689372E-02  0.8117227E+03  0.7818609E-02  0.9543202E-01
        1   -1    0    0  501    0  0.00000000000E+00  0.00000000000E+00  0.22823401864E+03  0.22823401869E+03  0.50400001928E-02 0.  1.
       -1   -1    0    0    0  501  0.00000000000E+00  0.00000000000E+00 -0.72173037188E+03  0.72173037190E+03  0.50400001928E-02 0. -1.
    10030    2    1    2    0    0  0.00000000000E+00  0.00000000000E+00 -0.49349635324E+03  0.94996439059E+03  0.81172266983E+03 0.  0.
        4    1    3    3  502    0 -0.27059551608E+03 -0.83942260541E+02 -0.58684977045E+03  0.65166134027E+03  0.12699999809E+01 0. -1.
       -4    1    3    3    0  502  0.27059551608E+03  0.83942260541E+02  0.93353417204E+02  0.29830305032E+03  0.12699999809E+01 0.  1.
</event>
<event>
 5   0  0.4663634E-02  0.7301873E+03  0.7818609E-02  0.9666956E-01
        2   -1    0    0  501    0  0.00000000000E+00  0.00000000000E+00  0.79264589511E+03  0.79264589512E+03  0.25500000920E-02 0. -1.
       -2   -1    0    0    0  501  0.00000000000E+00  0.00000000000E+00 -0.16816257834E+03  0.16816257836E+03  0.25500000920E-02 0.  1.
    10030    2    1    2    0    0  0.00000000000E+00  0.00000000000E+00  0.62448331677E+03  0.96080847348E+03  0.73018731144E+03 0.  0.
        5    1    3    3  502    0  0.77373599867E+02 -0.16406008566E+03  0.72911308518E+03  0.75135235851E+03  0.46999998093E+01 0. -1.
       -5    1    3    3    0  502 -0.77373599867E+02  0.16406008566E+03 -0.10462976841E+03  0.20945611497E+03  0.46999998093E+01 0.  1.
</event>
<event>
 5   0  0.2689372E-02  0.7812370E+03  0.7818609E-02  0.9587580E-01
        1   -1    0    0  501    0  0.00000000000E+00  0.00000000000E+00  0.74022728212E+03  0.74022728214E+03  0.50400001928E-02 0. -1.
       -1   -1    0    0    0  501  0.00000000000E+00  0.00000000000E+00 -0.20612966257E+03  0.20612966263E+03  0.50400001928E-02 0.  1.
    10030    2    1    2    0    0  0.00000000000E+00  0.00000000000E+00  0.53409761955E+03  0.94635694477E+03  0.78123696771E+03 0.  0.
        4    1    3    3  502    0  0.25530645010E+03  0.29553721346E+03  0.25785852648E+03  0.46799173132E+03  0.12699999809E+01 0.  1.
       -4    1    3    3    0  502 -0.25530645010E+03 -0.29553721346E+03  0.27623909307E+03  0.47836521345E+03  0.12699999809E+01 0. -1.
</event>
<event>
 5   0  0.2606520E-02  0.7837302E+03  0.7818609E-02  0.9583870E-01
        1   -1    0    0  501    0  0.00000000000E+00  0.00000000000E+00  0.33114819234E+03  0.33114819238E+03  0.50400001928E-02 0.  1.
       -1   -1    0    0    0  501  0.00000000000E+00  0.00000000000E+00 -0.46371459428E+03  0.46371459431E+03  0.50400001928E-02 0. -1.
    10030    2    1    2    0    0  0.00000000000E+00  0.00000000000E+00 -0.13256640194E+03  0.79486278669E+03  0.78373018236E+03 0.  0.
        5    1    3    3  502    0  0.26625387909E+03  0.18488221877E+03 -0.28955476458E+03  0.43466839618E+03  0.46999998093E+01 0.  1.
       -5    1    3    3    0  502 -0.26625387909E+03 -0.18488221877E+03  0.15698836264E+03  0.36019439051E+03  0.46999998093E+01 0. -1.
</event>
<event>
 5   0  0.2759559E-02  0.8441507E+03  0.7818609E-02  0.9498222E-01
       -1   -1    0    0    0  501  0.00000000000E+00  0.00000000000E+00  0.64064899597E+03  0.64064899599E+03  0.50400001928E-02 0.  1.
        1   -1    0    0  501    0  0.00000000000E+00  0.00000000000E+00 -0.27807361882E+03  0.27807361887E+03  0.50400001928E-02 0. -1.
    10030    2    1    2    0    0  0.00000000000E+00  0.00000000000E+00  0.36257537715E+03  0.91872261486E+03  0.84415066128E+03 0.  0.
        3    1    3    3  502    0  0.16284758617E+03  0.24442688901E+03 -0.14861340879E+03  0.32916530173E+03  0.10100000352E+00 0. -1.
       -3    1    3    3    0  502 -0.16284758617E+03 -0.24442688901E+03  0.51118878594E+03  0.58955731313E+03  0.10100000352E+00 0.  1.
</event>
<event>
 5   0  0.2635243E-02  0.7960090E+03  0.7818609E-02  0.9565812E-01
        1   -1    0    0  501    0  0.00000000000E+00  0.00000000000E+00  0.13699549015E+04  0.13699549015E+04  0.50400001928E-02 0.  1.
       -1   -1    0    0    0  501  0.00000000000E+00  0.00000000000E+00 -0.11562977778E+03  0.11562977789E+03  0.50400001928E-02 0. -1.
    10030    2    1    2    0    0  0.00000000000E+00  0.00000000000E+00  0.12543251237E+04  0.14855846794E+04  0.79600899725E+03 0.  0.
        1    1    3    3  502    0 -0.11053348670E+03  0.34161096450E+03  0.30666063057E+03  0.47218263957E+03  0.50400001928E-02 0.  1.
       -1    1    3    3    0  502  0.11053348670E+03 -0.34161096450E+03  0.94766449317E+03  0.10134020399E+04  0.50400001928E-02 0. -1.
</event>
<event>
 5   0  0.4700220E-02  0.7907789E+03  0.7818609E-02  0.9573461E-01
       -2   -1    0    0    0  501  0.00000000000E+00  0.00000000000E+00  0.50400074458E+03  0.50400074458E+03  0.25500000920E-02 0.  1.
        2   -1    0    0  501    0  0.00000000000E+00  0.00000000000E+00 -0.31018372728E+03  0.31018372730E+03  0.25500000920E-02 0. -1.
    10030    2    1    2    0    0  0.00000000000E+00  0.00000000000E+00  0.19381701729E+03  0.81418447188E+03  0.79077893122E+03 0.  0.
        4    1    3    3  502    0  0.24568734294E+03  0.16109607522E+03  0.36934763370E+03  0.47194650476E+03  0.12699999809E+01 0.  1.
       -4    1    3    3    0  502 -0.24568734294E+03 -0.16109607522E+03 -0.17553061641E+03  0.34223796711E+03  0.12699999809E+01 0. -1.
</event>
<event>
 5   0  0.4377843E-02  0.6422506E+03  0.7818609E-02  0.9821430E-01
        2   -1    0    0  501    0  0.00000000000E+00  0.00000000000E+00  0.55509408397E+03  0.55509408397E+03  0.25500000920E-02 0.  1.
       -2   -1    0    0    0  501  0.00000000000E+00  0.00000000000E+00 -0.18577295733E+03  0.18577295735E+03  0.25500000920E-02 0. -1.
    10030    2    1    2    0    0  0.00000000000E+00  0.00000000000E+00  0.36932112663E+03  0.74086704132E+03  0.64225063514E+03 0.  0.
        2    1    3    3  502    0 -0.74180608213E+02  0.17132026419E+03  0.48606147237E+03  0.52068142898E+03  0.25500000920E-02 0.  1.
       -2    1    3    3    0  502  0.74180608213E+02 -0.17132026419E+03 -0.11674034573E+03  0.22018561235E+03  0.25500000920E-02 0. -1.
</event>
<event>
 5   0  0.2759559E-02  0.8045303E+03  0.7818609E-02  0.9553483E-01
        1   -1    0    0  501    0  0.00000000000E+00  0.00000000000E+00  0.69807674114E+03  0.69807674116E+03  0.50400001928E-02 0.  1.
       -1   -1    0    0    0  501  0.00000000000E+00  0.00000000000E+00 -0.23180441220E+03  0.23180441226E+03  0.50400001928E-02 0. -1.
    10030    2    1    2    0    0  0.00000000000E+00  0.00000000000E+00  0.46627232894E+03  0.92988115341E+03  0.80453034420E+03 0.  0.
        3    1    3    3  502    0  0.62034457855E+02  0.39175381365E+03  0.31065220062E+03  0.50380961129E+03  0.10100000352E+00 0.  1.
       -3    1    3    3    0  502 -0.62034457855E+02 -0.39175381365E+03  0.15562012832E+03  0.42607154213E+03  0.10100000352E+00 0. -1.
</event>
<event>
 5   0  0.4590462E-02  0.7887293E+03  0.7818609E-02  0.9576476E-01
       -2   -1    0    0    0  501  0.00000000000E+00  0.00000000000E+00  0.14486994463E+03  0.14486994466E+03  0.25500000920E-02 0. -1.
        2   -1    0    0  501    0  0.00000000000E+00  0.00000000000E+00 -0.10735385474E+04  0.10735385474E+04  0.25500000920E-02 0.  1.
    10030    2    1    2    0    0  0.00000000000E+00  0.00000000000E+00 -0.92866860281E+03  0.12184084921E+04  0.78872928168E+03 0.  0.
        3    1    3    3  502    0 -0.70250238804E+02  0.35764355533E+02 -0.10612436018E+04  0.10641673636E+04  0.10100000352E+00 0.  1.
       -3    1    3    3    0  502  0.70250238804E+02 -0.35764355533E+02  0.13257499897E+03  0.15424112853E+03  0.10100000352E+00 0. -1.
</event>
<event>
 5   0  0.2635243E-02  0.8951800E+03  0.7818609E-02  0.9431627E-01
        1   -1    0    0  501    0  0.00000000000E+00  0.00000000000E+00  0.26896150690E+03  0.26896150695E+03  0.50400001928E-02 0. -1.
       -1   -1    0    0    0  501  0.00000000000E+00  0.00000000000E+00 -0.74485314543E+03  0.74485314544E+03  0.50400001928E-02 0.  1.
    10030    2    1    2    0    0  0.00000000000E+00  0.00000000000E+00 -0.47589163853E+03  0.10138146524E+04  0.89518003652E+03 0.  0.
        1    1    3    3  502    0 -0.33044268984E+03  0.13597635649E+03  0.67321688460E+02  0.36361263806E+03  0.50400001928E-02 0. -1.
       -1    1    3    3    0  502  0.33044268984E+03 -0.13597635649E+03 -0.54321332699E+03  0.65020201433E+03  0.50400001928E-02 0.  1.
</event>
<event>
 5   0  0.2689372E-02  0.8351290E+03  0.7818609E-02  0.9510517E-01
       -1   -1    0    0    0  501  0.00000000000E+00  0.00000000000E+00  0.29731996706E+03  0.29731996711E+03  0.50400001928E-02 0. -1.
        1   -1    0    0  501    0  0.00000000000E+00  0.00000000000E+00 -0.58643931893E+03  0.58643931895E+03  0.50400001928E-02 0.  1.
    10030    2    1    2    0    0  0.00000000000E+00  0.00000000000E+00 -0.28911935187E+03  0.88375928606E+03  0.83512901762E+03 0.  0.
        4    1    3    3  502    0 -0.20919310084E+03  0.30970730304E+03  0.52504784427E+02  0.37741056196E+03  0.12699999809E+01 0. -1.
       -4    1    3    3    0  502  0.20919310084E+03 -0.30970730304E+03 -0.34162413630E+03  0.50634872410E+03  0.12699999809E+01 0.  1.
</event>
<event>
 5   0  0.2606520E-02  0.7836937E+03  0.7818609E-02  0.9583924E-01
       -1   -1    0    0    0  501  0.00000000000E+00  0.00000000000E+00  0.15516616897E+03  0.15516616906E+03  0.50400001928E-02 0. -1.
        1   -1    0    0  501    0  0.00000000000E+00  0.00000000000E+00 -0.98954518603E+03  0.98954518604E+03  0.50400001928E-02 0.  1.
    10030    2    1    2    0    0  0.00000000000E+00  0.00000000000E+00 -0.83437901706E+03  0.11447113551E+04  0.78369365341E+03 0.  0.
        5    1    3    3  502    0  0.19713788666E+03 -0.48026819117E+02  0.72408810368E+02  0.21548792897E+03  0.46999998093E+01 0. -1.
       -5    1    3    3    0  502 -0.19713788666E+03  0.48026819117E+02 -0.90678782742E+03  0.92922342613E+03  0.46999998093E+01 0.  1.
</event>
<event>
 5   0  0.4590462E-02  0.7913052E+03  0.7818609E-02  0.9572688E-01
       -2   -1    0    0    0  501  0.00000000000E+00  0.00000000000E+00  0.13109788464E+03  0.13109788467E+03  0.25500000920E-02 0.  1.
        2   -1    0    0  501    0  0.00000000000E+00  0.00000000000E+00 -0.11940770597E+04  0.11940770597E+04  0.25500000920E-02 0. -1.
    10030    2    1    2    0    0  0.00000000000E+00  0.00000000000E+00 -0.10629791751E+04  0.13251749444E+04  0.79130519181E+03 0.  0.
        3    1    3    3  502    0  0.32368278402E+03  0.22369683748E+03 -0.60114753319E+03  0.71846307256E+03  0.10100000352E+00 0.  1.
       -3    1    3    3    0  502 -0.32368278402E+03 -0.22369683748E+03 -0.46183164189E+03  0.60671187183E+03  0.10100000352E+00 0. -1.
</event>
<event>
 5   0  0.2635243E-02  0.7951955E+03  0.7818609E-02  0.9566998E-01
        1   -1    0    0  501    0  0.00000000000E+00  0.00000000000E+00  0.53049306916E+03  0.53049306919E+03  0.50400001928E-02 0.  1.
       -1   -1    0    0    0  501  0.00000000000E+00  0.00000000000E+00 -0.29799437840E+03  0.29799437845E+03  0.50400001928E-02 0. -1.
    10030    2    1    2    0    0  0.00000000000E+00  0.00000000000E+00  0.23249869076E+03  0.82848744764E+03  0.79519545376E+03 0.  0.
        1    1    3    3  502    0  0.32689239170E+03 -0.22519564443E+03  0.92669111987E+02  0.40762639557E+03  0.50400001928E-02 0.  1.
       -1    1    3    3    0  502 -0.32689239170E+03  0.22519564443E+03  0.13982957877E+03  0.42086105207E+03  0.50400001928E-02 0. -1.
</event>
<event>
 5   0  0.4684283E-02  0.7732725E+03  0.7818609E-02  0.9599531E-01
       -2   -1    0    0    0  501  0.00000000000E+00  0.00000000000E+00  0.30356067104E+03  0.30356067105E+03  0.25500000920E-02 0.  1.
        2   -1    0    0  501    0  0.00000000000E+00  0.00000000000E+00 -0.49244719580E+03  0.49244719581E+03  0.25500000920E-02 0. -1.
    10030    2    1    2    0    0  0.00000000000E+00  0.00000000000E+00 -0.18888652476E+03  0.79600786686E+03  0.77327252949E+03 0.  0.
        1    1    3    3  502    0  0.29334406231E+03  0.21171784734E+03 -0.23488175077E+03  0.43132890309E+03  0.50400001928E-02 0. -1.
       -1    1    3    3    0  502 -0.29334406231E+03 -0.21171784734E+03  0.45995226003E+02  0.36467896377E+03  0.50400001928E-02 0.  1.
</event>
<event>
 5   0  0.2689372E-02  0.9563167E+03  0.7818609E-02  0.9357798E-01
       -1   -1    0    0    0  501  0.00000000000E+00  0.00000000000E+00  0.83621795337E+03  0.83621795339E+03  0.50400001928E-02 0. -1.
        1   -1    0    0  501    0  0.00000000000E+00  0.00000000000E+00 -0.27341605672E+03  0.27341605677E+03  0.50400001928E-02 0.  1.
    10030    2    1    2    0    0  0.00000000000E+00  0.00000000000E+00  0.56280189665E+03  0.11096340102E+04  0.95631671617E+03 0.  0.
        4    1    3    3  502    0 -0.47662677971E+03  0.13464336448E+02  0.23989734825E+03  0.53376654644E+03  0.12699999809E+01 0. -1.
       -4    1    3    3    0  502  0.47662677971E+03 -0.13464336448E+02  0.32290454839E+03  0.57586746372E+03  0.12699999809E+01 0.  1.
</event>
<event>
 5   0  0.2606520E-02  0.7734212E+03  0.7818609E-02  0.9599306E-01
       -1   -1    0    0    0  501  0.00000000000E+00  0.00000000000E+00  0.31231042636E+03  0.31231042640E+03  0.50400001928E-02 0. -1.
        1   -1    0    0  501    0  0.00000000000E+00  0.00000000000E+00 -0.47883470311E+03  0.47883470313E+03  0.50400001928E-02 0.  1.
    10030    2    1    2    0    0  0.00000000000E+00  0.00000000000E+00 -0.16652427675E+03  0.79114512953E+03  0.77342115386E+03 0.  0.
        5    1    3    3  502    0  0.10174999364E+03 -0.37252013840E+03 -0.10368631182E+03  0.39987154935E+03  0.46999998093E+01 0.  1.
       -5    1    3    3    0  502 -0.10174999364E+03  0.37252013840E+03 -0.62837964925E+02  0.39127358019E+03  0.46999998093E+01 0. -1.
</event>
<event>
 5   0  0.1786500E-02  0.8196303E+03  0.7818609E-02  0.9532030E-01
       -3   -1    0    0    0  501  0.00000000000E+00  0.00000000000E+00  0.35179366511E+03  0.35179367960E+03  0.10100000352E+00 0. -1.
        3   -1    0    0  501    0  0.00000000000E+00  0.00000000000E+00 -0.47740616131E+03  0.47740617199E+03  0.10100000352E+00 0.  1.
    10030    2    1    2    0    0  0.00000000000E+00  0.00000000000E+00 -0.12561249621E+03  0.82919985160E+03  0.81963034027E+03 0.  0.
        5    1    3    3  502    0  0.40265823776E+03 -0.63099291453E+02 -0.19751089646E+02  0.40807765506E+03  0.46999998093E+01 0. -1.
       -5    1    3    3    0  502 -0.40265823776E+03  0.63099291453E+02 -0.10586140656E+03  0.42112219654E+03  0.46999998093E+01 0.  1.
</event>
<event>
 5   0  0.2769394E-02  0.7466793E+03  0.7818609E-02  0.9640574E-01
        1   -1    0    0  501    0  0.00000000000E+00  0.00000000000E+00  0.30136072037E+04  0.30136072037E+04  0.50400001928E-02 0. -1.
       -1   -1    0    0    0  501  0.00000000000E+00  0.00000000000E+00 -0.46251047388E+02  0.46251047663E+02  0.50400001928E-02 0.  1.
    10030    2    1    2    0    0  0.00000000000E+00  0.00000000000E+00  0.29673561563E+04  0.30598582513E+04  0.74667928862E+03 0.  0.
        2    1    3    3  502    0  0.19234173487E+03  0.61980808173E+02  0.19724955725E+03  0.28239042370E+03  0.25500000920E-02 0.  1.
       -2    1    3    3    0  502 -0.19234173487E+03 -0.61980808173E+02  0.27701065990E+04  0.27774678276E+04  0.25500000920E-02 0. -1.
</event>
<event>
 5   0  0.2769394E-02  0.7934441E+03  0.7818609E-02  0.9569555E-01
       -1   -1    0    0    0  501  0.00000000000E+00  0.00000000000E+00  0.43428474339E+03  0.43428474342E+03  0.50400001928E-02 0. -1.
        1   -1    0    0  501    0  0.00000000000E+00  0.00000000000E+00 -0.36240825627E+03  0.36240825631E+03  0.50400001928E-02 0.  1.
    10030    2    1    2    0    0  0.00000000000E+00  0.00000000000E+00  0.71876487114E+02  0.79669299973E+03  0.79344407895E+03 0.  0.
        2    1    3    3  502    0 -0.16261397022E+03  0.25081225021E+03 -0.22597132647E+03  0.37471739826E+03  0.25500000920E-02 0.  1.
       -2    1    3    3    0  502  0.16261397022E+03 -0.25081225021E+03  0.29784781358E+03  0.42197560146E+03  0.25500000920E-02 0. -1.
</event>
<event>
 5   0  0.1786500E-02  0.7430109E+03  0.7818609E-02  0.9646379E-01
        3   -1    0    0  501    0  0.00000000000E+00  0.00000000000E+00  0.74252150595E+03  0.74252151282E+03  0.10100000352E+00 0.  1.
       -3   -1    0    0    0  501  0.00000000000E+00  0.00000000000E+00 -0.18587511425E+03  0.18587514169E+03  0.10100000352E+00 0. -1.
    10030    2    1    2    0    0  0.00000000000E+00  0.00000000000E+00  0.55664639169E+03  0.92839665451E+03  0.74301086312E+03 0.  0.
        5    1    3    3  502    0 -0.56961136619E+02  0.11404925065E+03 -0.15764952957E+03  0.20279858685E+03  0.46999998093E+01 0. -1.
       -5    1    3    3    0  502  0.56961136619E+02 -0.11404925065E+03  0.71429592126E+03  0.72559806766E+03  0.46999998093E+01 0.  1.
</event>
<event>
 5   0  0.2606520E-02  0.7831803E+03  0.7818609E-02  0.9584687E-01
       -1   -1    0    0    0  501  0.00000000000E+00  0.00000000000E+00  0.37774786373E+03  0.37774786377E+03  0.50400001928E-02 0. -1.
        1   -1    0    0  501    0  0.00000000000E+00  0.00000000000E+00 -0.40593962962E+03  0.40593962965E+03  0.50400001928E-02 0.  1.
    10030    2    1    2    0    0  0.00000000000E+00  0.00000000000E+00 -0.28191765890E+02  0.78368749342E+03  0.78318025491E+03 0.  0.
        5    1    3    3  502    0 -0.35028468781E+03  0.32597952636E+02  0.15794204785E+03  0.38565498766E+03  0.46999998093E+01 0. -1.
       -5    1    3    3    0  502  0.35028468781E+03 -0.32597952636E+02 -0.18613381374E+03  0.39803250576E+03  0.46999998093E+01 0.  1.
</event>
<event>
 5   0  0.4377843E-02  0.8199020E+03  0.7818609E-02  0.9531648E-01
        2   -1    0    0  501    0  0.00000000000E+00  0.00000000000E+00  0.45479302311E+03  0.45479302311E+03  0.25500000920E-02 0. -1.
       -2   -1    0    0    0  501  0.00000000000E+00  0.00000000000E+00 -0.36953036603E+03  0.36953036604E+03  0.25500000920E-02 0.  1.
    10030    2    1    2    0    0  0.00000000000E+00  0.00000000000E+00  0.85262657076E+02  0.82432338915E+03  0.81990202416E+03 0.  0.
        2    1    3    3  502    0 -0.14537063985E+03 -0.35400396701E+03 -0.10515932730E+03  0.39687518909E+03  0.25500000920E-02 0.  1.
       -2    1    3    3    0  502  0.14537063985E+03  0.35400396701E+03  0.19042198438E+03  0.42744820006E+03  0.25500000920E-02 0. -1.
</event>
<event>
 5   0  0.2689372E-02  0.7958060E+03  0.7818609E-02  0.9566108E-01
       -1   -1    0    0    0  501  0.00000000000E+00  0.00000000000E+00  0.27395223720E+03  0.27395223725E+03  0.50400001928E-02 0.  1.
        1   -1    0    0  501    0  0.00000000000E+00  0.00000000000E+00 -0.57793577095E+03  0.57793577097E+03  0.50400001928E-02 0. -1.
    10030    2    1    2    0    0  0.00000000000E+00  0.00000000000E+00 -0.30398353374E+03  0.85188800822E+03  0.79580600008E+03 0.  0.
        4    1    3    3  502    0  0.33564917737E+01  0.49503686512E+02 -0.57460903083E+03  0.57674867336E+03  0.12699999809E+01 0. -1.
       -4    1    3    3    0  502 -0.33564917737E+01 -0.49503686512E+02  0.27062549708E+03  0.27513933486E+03  0.12699999809E+01 0.  1.
</event>
<event>
 5   0  0.2635243E-02  0.6790464E+03  0.7818609E-02  0.9753752E-01
        1   -1    0    0  501    0  0.00000000000E+00  0.00000000000E+00  0.42607494950E+03  0.42607494953E+03  0.50400001928E-02 0.  1.
       -1   -1    0    0    0  501  0.00000000000E+00  0.00000000000E+00 -0.27055336801E+03  0.27055336806E+03  0.50400001928E-02 0. -1.
    10030    2    1    2    0    0  0.00000000000E+00  0.00000000000E+00  0.15552158148E+03  0.69662831758E+03  0.67904642739E+03 0.  0.
        1    1    3    3  502    0 -0.55369203631E+02 -0.53024900437E+02 -0.26155774571E+03  0.27256163182E+03  0.50400001928E-02 0. -1.
       -1    1    3    3    0  502  0.55369203631E+02  0.53024900437E+02  0.41707932719E+03  0.42406668576E+03  0.50400001928E-02 0.  1.
</event>
<event>
 5   0  0.2635243E-02  0.6825608E+03  0.7818609E-02  0.9747529E-01
        1   -1    0    0  501    0  0.00000000000E+00  0.00000000000E+00  0.44205515805E+03  0.44205515808E+03  0.50400001928E-02 0.  1.
       -1   -1    0    0    0  501  0.00000000000E+00  0.00000000000E+00 -0.26347911415E+03  0.26347911420E+03  0.50400001928E-02 0. -1.
    10030    2    1    2    0    0  0.00000000000E+00  0.00000000000E+00  0.17857604390E+03  0.70553427228E+03  0.68256077085E+03 0.  0.
        1    1    3    3  502    0  0.69756932023E+02  0.15450346231E+03 -0.21688231508E+03  0.27527311538E+03  0.50400001928E-02 0. -1.
       -1    1    3    3    0  502 -0.69756932023E+02 -0.15450346231E+03  0.39545835898E+03  0.43026115690E+03  0.50400001928E-02 0.  1.
</event>
<event>
 5   0  0.1786500E-02  0.7706442E+03  0.7818609E-02  0.9603508E-01
        3   -1    0    0  501    0  0.00000000000E+00  0.00000000000E+00  0.38190373565E+03  0.38190374901E+03  0.10100000352E+00 0. -1.
       -3   -1    0    0    0  501  0.00000000000E+00  0.00000000000E+00 -0.38877102481E+03  0.38877103793E+03  0.10100000352E+00 0.  1.
    10030    2    1    2    0    0  0.00000000000E+00  0.00000000000E+00 -0.68672891583E+01  0.77067478694E+03  0.77064418999E+03 0.  0.
        1    1    3    3  502    0 -0.33689218686E+03 -0.10625108917E+03 -0.15734712130E+03  0.38670887774E+03  0.50400001928E-02 0.  1.
       -1    1    3    3    0  502  0.33689218686E+03  0.10625108917E+03  0.15047983214E+03  0.38396590920E+03  0.50400001928E-02 0. -1.
</event>
<event>
 5   0  0.4700220E-02  0.5596399E+03  0.7818609E-02  0.9992870E-01
       -2   -1    0    0    0  501  0.00000000000E+00  0.00000000000E+00  0.17972635594E+03  0.17972635596E+03  0.25500000920E-02 0.  1.
        2   -1    0    0  501    0  0.00000000000E+00  0.00000000000E+00 -0.43565796158E+03  0.43565796159E+03  0.25500000920E-02 0. -1.
    10030    2    1    2    0    0  0.00000000000E+00  0.00000000000E+00 -0.25593160564E+03  0.61538431755E+03  0.55963994811E+03 0.  0.
        4    1    3    3  502    0 -0.12979884236E+03  0.20758904762E+02 -0.39959098008E+03  0.42065809854E+03  0.12699999809E+01 0. -1.
       -4    1    3    3    0  502  0.12979884236E+03 -0.20758904762E+02  0.14365937444E+03  0.19472621901E+03  0.12699999809E+01 0.  1.
</event>
<event>
 5   0  0.2635243E-02  0.7995175E+03  0.7818609E-02  0.9560716E-01
        1   -1    0    0  501    0  0.00000000000E+00  0.00000000000E+00  0.89758654090E+03  0.89758654092E+03  0.50400001928E-02 0. -1.
       -1   -1    0    0    0  501  0.00000000000E+00  0.00000000000E+00 -0.17804085455E+03  0.17804085462E+03  0.50400001928E-02 0.  1.
    10030    2    1    2    0    0  0.00000000000E+00  0.00000000000E+00  0.71954568636E+03  0.10756273955E+04  0.79951754156E+03 0.  0.
        1    1    3    3  502    0 -0.37020597234E+03  0.15082567046E+03  0.35641487321E+03  0.53556736896E+03  0.50400001928E-02 0. -1.
       -1    1    3    3    0  502  0.37020597234E+03 -0.15082567046E+03  0.36313081315E+03  0.54006002658E+03  0.50400001928E-02 0.  1.
</event>
<event>
 5   0  0.4700220E-02  0.7933242E+03  0.7818609E-02  0.9569731E-01
       -2   -1    0    0    0  501  0.00000000000E+00  0.00000000000E+00  0.80479933382E+02  0.80479933423E+02  0.25500000920E-02 0. -1.
        2   -1    0    0  501    0  0.00000000000E+00  0.00000000000E+00 -0.19550318132E+04  0.19550318132E+04  0.25500000920E-02 0.  1.
    10030    2    1    2    0    0  0.00000000000E+00  0.00000000000E+00 -0.18745518798E+04  0.20355117466E+04  0.79332422156E+03 0.  0.
        4    1    3    3  502    0  0.26321698122E+02 -0.26062898637E+03 -0.17303374096E+03  0.31394679285E+03  0.12699999809E+01 0. -1.
       -4    1    3    3    0  502 -0.26321698122E+02  0.26062898637E+03 -0.17015181388E+04  0.17215649538E+04  0.12699999809E+01 0.  1.
</event>
<event>
 5   0  0.4590462E-02  0.8449179E+03  0.7818609E-02  0.9497184E-01
        2   -1    0    0  501    0  0.00000000000E+00  0.00000000000E+00  0.82342431558E+03  0.82342431558E+03  0.25500000920E-02 0.  1.
       -2   -1    0    0    0  501  0.00000000000E+00  0.00000000000E+00 -0.21674310836E+03  0.21674310838E+03  0.25500000920E-02 0. -1.
    10030    2    1    2    0    0  0.00000000000E+00  0.00000000000E+00  0.60668120722E+03  0.10401674240E+04  0.84491785558E+03 0.  0.
        3    1    3    3  502    0 -0.77312368200E+02 -0.18305171280E+03  0.76230069037E+03  0.78777375215E+03  0.10100000352E+00 0.  1.
       -3    1    3    3    0  502  0.77312368200E+02  0.18305171280E+03 -0.15561948315E+03  0.25239367181E+03  0.10100000352E+00 0. -1.
</event>
<event>
 5   0  0.4684283E-02  0.7755724E+03  0.7818609E-02  0.9596064E-01
       -2   -1    0    0    0  501  0.00000000000E+00  0.00000000000E+00  0.12660222120E+03  0.12660222123E+03  0.25500000920E-02 0. -1.
        2   -1    0    0  501    0  0.00000000000E+00  0.00000000000E+00 -0.11878002908E+04  0.11878002908E+04  0.25500000920E-02 0.  1.
    10030    2    1    2    0    0  0.00000000000E+00  0.00000000000E+00 -0.10611980696E+04  0.13144025120E+04  0.77557244710E+03 0.  0.
        1    1    3    3  502    0  0.29538655230E+02 -0.31247661546E+03 -0.91655607000E+03  0.96880813211E+03  0.50400001928E-02 0.  1.
       -1    1    3    3    0  502 -0.29538655230E+02  0.31247661546E+03 -0.14464199960E+03  0.34559437992E+03  0.50400001928E-02 0. -1.
</event>
<event>
 5   0  0.4700220E-02  0.8089232E+03  0.7818609E-02  0.9547190E-01
       -2   -1    0    0    0  501  0.00000000000E+00  0.00000000000E+00  0.48367956719E+03  0.48367956719E+03  0.25500000920E-02 0.  1.
        2   -1    0    0  501    0  0.00000000000E+00  0.00000000000E+00 -0.33821811144E+03  0.33821811145E+03  0.25500000920E-02 0. -1.
    10030    2    1    2    0    0  0.00000000000E+00  0.00000000000E+00  0.14546145575E+03  0.82189767864E+03  0.80892320961E+03 0.  0.
        4    1    3    3  502    0 -0.32497418993E+03 -0.82980540103E+02  0.30239510400E+03  0.45159540075E+03  0.12699999809E+01 0.  1.
       -4    1    3    3    0  502  0.32497418993E+03  0.82980540103E+02 -0.15693364825E+03  0.37030227789E+03  0.12699999809E+01 0. -1.
</event>
<event>
 5   0  0.2635243E-02  0.8029445E+03  0.7818609E-02  0.9555765E-01
        1   -1    0    0  501    0  0.00000000000E+00  0.00000000000E+00  0.72421745239E+03  0.72421745241E+03  0.50400001928E-02 0.  1.
       -1   -1    0    0    0  501  0.00000000000E+00  0.00000000000E+00 -0.22255742851E+03  0.22255742856E+03  0.50400001928E-02 0. -1.
    10030    2    1    2    0    0  0.00000000000E+00  0.00000000000E+00  0.50166002389E+03  0.94677488098E+03  0.80294451594E+03 0.  0.
        1    1    3    3  502    0  0.23905200469E+03  0.64298561329E+02 -0.12185636460E+03  0.27591509483E+03  0.50400001928E-02 0. -1.
       -1    1    3    3    0  502 -0.23905200469E+03 -0.64298561329E+02  0.62351638849E+03  0.67085978615E+03  0.50400001928E-02 0.  1.
</event>
<event>
 5   0  0.4590462E-02  0.7946043E+03  0.7818609E-02  0.9567860E-01
       -2   -1    0    0    0  501  0.00000000000E+00  0.00000000000E+00  0.14585596584E+03  0.14585596586E+03  0.25500000920E-02 0. -1.
        2   -1    0    0  501    0  0.00000000000E+00  0.00000000000E+00 -0.10822252021E+04  0.10822252021E+04  0.25500000920E-02 0.  1.
    10030    2    1    2    0    0  0.00000000000E+00  0.00000000000E+00 -0.93636923629E+03  0.12280811680E+04  0.79460430940E+03 0.  0.
        3    1    3    3  502    0 -0.14513257390E+03  0.64004629650E+02  0.94796086577E+02  0.18478735037E+03  0.10100000352E+00 0. -1.
       -3    1    3    3    0  502  0.14513257390E+03 -0.64004629650E+02 -0.10311653229E+04  0.10432938176E+04  0.10100000352E+00 0.  1.
</event>
<event>
 5   0  0.2635243E-02  0.7279118E+03  0.7818609E-02  0.9670655E-01
       -1   -1    0    0    0  501  0.00000000000E+00  0.00000000000E+00  0.16407913908E+03  0.16407913916E+03  0.50400001928E-02 0. -1.
        1   -1    0    0  501    0  0.00000000000E+00  0.00000000000E+00 -0.80731715119E+03  0.80731715121E+03  0.50400001928E-02 0.  1.
    10030    2    1    2    0    0  0.00000000000E+00  0.00000000000E+00 -0.64323801211E+03  0.97139629037E+03  0.72791181658E+03 0.  0.
        1    1    3    3  502    0  0.24699053549E+01  0.21224794314E+03  0.72924397194E+02  0.22443987509E+03  0.50400001928E-02 0. -1.
       -1    1    3    3    0  502 -0.24699053549E+01 -0.21224794314E+03 -0.71616240931E+03  0.74695641528E+03  0.50400001928E-02 0.  1.
</event>
<event>
 5   0  0.4700220E-02  0.7900875E+03  0.7818609E-02  0.9574477E-01
       -2   -1    0    0    0  501  0.00000000000E+00  0.00000000000E+00  0.16372099922E+03  0.16372099924E+03  0.25500000920E-02 0. -1.
        2   -1    0    0  501    0  0.00000000000E+00  0.00000000000E+00 -0.95320427963E+03  0.95320427964E+03  0.25500000920E-02 0.  1.
    10030    2    1    2    0    0  0.00000000000E+00  0.00000000000E+00 -0.78948328041E+03  0.11169252789E+04  0.79008748158E+03 0.  0.
        4    1    3    3  502    0 -0.39165171607E+03  0.49223695958E+02 -0.41681963132E+03  0.57406816398E+03  0.12699999809E+01 0.  1.
       -4    1    3    3    0  502  0.39165171607E+03 -0.49223695958E+02 -0.37266364909E+03  0.54285711490E+03  0.12699999809E+01 0. -1.
</event>
<event>
 5   0  0.4377843E-02  0.8009303E+03  0.7818609E-02  0.9558671E-01
       -2   -1    0    0    0  501  0.00000000000E+00  0.00000000000E+00  0.33252953143E+03  0.33252953144E+03  0.25500000920E-02 0.  1.
        2   -1    0    0  501    0  0.00000000000E+00  0.00000000000E+00 -0.48228003476E+03  0.48228003477E+03  0.25500000920E-02 0. -1.
    10030    2    1    2    0    0  0.00000000000E+00  0.00000000000E+00 -0.14975050333E+03  0.81480956621E+03  0.80093034400E+03 0.  0.
        2    1    3    3  502    0 -0.28262586204E+02 -0.54562374223E+01 -0.48122626827E+03  0.48208636735E+03  0.25500000920E-02 0. -1.
       -2    1    3    3    0  502  0.28262586204E+02  0.54562374223E+01  0.33147576494E+03  0.33272319886E+03  0.25500000920E-02 0.  1.
</event>
<event>
 5   0  0.4684283E-02  0.8144967E+03  0.7818609E-02  0.9539268E-01
       -2   -1    0    0    0  501  0.00000000000E+00  0.00000000000E+00  0.27697758731E+03  0.27697758732E+03  0.25500000920E-02 0.  1.
        2   -1    0    0  501    0  0.00000000000E+00  0.00000000000E+00 -0.59878930321E+03  0.59878930322E+03  0.25500000920E-02 0. -1.
    10030    2    1    2    0    0  0.00000000000E+00  0.00000000000E+00 -0.32181171590E+03  0.87576689054E+03  0.81449669494E+03 0.  0.
        1    1    3    3  502    0 -0.89189737904E+02  0.21831164408E+03  0.19608884500E+03  0.30670118756E+03  0.50400001928E-02 0.  1.
       -1    1    3    3    0  502  0.89189737904E+02 -0.21831164408E+03 -0.51790056091E+03  0.56906570298E+03  0.50400001928E-02 0. -1.
</event>
<event>
 5   0  0.4590462E-02  0.7264746E+03  0.7818609E-02  0.9672998E-01
        2   -1    0    0  501    0  0.00000000000E+00  0.00000000000E+00  0.78092141787E+03  0.78092141787E+03  0.25500000920E-02 0. -1.
       -2   -1    0    0    0  501  0.00000000000E+00  0.00000000000E+00 -0.16895598261E+03  0.16895598263E+03  0.25500000920E-02 0.  1.
    10030    2    1    2    0    0  0.00000000000E+00  0.00000000000E+00  0.61196543526E+03  0.94987740050E+03  0.72647462586E+03 0.  0.
        3    1    3    3  502    0  0.30867830181E+03  0.14974337783E+03  0.14997699965E+03  0.37443087992E+03  0.10100000352E+00 0.  1.
       -3    1    3    3    0  502 -0.30867830181E+03 -0.14974337783E+03  0.46198843561E+03  0.57544652058E+03  0.10100000352E+00 0. -1.
</event>
<event>
 5   0  0.1786500E-02  0.5391447E+03  0.7818609E-02  0.1004038E+00
        3   -1    0    0  501    0  0.00000000000E+00  0.00000000000E+00  0.22677205387E+03  0.22677207636E+03  0.10100000352E+00 0.  1.
       -3   -1    0    0    0  501  0.00000000000E+00  0.00000000000E+00 -0.32045062187E+03  0.32045063779E+03  0.10100000352E+00 0. -1.
    10030    2    1    2    0    0  0.00000000000E+00  0.00000000000E+00 -0.93678568002E+02  0.54722271415E+03  0.53914471599E+03 0.  0.
        1    1    3    3  502    0 -0.17494618609E+03 -0.68294984709E+02 -0.24312472111E+03  0.30721328586E+03  0.50400001928E-02 0.  1.
       -1    1    3    3    0  502  0.17494618609E+03  0.68294984709E+02  0.14944615311E+03  0.24000942829E+03  0.50400001928E-02 0. -1.
</event>
<event>
 5   0  0.4377843E-02  0.8079015E+03  0.7818609E-02  0.9548650E-01
       -2   -1    0    0    0  501  0.00000000000E+00  0.00000000000E+00  0.27587285367E+03  0.27587285368E+03  0.25500000920E-02 0.  1.
        2   -1    0    0  501    0  0.00000000000E+00  0.00000000000E+00 -0.59149056963E+03  0.59149056964E+03  0.25500000920E-02 0. -1.
    10030    2    1    2    0    0  0.00000000000E+00  0.00000000000E+00 -0.31561771597E+03  0.86736342332E+03  0.80790145778E+03 0.  0.
        2    1    3    3  502    0  0.75620307952E+02  0.34668863171E+03  0.49439851977E+02  0.35826768944E+03  0.25500000920E-02 0.  1.
       -2    1    3    3    0  502 -0.75620307952E+02 -0.34668863171E+03 -0.36505756794E+03  0.50909573387E+03  0.25500000920E-02 0. -1.
</event>
<event>
 5   0  0.2769394E-02  0.7769763E+03  0.7818609E-02  0.9593954E-01
       -1   -1    0    0    0  501  0.00000000000E+00  0.00000000000E+00  0.12600301011E+03  0.12600301021E+03  0.50400001928E-02 0. -1.
        1   -1    0    0  501    0  0.00000000000E+00  0.00000000000E+00 -0.11977733084E+04  0.11977733084E+04  0.50400001928E-02 0.  1.
    10030    2    1    2    0    0  0.00000000000E+00  0.00000000000E+00 -0.10717702983E+04  0.13237763186E+04  0.77697629913E+03 0.  0.
        2    1    3    3  502    0 -0.10110609041E+03 -0.35383700413E+03 -0.74800061732E+03  0.83362341049E+03  0.25500000920E-02 0.  1.
       -2    1    3    3    0  502  0.10110609041E+03  0.35383700413E+03 -0.32376968094E+03  0.49015290809E+03  0.25500000920E-02 0. -1.
</event>
<event>
 5   0  0.2769394E-02  0.8060131E+03  0.7818609E-02  0.9551354E-01
        1   -1    0    0  501    0  0.00000000000E+00  0.00000000000E+00  0.48156569431E+03  0.48156569434E+03  0.50400001928E-02 0.  1.
       -1   -1    0    0    0  501  0.00000000000E+00  0.00000000000E+00 -0.33726298291E+03  0.33726298295E+03  0.50400001928E-02 0. -1.
    10030    2    1    2    0    0  0.00000000000E+00  0.00000000000E+00  0.14430271140E+03  0.81882867729E+03  0.80601310798E+03 0.  0.
        2    1    3    3  502    0  0.30534717424E+03 -0.85032582992E+02  0.32499994662E+03  0.45397401059E+03  0.25500000920E-02 0.  1.
       -2    1    3    3    0  502 -0.30534717424E+03  0.85032582992E+02 -0.18069723521E+03  0.36485466669E+03  0.25500000920E-02 0. -1.
</event>
<event>
 5   0  0.2689372E-02  0.8271100E+03  0.7818609E-02  0.9521585E-01
       -1   -1    0    0    0  501  0.00000000000E+00  0.00000000000E+00  0.96453937825E+02  0.96453937957E+02  0.50400001928E-02 0.  1.
        1   -1    0    0  501    0  0.00000000000E+00  0.00000000000E+00 -0.17731546518E+04  0.17731546518E+04  0.50400001928E-02 0. -1.
    10030    2    1    2    0    0  0.00000000000E+00  0.00000000000E+00 -0.16767007140E+04  0.18696085898E+04  0.82711002574E+03 0.  0.
        4    1    3    3  502    0  0.13278263553E+03 -0.23774349009E+03 -0.13481058989E+03  0.30385638618E+03  0.12699999809E+01 0.  1.
       -4    1    3    3    0  502 -0.13278263553E+03  0.23774349009E+03 -0.15418901241E+04  0.15657522036E+04  0.12699999809E+01 0. -1.
</event>
<event>
 5   0  0.2606520E-02  0.8003090E+03  0.7818609E-02  0.9559570E-01
       -1   -1    0    0    0  501  0.00000000000E+00  0.00000000000E+00  0.16409536682E+03  0.16409536689E+03  0.50400001928E-02 0. -1.
        1   -1    0    0  501    0  0.00000000000E+00  0.00000000000E+00 -0.97579625126E+03  0.97579625128E+03  0.50400001928E-02 0.  1.
    10030    2    1    2    0    0  0.00000000000E+00  0.00000000000E+00 -0.81170088445E+03  0.11398916182E+04  0.80030904991E+03 0.  0.
        5    1    3    3  502    0 -0.16065805016E+03  0.26253243210E+03 -0.77000520594E+03  0.82925532507E+03  0.46999998093E+01 0.  1.
       -5    1    3    3    0  502  0.16065805016E+03 -0.26253243210E+03 -0.41695678503E+02  0.31063629310E+03  0.46999998093E+01 0. -1.
</event>
<event>
 5   0  0.2606520E-02  0.8140604E+03  0.7818609E-02  0.9539885E-01
        1   -1    0    0  501    0  0.00000000000E+00  0.00000000000E+00  0.10839149019E+03  0.10839149031E+03  0.50400001928E-02 0.  1.
       -1   -1    0    0    0  501  0.00000000000E+00  0.00000000000E+00 -0.15284739374E+04  0.15284739374E+04  0.50400001928E-02 0. -1.
    10030    2    1    2    0    0  0.00000000000E+00  0.00000000000E+00 -0.14200824472E+04  0.16368654277E+04  0.81406036116E+03 0.  0.
        5    1    3    3  502    0  0.23821766297E+03 -0.13824812440E+03 -0.13125639697E+04  0.13411586272E+04  0.46999998093E+01 0. -1.
       -5    1    3    3    0  502 -0.23821766297E+03  0.13824812440E+03 -0.10751847750E+03  0.29570680048E+03  0.46999998093E+01 0.  1.
</event>
<event>
 5   0  0.4590462E-02  0.7984249E+03  0.7818609E-02  0.9562300E-01
       -2   -1    0    0    0  501  0.00000000000E+00  0.00000000000E+00  0.11630482201E+03  0.11630482204E+03  0.25500000920E-02 0.  1.
        2   -1    0    0  501    0  0.00000000000E+00  0.00000000000E+00 -0.13702834096E+04  0.13702834096E+04  0.25500000920E-02 0. -1.
    10030    2    1    2    0    0  0.00000000000E+00  0.00000000000E+00 -0.12539785876E+04  0.14865882317E+04  0.79842486956E+03 0.  0.
        3    1    3    3  502    0 -0.31630712213E+03 -0.23393761612E+03 -0.50079751745E+03  0.63684783695E+03  0.10100000352E+00 0.  1.
       -3    1    3    3    0  502  0.31630712213E+03  0.23393761612E+03 -0.75318107016E+03  0.84974039471E+03  0.10100000352E+00 0. -1.
</event>
<event>
 5   0  0.4590462E-02  0.7480547E+03  0.7818609E-02  0.9638407E-01
       -2   -1    0    0    0  501  0.00000000000E+00  0.00000000000E+00  0.18960882878E+03  0.18960882880E+03  0.25500000920E-02 0. -1.
        2   -1    0    0  501    0  0.00000000000E+00  0.00000000000E+00 -0.73781618662E+03  0.73781618663E+03  0.25500000920E-02 0.  1.
    10030    2    1    2    0    0  0.00000000000E+00  0.00000000000E+00 -0.54820735784E+03  0.92742501543E+03  0.74805471194E+03 0.  0.
        3    1    3    3  502    0  0.39319994685E+02 -0.36640855606E+03 -0.35344162021E+03  0.51060971498E+03  0.10100000352E+00 0.  1.
       -3    1    3    3    0  502 -0.39319994685E+02  0.36640855606E+03 -0.19476573763E+03  0.41681530045E+03  0.10100000352E+00 0. -1.
</event>
<event>
 5   0  0.2606520E-02  0.8092690E+03  0.7818609E-02  0.9546697E-01
        1   -1    0    0  501    0  0.00000000000E+00  0.00000000000E+00  0.16570447457E+03  0.16570447465E+03  0.50400001928E-02 0. -1.
       -1   -1    0    0    0  501  0.00000000000E+00  0.00000000000E+00 -0.98807877322E+03  0.98807877323E+03  0.50400001928E-02 0.  1.
    10030    2    1    2    0    0  0.00000000000E+00  0.00000000000E+00 -0.82237429864E+03  0.11537832479E+04  0.80926898867E+03 0.  0.
        5    1    3    3  502    0 -0.26923414285E+03  0.28402701666E+02 -0.83988110807E+03  0.88244892363E+03  0.46999998093E+01 0.  1.
       -5    1    3    3    0  502  0.26923414285E+03 -0.28402701666E+02  0.17506809425E+02  0.27133432424E+03  0.46999998093E+01 0. -1.
</event>
<event>
 5   0  0.4684283E-02  0.7907469E+03  0.7818609E-02  0.9573508E-01
        2   -1    0    0  501    0  0.00000000000E+00  0.00000000000E+00  0.76319823422E+03  0.76319823423E+03  0.25500000920E-02 0.  1.
       -2   -1    0    0    0  501  0.00000000000E+00  0.00000000000E+00 -0.20482248619E+03  0.20482248621E+03  0.25500000920E-02 0. -1.
    10030    2    1    2    0    0  0.00000000000E+00  0.00000000000E+00  0.55837574803E+03  0.96802072044E+03  0.79074688694E+03 0.  0.
        1    1    3    3  502    0 -0.31044476789E+03 -0.12119556624E+03  0.53961395806E+03  0.63422988178E+03  0.50400001928E-02 0.  1.
       -1    1    3    3    0  502  0.31044476789E+03  0.12119556624E+03  0.18761789977E+02  0.33379083866E+03  0.50400001928E-02 0. -1.
</event>
<event>
 5   0  0.2769394E-02  0.7893666E+03  0.7818609E-02  0.9575537E-01
        1   -1    0    0  501    0  0.00000000000E+00  0.00000000000E+00  0.19654094173E+03  0.19654094180E+03  0.50400001928E-02 0.  1.
       -1   -1    0    0    0  501  0.00000000000E+00  0.00000000000E+00 -0.79258253718E+03  0.79258253719E+03  0.50400001928E-02 0. -1.
    10030    2    1    2    0    0  0.00000000000E+00  0.00000000000E+00 -0.59604159544E+03  0.98912347899E+03  0.78936662787E+03 0.  0.
        2    1    3    3  502    0  0.24762228579E+03  0.26290251861E+03 -0.98550435781E+02  0.37436174900E+03  0.25500000920E-02 0.  1.
       -2    1    3    3    0  502 -0.24762228579E+03 -0.26290251861E+03 -0.49749115966E+03  0.61476172999E+03  0.25500000920E-02 0. -1.
</event>
<event>
 5   0  0.4590462E-02  0.7373411E+03  0.7818609E-02  0.9655422E-01
       -2   -1    0    0    0  501  0.00000000000E+00  0.00000000000E+00  0.15757112158E+03  0.15757112160E+03  0.25500000920E-02 0.  1.
        2   -1    0    0  501    0  0.00000000000E+00  0.00000000000E+00 -0.86258170709E+03  0.86258170709E+03  0.25500000920E-02 0. -1.
    10030    2    1    2    0    0  0.00000000000E+00  0.00000000000E+00 -0.70501058551E+03  0.10201528287E+04  0.73734107996E+03 0.  0.
        3    1    3    3  502    0 -0.47437375141E+02  0.27170176477E+03 -0.14040376893E+02  0.27616896264E+03  0.10100000352E+00 0.  1.
       -3    1    3    3    0  502  0.47437375141E+02 -0.27170176477E+03 -0.69097020862E+03  0.74398386605E+03  0.10100000352E+00 0. -1.
</event>
<event>
 5   0  0.4700220E-02  0.8207275E+03  0.7818609E-02  0.9530490E-01
        2   -1    0    0  501    0  0.00000000000E+00  0.00000000000E+00  0.42711420764E+03  0.42711420765E+03  0.25500000920E-02 0. -1.
       -2   -1    0    0    0  501  0.00000000000E+00  0.00000000000E+00 -0.39427017699E+03  0.39427017700E+03  0.25500000920E-02 0.  1.
    10030    2    1    2    0    0  0.00000000000E+00  0.00000000000E+00  0.32844030650E+02  0.82138438465E+03  0.82072746816E+03 0.  0.
        4    1    3    3  502    0  0.16871442586E+03  0.25789638312E+03  0.28760324809E+03  0.42153569615E+03  0.12699999809E+01 0. -1.
       -4    1    3    3    0  502 -0.16871442586E+03 -0.25789638312E+03 -0.25475921744E+03  0.39984868849E+03  0.12699999809E+01 0.  1.
</event>
<event>
 5   0  0.4663634E-02  0.7495250E+03  0.7818609E-02  0.9636096E-01
        2   -1    0    0  501    0  0.00000000000E+00  0.00000000000E+00  0.13155323387E+04  0.13155323387E+04  0.25500000920E-02 0. -1.
       -2   -1    0    0    0  501  0.00000000000E+00  0.00000000000E+00 -0.10676052262E+03  0.10676052265E+03  0.25500000920E-02 0.  1.
    10030    2    1    2    0    0  0.00000000000E+00  0.00000000000E+00  0.12087718161E+04  0.14222928613E+04  0.74952496962E+03 0.  0.
        5    1    3    3  502    0  0.67852749177E+02  0.35639676907E+03  0.78241787272E+03  0.86245143059E+03  0.46999998093E+01 0. -1.
       -5    1    3    3    0  502 -0.67852749177E+02 -0.35639676907E+03  0.42635394333E+03  0.55984143074E+03  0.46999998093E+01 0.  1.
</event>
<event>
 5   0  0.2635243E-02  0.7949723E+03  0.7818609E-02  0.9567323E-01
       -1   -1    0    0    0  501  0.00000000000E+00  0.00000000000E+00  0.63262830774E+03  0.63262830776E+03  0.50400001928E-02 0. -1.
        1   -1    0    0  501    0  0.00000000000E+00  0.00000000000E+00 -0.24974416476E+03  0.24974416481E+03  0.50400001928E-02 0.  1.
    10030    2    1    2    0    0  0.00000000000E+00  0.00000000000E+00  0.38288414299E+03  0.88237247257E+03  0.79497227210E+03 0.  0.
        1    1    3    3  502    0  0.31829770527E+02  0.30667585695E+01 -0.24831417676E+03  0.25036467343E+03  0.50400001928E-02 0.  1.
       -1    1    3    3    0  502 -0.31829770527E+02 -0.30667585695E+01  0.63119831974E+03  0.63200779914E+03  0.50400001928E-02 0. -1.
</event>
<event>
 5   0  0.2759559E-02  0.7828130E+03  0.7818609E-02  0.9585233E-01
        1   -1    0    0  501    0  0.00000000000E+00  0.00000000000E+00  0.86155093089E+03  0.86155093090E+03  0.50400001928E-02 0. -1.
       -1   -1    0    0    0  501  0.00000000000E+00  0.00000000000E+00 -0.17781775905E+03  0.17781775912E+03  0.50400001928E-02 0.  1.
    10030    2    1    2    0    0  0.00000000000E+00  0.00000000000E+00  0.68373317184E+03  0.10393686900E+04  0.78281301951E+03 0.  0.
        3    1    3    3  502    0  0.30672884576E+03 -0.11586741020E+02  0.66432380491E+03  0.73180801127E+03  0.10100000352E+00 0. -1.
       -3    1    3    3    0  502 -0.30672884576E+03  0.11586741020E+02  0.19409366928E+02  0.30756067875E+03  0.10100000352E+00 0.  1.
</event>
<event>
 5   0  0.2689372E-02  0.8118261E+03  0.7818609E-02  0.9543055E-01
        1   -1    0    0  501    0  0.00000000000E+00  0.00000000000E+00  0.48218136989E+03  0.48218136992E+03  0.50400001928E-02 0. -1.
       -1   -1    0    0    0  501  0.00000000000E+00  0.00000000000E+00 -0.34170836847E+03  0.34170836851E+03  0.50400001928E-02 0.  1.
    10030    2    1    2    0    0  0.00000000000E+00  0.00000000000E+00  0.14047300142E+03  0.82388973843E+03  0.81182611252E+03 0.  0.
        4    1    3    3  502    0  0.68824459126E+02 -0.22115525356E+03 -0.26805960886E+03  0.35426546424E+03  0.12699999809E+01 0.  1.
       -4    1    3    3    0  502 -0.68824459126E+02  0.22115525356E+03  0.40853261027E+03  0.46962427419E+03  0.12699999809E+01 0. -1.
</event>
<event>
 5   0  0.2606520E-02  0.7985432E+03  0.7818609E-02  0.9562128E-01
        1   -1    0    0  501    0  0.00000000000E+00  0.00000000000E+00  0.57593360336E+03  0.57593360339E+03  0.50400001928E-02 0. -1.
       -1   -1    0    0    0  501  0.00000000000E+00  0.00000000000E+00 -0.27679892688E+03  0.27679892693E+03  0.50400001928E-02 0.  1.
    10030    2    1    2    0    0  0.00000000000E+00  0.00000000000E+00  0.29913467648E+03  0.85273253031E+03  0.79854318204E+03 0.  0.
        5    1    3    3  502    0 -0.21754479113E+03 -0.21324919693E+03  0.42513893012E+03  0.52303552082E+03  0.46999998093E+01 0. -1.
       -5    1    3    3    0  502  0.21754479113E+03  0.21324919693E+03 -0.12600425363E+03  0.32969700950E+03  0.46999998093E+01 0.  1.
</event>
<event>
 5   0  0.4590462E-02  0.8038164E+03  0.7818609E-02  0.9554509E-01
        2   -1    0    0  501    0  0.00000000000E+00  0.00000000000E+00  0.27643097582E+03  0.27643097583E+03  0.25500000920E-02 0.  1.
       -2   -1    0    0    0  501  0.00000000000E+00  0.00000000000E+00 -0.58434182867E+03  0.58434182867E+03  0.25500000920E-02 0. -1.
    10030    2    1    2    0    0  0.00000000000E+00  0.00000000000E+00 -0.30791085285E+03  0.86077280451E+03  0.80381635196E+03 0.  0.
        3    1    3    3  502    0  0.35077291308E+03 -0.82132243590E+02  0.36834095754E+02  0.36213823714E+03  0.10100000352E+00 0.  1.
       -3    1    3    3    0  502 -0.35077291308E+03  0.82132243590E+02 -0.34474494860E+03  0.49863456737E+03  0.10100000352E+00 0. -1.
</event>
<event>
 5   0  0.2769394E-02  0.7895200E+03  0.7818609E-02  0.9575312E-01
       -1   -1    0    0    0  501  0.00000000000E+00  0.00000000000E+00  0.78367984468E+03  0.78367984470E+03  0.50400001928E-02 0. -1.
        1   -1    0    0  501    0  0.00000000000E+00  0.00000000000E+00 -0.19885092326E+03  0.19885092332E+03  0.50400001928E-02 0.  1.
    10030    2    1    2    0    0  0.00000000000E+00  0.00000000000E+00  0.58482892142E+03  0.98253076802E+03  0.78952000784E+03 0.  0.
        2    1    3    3  502    0  0.17385861115E+03  0.33516198040E+03  0.43579881697E+03  0.57661163590E+03  0.25500000920E-02 0. -1.
       -2    1    3    3    0  502 -0.17385861115E+03 -0.33516198040E+03  0.14903010445E+03  0.40591913212E+03  0.25500000920E-02 0.  1.
</event>
<event>
 5   0  0.2689372E-02  0.7089509E+03  0.7818609E-02  0.9702046E-01
       -1   -1    0    0    0  501  0.00000000000E+00  0.00000000000E+00  0.12290098947E+03  0.12290098958E+03  0.50400001928E-02 0.  1.
        1   -1    0    0  501    0  0.00000000000E+00  0.00000000000E+00 -0.10223907697E+04  0.10223907698E+04  0.50400001928E-02 0. -1.
    10030    2    1    2    0    0  0.00000000000E+00  0.00000000000E+00 -0.89948978027E+03  0.11452917593E+04  0.70895087925E+03 0.  0.
        4    1    3    3  502    0 -0.27291952886E+03  0.11211291480E+03 -0.76712223211E+03  0.82190784569E+03  0.12699999809E+01 0. -1.
       -4    1    3    3    0  502  0.27291952886E+03 -0.11211291480E+03 -0.13236754816E+03  0.32338391365E+03  0.12699999809E+01 0.  1.
</event>
<event>
 5   0  0.2759559E-02  0.7966187E+03  0.7818609E-02  0.9564924E-01
       -1   -1    0    0    0  501  0.00000000000E+00  0.00000000000E+00  0.37776754575E+03  0.37776754578E+03  0.50400001928E-02 0. -1.
        1   -1    0    0  501    0  0.00000000000E+00  0.00000000000E+00 -0.41996816458E+03  0.41996816461E+03  0.50400001928E-02 0.  1.
    10030    2    1    2    0    0  0.00000000000E+00  0.00000000000E+00 -0.42200618830E+02  0.79773571039E+03  0.79661871143E+03 0.  0.
        3    1    3    3  502    0 -0.25798656953E+03 -0.24592884412E+03 -0.19914800033E+03  0.40828666727E+03  0.10100000352E+00 0. -1.
       -3    1    3    3    0  502  0.25798656953E+03  0.24592884412E+03  0.15694738150E+03  0.38944904313E+03  0.10100000352E+00 0.  1.
</event>
<event>
 5   0  0.2689372E-02  0.7990275E+03  0.7818609E-02  0.9561426E-01
        1   -1    0    0  501    0  0.00000000000E+00  0.00000000000E+00  0.61680580833E+03  0.61680580835E+03  0.50400001928E-02 0.  1.
       -1   -1    0    0    0  501  0.00000000000E+00  0.00000000000E+00 -0.25877063270E+03  0.25877063275E+03  0.50400001928E-02 0. -1.
    10030    2    1    2    0    0  0.00000000000E+00  0.00000000000E+00  0.35803517562E+03  0.87557644110E+03  0.79902748214E+03 0.  0.
        4    1    3    3  502    0 -0.22324699308E+03  0.29638068641E+03  0.34128848143E+03  0.50414300714E+03  0.12699999809E+01 0.  1.
       -4    1    3    3    0  502  0.22324699308E+03 -0.29638068641E+03  0.16746694195E+02  0.37143343395E+03  0.12699999809E+01 0. -1.
</event>
<event>
 5   0  0.4377843E-02  0.7580653E+03  0.7818609E-02  0.9622781E-01
        2   -1    0    0  501    0  0.00000000000E+00  0.00000000000E+00  0.15656849831E+04  0.15656849831E+04  0.25500000920E-02 0.  1.
       -2   -1    0    0    0  501  0.00000000000E+00  0.00000000000E+00 -0.91759045226E+02  0.91759045261E+02  0.25500000920E-02 0. -1.
    10030    2    1    2    0    0  0.00000000000E+00  0.00000000000E+00  0.14739259379E+04  0.16574440284E+04  0.75806532491E+03 0.  0.
        2    1    3    3  502    0  0.11753663625E+03 -0.23757580565E+03  0.14457556763E+03  0.30192585026E+03  0.25500000920E-02 0. -1.
       -2    1    3    3    0  502 -0.11753663625E+03  0.23757580565E+03  0.13293503703E+04  0.13555181781E+04  0.25500000920E-02 0.  1.
</event>
<event>
 5   0  0.4663634E-02  0.6570678E+03  0.7818609E-02  0.9793607E-01
        2   -1    0    0  501    0  0.00000000000E+00  0.00000000000E+00  0.43224890869E+03  0.43224890869E+03  0.25500000920E-02 0. -1.
       -2   -1    0    0    0  501  0.00000000000E+00  0.00000000000E+00 -0.24970453430E+03  0.24970453431E+03  0.25500000920E-02 0.  1.
    10030    2    1    2    0    0  0.00000000000E+00  0.00000000000E+00  0.18254437439E+03  0.68195344300E+03  0.65706776652E+03 0.  0.
        5    1    3    3  502    0 -0.16206610873E+03  0.21558783602E+03 -0.10336411995E+03  0.28887673830E+03  0.46999998093E+01 0. -1.
       -5    1    3    3    0  502  0.16206610873E+03 -0.21558783602E+03  0.28590849434E+03  0.39307670470E+03  0.46999998093E+01 0.  1.
</event>
<event>
 5   0  0.4590462E-02  0.8115959E+03  0.7818609E-02  0.9543383E-01
       -2   -1    0    0    0  501  0.00000000000E+00  0.00000000000E+00  0.21818290436E+03  0.21818290438E+03  0.25500000920E-02 0.  1.
        2   -1    0    0  501    0  0.00000000000E+00  0.00000000000E+00 -0.75474283436E+03  0.75474283436E+03  0.25500000920E-02 0. -1.
    10030    2    1    2    0    0  0.00000000000E+00  0.00000000000E+00 -0.53655992999E+03  0.97292573873E+03  0.81159591831E+03 0.  0.
        3    1    3    3  502    0  0.14644120744E+03  0.73754051935E+02  0.17670405139E+03  0.24105812451E+03  0.10100000352E+00 0.  1.
       -3    1    3    3    0  502 -0.14644120744E+03 -0.73754051935E+02 -0.71326398138E+03  0.73186761423E+03  0.10100000352E+00 0. -1.
</event>
<event>
 5   0  0.4663634E-02  0.7991444E+03  0.7818609E-02  0.9561256E-01
        2   -1    0    0  501    0  0.00000000000E+00  0.00000000000E+00  0.12153306538E+04  0.12153306538E+04  0.25500000920E-02 0. -1.
       -2   -1    0    0    0  501  0.00000000000E+00  0.00000000000E+00 -0.13136997047E+03  0.13136997050E+03  0.25500000920E-02 0.  1.
    10030    2    1    2    0    0  0.00000000000E+00  0.00000000000E+00  0.10839606833E+04  0.13467006243E+04  0.79914442280E+03 0.  0.
        5    1    3    3  502    0  0.80763249967E+02  0.19013147937E+03  0.11183092081E+04  0.11372379948E+04  0.46999998093E+01 0. -1.
       -5    1    3    3    0  502 -0.80763249967E+02 -0.19013147937E+03 -0.34348524759E+02  0.20946262947E+03  0.46999998093E+01 0.  1.
</event>
<event>
 5   0  0.2689372E-02  0.7897339E+03  0.7818609E-02  0.9574997E-01
        1   -1    0    0  501    0  0.00000000000E+00  0.00000000000E+00  0.21387581544E+04  0.21387581544E+04  0.50400001928E-02 0. -1.
       -1   -1    0    0    0  501  0.00000000000E+00  0.00000000000E+00 -0.72902068402E+02  0.72902068576E+02  0.50400001928E-02 0.  1.
    10030    2    1    2    0    0  0.00000000000E+00  0.00000000000E+00  0.20658560860E+04  0.22116602230E+04  0.78973386269E+03 0.  0.
        4    1    3    3  502    0 -0.27083221549E+03  0.14752649849E+03  0.34236367717E+03  0.46079133786E+03  0.12699999809E+01 0.  1.
       -4    1    3    3    0  502  0.27083221549E+03 -0.14752649849E+03  0.17234924089E+04  0.17508688852E+04  0.12699999809E+01 0. -1.
</event>
<event>
 5   0  0.2759559E-02  0.8011348E+03  0.7818609E-02  0.9558376E-01
        1   -1    0    0  501    0  0.00000000000E+00  0.00000000000E+00  0.51165974477E+03  0.51165974479E+03  0.50400001928E-02 0.  1.
       -1   -1    0    0    0  501  0.00000000000E+00  0.00000000000E+00 -0.31359558866E+03  0.31359558870E+03  0.50400001928E-02 0. -1.
    10030    2    1    2    0    0  0.00000000000E+00  0.00000000000E+00  0.19806415611E+03  0.82525533349E+03  0.80113479236E+03 0.  0.
        3    1    3    3  502    0 -0.37436900777E+03 -0.34288110806E+02 -0.43430029729E+02  0.37843626439E+03  0.10100000352E+00 0. -1.
       -3    1    3    3    0  502  0.37436900777E+03  0.34288110806E+02  0.24149418584E+03  0.44681906910E+03  0.10100000352E+00 0.  1.
</event>
<event>
 5   0  0.2759559E-02  0.8354571E+03  0.7818609E-02  0.9510066E-01
       -1   -1    0    0    0  501  0.00000000000E+00  0.00000000000E+00  0.20325872113E+03  0.20325872119E+03  0.50400001928E-02 0. -1.
        1   -1    0    0  501    0  0.00000000000E+00  0.00000000000E+00 -0.85849774026E+03  0.85849774027E+03  0.50400001928E-02 0.  1.
    10030    2    1    2    0    0  0.00000000000E+00  0.00000000000E+00 -0.65523901913E+03  0.10617564615E+04  0.83545712713E+03 0.  0.
        3    1    3    3  502    0  0.30268877519E+03  0.19035755891E+03 -0.53156999355E+02  0.36149989163E+03  0.10100000352E+00 0. -1.
       -3    1    3    3    0  502 -0.30268877519E+03 -0.19035755891E+03 -0.60208201978E+03  0.70025656984E+03  0.10100000352E+00 0.  1.
</event>
<event>
 5   0  0.2606520E-02  0.8116835E+03  0.7818609E-02  0.9543258E-01
        1   -1    0    0  501    0  0.00000000000E+00  0.00000000000E+00  0.13801767588E+04  0.13801767588E+04  0.50400001928E-02 0.  1.
       -1   -1    0    0    0  501  0.00000000000E+00  0.00000000000E+00 -0.11933797966E+03  0.11933797976E+03  0.50400001928E-02 0. -1.
    10030    2    1    2    0    0  0.00000000000E+00  0.00000000000E+00  0.12608387792E+04  0.14995147386E+04  0.81168345074E+03 0.  0.
        5    1    3    3  502    0  0.10600637956E+03 -0.16207269378E+03 -0.28412057891E+02  0.19579133180E+03  0.46999998093E+01 0. -1.
       -5    1    3    3    0  502 -0.10600637956E+03  0.16207269378E+03  0.12892508371E+04  0.13037234068E+04  0.46999998093E+01 0.  1.
</event>
<event>
 5   0  0.4377843E-02  0.7971591E+03  0.7818609E-02  0.9564138E-01
       -2   -1    0    0    0  501  0.00000000000E+00  0.00000000000E+00  0.27422595500E+03  0.27422595501E+03  0.25500000920E-02 0. -1.
        2   -1    0    0  501    0  0.00000000000E+00  0.00000000000E+00 -0.57932395523E+03  0.57932395523E+03  0.25500000920E-02 0.  1.
    10030    2    1    2    0    0  0.00000000000E+00  0.00000000000E+00 -0.30509800023E+03  0.85354991024E+03  0.79715911807E+03 0.  0.
        2    1    3    3  502    0  0.33291808462E+02  0.32205115332E+03 -0.40145942151E+03  0.51574698932E+03  0.25500000920E-02 0.  1.
       -2    1    3    3    0  502 -0.33291808462E+02 -0.32205115332E+03  0.96361421282E+02  0.33780292092E+03  0.25500000920E-02 0. -1.
</event>
<event>
 5   0  0.4590462E-02  0.7687978E+03  0.7818609E-02  0.9606313E-01
       -2   -1    0    0    0  501  0.00000000000E+00  0.00000000000E+00  0.15387659119E+03  0.15387659121E+03  0.25500000920E-02 0.  1.
        2   -1    0    0  501    0  0.00000000000E+00  0.00000000000E+00 -0.96026637174E+03  0.96026637174E+03  0.25500000920E-02 0. -1.
    10030    2    1    2    0    0  0.00000000000E+00  0.00000000000E+00 -0.80638978055E+03  0.11141429630E+04  0.76879780419E+03 0.  0.
        3    1    3    3  502    0  0.36752307867E+03 -0.17805337927E+02 -0.24199922944E+03  0.44040195352E+03  0.10100000352E+00 0. -1.
       -3    1    3    3    0  502 -0.36752307867E+03  0.17805337927E+02 -0.56439055110E+03  0.67374100943E+03  0.10100000352E+00 0.  1.
</event>
<event>
 5   0  0.4590462E-02  0.7866616E+03  0.7818609E-02  0.9579527E-01
       -2   -1    0    0    0  501  0.00000000000E+00  0.00000000000E+00  0.11693827361E+03  0.11693827364E+03  0.25500000920E-02 0. -1.
        2   -1    0    0  501    0  0.00000000000E+00  0.00000000000E+00 -0.13229981004E+04  0.13229981004E+04  0.25500000920E-02 0.  1.
    10030    2    1    2    0    0  0.00000000000E+00  0.00000000000E+00 -0.12060598268E+04  0.14399363740E+04  0.78666158892E+03 0.  0.
        3    1    3    3  502    0  0.19232532641E+03  0.23352319861E+03 -0.10631478729E+04  0.11053531225E+04  0.10100000352E+00 0.  1.
       -3    1    3    3    0  502 -0.19232532641E+03 -0.23352319861E+03 -0.14291195386E+03  0.33458325156E+03  0.10100000352E+00 0. -1.
</event>
<event>
 5   0  0.2769394E-02  0.7975156E+03  0.7818609E-02  0.9563620E-01
       -1   -1    0    0    0  501  0.00000000000E+00  0.00000000000E+00  0.21344665996E+03  0.21344666002E+03  0.50400001928E-02 0. -1.
        1   -1    0    0  501    0  0.00000000000E+00  0.00000000000E+00 -0.74495322615E+03  0.74495322617E+03  0.50400001928E-02 0.  1.
    10030    2    1    2    0    0  0.00000000000E+00  0.00000000000E+00 -0.53150656619E+03  0.95839988618E+03  0.79751558726E+03 0.  0.
        2    1    3    3  502    0 -0.26226778497E+03 -0.10509307703E+03 -0.60390540678E+03  0.66673134486E+03  0.25500000920E-02 0.  1.
       -2    1    3    3    0  502  0.26226778497E+03  0.10509307703E+03  0.72398840590E+02  0.29166854132E+03  0.25500000920E-02 0. -1.
</event>
<event>
 5   0  0.4700220E-02  0.8031620E+03  0.7818609E-02  0.9555451E-01
        2   -1    0    0  501    0  0.00000000000E+00  0.00000000000E+00  0.20415804966E+04  0.20415804966E+04  0.25500000920E-02 0. -1.
       -2   -1    0    0    0  501  0.00000000000E+00  0.00000000000E+00 -0.78991402358E+02  0.78991402399E+02  0.25500000920E-02 0.  1.
    10030    2    1    2    0    0  0.00000000000E+00  0.00000000000E+00  0.19625890943E+04  0.21205718990E+04  0.80316201728E+03 0.  0.
        4    1    3    3  502    0  0.65456894754E+01  0.26859345938E+03  0.17693212283E+04  0.17896045692E+04  0.12699999809E+01 0. -1.
       -4    1    3    3    0  502 -0.65456894754E+01 -0.26859345938E+03  0.19326786600E+03  0.33096732981E+03  0.12699999809E+01 0.  1.
</event>
<event>
 5   0  0.4590462E-02  0.8042366E+03  0.7818609E-02  0.9553905E-01
       -2   -1    0    0    0  501  0.00000000000E+00  0.00000000000E+00  0.92148875405E+02  0.92148875440E+02  0.25500000920E-02 0.  1.
        2   -1    0    0  501    0  0.00000000000E+00  0.00000000000E+00 -0.17547596874E+04  0.17547596874E+04  0.25500000920E-02 0. -1.
    10030    2    1    2    0    0  0.00000000000E+00  0.00000000000E+00 -0.16626108120E+04  0.18469085629E+04  0.80423661155E+03 0.  0.
        3    1    3    3  502    0 -0.14444930121E+03  0.72463279887E+02 -0.16769025833E+04  0.16846717222E+04  0.10100000352E+00 0. -1.
       -3    1    3    3    0  502  0.14444930121E+03 -0.72463279887E+02  0.14291771240E+02  0.16223684069E+03  0.10100000352E+00 0.  1.
</event>
<event>
 5   0  0.4590462E-02  0.7944831E+03  0.7818609E-02  0.9568037E-01
       -2   -1    0    0    0  501  0.00000000000E+00  0.00000000000E+00  0.55788759993E+03  0.55788759993E+03  0.25500000920E-02 0. -1.
        2   -1    0    0  501    0  0.00000000000E+00  0.00000000000E+00 -0.28285422035E+03  0.28285422036E+03  0.25500000920E-02 0.  1.
    10030    2    1    2    0    0  0.00000000000E+00  0.00000000000E+00  0.27503337958E+03  0.84074182030E+03  0.79448313293E+03 0.  0.
        3    1    3    3  502    0 -0.11288698036E+03  0.25174366445E+03 -0.16492559055E+03  0.32143242454E+03  0.10100000352E+00 0.  1.
       -3    1    3    3    0  502  0.11288698036E+03 -0.25174366445E+03  0.43995897013E+03  0.51930939576E+03  0.10100000352E+00 0. -1.
</event>
<event>
 5   0  0.1786500E-02  0.7941663E+03  0.7818609E-02  0.9568500E-01
        3   -1    0    0  501    0  0.00000000000E+00  0.00000000000E+00  0.33394741702E+03  0.33394743229E+03  0.10100000352E+00 0.  1.
       -3   -1    0    0    0  501  0.00000000000E+00  0.00000000000E+00 -0.47215517243E+03  0.47215518323E+03  0.10100000352E+00 0. -1.
    10030    2    1    2    0    0  0.00000000000E+00  0.00000000000E+00 -0.13820775542E+03  0.80610261552E+03  0.79416625658E+03 0.  0.
        3    1    3    3  502    0  0.28598645683E+03  0.56573194535E+02 -0.34275985859E+03  0.44997012200E+03  0.10100000352E+00 0. -1.
       -3    1    3    3    0  502 -0.28598645683E+03 -0.56573194535E+02  0.20455210318E+03  0.35613249352E+03  0.10100000352E+00 0.  1.
</event>
<event>
 5   0  0.4590462E-02  0.7723614E+03  0.7818609E-02  0.9600908E-01
        2   -1    0    0  501    0  0.00000000000E+00  0.00000000000E+00  0.10566970771E+04  0.10566970771E+04  0.25500000920E-02 0.  1.
       -2   -1    0    0    0  501  0.00000000000E+00  0.00000000000E+00 -0.14113366350E+03  0.14113366352E+03  0.25500000920E-02 0. -1.
    10030    2    1    2    0    0  0.00000000000E+00  0.00000000000E+00  0.91556341355E+03  0.11978307406E+04  0.77236139134E+03 0.  0.
        3    1    3    3  502    0  0.22261161128E+03 -0.26033517746E+03  0.18119973780E+03  0.38750959895E+03  0.10100000352E+00 0.  1.
       -3    1    3    3    0  502 -0.22261161128E+03  0.26033517746E+03  0.73436367575E+03  0.81032114163E+03  0.10100000352E+00 0. -1.
</event>
<event>
 5   0  0.4663634E-02  0.8006695E+03  0.7818609E-02  0.9559048E-01
        2   -1    0    0  501    0  0.00000000000E+00  0.00000000000E+00  0.72409167163E+03  0.72409167163E+03  0.25500000920E-02 0.  1.
       -2   -1    0    0    0  501  0.00000000000E+00  0.00000000000E+00 -0.22133651485E+03  0.22133651486E+03  0.25500000920E-02 0. -1.
    10030    2    1    2    0    0  0.00000000000E+00  0.00000000000E+00  0.50275515678E+03  0.94542818650E+03  0.80066953742E+03 0.  0.
        5    1    3    3  502    0  0.36349224716E+03  0.15011341959E+03  0.16313178655E+03  0.42578717955E+03  0.46999998093E+01 0.  1.
       -5    1    3    3    0  502 -0.36349224716E+03 -0.15011341959E+03  0.33962337024E+03  0.51964100695E+03  0.46999998093E+01 0. -1.
</event>
<event>
 5   0  0.2759559E-02  0.8127781E+03  0.7818609E-02  0.9541703E-01
        1   -1    0    0  501    0  0.00000000000E+00  0.00000000000E+00  0.12645521596E+04  0.12645521596E+04  0.50400001928E-02 0.  1.
       -1   -1    0    0    0  501  0.00000000000E+00  0.00000000000E+00 -0.13060123733E+03  0.13060123743E+03  0.50400001928E-02 0. -1.
    10030    2    1    2    0    0  0.00000000000E+00  0.00000000000E+00  0.11339509223E+04  0.13951533970E+04  0.81277814140E+03 0.  0.
        3    1    3    3  502    0  0.11141858052E+03  0.23439085124E+03  0.30170006377E+02  0.26127267503E+03  0.10100000352E+00 0. -1.
       -3    1    3    3    0  502 -0.11141858052E+03 -0.23439085124E+03  0.11037809159E+04  0.11338807220E+04  0.10100000352E+00 0.  1.
</event>
<event>
 5   0  0.1786500E-02  0.8082449E+03  0.7818609E-02  0.9548159E-01
       -3   -1    0    0    0  501  0.00000000000E+00  0.00000000000E+00  0.18136714536E+03  0.18136717348E+03  0.10100000352E+00 0. -1.
        3   -1    0    0  501    0  0.00000000000E+00  0.00000000000E+00 -0.90046592041E+03  0.90046592608E+03  0.10100000352E+00 0.  1.
    10030    2    1    2    0    0  0.00000000000E+00  0.00000000000E+00 -0.71909877505E+03  0.10818330996E+04  0.80824489298E+03 0.  0.
        1    1    3    3  502    0 -0.11654024619E+03  0.38528797641E+03 -0.31154047704E+03  0.50900483555E+03  0.50400001928E-02 0. -1.
       -1    1    3    3    0  502  0.11654024619E+03 -0.38528797641E+03 -0.40755829801E+03  0.57282826401E+03  0.50400001928E-02 0.  1.
</event>
<event>
 5   0  0.2769394E-02  0.8086497E+03  0.7818609E-02  0.9547581E-01
        1   -1    0    0  501    0  0.00000000000E+00  0.00000000000E+00  0.12164129457E+04  0.12164129457E+04  0.50400001928E-02 0.  1.
       -1   -1    0    0    0  501  0.00000000000E+00  0.00000000000E+00 -0.13439399842E+03  0.13439399852E+03  0.50400001928E-02 0. -1.
    10030    2    1    2    0    0  0.00000000000E+00  0.00000000000E+00  0.10820189473E+04  0.13508069442E+04  0.80864973772E+03 0.  0.
        2    1    3    3  502    0  0.18801877853E+02  0.13246480552E+03  0.11783638231E+04  0.11859349623E+04  0.25500000920E-02 0.  1.
       -2    1    3    3    0  502 -0.18801877853E+02 -0.13246480552E+03 -0.96344875814E+02  0.16487198190E+03  0.25500000920E-02 0. -1.
</event>
<event>
 5   0  0.2689372E-02  0.7928107E+03  0.7818609E-02  0.9570482E-01
       -1   -1    0    0    0  501  0.00000000000E+00  0.00000000000E+00  0.10306775151E+03  0.10306775163E+03  0.50400001928E-02 0.  1.
        1   -1    0    0  501    0  0.00000000000E+00  0.00000000000E+00 -0.15246012277E+04  0.15246012277E+04  0.50400001928E-02 0. -1.
    10030    2    1    2    0    0  0.00000000000E+00  0.00000000000E+00 -0.14215334762E+04  0.16276689794E+04  0.79281074814E+03 0.  0.
        4    1    3    3  502    0  0.33782460227E+03 -0.15238449515E+03 -0.99957506087E+03  0.10660667950E+04  0.12699999809E+01 0. -1.
       -4    1    3    3    0  502 -0.33782460227E+03  0.15238449515E+03 -0.42195841534E+03  0.56160218432E+03  0.12699999809E+01 0.  1.
</event>
<event>
 5   0  0.4590462E-02  0.8160624E+03  0.7818609E-02  0.9537054E-01
       -2   -1    0    0    0  501  0.00000000000E+00  0.00000000000E+00  0.97658138305E+02  0.97658138338E+02  0.25500000920E-02 0.  1.
        2   -1    0    0  501    0  0.00000000000E+00  0.00000000000E+00 -0.17048191159E+04  0.17048191159E+04  0.25500000920E-02 0. -1.
    10030    2    1    2    0    0  0.00000000000E+00  0.00000000000E+00 -0.16071609775E+04  0.18024772542E+04  0.81606240210E+03 0.  0.
        3    1    3    3  502    0 -0.39788715100E+03  0.29873068735E+01 -0.10031803353E+04  0.10792098518E+04  0.10100000352E+00 0. -1.
       -3    1    3    3    0  502  0.39788715100E+03 -0.29873068735E+01 -0.60398064229E+03  0.72326740242E+03  0.10100000352E+00 0.  1.
</event>
<event>
 5   0  0.4590462E-02  0.7543863E+03  0.7818609E-02  0.9628494E-01
       -2   -1    0    0    0  501  0.00000000000E+00  0.00000000000E+00  0.16383006889E+03  0.16383006891E+03  0.25500000920E-02 0. -1.
        2   -1    0    0  501    0  0.00000000000E+00  0.00000000000E+00 -0.86842825120E+03  0.86842825121E+03  0.25500000920E-02 0.  1.
    10030    2    1    2    0    0  0.00000000000E+00  0.00000000000E+00 -0.70459818231E+03  0.10322583201E+04  0.75438626773E+03 0.  0.
        3    1    3    3  502    0  0.40703141349E+02 -0.83576989911E+02  0.14790948950E+03  0.17469712717E+03  0.10100000352E+00 0. -1.
       -3    1    3    3    0  502 -0.40703141349E+02  0.83576989911E+02 -0.85250767181E+03  0.85756119295E+03  0.10100000352E+00 0.  1.
</event>
<event>
 5   0  0.4684283E-02  0.8107216E+03  0.7818609E-02  0.9544626E-01
       -2   -1    0    0    0  501  0.00000000000E+00  0.00000000000E+00  0.17179976976E+03  0.17179976978E+03  0.25500000920E-02 0.  1.
        2   -1    0    0  501    0  0.00000000000E+00  0.00000000000E+00 -0.95644692079E+03  0.95644692079E+03  0.25500000920E-02 0. -1.
    10030    2    1    2    0    0  0.00000000000E+00  0.00000000000E+00 -0.78464715103E+03  0.11282466906E+04  0.81072155710E+03 0.  0.
        1    1    3    3  502    0  0.25854904085E+03 -0.97261377355E+02  0.20532143728E+02  0.27699991155E+03  0.50400001928E-02 0.  1.
       -1    1    3    3    0  502 -0.25854904085E+03  0.97261377355E+02 -0.80517929476E+03  0.85124677901E+03  0.50400001928E-02 0. -1.
</event>
<event>
 5   0  0.2635243E-02  0.6512878E+03  0.7818609E-02  0.9804366E-01
        1   -1    0    0  501    0  0.00000000000E+00  0.00000000000E+00  0.28805005943E+03  0.28805005947E+03  0.50400001928E-02 0. -1.
       -1   -1    0    0    0  501  0.00000000000E+00  0.00000000000E+00 -0.36814417151E+03  0.36814417155E+03  0.50400001928E-02 0.  1.
    10030    2    1    2    0    0  0.00000000000E+00  0.00000000000E+00 -0.80094112085E+02  0.65619423102E+03  0.65128780277E+03 0.  0.
        1    1    3    3  502    0 -0.27517254775E+02  0.42732832890E+02  0.28402909881E+03  0.28854085207E+03  0.50400001928E-02 0. -1.
       -1    1    3    3    0  502  0.27517254775E+02 -0.42732832890E+02 -0.36412321089E+03  0.36765337895E+03  0.50400001928E-02 0.  1.
</event>
<event>
 5   0  0.4377843E-02  0.7961757E+03  0.7818609E-02  0.9565569E-01
       -2   -1    0    0    0  501  0.00000000000E+00  0.00000000000E+00  0.10180784318E+03  0.10180784321E+03  0.25500000920E-02 0. -1.
        2   -1    0    0  501    0  0.00000000000E+00  0.00000000000E+00 -0.15565985189E+04  0.15565985189E+04  0.25500000920E-02 0.  1.
    10030    2    1    2    0    0  0.00000000000E+00  0.00000000000E+00 -0.14547906757E+04  0.16584063621E+04  0.79617570407E+03 0.  0.
        2    1    3    3  502    0 -0.25075494204E+03  0.11670719337E+03 -0.13237760868E+04  0.13523615411E+04  0.25500000920E-02 0.  1.
       -2    1    3    3    0  502  0.25075494204E+03 -0.11670719337E+03 -0.13101458895E+03  0.30604482101E+03  0.25500000920E-02 0. -1.
</event>
<event>
 5   0  0.4590462E-02  0.7968922E+03  0.7818609E-02  0.9564526E-01
       -2   -1    0    0    0  501  0.00000000000E+00  0.00000000000E+00  0.14230045654E+03  0.14230045656E+03  0.25500000920E-02 0.  1.
        2   -1    0    0  501    0  0.00000000000E+00  0.00000000000E+00 -0.11156627048E+04  0.11156627048E+04  0.25500000920E-02 0. -1.
    10030    2    1    2    0    0  0.00000000000E+00  0.00000000000E+00 -0.97336224828E+03  0.12579631614E+04  0.79689224430E+03 0.  0.
        3    1    3    3  502    0 -0.71545391040E+02  0.28946308125E+03 -0.90389309646E+03  0.95180373944E+03  0.10100000352E+00 0. -1.
       -3    1    3    3    0  502  0.71545391040E+02 -0.28946308125E+03 -0.69469151817E+02  0.30615942194E+03  0.10100000352E+00 0.  1.
</event>
<event>
 5   0  0.2635243E-02  0.7997788E+03  0.7818609E-02  0.9560337E-01
       -1   -1    0    0    0  501  0.00000000000E+00  0.00000000000E+00  0.62528132096E+03  0.62528132098E+03  0.50400001928E-02 0. -1.
        1   -1    0    0  501    0  0.00000000000E+00  0.00000000000E+00 -0.25574336368E+03  0.25574336373E+03  0.50400001928E-02 0.  1.
    10030    2    1    2    0    0  0.00000000000E+00  0.00000000000E+00  0.36953795728E+03  0.88102468471E+03  0.79977884018E+03 0.  0.
        1    1    3    3  502    0  0.27478206544E+03 -0.58905835975E+02 -0.12862474106E+03  0.30906213783E+03  0.50400001928E-02 0.  1.
       -1    1    3    3    0  502 -0.27478206544E+03  0.58905835975E+02  0.49816269834E+03  0.57196254689E+03  0.50400001928E-02 0. -1.
</event>
<event>
 5   0  0.4700220E-02  0.6807998E+03  0.7818609E-02  0.9750642E-01
        2   -1    0    0  501    0  0.00000000000E+00  0.00000000000E+00  0.15402905294E+04  0.15402905295E+04  0.25500000920E-02 0.  1.
       -2   -1    0    0    0  501  0.00000000000E+00  0.00000000000E+00 -0.75227425784E+02  0.75227425827E+02  0.25500000920E-02 0. -1.
    10030    2    1    2    0    0  0.00000000000E+00  0.00000000000E+00  0.14650631037E+04  0.16155179553E+04  0.68079979884E+03 0.  0.
        4    1    3    3  502    0  0.24576805872E+03 -0.13114904101E+03  0.26832323797E+03  0.38678286231E+03  0.12699999809E+01 0. -1.
       -4    1    3    3    0  502 -0.24576805872E+03  0.13114904101E+03  0.11967398657E+04  0.12287350930E+04  0.12699999809E+01 0.  1.
</event>
<event>
 5   0  0.2606520E-02  0.7853829E+03  0.7818609E-02  0.9581419E-01
       -1   -1    0    0    0  501  0.00000000000E+00  0.00000000000E+00  0.27534022301E+03  0.27534022306E+03  0.50400001928E-02 0. -1.
        1   -1    0    0  501    0  0.00000000000E+00  0.00000000000E+00 -0.56005832559E+03  0.56005832561E+03  0.50400001928E-02 0.  1.
    10030    2    1    2    0    0  0.00000000000E+00  0.00000000000E+00 -0.28471810258E+03  0.83539854867E+03  0.78538292391E+03 0.  0.
        5    1    3    3  502    0  0.31800607724E+03 -0.18896237879E+03 -0.28246613901E+03  0.46545016430E+03  0.46999998093E+01 0.  1.
       -5    1    3    3    0  502 -0.31800607724E+03  0.18896237879E+03 -0.22519635709E+01  0.36994838437E+03  0.46999998093E+01 0. -1.
</event>
<event>
 5   0  0.4663634E-02  0.8105899E+03  0.7818609E-02  0.9544814E-01
       -2   -1    0    0    0  501  0.00000000000E+00  0.00000000000E+00  0.85549125366E+02  0.85549125404E+02  0.25500000920E-02 0.  1.
        2   -1    0    0  501    0  0.00000000000E+00  0.00000000000E+00 -0.19201132318E+04  0.19201132318E+04  0.25500000920E-02 0. -1.
    10030    2    1    2    0    0  0.00000000000E+00  0.00000000000E+00 -0.18345641065E+04  0.20056623573E+04  0.81058992747E+03 0.  0.
        5    1    3    3  502    0  0.21809881301E+02  0.39640126271E+03 -0.71577593748E+03  0.81851506686E+03  0.46999998093E+01 0. -1.
       -5    1    3    3    0  502 -0.21809881301E+02 -0.39640126271E+03 -0.11187881690E+04  0.11871472904E+04  0.46999998093E+01 0.  1.
</event>
<event>
 5   0  0.4700220E-02  0.7849847E+03  0.7818609E-02  0.9582009E-01
       -2   -1    0    0    0  501  0.00000000000E+00  0.00000000000E+00  0.42895682062E+03  0.42895682063E+03  0.25500000920E-02 0.  1.
        2   -1    0    0  501    0  0.00000000000E+00  0.00000000000E+00 -0.35912759811E+03  0.35912759812E+03  0.25500000920E-02 0. -1.
    10030    2    1    2    0    0  0.00000000000E+00  0.00000000000E+00  0.69829222508E+02  0.78808441875E+03  0.78498466912E+03 0.  0.
        4    1    3    3  502    0 -0.31814984128E+03  0.19642418826E+03  0.15474605370E+03  0.40466002678E+03  0.12699999809E+01 0.  1.
       -4    1    3    3    0  502  0.31814984128E+03 -0.19642418826E+03 -0.84916831189E+02  0.38342439197E+03  0.12699999809E+01 0. -1.
</event>
<event>
 5   0  0.4590462E-02  0.8670566E+03  0.7818609E-02  0.9467726E-01
        2   -1    0    0  501    0  0.00000000000E+00  0.00000000000E+00  0.85158987057E+03  0.85158987057E+03  0.25500000920E-02 0. -1.
       -2   -1    0    0    0  501  0.00000000000E+00  0.00000000000E+00 -0.22070104177E+03  0.22070104179E+03  0.25500000920E-02 0.  1.
    10030    2    1    2    0    0  0.00000000000E+00  0.00000000000E+00  0.63088882880E+03  0.10722909124E+04  0.86705656472E+03 0.  0.
        3    1    3    3  502    0  0.52297828077E+01 -0.15125001625E+03 -0.18697168002E+03  0.24054591531E+03  0.10100000352E+00 0.  1.
       -3    1    3    3    0  502 -0.52297828077E+01  0.15125001625E+03  0.81786050881E+03  0.83174499705E+03  0.10100000352E+00 0. -1.
</event>
<event>
 5   0  0.4590462E-02  0.8056868E+03  0.7818609E-02  0.9551822E-01
        2   -1    0    0  501    0  0.00000000000E+00  0.00000000000E+00  0.69294191367E+03  0.69294191367E+03  0.25500000920E-02 0.  1.
       -2   -1    0    0    0  501  0.00000000000E+00  0.00000000000E+00 -0.23419393943E+03  0.23419393944E+03  0.25500000920E-02 0. -1.
    10030    2    1    2    0    0  0.00000000000E+00  0.00000000000E+00  0.45874797424E+03  0.92713585311E+03  0.80568677925E+03 0.  0.
        3    1    3    3  502    0 -0.35193941778E+03  0.14883988932E+03  0.37614686887E+03  0.53619133115E+03  0.10100000352E+00 0.  1.
       -3    1    3    3    0  502  0.35193941778E+03 -0.14883988932E+03  0.82601105369E+02  0.39094452196E+03  0.10100000352E+00 0. -1.
</event>
<event>
 5   0  0.4377843E-02  0.7990817E+03  0.7818609E-02  0.9561347E-01
        2   -1    0    0  501    0  0.00000000000E+00  0.00000000000E+00  0.12821067163E+04  0.12821067163E+04  0.25500000920E-02 0.  1.
       -2   -1    0    0    0  501  0.00000000000E+00  0.00000000000E+00 -0.12450828347E+03  0.12450828350E+03  0.25500000920E-02 0. -1.
    10030    2    1    2    0    0  0.00000000000E+00  0.00000000000E+00  0.11575984328E+04  0.14066149998E+04  0.79908173924E+03 0.  0.
        2    1    3    3  502    0  0.19153225263E+03 -0.16626969634E+03  0.35377963498E+02  0.25608946879E+03  0.25500000920E-02 0. -1.
       -2    1    3    3    0  502 -0.19153225263E+03  0.16626969634E+03  0.11222204693E+04  0.11505255310E+04  0.25500000920E-02 0.  1.
</event>
<event>
 5   0  0.4590462E-02  0.7937909E+03  0.7818609E-02  0.9569048E-01
       -2   -1    0    0    0  501  0.00000000000E+00  0.00000000000E+00  0.26655984237E+03  0.26655984238E+03  0.25500000920E-02 0. -1.
        2   -1    0    0  501    0  0.00000000000E+00  0.00000000000E+00 -0.59095928588E+03  0.59095928589E+03  0.25500000920E-02 0.  1.
    10030    2    1    2    0    0  0.00000000000E+00  0.00000000000E+00 -0.32439944352E+03  0.85751912827E+03  0.79379093998E+03 0.  0.
        3    1    3    3  502    0 -0.51282625020E+02 -0.25358521389E+03  0.16294696431E+03  0.30575658899E+03  0.10100000352E+00 0. -1.
       -3    1    3    3    0  502  0.51282625020E+02  0.25358521389E+03 -0.48734640782E+03  0.55176253928E+03  0.10100000352E+00 0.  1.
</event>
<event>
 5   0  0.1786500E-02  0.8059611E+03  0.7818609E-02  0.9551429E-01
       -3   -1    0    0    0  501  0.00000000000E+00  0.00000000000E+00  0.47089799528E+03  0.47089800611E+03  0.10100000352E+00 0.  1.
        3   -1    0    0  501    0  0.00000000000E+00  0.00000000000E+00 -0.34485877632E+03  0.34485879111E+03  0.10100000352E+00 0. -1.
    10030    2    1    2    0    0  0.00000000000E+00  0.00000000000E+00  0.12603921895E+03  0.81575679722E+03  0.80596108312E+03 0.  0.
        1    1    3    3  502    0 -0.11553792607E+03 -0.37783719828E+03  0.14325065756E+03  0.42027456702E+03  0.50400001928E-02 0. -1.
       -1    1    3    3    0  502  0.11553792607E+03  0.37783719828E+03 -0.17211438604E+02  0.39548223020E+03  0.50400001928E-02 0.  1.
</event>
<event>
 5   0  0.2606520E-02  0.8337280E+03  0.7818609E-02  0.9512441E-01
        1   -1    0    0  501    0  0.00000000000E+00  0.00000000000E+00  0.79855222589E+03  0.79855222591E+03  0.50400001928E-02 0.  1.
       -1   -1    0    0    0  501  0.00000000000E+00  0.00000000000E+00 -0.21761329814E+03  0.21761329820E+03  0.50400001928E-02 0. -1.
    10030    2    1    2    0    0  0.00000000000E+00  0.00000000000E+00  0.58093892775E+03  0.10161655241E+04  0.83372797399E+03 0.  0.
        5    1    3    3  502    0 -0.31518039752E+03 -0.48503948978E+01  0.62290015395E+03  0.69813243808E+03  0.46999998093E+01 0.  1.
       -5    1    3    3    0  502  0.31518039752E+03  0.48503948978E+01 -0.41961226199E+02  0.31803308603E+03  0.46999998093E+01 0. -1.
</event>
<event>
 5   0  0.4684283E-02  0.7214835E+03  0.7818609E-02  0.9681182E-01
       -2   -1    0    0    0  501  0.00000000000E+00  0.00000000000E+00  0.34614974103E+03  0.34614974104E+03  0.25500000920E-02 0.  1.
        2   -1    0    0  501    0  0.00000000000E+00  0.00000000000E+00 -0.37594891540E+03  0.37594891541E+03  0.25500000920E-02 0. -1.
    10030    2    1    2    0    0  0.00000000000E+00  0.00000000000E+00 -0.29799174369E+02  0.72209865644E+03  0.72148352639E+03 0.  0.
        1    1    3    3  502    0 -0.24177412674E+03  0.82571126475E+02 -0.26979672102E+03  0.37156828442E+03  0.50400001928E-02 0. -1.
       -1    1    3    3    0  502  0.24177412674E+03 -0.82571126475E+02  0.23999754665E+03  0.35053037202E+03  0.50400001928E-02 0.  1.
</event>
<event>
 5   0  0.2635243E-02  0.8596542E+03  0.7818609E-02  0.9477470E-01
        1   -1    0    0  501    0  0.00000000000E+00  0.00000000000E+00  0.56950610788E+03  0.56950610790E+03  0.50400001928E-02 0.  1.
       -1   -1    0    0    0  501  0.00000000000E+00  0.00000000000E+00 -0.32440623198E+03  0.32440623202E+03  0.50400001928E-02 0. -1.
    10030    2    1    2    0    0  0.00000000000E+00  0.00000000000E+00  0.24509987590E+03  0.89391233992E+03  0.85965418762E+03 0.  0.
        1    1    3    3  502    0 -0.25070224088E+03  0.29728219381E+03 -0.67839424692E+02  0.39475372564E+03  0.50400001928E-02 0. -1.
       -1    1    3    3    0  502  0.25070224088E+03 -0.29728219381E+03  0.31293930059E+03  0.49915861429E+03  0.50400001928E-02 0.  1.
</event>
<event>
 5   0  0.4700220E-02  0.8008797E+03  0.7818609E-02  0.9558745E-01
       -2   -1    0    0    0  501  0.00000000000E+00  0.00000000000E+00  0.10621513945E+03  0.10621513948E+03  0.25500000920E-02 0. -1.
        2   -1    0    0  501    0  0.00000000000E+00  0.00000000000E+00 -0.15096913313E+04  0.15096913313E+04  0.25500000920E-02 0.  1.
    10030    2    1    2    0    0  0.00000000000E+00  0.00000000000E+00 -0.14034761919E+04  0.16159064708E+04  0.80087970457E+03 0.  0.
        4    1    3    3  502    0 -0.33193542243E+03 -0.18850595663E+03 -0.45765205024E+03  0.59595522679E+03  0.12699999809E+01 0.  1.
       -4    1    3    3    0  502  0.33193542243E+03  0.18850595663E+03 -0.94582414162E+03  0.10199512440E+04  0.12699999809E+01 0. -1.
</event>
<event>
 5   0  0.4700220E-02  0.7960397E+03  0.7818609E-02  0.9565767E-01
       -2   -1    0    0    0  501  0.00000000000E+00  0.00000000000E+00  0.29213389692E+03  0.29213389693E+03  0.25500000920E-02 0.  1.
        2   -1    0    0  501    0  0.00000000000E+00  0.00000000000E+00 -0.54228489766E+03  0.54228489767E+03  0.25500000920E-02 0. -1.
    10030    2    1    2    0    0  0.00000000000E+00  0.00000000000E+00 -0.25015100074E+03  0.83441879460E+03  0.79603969852E+03 0.  0.
        4    1    3    3  502    0 -0.12722684807E+03 -0.25192666130E+02  0.26936013213E+03  0.29896125999E+03  0.12699999809E+01 0.  1.
       -4    1    3    3    0  502  0.12722684807E+03  0.25192666130E+02 -0.51951113287E+03  0.53545753461E+03  0.12699999809E+01 0. -1.
</event>
<event>
 5   0  0.1786500E-02  0.8051611E+03  0.7818609E-02  0.9552577E-01
        3   -1    0    0  501    0  0.00000000000E+00  0.00000000000E+00  0.15371267601E+03  0.15371270919E+03  0.10100000352E+00 0.  1.
       -3   -1    0    0    0  501  0.00000000000E+00  0.00000000000E+00 -0.10543767143E+04  0.10543767191E+04  0.10100000352E+00 0. -1.
    10030    2    1    2    0    0  0.00000000000E+00  0.00000000000E+00 -0.90066403830E+03  0.12080894283E+04  0.80516107517E+03 0.  0.
        2    1    3    3  502    0  0.21780863247E+02  0.35612807435E+03 -0.17055283627E+03  0.39546160535E+03  0.25500000920E-02 0.  1.
       -2    1    3    3    0  502 -0.21780863247E+02 -0.35612807435E+03 -0.73011120203E+03  0.81262782298E+03  0.25500000920E-02 0. -1.
</event>
<event>
 5   0  0.4700220E-02  0.7647225E+03  0.7818609E-02  0.9612532E-01
       -2   -1    0    0    0  501  0.00000000000E+00  0.00000000000E+00  0.89966521944E+03  0.89966521944E+03  0.25500000920E-02 0.  1.
        2   -1    0    0  501    0  0.00000000000E+00  0.00000000000E+00 -0.16250505144E+03  0.16250505146E+03  0.25500000920E-02 0. -1.
    10030    2    1    2    0    0  0.00000000000E+00  0.00000000000E+00  0.73716016800E+03  0.10621702709E+04  0.76472254518E+03 0.  0.
        4    1    3    3  502    0 -0.26043088485E+03 -0.20634108045E+03  0.10578486392E+03  0.34870178893E+03  0.12699999809E+01 0. -1.
       -4    1    3    3    0  502  0.26043088485E+03  0.20634108045E+03  0.63137530408E+03  0.71346848197E+03  0.12699999809E+01 0.  1.
</event>
<event>
 5   0  0.4684283E-02  0.8778460E+03  0.7818609E-02  0.9453707E-01
       -2   -1    0    0    0  501  0.00000000000E+00  0.00000000000E+00  0.62765395427E+02  0.62765395479E+02  0.25500000920E-02 0. -1.
        2   -1    0    0  501    0  0.00000000000E+00  0.00000000000E+00 -0.30694204361E+04  0.30694204361E+04  0.25500000920E-02 0.  1.
    10030    2    1    2    0    0  0.00000000000E+00  0.00000000000E+00 -0.30066550407E+04  0.31321858316E+04  0.87784597166E+03 0.  0.
        1    1    3    3  502    0 -0.34392100956E+03  0.20856943414E+03 -0.87642335257E+03  0.96431362255E+03  0.50400001928E-02 0. -1.
       -1    1    3    3    0  502  0.34392100956E+03 -0.20856943414E+03 -0.21302316881E+04  0.21678722091E+04  0.50400001928E-02 0.  1.
</event>
<event>
 5   0  0.2689372E-02  0.5276717E+03  0.7818609E-02  0.1006798E+00
        1   -1    0    0  501    0  0.00000000000E+00  0.00000000000E+00  0.30889868394E+03  0.30889868399E+03  0.50400001928E-02 0. -1.
       -1   -1    0    0    0  501  0.00000000000E+00  0.00000000000E+00 -0.22534686109E+03  0.22534686115E+03  0.50400001928E-02 0.  1.
    10030    2    1    2    0    0  0.00000000000E+00  0.00000000000E+00  0.83551822854E+02  0.53424554513E+03  0.52767167386E+03 0.  0.
        4    1    3    3  502    0 -0.74898886485E+02  0.11741132903E+02  0.29762961996E+03  0.30713629056E+03  0.12699999809E+01 0. -1.
       -4    1    3    3    0  502  0.74898886485E+02 -0.11741132903E+02 -0.21407779711E+03  0.22710925458E+03  0.12699999809E+01 0.  1.
</event>
<event>
 5   0  0.1786500E-02  0.8140982E+03  0.7818609E-02  0.9539832E-01
        3   -1    0    0  501    0  0.00000000000E+00  0.00000000000E+00  0.78210355350E+03  0.78210356002E+03  0.10100000352E+00 0. -1.
       -3   -1    0    0    0  501  0.00000000000E+00  0.00000000000E+00 -0.21185039268E+03  0.21185041675E+03  0.10100000352E+00 0.  1.
    10030    2    1    2    0    0  0.00000000000E+00  0.00000000000E+00  0.57025316083E+03  0.99395397678E+03  0.81409817622E+03 0.  0.
        4    1    3    3  502    0 -0.96751305167E+02  0.21307541258E+03  0.69176180548E+03  0.73027252099E+03  0.12699999809E+01 0. -1.
       -4    1    3    3    0  502  0.96751305167E+02 -0.21307541258E+03 -0.12150864465E+03  0.26368145578E+03  0.12699999809E+01 0.  1.
</event>
<event>
 5   0  0.2606520E-02  0.7979831E+03  0.7818609E-02  0.9562941E-01
       -1   -1    0    0    0  501  0.00000000000E+00  0.00000000000E+00  0.11605230617E+03  0.11605230628E+03  0.50400001928E-02 0.  1.
        1   -1    0    0  501    0  0.00000000000E+00  0.00000000000E+00 -0.13717456735E+04  0.13717456735E+04  0.50400001928E-02 0. -1.
    10030    2    1    2    0    0  0.00000000000E+00  0.00000000000E+00 -0.12556933673E+04  0.14877979798E+04  0.79798307996E+03 0.  0.
        5    1    3    3  502    0 -0.32267147277E+03 -0.22758766640E+03 -0.52140753969E+03  0.65406493384E+03  0.46999998093E+01 0. -1.
       -5    1    3    3    0  502  0.32267147277E+03  0.22758766640E+03 -0.73428582763E+03  0.83373304594E+03  0.46999998093E+01 0.  1.
</event>
<event>
 5   0  0.4700220E-02  0.8058806E+03  0.7818609E-02  0.9551544E-01
       -2   -1    0    0    0  501  0.00000000000E+00  0.00000000000E+00  0.55426342848E+02  0.55426342907E+02  0.25500000920E-02 0.  1.
        2   -1    0    0  501    0  0.00000000000E+00  0.00000000000E+00 -0.29293088669E+04  0.29293088669E+04  0.25500000920E-02 0. -1.
    10030    2    1    2    0    0  0.00000000000E+00  0.00000000000E+00 -0.28738825240E+04  0.29847352098E+04  0.80588058086E+03 0.  0.
        4    1    3    3  502    0 -0.24426785183E+03  0.14340534175E+03 -0.37554115591E+03  0.47038776362E+03  0.12699999809E+01 0.  1.
       -4    1    3    3    0  502  0.24426785183E+03 -0.14340534175E+03 -0.24983413681E+04  0.25143474462E+04  0.12699999809E+01 0. -1.
</event>
<event>
 5   0  0.4684283E-02  0.7813537E+03  0.7818609E-02  0.9587406E-01
       -2   -1    0    0    0  501  0.00000000000E+00  0.00000000000E+00  0.16411778046E+03  0.16411778048E+03  0.25500000920E-02 0.  1.
        2   -1    0    0  501    0  0.00000000000E+00  0.00000000000E+00 -0.92999310966E+03  0.92999310967E+03  0.25500000920E-02 0. -1.
    10030    2    1    2    0    0  0.00000000000E+00  0.00000000000E+00 -0.76587532920E+03  0.10941108901E+04  0.78135370996E+03 0.  0.
        1    1    3    3  502    0  0.11155239582E+03  0.29959608381E+03 -0.69738197471E+03  0.76716580289E+03  0.50400001928E-02 0.  1.
       -1    1    3    3    0  502 -0.11155239582E+03 -0.29959608381E+03 -0.68493354491E+02  0.32694508726E+03  0.50400001928E-02 0. -1.
</event>
<event>
 5   0  0.4377843E-02  0.7944780E+03  0.7818609E-02  0.9568045E-01
       -2   -1    0    0    0  501  0.00000000000E+00  0.00000000000E+00  0.42337177424E+03  0.42337177425E+03  0.25500000920E-02 0. -1.
        2   -1    0    0  501    0  0.00000000000E+00  0.00000000000E+00 -0.37271923656E+03  0.37271923657E+03  0.25500000920E-02 0.  1.
    10030    2    1    2    0    0  0.00000000000E+00  0.00000000000E+00  0.50652537682E+02  0.79609101081E+03  0.79447795307E+03 0.  0.
        2    1    3    3  502    0  0.13008371547E+03  0.35253335023E+03  0.15441822415E+03  0.40625918329E+03  0.25500000920E-02 0. -1.
       -2    1    3    3    0  502 -0.13008371547E+03 -0.35253335023E+03 -0.10376568647E+03  0.38983182752E+03  0.25500000920E-02 0.  1.
</event>
<event>
 5   0  0.4663634E-02  0.7976237E+03  0.7818609E-02  0.9563463E-01
       -2   -1    0    0    0  501  0.00000000000E+00  0.00000000000E+00  0.76067380874E+03  0.76067380875E+03  0.25500000920E-02 0.  1.
        2   -1    0    0  501    0  0.00000000000E+00  0.00000000000E+00 -0.20909213068E+03  0.20909213070E+03  0.25500000920E-02 0. -1.
    10030    2    1    2    0    0  0.00000000000E+00  0.00000000000E+00  0.55158167806E+03  0.96976593944E+03  0.79762373945E+03 0.  0.
        5    1    3    3  502    0  0.38346349912E+03  0.40891914423E+02  0.15232437314E+03  0.41465794152E+03  0.46999998093E+01 0. -1.
       -5    1    3    3    0  502 -0.38346349912E+03 -0.40891914423E+02  0.39925730493E+03  0.55510799792E+03  0.46999998093E+01 0.  1.
</event>
<event>
 5   0  0.4377843E-02  0.7984265E+03  0.7818609E-02  0.9562298E-01
        2   -1    0    0  501    0  0.00000000000E+00  0.00000000000E+00  0.18900111163E+04  0.18900111163E+04  0.25500000920E-02 0. -1.
       -2   -1    0    0    0  501  0.00000000000E+00  0.00000000000E+00 -0.84322891324E+02  0.84322891363E+02  0.25500000920E-02 0.  1.
    10030    2    1    2    0    0  0.00000000000E+00  0.00000000000E+00  0.18056882250E+04  0.19743340077E+04  0.79842645748E+03 0.  0.
        2    1    3    3  502    0  0.12845025245E+03  0.27490015550E+03  0.26134135525E+03  0.40046081808E+03  0.25500000920E-02 0.  1.
       -2    1    3    3    0  502 -0.12845025245E+03 -0.27490015550E+03  0.15443468697E+04  0.15738731896E+04  0.25500000920E-02 0. -1.
</event>
<event>
 5   0  0.2759559E-02  0.7812735E+03  0.7818609E-02  0.9587526E-01
        1   -1    0    0  501    0  0.00000000000E+00  0.00000000000E+00  0.27002404221E+03  0.27002404225E+03  0.50400001928E-02 0.  1.
       -1   -1    0    0    0  501  0.00000000000E+00  0.00000000000E+00 -0.56512396730E+03  0.56512396732E+03  0.50400001928E-02 0. -1.
    10030    2    1    2    0    0  0.00000000000E+00  0.00000000000E+00 -0.29509992509E+03  0.83514800957E+03  0.78127346819E+03 0.  0.
        3    1    3    3  502    0  0.20886808526E+02  0.39002432427E+03 -0.15446236797E+03  0.42001650635E+03  0.10100000352E+00 0.  1.
       -3    1    3    3    0  502 -0.20886808526E+02 -0.39002432427E+03 -0.14063755712E+03  0.41513150322E+03  0.10100000352E+00 0. -1.
</event>
<event>
 5   0  0.4684283E-02  0.7773182E+03  0.7818609E-02  0.9593441E-01
       -2   -1    0    0    0  501  0.00000000000E+00  0.00000000000E+00  0.17131760985E+03  0.17131760987E+03  0.25500000920E-02 0.  1.
        2   -1    0    0  501    0  0.00000000000E+00  0.00000000000E+00 -0.88173008834E+03  0.88173008835E+03  0.25500000920E-02 0. -1.
    10030    2    1    2    0    0  0.00000000000E+00  0.00000000000E+00 -0.71041247849E+03  0.10530476982E+04  0.77731818783E+03 0.  0.
        1    1    3    3  502    0 -0.11501505016E+03 -0.36679591702E+03 -0.27752300133E+03  0.47411678182E+03  0.50400001928E-02 0.  1.
       -1    1    3    3    0  502  0.11501505016E+03  0.36679591702E+03 -0.43288947716E+03  0.57893091640E+03  0.50400001928E-02 0. -1.
</event>
<event>
 5   0  0.2769394E-02  0.7923160E+03  0.7818609E-02  0.9571206E-01
       -1   -1    0    0    0  501  0.00000000000E+00  0.00000000000E+00  0.28761317538E+03  0.28761317542E+03  0.50400001928E-02 0.  1.
        1   -1    0    0  501    0  0.00000000000E+00  0.00000000000E+00 -0.54566745388E+03  0.54566745390E+03  0.50400001928E-02 0. -1.
    10030    2    1    2    0    0  0.00000000000E+00  0.00000000000E+00 -0.25805427851E+03  0.83328062932E+03  0.79231597015E+03 0.  0.
        2    1    3    3  502    0 -0.16672715997E+03 -0.12222200464E+03  0.22638757741E+03  0.30657380759E+03  0.25500000920E-02 0.  1.
       -2    1    3    3    0  502  0.16672715997E+03  0.12222200464E+03 -0.48444185592E+03  0.52670682173E+03  0.25500000920E-02 0. -1.
</event>
<event>
 5   0  0.2689372E-02  0.8200144E+03  0.7818609E-02  0.9531491E-01
       -1   -1    0    0    0  501  0.00000000000E+00  0.00000000000E+00  0.23143563378E+03  0.23143563384E+03  0.50400001928E-02 0.  1.
        1   -1    0    0  501    0  0.00000000000E+00  0.00000000000E+00 -0.72636140526E+03  0.72636140527E+03  0.50400001928E-02 0. -1.
    10030    2    1    2    0    0  0.00000000000E+00  0.00000000000E+00 -0.49492577148E+03  0.95779703911E+03  0.82001441991E+03 0.  0.
        4    1    3    3  502    0 -0.15346376933E+03  0.24619299120E+02  0.19568981628E+03  0.24990669355E+03  0.12699999809E+01 0.  1.
       -4    1    3    3    0  502  0.15346376933E+03 -0.24619299120E+02 -0.69061558776E+03  0.70789034556E+03  0.12699999809E+01 0. -1.
</event>
<event>
 5   0  0.4590462E-02  0.6626518E+03  0.7818609E-02  0.9783324E-01
        2   -1    0    0  501    0  0.00000000000E+00  0.00000000000E+00  0.17297333361E+04  0.17297333361E+04  0.25500000920E-02 0. -1.
       -2   -1    0    0    0  501  0.00000000000E+00  0.00000000000E+00 -0.63464611292E+02  0.63464611343E+02  0.25500000920E-02 0.  1.
    10030    2    1    2    0    0  0.00000000000E+00  0.00000000000E+00  0.16662687249E+04  0.17931979475E+04  0.66265180560E+03 0.  0.
        3    1    3    3  502    0  0.31311460144E+03  0.54507462189E+02  0.57978520372E+03  0.66118281112E+03  0.10100000352E+00 0.  1.
       -3    1    3    3    0  502 -0.31311460144E+03 -0.54507462189E+02  0.10864835211E+04  0.11320151364E+04  0.10100000352E+00 0. -1.
</event>
<event>
 5   0  0.4663634E-02  0.7883569E+03  0.7818609E-02  0.9577025E-01
       -2   -1    0    0    0  501  0.00000000000E+00  0.00000000000E+00  0.99481857516E+02  0.99481857548E+02  0.25500000920E-02 0.  1.
        2   -1    0    0  501    0  0.00000000000E+00  0.00000000000E+00 -0.15618591804E+04  0.15618591804E+04  0.25500000920E-02 0. -1.
    10030    2    1    2    0    0  0.00000000000E+00  0.00000000000E+00 -0.14623773229E+04  0.16613410379E+04  0.78835690514E+03 0.  0.
        5    1    3    3  502    0  0.38848516900E+03 -0.58958652328E+02 -0.66597273521E+03  0.77326491143E+03  0.46999998093E+01 0.  1.
       -5    1    3    3    0  502 -0.38848516900E+03  0.58958652328E+02 -0.79640458765E+03  0.88807612649E+03  0.46999998093E+01 0. -1.
</event>
<event>
 5   0  0.1786500E-02  0.7902447E+03  0.7818609E-02  0.9574246E-01
       -3   -1    0    0    0  501  0.00000000000E+00  0.00000000000E+00  0.32464513418E+03  0.32464514989E+03  0.10100000352E+00 0.  1.
        3   -1    0    0  501    0  0.00000000000E+00  0.00000000000E+00 -0.48089948596E+03  0.48089949657E+03  0.10100000352E+00 0. -1.
    10030    2    1    2    0    0  0.00000000000E+00  0.00000000000E+00 -0.15625435178E+03  0.80554464646E+03  0.79024474372E+03 0.  0.
        3    1    3    3  502    0 -0.39050163999E+02  0.20044925510E+03 -0.42293174425E+03  0.46965528814E+03  0.10100000352E+00 0. -1.
       -3    1    3    3    0  502  0.39050163999E+02 -0.20044925510E+03  0.26667739247E+03  0.33588935832E+03  0.10100000352E+00 0.  1.
</event>
<event>
 5   0  0.1786500E-02  0.8171151E+03  0.7818609E-02  0.9535569E-01
       -3   -1    0    0    0  501  0.00000000000E+00  0.00000000000E+00  0.48875103227E+03  0.48875104270E+03  0.10100000352E+00 0. -1.
        3   -1    0    0  501    0  0.00000000000E+00  0.00000000000E+00 -0.34152208125E+03  0.34152209618E+03  0.10100000352E+00 0.  1.
    10030    2    1    2    0    0  0.00000000000E+00  0.00000000000E+00  0.14722895102E+03  0.83027313888E+03  0.81711512110E+03 0.  0.
        2    1    3    3  502    0 -0.20308047229E+03  0.44132968070E+02  0.43103134105E+03  0.47851584516E+03  0.25500000920E-02 0. -1.
       -2    1    3    3    0  502  0.20308047229E+03 -0.44132968070E+02 -0.28380239003E+03  0.35175729372E+03  0.25500000920E-02 0.  1.
</event>
<event>
 5   0  0.4663634E-02  0.7910474E+03  0.7818609E-02  0.9573067E-01
       -2   -1    0    0    0  501  0.00000000000E+00  0.00000000000E+00  0.19960695069E+03  0.19960695071E+03  0.25500000920E-02 0.  1.
        2   -1    0    0  501    0  0.00000000000E+00  0.00000000000E+00 -0.78373516651E+03  0.78373516652E+03  0.25500000920E-02 0. -1.
    10030    2    1    2    0    0  0.00000000000E+00  0.00000000000E+00 -0.58412821582E+03  0.98334211723E+03  0.79104737342E+03 0.  0.
        5    1    3    3  502    0  0.26834982751E+03  0.11932923405E+03 -0.62134375733E+03  0.68727087149E+03  0.46999998093E+01 0. -1.
       -5    1    3    3    0  502 -0.26834982751E+03 -0.11932923405E+03  0.37215541511E+02  0.29607124574E+03  0.46999998093E+01 0.  1.
</event>
<event>
 5   0  0.4684283E-02  0.7827343E+03  0.7818609E-02  0.9585350E-01
       -2   -1    0    0    0  501  0.00000000000E+00  0.00000000000E+00  0.32139133306E+03  0.32139133307E+03  0.25500000920E-02 0. -1.
        2   -1    0    0  501    0  0.00000000000E+00  0.00000000000E+00 -0.47657868737E+03  0.47657868737E+03  0.25500000920E-02 0.  1.
    10030    2    1    2    0    0  0.00000000000E+00  0.00000000000E+00 -0.15518735431E+03  0.79797002044E+03  0.78273433461E+03 0.  0.
        1    1    3    3  502    0  0.19234386147E+03  0.14335666714E+03  0.23765171757E+03  0.33767681879E+03  0.50400001928E-02 0. -1.
       -1    1    3    3    0  502 -0.19234386147E+03 -0.14335666714E+03 -0.39283907188E+03  0.46029320165E+03  0.50400001928E-02 0.  1.
</event>
<event>
 5   0  0.2689372E-02  0.8170481E+03  0.7818609E-02  0.9535663E-01
        1   -1    0    0  501    0  0.00000000000E+00  0.00000000000E+00  0.57793786757E+03  0.57793786760E+03  0.50400001928E-02 0.  1.
       -1   -1    0    0    0  501  0.00000000000E+00  0.00000000000E+00 -0.28877133026E+03  0.28877133030E+03  0.50400001928E-02 0. -1.
    10030    2    1    2    0    0  0.00000000000E+00  0.00000000000E+00  0.28916653731E+03  0.86670919790E+03  0.81704806922E+03 0.  0.
        4    1    3    3  502    0 -0.22095817152E+03 -0.14659321413E+03  0.47424256579E+03  0.54334124462E+03  0.12699999809E+01 0.  1.
       -4    1    3    3    0  502  0.22095817152E+03  0.14659321413E+03 -0.18507602848E+03  0.32336795328E+03  0.12699999809E+01 0. -1.
</event>
<event>
 5   0  0.2606520E-02  0.7721651E+03  0.7818609E-02  0.9601205E-01
        1   -1    0    0  501    0  0.00000000000E+00  0.00000000000E+00  0.55637074232E+03  0.55637074235E+03  0.50400001928E-02 0.  1.
       -1   -1    0    0    0  501  0.00000000000E+00  0.00000000000E+00 -0.26791438070E+03  0.26791438075E+03  0.50400001928E-02 0. -1.
    10030    2    1    2    0    0  0.00000000000E+00  0.00000000000E+00  0.28845636162E+03  0.82428512309E+03  0.77216506758E+03 0.  0.
        5    1    3    3  502    0  0.77313870280E+02 -0.22643213170E+03 -0.17918811044E+03  0.29896390037E+03  0.46999998093E+01 0. -1.
       -5    1    3    3    0  502 -0.77313870280E+02  0.22643213170E+03  0.46764447206E+03  0.52532122273E+03  0.46999998093E+01 0.  1.
</event>
<event>
 5   0  0.4663634E-02  0.8263371E+03  0.7818609E-02  0.9522659E-01
       -2   -1    0    0    0  501  0.00000000000E+00  0.00000000000E+00  0.12120385220E+03  0.12120385223E+03  0.25500000920E-02 0.  1.
        2   -1    0    0  501    0  0.00000000000E+00  0.00000000000E+00 -0.14084391471E+04  0.14084391471E+04  0.25500000920E-02 0. -1.
    10030    2    1    2    0    0  0.00000000000E+00  0.00000000000E+00 -0.12872352949E+04  0.15296429993E+04  0.82633709887E+03 0.  0.
        5    1    3    3  502    0  0.15670462021E+03 -0.33527805359E+03 -0.98352974949E+03  0.10508665802E+04  0.46999998093E+01 0. -1.
       -5    1    3    3    0  502 -0.15670462021E+03  0.33527805359E+03 -0.30370554539E+03  0.47877641913E+03  0.46999998093E+01 0.  1.
</event>
<event>
 5   0  0.4377843E-02  0.8614774E+03  0.7818609E-02  0.9475060E-01
        2   -1    0    0  501    0  0.00000000000E+00  0.00000000000E+00  0.29661512113E+03  0.29661512114E+03  0.25500000920E-02 0. -1.
       -2   -1    0    0    0  501  0.00000000000E+00  0.00000000000E+00 -0.62551041312E+03  0.62551041313E+03  0.25500000920E-02 0.  1.
    10030    2    1    2    0    0  0.00000000000E+00  0.00000000000E+00 -0.32889529199E+03  0.92212553427E+03  0.86147744478E+03 0.  0.
        2    1    3    3  502    0  0.95294020179E+02  0.33493308179E+03  0.10692511831E+03  0.36427201443E+03  0.25500000920E-02 0. -1.
       -2    1    3    3    0  502 -0.95294020179E+02 -0.33493308179E+03 -0.43582041030E+03  0.55785351985E+03  0.25500000920E-02 0.  1.
</event>
<event>
 5   0  0.4590462E-02  0.8017551E+03  0.7818609E-02  0.9557480E-01
        2   -1    0    0  501    0  0.00000000000E+00  0.00000000000E+00  0.19847536902E+03  0.19847536904E+03  0.25500000920E-02 0. -1.
       -2   -1    0    0    0  501  0.00000000000E+00  0.00000000000E+00 -0.80968651544E+03  0.80968651544E+03  0.25500000920E-02 0.  1.
    10030    2    1    2    0    0  0.00000000000E+00  0.00000000000E+00 -0.61121114641E+03  0.10081618845E+04  0.80175514955E+03 0.  0.
        3    1    3    3  502    0 -0.13069218757E+03  0.36630691780E+03 -0.42778881192E+03  0.57815610672E+03  0.10100000352E+00 0.  1.
       -3    1    3    3    0  502  0.13069218757E+03 -0.36630691780E+03 -0.18342233449E+03  0.43000577777E+03  0.10100000352E+00 0. -1.
</event>
<event>
 5   0  0.2635243E-02  0.7988604E+03  0.7818609E-02  0.9561668E-01
        1   -1    0    0  501    0  0.00000000000E+00  0.00000000000E+00  0.74562760376E+03  0.74562760378E+03  0.50400001928E-02 0. -1.
       -1   -1    0    0    0  501  0.00000000000E+00  0.00000000000E+00 -0.21397340633E+03  0.21397340639E+03  0.50400001928E-02 0.  1.
    10030    2    1    2    0    0  0.00000000000E+00  0.00000000000E+00  0.53165419743E+03  0.95960101017E+03  0.79886038397E+03 0.  0.
        1    1    3    3  502    0  0.73257002885E+02 -0.39067946298E+03  0.21857428219E+03  0.45362070955E+03  0.50400001928E-02 0.  1.
       -1    1    3    3    0  502 -0.73257002885E+02  0.39067946298E+03  0.31307991523E+03  0.50598030062E+03  0.50400001928E-02 0. -1.
</event>
<event>
 5   0  0.4590462E-02  0.8091633E+03  0.7818609E-02  0.9546847E-01
       -2   -1    0    0    0  501  0.00000000000E+00  0.00000000000E+00  0.23943250394E+03  0.23943250395E+03  0.25500000920E-02 0.  1.
        2   -1    0    0  501    0  0.00000000000E+00  0.00000000000E+00 -0.68364288052E+03  0.68364288052E+03  0.25500000920E-02 0. -1.
    10030    2    1    2    0    0  0.00000000000E+00  0.00000000000E+00 -0.44421037658E+03  0.92307538448E+03  0.80916333751E+03 0.  0.
        3    1    3    3  502    0  0.16051967807E+03 -0.36475568574E+03 -0.30173962704E+03  0.49986007047E+03  0.10100000352E+00 0. -1.
       -3    1    3    3    0  502 -0.16051967807E+03  0.36475568574E+03 -0.14247074954E+03  0.42321531400E+03  0.10100000352E+00 0.  1.
</event>
<event>
 5   0  0.4663634E-02  0.8238365E+03  0.7818609E-02  0.9526142E-01
        2   -1    0    0  501    0  0.00000000000E+00  0.00000000000E+00  0.54423728676E+03  0.54423728676E+03  0.25500000920E-02 0. -1.
       -2   -1    0    0    0  501  0.00000000000E+00  0.00000000000E+00 -0.31176960472E+03  0.31176960473E+03  0.25500000920E-02 0.  1.
    10030    2    1    2    0    0  0.00000000000E+00  0.00000000000E+00  0.23246768204E+03  0.85600689149E+03  0.82383649779E+03 0.  0.
        5    1    3    3  502    0  0.11777836109E+03 -0.37659766871E+03 -0.65192357708E+01  0.39466712158E+03  0.46999998093E+01 0. -1.
       -5    1    3    3    0  502 -0.11777836109E+03  0.37659766871E+03  0.23898691781E+03  0.46133976991E+03  0.46999998093E+01 0.  1.
</event>
<event>
 5   0  0.2635243E-02  0.7854495E+03  0.7818609E-02  0.9581320E-01
        1   -1    0    0  501    0  0.00000000000E+00  0.00000000000E+00  0.75868842308E+03  0.75868842310E+03  0.50400001928E-02 0.  1.
       -1   -1    0    0    0  501  0.00000000000E+00  0.00000000000E+00 -0.20328863162E+03  0.20328863168E+03  0.50400001928E-02 0. -1.
    10030    2    1    2    0    0  0.00000000000E+00  0.00000000000E+00  0.55539979146E+03  0.96197705478E+03  0.78544950542E+03 0.  0.
        1    1    3    3  502    0  0.21913424348E+03  0.25041807538E+02 -0.12026910681E+03  0.25122015618E+03  0.50400001928E-02 0.  1.
       -1    1    3    3    0  502 -0.21913424348E+03 -0.25041807538E+02  0.67566889827E+03  0.71075689860E+03  0.50400001928E-02 0. -1.
</event>
<event>
 5   0  0.2769394E-02  0.8029016E+03  0.7818609E-02  0.9555827E-01
        1   -1    0    0  501    0  0.00000000000E+00  0.00000000000E+00  0.71764203975E+03  0.71764203977E+03  0.50400001928E-02 0.  1.
       -1   -1    0    0    0  501  0.00000000000E+00  0.00000000000E+00 -0.22457259920E+03  0.22457259926E+03  0.50400001928E-02 0. -1.
    10030    2    1    2    0    0  0.00000000000E+00  0.00000000000E+00  0.49306944055E+03  0.94221463902E+03  0.80290158350E+03 0.  0.
        2    1    3    3  502    0 -0.11711589218E+03  0.34859835411E+02 -0.20221877974E+03  0.23627055511E+03  0.25500000920E-02 0. -1.
       -2    1    3    3    0  502  0.11711589218E+03 -0.34859835411E+02  0.69528822029E+03  0.70594408391E+03  0.25500000920E-02 0.  1.
</event>
<event>
 5   0  0.4700220E-02  0.7916059E+03  0.7818609E-02  0.9572247E-01
        2   -1    0    0  501    0  0.00000000000E+00  0.00000000000E+00  0.16456771133E+04  0.16456771133E+04  0.25500000920E-02 0.  1.
       -2   -1    0    0    0  501  0.00000000000E+00  0.00000000000E+00 -0.95194842513E+02  0.95194842547E+02  0.25500000920E-02 0. -1.
    10030    2    1    2    0    0  0.00000000000E+00  0.00000000000E+00  0.15504822708E+04  0.17408719558E+04  0.79160589603E+03 0.  0.
        4    1    3    3  502    0  0.15229619755E+03 -0.35941996139E+03  0.63134245421E+03  0.74227471183E+03  0.12699999809E+01 0. -1.
       -4    1    3    3    0  502 -0.15229619755E+03  0.35941996139E+03  0.91913981655E+03  0.99859724399E+03  0.12699999809E+01 0.  1.
</event>
<event>
 5   0  0.4700220E-02  0.7991526E+03  0.7818609E-02  0.9561245E-01
        2   -1    0    0  501    0  0.00000000000E+00  0.00000000000E+00  0.10263753470E+04  0.10263753470E+04  0.25500000920E-02 0. -1.
       -2   -1    0    0    0  501  0.00000000000E+00  0.00000000000E+00 -0.15555829671E+03  0.15555829673E+03  0.25500000920E-02 0.  1.
    10030    2    1    2    0    0  0.00000000000E+00  0.00000000000E+00  0.87081705025E+03  0.11819336437E+04  0.79915255308E+03 0.  0.
        4    1    3    3  502    0  0.89411133970E+02 -0.56643079441E+02 -0.13444527553E+03  0.17111380522E+03  0.12699999809E+01 0.  1.
       -4    1    3    3    0  502 -0.89411133970E+02  0.56643079441E+02  0.10052623258E+04  0.10108198385E+04  0.12699999809E+01 0. -1.
</event>
<event>
 5   0  0.4377843E-02  0.7505240E+03  0.7818609E-02  0.9634529E-01
        2   -1    0    0  501    0  0.00000000000E+00  0.00000000000E+00  0.13745889415E+04  0.13745889415E+04  0.25500000920E-02 0.  1.
       -2   -1    0    0    0  501  0.00000000000E+00  0.00000000000E+00 -0.10244630964E+03  0.10244630968E+03  0.25500000920E-02 0. -1.
    10030    2    1    2    0    0  0.00000000000E+00  0.00000000000E+00  0.12721426319E+04  0.14770352512E+04  0.75052398859E+03 0.  0.
        2    1    3    3  502    0 -0.17729676529E+03  0.26735795524E+03  0.10192371892E+04  0.10685311727E+04  0.25500000920E-02 0.  1.
       -2    1    3    3    0  502  0.17729676529E+03 -0.26735795524E+03  0.25290544272E+03  0.40850407853E+03  0.25500000920E-02 0. -1.
</event>
<event>
 5   0  0.4684283E-02  0.8029447E+03  0.7818609E-02  0.9555765E-01
        2   -1    0    0  501    0  0.00000000000E+00  0.00000000000E+00  0.10429252532E+04  0.10429252532E+04  0.25500000920E-02 0. -1.
       -2   -1    0    0    0  501  0.00000000000E+00  0.00000000000E+00 -0.15454610475E+03  0.15454610477E+03  0.25500000920E-02 0.  1.
    10030    2    1    2    0    0  0.00000000000E+00  0.00000000000E+00  0.88837914840E+03  0.11974713579E+04  0.80294466917E+03 0.  0.
        1    1    3    3  502    0  0.49202824894E+02 -0.23010527728E+03 -0.40924936662E+02  0.23883929131E+03  0.50400001928E-02 0.  1.
       -1    1    3    3    0  502 -0.49202824894E+02  0.23010527728E+03  0.92930408506E+03  0.95863206662E+03  0.50400001928E-02 0. -1.
</event>
<event>
 5   0  0.4700220E-02  0.7786121E+03  0.7818609E-02  0.9591502E-01
        2   -1    0    0  501    0  0.00000000000E+00  0.00000000000E+00  0.43486751791E+03  0.43486751792E+03  0.25500000920E-02 0. -1.
       -2   -1    0    0    0  501  0.00000000000E+00  0.00000000000E+00 -0.34851811732E+03  0.34851811733E+03  0.25500000920E-02 0.  1.
    10030    2    1    2    0    0  0.00000000000E+00  0.00000000000E+00  0.86349400596E+02  0.78338563524E+03  0.77861212072E+03 0.  0.
        4    1    3    3  502    0 -0.43314812823E+02 -0.29792085127E+03 -0.20516762773E+03  0.36431905660E+03  0.12699999809E+01 0.  1.
       -4    1    3    3    0  502  0.43314812823E+02  0.29792085127E+03  0.29151702833E+03  0.41906657865E+03  0.12699999809E+01 0. -1.
</event>
<event>
 5   0  0.4663634E-02  0.7999932E+03  0.7818609E-02  0.9560027E-01
        2   -1    0    0  501    0  0.00000000000E+00  0.00000000000E+00  0.14902616710E+04  0.14902616710E+04  0.25500000920E-02 0.  1.
       -2   -1    0    0    0  501  0.00000000000E+00  0.00000000000E+00 -0.10736186992E+03  0.10736186995E+03  0.25500000920E-02 0. -1.
    10030    2    1    2    0    0  0.00000000000E+00  0.00000000000E+00  0.13828998011E+04  0.15976235410E+04  0.79999319922E+03 0.  0.
        5    1    3    3  502    0 -0.34452880949E+03 -0.10193187305E+03  0.34048649526E+03  0.49501853578E+03  0.46999998093E+01 0. -1.
       -5    1    3    3    0  502  0.34452880949E+03  0.10193187305E+03  0.10424133058E+04  0.11026050052E+04  0.46999998093E+01 0.  1.
</event>
<event>
 5   0  0.2635243E-02  0.9548014E+03  0.7818609E-02  0.9359556E-01
       -1   -1    0    0    0  501  0.00000000000E+00  0.00000000000E+00  0.18462997203E+03  0.18462997210E+03  0.50400001928E-02 0. -1.
        1   -1    0    0  501    0  0.00000000000E+00  0.00000000000E+00 -0.12344225718E+04  0.12344225718E+04  0.50400001928E-02 0.  1.
    10030    2    1    2    0    0  0.00000000000E+00  0.00000000000E+00 -0.10497925998E+04  0.14190525439E+04  0.95480135099E+03 0.  0.
        1    1    3    3  502    0 -0.35447314546E+03  0.27062795353E+03 -0.27171045011E+03  0.52222338976E+03  0.50400001928E-02 0. -1.
       -1    1    3    3    0  502  0.35447314546E+03 -0.27062795353E+03 -0.77808214968E+03  0.89682915416E+03  0.50400001928E-02 0.  1.
</event>
<event>
 5   0  0.2759559E-02  0.8134307E+03  0.7818609E-02  0.9540778E-01
       -1   -1    0    0    0  501  0.00000000000E+00  0.00000000000E+00  0.15717173935E+03  0.15717173943E+03  0.50400001928E-02 0.  1.
        1   -1    0    0  501    0  0.00000000000E+00  0.00000000000E+00 -0.10524626653E+04  0.10524626653E+04  0.50400001928E-02 0. -1.
    10030    2    1    2    0    0  0.00000000000E+00  0.00000000000E+00 -0.89529092595E+03  0.12096344047E+04  0.81343072910E+03 0.  0.
        3    1    3    3  502    0 -0.23180745788E+03 -0.25761199888E+03 -0.76421743379E+03  0.83912271796E+03  0.10100000352E+00 0. -1.
       -3    1    3    3    0  502  0.23180745788E+03  0.25761199888E+03 -0.13107349216E+03  0.37051168678E+03  0.10100000352E+00 0.  1.
</event>
<event>
 5   0  0.2689372E-02  0.8087373E+03  0.7818609E-02  0.9547456E-01
        1   -1    0    0  501    0  0.00000000000E+00  0.00000000000E+00  0.16797654964E+04  0.16797654964E+04  0.50400001928E-02 0. -1.
       -1   -1    0    0    0  501  0.00000000000E+00  0.00000000000E+00 -0.97343360137E+02  0.97343360267E+02  0.50400001928E-02 0.  1.
    10030    2    1    2    0    0  0.00000000000E+00  0.00000000000E+00  0.15824221362E+04  0.17771088566E+04  0.80873733135E+03 0.  0.
        4    1    3    3  502    0 -0.59968561434E+02  0.12721636362E+03 -0.41862848334E+02  0.14674584323E+03  0.12699999809E+01 0.  1.
       -4    1    3    3    0  502  0.59968561434E+02 -0.12721636362E+03  0.16242849846E+04  0.16303630134E+04  0.12699999809E+01 0. -1.
</event>
<event>
 5   0  0.2635243E-02  0.8067070E+03  0.7818609E-02  0.9550359E-01
       -1   -1    0    0    0  501  0.00000000000E+00  0.00000000000E+00  0.18450583948E+03  0.18450583955E+03  0.50400001928E-02 0.  1.
        1   -1    0    0  501    0  0.00000000000E+00  0.00000000000E+00 -0.88178258598E+03  0.88178258600E+03  0.50400001928E-02 0. -1.
    10030    2    1    2    0    0  0.00000000000E+00  0.00000000000E+00 -0.69727674650E+03  0.10662884255E+04  0.80670697607E+03 0.  0.
        1    1    3    3  502    0  0.26888383872E+03  0.73754540547E+02  0.36622905515E+02  0.28121075408E+03  0.50400001928E-02 0.  1.
       -1    1    3    3    0  502 -0.26888383872E+03 -0.73754540547E+02 -0.73389965202E+03  0.78507767147E+03  0.50400001928E-02 0. -1.
</event>
<event>
 5   0  0.4684283E-02  0.4232911E+03  0.7818609E-02  0.1036000E+00
       -2   -1    0    0    0  501  0.00000000000E+00  0.00000000000E+00  0.14581651873E+04  0.14581651873E+04  0.25500000920E-02 0.  1.
        2   -1    0    0  501    0  0.00000000000E+00  0.00000000000E+00 -0.30719316361E+02  0.30719316467E+02  0.25500000920E-02 0. -1.
    10030    2    1    2    0    0  0.00000000000E+00  0.00000000000E+00  0.14274458710E+04  0.14888845038E+04  0.42329109500E+03 0.  0.
        1    1    3    3  502    0  0.14785148381E+03  0.13535110059E+03  0.47480216958E+03  0.51538052152E+03  0.50400001928E-02 0. -1.
       -1    1    3    3    0  502 -0.14785148381E+03 -0.13535110059E+03  0.95264370139E+03  0.97350398228E+03  0.50400001928E-02 0.  1.
</event>
<event>
 5   0  0.4700220E-02  0.8236885E+03  0.7818609E-02  0.9526348E-01
       -2   -1    0    0    0  501  0.00000000000E+00  0.00000000000E+00  0.90124564473E+03  0.90124564474E+03  0.25500000920E-02 0.  1.
        2   -1    0    0  501    0  0.00000000000E+00  0.00000000000E+00 -0.18820141000E+03  0.18820141002E+03  0.25500000920E-02 0. -1.
    10030    2    1    2    0    0  0.00000000000E+00  0.00000000000E+00  0.71304423474E+03  0.10894470548E+04  0.82368853605E+03 0.  0.
        4    1    3    3  502    0  0.28955379293E+03  0.16186474974E+03  0.67934624888E+03  0.75601225849E+03  0.12699999809E+01 0.  1.
       -4    1    3    3    0  502 -0.28955379293E+03 -0.16186474974E+03  0.33697985852E+02  0.33343479627E+03  0.12699999809E+01 0. -1.
</event>
<event>
 5   0  0.4377843E-02  0.8202173E+03  0.7818609E-02  0.9531206E-01
        2   -1    0    0  501    0  0.00000000000E+00  0.00000000000E+00  0.58126209087E+03  0.58126209088E+03  0.25500000920E-02 0.  1.
       -2   -1    0    0    0  501  0.00000000000E+00  0.00000000000E+00 -0.28935160107E+03  0.28935160108E+03  0.25500000920E-02 0. -1.
    10030    2    1    2    0    0  0.00000000000E+00  0.00000000000E+00  0.29191048980E+03  0.87061369196E+03  0.82021732886E+03 0.  0.
        2    1    3    3  502    0  0.49708477992E+01 -0.28150641255E+03  0.46246910405E+03  0.54143165944E+03  0.25500000920E-02 0.  1.
       -2    1    3    3    0  502 -0.49708477992E+01  0.28150641255E+03 -0.17055861425E+03  0.32918203252E+03  0.25500000920E-02 0. -1.
</event>
<event>
 5   0  0.2606520E-02  0.7767645E+03  0.7818609E-02  0.9594272E-01
        1   -1    0    0  501    0  0.00000000000E+00  0.00000000000E+00  0.54270025059E+03  0.54270025062E+03  0.50400001928E-02 0.  1.
       -1   -1    0    0    0  501  0.00000000000E+00  0.00000000000E+00 -0.27794490689E+03  0.27794490693E+03  0.50400001928E-02 0. -1.
    10030    2    1    2    0    0  0.00000000000E+00  0.00000000000E+00  0.26475534371E+03  0.82064515755E+03  0.77676449622E+03 0.  0.
        5    1    3    3  502    0  0.24226782251E+03  0.69472369532E+02 -0.17977683946E+03  0.30961574565E+03  0.46999998093E+01 0. -1.
       -5    1    3    3    0  502 -0.24226782251E+03 -0.69472369532E+02  0.44453218317E+03  0.51102941189E+03  0.46999998093E+01 0.  1.
</event>
<event>
 5   0  0.2759559E-02  0.8007077E+03  0.7818609E-02  0.9558993E-01
        1   -1    0    0  501    0  0.00000000000E+00  0.00000000000E+00  0.76131601228E+03  0.76131601230E+03  0.50400001928E-02 0. -1.
       -1   -1    0    0    0  501  0.00000000000E+00  0.00000000000E+00 -0.21053437218E+03  0.21053437224E+03  0.50400001928E-02 0.  1.
    10030    2    1    2    0    0  0.00000000000E+00  0.00000000000E+00  0.55078164010E+03  0.97185038454E+03  0.80070765880E+03 0.  0.
        3    1    3    3  502    0 -0.19640742261E+02 -0.11249325752E+03 -0.19034784608E+03  0.22197478337E+03  0.10100000352E+00 0.  1.
       -3    1    3    3    0  502  0.19640742261E+02  0.11249325752E+03  0.74112948618E+03  0.74987560117E+03  0.10100000352E+00 0. -1.
</event>
<event>
 5   0  0.4684283E-02  0.8261571E+03  0.7818609E-02  0.9522909E-01
       -2   -1    0    0    0  501  0.00000000000E+00  0.00000000000E+00  0.10590116663E+03  0.10590116666E+03  0.25500000920E-02 0.  1.
        2   -1    0    0  501    0  0.00000000000E+00  0.00000000000E+00 -0.16112558943E+04  0.16112558943E+04  0.25500000920E-02 0. -1.
    10030    2    1    2    0    0  0.00000000000E+00  0.00000000000E+00 -0.15053547277E+04  0.17171570610E+04  0.82615707702E+03 0.  0.
        1    1    3    3  502    0 -0.22602569925E+02 -0.30365767154E+03 -0.13328509992E+04  0.13671907854E+04  0.50400001928E-02 0. -1.
       -1    1    3    3    0  502  0.22602569925E+02  0.30365767154E+03 -0.17250372846E+03  0.34996627553E+03  0.50400001928E-02 0.  1.
</event>
<event>
 5   0  0.2689372E-02  0.6399227E+03  0.7818609E-02  0.9825874E-01
       -1   -1    0    0    0  501  0.00000000000E+00  0.00000000000E+00  0.35689042987E+03  0.35689042991E+03  0.50400001928E-02 0. -1.
        1   -1    0    0  501    0  0.00000000000E+00  0.00000000000E+00 -0.28685346301E+03  0.28685346306E+03  0.50400001928E-02 0.  1.
    10030    2    1    2    0    0  0.00000000000E+00  0.00000000000E+00  0.70036966859E+02  0.64374389296E+03  0.63992266955E+03 0.  0.
        4    1    3    3  502    0 -0.29286583073E+03 -0.12667685626E+03  0.58743676642E+02  0.32445316021E+03  0.12699999809E+01 0. -1.
       -4    1    3    3    0  502  0.29286583073E+03  0.12667685626E+03  0.11293290217E+02  0.31929073276E+03  0.12699999809E+01 0.  1.
</event>
<event>
 5   0  0.2759559E-02  0.7860787E+03  0.7818609E-02  0.9580389E-01
       -1   -1    0    0    0  501  0.00000000000E+00  0.00000000000E+00  0.24645864103E+03  0.24645864108E+03  0.50400001928E-02 0. -1.
        1   -1    0    0  501    0  0.00000000000E+00  0.00000000000E+00 -0.62679862961E+03  0.62679862963E+03  0.50400001928E-02 0.  1.
    10030    2    1    2    0    0  0.00000000000E+00  0.00000000000E+00 -0.38033998858E+03  0.87325727071E+03  0.78607871993E+03 0.  0.
        3    1    3    3  502    0  0.24659515889E+03 -0.30568976398E+03 -0.17352408043E+03  0.42937864512E+03  0.10100000352E+00 0.  1.
       -3    1    3    3    0  502 -0.24659515889E+03  0.30568976398E+03 -0.20681590815E+03  0.44387862559E+03  0.10100000352E+00 0. -1.
</event>
<event>
 5   0  0.2635243E-02  0.8403724E+03  0.7818609E-02  0.9503351E-01
        1   -1    0    0  501    0  0.00000000000E+00  0.00000000000E+00  0.50435193476E+03  0.50435193478E+03  0.50400001928E-02 0. -1.
       -1   -1    0    0    0  501  0.00000000000E+00  0.00000000000E+00 -0.35006595474E+03  0.35006595478E+03  0.50400001928E-02 0.  1.
    10030    2    1    2    0    0  0.00000000000E+00  0.00000000000E+00  0.15428598002E+03  0.85441788956E+03  0.84037239743E+03 0.  0.
        1    1    3    3  502    0 -0.35767616394E+03 -0.19014172754E+03 -0.36394024555E+02  0.40670706885E+03  0.50400001928E-02 0. -1.
       -1    1    3    3    0  502  0.35767616394E+03  0.19014172754E+03  0.19068000457E+03  0.44771082071E+03  0.50400001928E-02 0.  1.
</event>
<event>
 5   0  0.1786500E-02  0.7902630E+03  0.7818609E-02  0.9574219E-01
        3   -1    0    0  501    0  0.00000000000E+00  0.00000000000E+00  0.14160263615E+03  0.14160267217E+03  0.10100000352E+00 0. -1.
       -3   -1    0    0    0  501  0.00000000000E+00  0.00000000000E+00 -0.11025844570E+04  0.11025844617E+04  0.10100000352E+00 0.  1.
    10030    2    1    2    0    0  0.00000000000E+00  0.00000000000E+00 -0.96098182088E+03  0.12441871338E+04  0.79026297138E+03 0.  0.
        3    1    3    3  502    0 -0.37860588250E+03  0.71498662721E+02 -0.34256796987E+03  0.51556502714E+03  0.10100000352E+00 0. -1.
       -3    1    3    3    0  502  0.37860588250E+03 -0.71498662721E+02 -0.61841385101E+03  0.72862210669E+03  0.10100000352E+00 0.  1.
</event>
<event>
 5   0  0.2606520E-02  0.7565585E+03  0.7818609E-02  0.9625117E-01
       -1   -1    0    0    0  501  0.00000000000E+00  0.00000000000E+00  0.44066450732E+03  0.44066450735E+03  0.50400001928E-02 0.  1.
        1   -1    0    0  501    0  0.00000000000E+00  0.00000000000E+00 -0.32472590988E+03  0.32472590992E+03  0.50400001928E-02 0. -1.
    10030    2    1    2    0    0  0.00000000000E+00  0.00000000000E+00  0.11593859744E+03  0.76539041727E+03  0.75655847922E+03 0.  0.
        5    1    3    3  502    0 -0.32860460760E+03  0.17108819200E+03  0.13515501037E+03  0.39438702362E+03  0.46999998093E+01 0.  1.
       -5    1    3    3    0  502  0.32860460760E+03 -0.17108819200E+03 -0.19216412922E+02  0.37100339365E+03  0.46999998093E+01 0. -1.
</event>
<event>
 5   0  0.2759559E-02  0.7911681E+03  0.7818609E-02  0.9572890E-01
        1   -1    0    0  501    0  0.00000000000E+00  0.00000000000E+00  0.74675148644E+03  0.74675148646E+03  0.50400001928E-02 0. -1.
       -1   -1    0    0    0  501  0.00000000000E+00  0.00000000000E+00 -0.20955663110E+03  0.20955663116E+03  0.50400001928E-02 0.  1.
    10030    2    1    2    0    0  0.00000000000E+00  0.00000000000E+00  0.53719485534E+03  0.95630811762E+03  0.79116806256E+03 0.  0.
        3    1    3    3  502    0  0.29299131288E+03 -0.12091554541E+03 -0.17496946743E+02  0.31744390353E+03  0.10100000352E+00 0.  1.
       -3    1    3    3    0  502 -0.29299131288E+03  0.12091554541E+03  0.55469180209E+03  0.63886421409E+03  0.10100000352E+00 0. -1.
</event>
<event>
 5   0  0.4700220E-02  0.8393564E+03  0.7818609E-02  0.9504735E-01
       -2   -1    0    0    0  501  0.00000000000E+00  0.00000000000E+00  0.20868023383E+03  0.20868023385E+03  0.25500000920E-02 0.  1.
        2   -1    0    0  501    0  0.00000000000E+00  0.00000000000E+00 -0.84401767205E+03  0.84401767205E+03  0.25500000920E-02 0. -1.
    10030    2    1    2    0    0  0.00000000000E+00  0.00000000000E+00 -0.63533743822E+03  0.10526979059E+04  0.83935643244E+03 0.  0.
        4    1    3    3  502    0 -0.32275432223E+03 -0.17086336368E+03 -0.58313963958E+02  0.36981991950E+03  0.12699999809E+01 0.  1.
       -4    1    3    3    0  502  0.32275432223E+03  0.17086336368E+03 -0.57702347426E+03  0.68287798640E+03  0.12699999809E+01 0. -1.
</event>
<event>
 5   0  0.4684283E-02  0.7706641E+03  0.7818609E-02  0.9603478E-01
       -2   -1    0    0    0  501  0.00000000000E+00  0.00000000000E+00  0.36136081070E+03  0.36136081070E+03  0.25500000920E-02 0. -1.
        2   -1    0    0  501    0  0.00000000000E+00  0.00000000000E+00 -0.41089340049E+03  0.41089340050E+03  0.25500000920E-02 0.  1.
    10030    2    1    2    0    0  0.00000000000E+00  0.00000000000E+00 -0.49532589800E+02  0.77225421121E+03  0.77066405734E+03 0.  0.
        1    1    3    3  502    0 -0.24200567176E+03  0.29907630558E+03 -0.46430120604E+02  0.38751662913E+03  0.50400001928E-02 0.  1.
       -1    1    3    3    0  502  0.24200567176E+03 -0.29907630558E+03 -0.31024691958E+01  0.38473758208E+03  0.50400001928E-02 0. -1.
</event>
<event>
 5   0  0.2689372E-02  0.7907898E+03  0.7818609E-02  0.9573445E-01
       -1   -1    0    0    0  501  0.00000000000E+00  0.00000000000E+00  0.23915264953E+03  0.23915264958E+03  0.50400001928E-02 0. -1.
        1   -1    0    0  501    0  0.00000000000E+00  0.00000000000E+00 -0.65371274312E+03  0.65371274314E+03  0.50400001928E-02 0.  1.
    10030    2    1    2    0    0  0.00000000000E+00  0.00000000000E+00 -0.41456009360E+03  0.89286539272E+03  0.79078981931E+03 0.  0.
        4    1    3    3  502    0  0.27762925187E+03 -0.22757069973E+03 -0.20148455546E+02  0.35954693439E+03  0.12699999809E+01 0. -1.
       -4    1    3    3    0  502 -0.27762925187E+03  0.22757069973E+03 -0.39441163805E+03  0.53331845833E+03  0.12699999809E+01 0.  1.
</event>
<event>
 5   0  0.4663634E-02  0.8328022E+03  0.7818609E-02  0.9513714E-01
       -2   -1    0    0    0  501  0.00000000000E+00  0.00000000000E+00  0.24008508568E+03  0.24008508569E+03  0.25500000920E-02 0.  1.
        2   -1    0    0  501    0  0.00000000000E+00  0.00000000000E+00 -0.72220175614E+03  0.72220175614E+03  0.25500000920E-02 0. -1.
    10030    2    1    2    0    0  0.00000000000E+00  0.00000000000E+00 -0.48211667046E+03  0.96228684184E+03  0.83280218662E+03 0.  0.
        5    1    3    3  502    0  0.20866541233E+03  0.32931751966E+03 -0.72118928674E+02  0.39650285362E+03  0.46999998093E+01 0.  1.
       -5    1    3    3    0  502 -0.20866541233E+03 -0.32931751966E+03 -0.40999774178E+03  0.56578398822E+03  0.46999998093E+01 0. -1.
</event>
<event>
 5   0  0.2689372E-02  0.7791436E+03  0.7818609E-02  0.9590706E-01
        1   -1    0    0  501    0  0.00000000000E+00  0.00000000000E+00  0.36404061681E+03  0.36404061685E+03  0.50400001928E-02 0. -1.
       -1   -1    0    0    0  501  0.00000000000E+00  0.00000000000E+00 -0.41689359680E+03  0.41689359683E+03  0.50400001928E-02 0.  1.
    10030    2    1    2    0    0  0.00000000000E+00  0.00000000000E+00 -0.52852979993E+02  0.78093421368E+03  0.77914363798E+03 0.  0.
        4    1    3    3  502    0  0.25805105783E+03 -0.92541143228E+02  0.25099539793E+03  0.37169142352E+03  0.12699999809E+01 0. -1.
       -4    1    3    3    0  502 -0.25805105783E+03  0.92541143228E+02 -0.30384837792E+03  0.40924279016E+03  0.12699999809E+01 0.  1.
</event>
<event>
 5   0  0.2635243E-02  0.8164269E+03  0.7818609E-02  0.9536540E-01
       -1   -1    0    0    0  501  0.00000000000E+00  0.00000000000E+00  0.20893502876E+03  0.20893502883E+03  0.50400001928E-02 0.  1.
        1   -1    0    0  501    0  0.00000000000E+00  0.00000000000E+00 -0.79755992590E+03  0.79755992592E+03  0.50400001928E-02 0. -1.
    10030    2    1    2    0    0  0.00000000000E+00  0.00000000000E+00 -0.58862489714E+03  0.10064949547E+04  0.81642686408E+03 0.  0.
        1    1    3    3  502    0  0.39227396010E+03 -0.70544551477E+02 -0.40307079634E+03  0.56685223860E+03  0.50400001928E-02 0.  1.
       -1    1    3    3    0  502 -0.39227396010E+03  0.70544551477E+02 -0.18555410079E+03  0.43964271615E+03  0.50400001928E-02 0. -1.
</event>
<event>
 5   0  0.2635243E-02  0.8325347E+03  0.7818609E-02  0.9514083E-01
        1   -1    0    0  501    0  0.00000000000E+00  0.00000000000E+00  0.12496115805E+04  0.12496115805E+04  0.50400001928E-02 0. -1.
       -1   -1    0    0    0  501  0.00000000000E+00  0.00000000000E+00 -0.13866588403E+03  0.13866588412E+03  0.50400001928E-02 0.  1.
    10030    2    1    2    0    0  0.00000000000E+00  0.00000000000E+00  0.11109456965E+04  0.13882774646E+04  0.83253467092E+03 0.  0.
        1    1    3    3  502    0 -0.85824289962E+01  0.98297480858E+02  0.12298287831E+04  0.12337807296E+04  0.50400001928E-02 0. -1.
       -1    1    3    3    0  502  0.85824289962E+01 -0.98297480858E+02 -0.11888308664E+03  0.15449673507E+03  0.50400001928E-02 0.  1.
</event>
<event>
 5   0  0.2759559E-02  0.7962617E+03  0.7818609E-02  0.9565444E-01
        1   -1    0    0  501    0  0.00000000000E+00  0.00000000000E+00  0.10554799138E+04  0.10554799138E+04  0.50400001928E-02 0. -1.
       -1   -1    0    0    0  501  0.00000000000E+00  0.00000000000E+00 -0.15017639575E+03  0.15017639584E+03  0.50400001928E-02 0.  1.
    10030    2    1    2    0    0  0.00000000000E+00  0.00000000000E+00  0.90530351803E+03  0.12056563096E+04  0.79626168889E+03 0.  0.
        3    1    3    3  502    0 -0.53411438700E+02 -0.20774301058E+03 -0.55204168626E+02  0.22148916602E+03  0.10100000352E+00 0.  1.
       -3    1    3    3    0  502  0.53411438700E+02  0.20774301058E+03  0.96050768666E+03  0.98416714361E+03  0.10100000352E+00 0. -1.
</event>
<event>
 5   0  0.4663634E-02  0.8594401E+03  0.7818609E-02  0.9477754E-01
        2   -1    0    0  501    0  0.00000000000E+00  0.00000000000E+00  0.60949423956E+03  0.60949423957E+03  0.25500000920E-02 0.  1.
       -2   -1    0    0    0  501  0.00000000000E+00  0.00000000000E+00 -0.30297139686E+03  0.30297139687E+03  0.25500000920E-02 0. -1.
    10030    2    1    2    0    0  0.00000000000E+00  0.00000000000E+00  0.30652284271E+03  0.91246563644E+03  0.85944009947E+03 0.  0.
        5    1    3    3  502    0  0.11784296893E+03 -0.25335291108E+03 -0.19331837669E+03  0.33980692701E+03  0.46999998093E+01 0. -1.
       -5    1    3    3    0  502 -0.11784296893E+03  0.25335291108E+03  0.49984121939E+03  0.57265870943E+03  0.46999998093E+01 0.  1.
</event>
<event>
 5   0  0.4684283E-02  0.7580662E+03  0.7818609E-02  0.9622780E-01
       -2   -1    0    0    0  501  0.00000000000E+00  0.00000000000E+00  0.20420095628E+03  0.20420095630E+03  0.25500000920E-02 0. -1.
        2   -1    0    0  501    0  0.00000000000E+00  0.00000000000E+00 -0.70355250057E+03  0.70355250058E+03  0.25500000920E-02 0.  1.
    10030    2    1    2    0    0  0.00000000000E+00  0.00000000000E+00 -0.49935154429E+03  0.90775345688E+03  0.75806620666E+03 0.  0.
        1    1    3    3  502    0  0.14253591762E+03 -0.26390165606E+03  0.27828864346E+02  0.30122253833E+03  0.50400001928E-02 0. -1.
       -1    1    3    3    0  502 -0.14253591762E+03  0.26390165606E+03 -0.52718040864E+03  0.60653091855E+03  0.50400001928E-02 0.  1.
</event>
<event>
 5   0  0.2689372E-02  0.7927674E+03  0.7818609E-02  0.9570545E-01
        1   -1    0    0  501    0  0.00000000000E+00  0.00000000000E+00  0.22048253921E+03  0.22048253927E+03  0.50400001928E-02 0.  1.
       -1   -1    0    0    0  501  0.00000000000E+00  0.00000000000E+00 -0.71261897110E+03  0.71261897112E+03  0.50400001928E-02 0. -1.
    10030    2    1    2    0    0  0.00000000000E+00  0.00000000000E+00 -0.49213643189E+03  0.93310151038E+03  0.79276740668E+03 0.  0.
        4    1    3    3  502    0 -0.26674196415E+03  0.23576064881E+03 -0.45123453581E+03  0.57475958293E+03  0.12699999809E+01 0. -1.
       -4    1    3    3    0  502  0.26674196415E+03 -0.23576064881E+03 -0.40901896079E+02  0.35834192745E+03  0.12699999809E+01 0.  1.
</event>
<event>
 5   0  0.2759559E-02  0.8050896E+03  0.7818609E-02  0.9552679E-01
        1   -1    0    0  501    0  0.00000000000E+00  0.00000000000E+00  0.62935137945E+03  0.62935137947E+03  0.50400001928E-02 0. -1.
       -1   -1    0    0    0  501  0.00000000000E+00  0.00000000000E+00 -0.25747509720E+03  0.25747509725E+03  0.50400001928E-02 0.  1.
    10030    2    1    2    0    0  0.00000000000E+00  0.00000000000E+00  0.37187628225E+03  0.88682647672E+03  0.80508957918E+03 0.  0.
        3    1    3    3  502    0 -0.39814964433E+03 -0.14300488435E+02  0.12251999273E+03  0.41681986765E+03  0.10100000352E+00 0.  1.
       -3    1    3    3    0  502  0.39814964433E+03  0.14300488435E+02  0.24935628952E+03  0.47000660907E+03  0.10100000352E+00 0. -1.
</event>
<event>
 5   0  0.4663634E-02  0.7227974E+03  0.7818609E-02  0.9679021E-01
        2   -1    0    0  501    0  0.00000000000E+00  0.00000000000E+00  0.53621556246E+03  0.53621556246E+03  0.25500000920E-02 0.  1.
       -2   -1    0    0    0  501  0.00000000000E+00  0.00000000000E+00 -0.24357561385E+03  0.24357561387E+03  0.25500000920E-02 0. -1.
    10030    2    1    2    0    0  0.00000000000E+00  0.00000000000E+00  0.29263994860E+03  0.77979117633E+03  0.72279743993E+03 0.  0.
        5    1    3    3  502    0 -0.31439124444E+03 -0.16858888791E+03  0.84130218826E+02  0.36655702343E+03  0.46999998093E+01 0. -1.
       -5    1    3    3    0  502  0.31439124444E+03  0.16858888791E+03  0.20850972978E+03  0.41323415290E+03  0.46999998093E+01 0.  1.
</event>
<event>
 5   0  0.2759559E-02  0.7977168E+03  0.7818609E-02  0.9563328E-01
       -1   -1    0    0    0  501  0.00000000000E+00  0.00000000000E+00  0.63933888442E+03  0.63933888444E+03  0.50400001928E-02 0. -1.
        1   -1    0    0  501    0  0.00000000000E+00  0.00000000000E+00 -0.24883209556E+03  0.24883209561E+03  0.50400001928E-02 0.  1.
    10030    2    1    2    0    0  0.00000000000E+00  0.00000000000E+00  0.39050678886E+03  0.88817098005E+03  0.79771682799E+03 0.  0.
        3    1    3    3  502    0  0.69505986861E+02 -0.38145256094E+03  0.29940688572E+03  0.48987920131E+03  0.10100000352E+00 0.  1.
       -3    1    3    3    0  502 -0.69505986861E+02  0.38145256094E+03  0.91099903145E+02  0.39829177874E+03  0.10100000352E+00 0. -1.
</event>
<event>
 5   0  0.2635243E-02  0.7903623E+03  0.7818609E-02  0.9574073E-01
       -1   -1    0    0    0  501  0.00000000000E+00  0.00000000000E+00  0.67298034743E+03  0.67298034745E+03  0.50400001928E-02 0.  1.
        1   -1    0    0  501    0  0.00000000000E+00  0.00000000000E+00 -0.23205450990E+03  0.23205450995E+03  0.50400001928E-02 0. -1.
    10030    2    1    2    0    0  0.00000000000E+00  0.00000000000E+00  0.44092583753E+03  0.90503485740E+03  0.79036225803E+03 0.  0.
        1    1    3    3  502    0 -0.17643269987E+02  0.38623627931E+03  0.12688474718E+03  0.40692688228E+03  0.50400001928E-02 0. -1.
       -1    1    3    3    0  502  0.17643269987E+02 -0.38623627931E+03  0.31404109035E+03  0.49810797513E+03  0.50400001928E-02 0.  1.
</event>
<event>
 5   0  0.4700220E-02  0.7885971E+03  0.7818609E-02  0.9576671E-01
       -2   -1    0    0    0  501  0.00000000000E+00  0.00000000000E+00  0.25074809085E+03  0.25074809086E+03  0.25500000920E-02 0. -1.
        2   -1    0    0  501    0  0.00000000000E+00  0.00000000000E+00 -0.62003005172E+03  0.62003005173E+03  0.25500000920E-02 0.  1.
    10030    2    1    2    0    0  0.00000000000E+00  0.00000000000E+00 -0.36928196088E+03  0.87077814259E+03  0.78859711322E+03 0.  0.
        4    1    3    3  502    0 -0.23122468270E+02  0.62731734472E+02  0.24444127110E+03  0.25342270412E+03  0.12699999809E+01 0. -1.
       -4    1    3    3    0  502  0.23122468270E+02 -0.62731734472E+02 -0.61372323197E+03  0.61735543847E+03  0.12699999809E+01 0.  1.
</event>
<event>
 5   0  0.4377843E-02  0.8046457E+03  0.7818609E-02  0.9553317E-01
       -2   -1    0    0    0  501  0.00000000000E+00  0.00000000000E+00  0.20140928958E+03  0.20140928959E+03  0.25500000920E-02 0. -1.
        2   -1    0    0  501    0  0.00000000000E+00  0.00000000000E+00 -0.80365547479E+03  0.80365547479E+03  0.25500000920E-02 0.  1.
    10030    2    1    2    0    0  0.00000000000E+00  0.00000000000E+00 -0.60224618521E+03  0.10050647644E+04  0.80464570651E+03 0.  0.
        2    1    3    3  502    0 -0.17525171011E+03 -0.24018218600E+03  0.37427656740E+02  0.29966894043E+03  0.25500000920E-02 0. -1.
       -2    1    3    3    0  502  0.17525171011E+03  0.24018218600E+03 -0.63967384195E+03  0.70539582395E+03  0.25500000920E-02 0.  1.
</event>
<event>
 5   0  0.2769394E-02  0.8148384E+03  0.7818609E-02  0.9538784E-01
        1   -1    0    0  501    0  0.00000000000E+00  0.00000000000E+00  0.88429358493E+03  0.88429358494E+03  0.50400001928E-02 0.  1.
       -1   -1    0    0    0  501  0.00000000000E+00  0.00000000000E+00 -0.18770962666E+03  0.18770962672E+03  0.50400001928E-02 0. -1.
    10030    2    1    2    0    0  0.00000000000E+00  0.00000000000E+00  0.69658395827E+03  0.10720032117E+04  0.81483843484E+03 0.  0.
        2    1    3    3  502    0 -0.11633391070E+03  0.10371040942E+03 -0.14694267194E+03  0.21419985210E+03  0.25500000920E-02 0. -1.
       -2    1    3    3    0  502  0.11633391070E+03 -0.10371040942E+03  0.84352663021E+03  0.85780335956E+03  0.25500000920E-02 0.  1.
</event>
<event>
 5   0  0.4377843E-02  0.8004014E+03  0.7818609E-02  0.9559436E-01
       -2   -1    0    0    0  501  0.00000000000E+00  0.00000000000E+00  0.25970685939E+03  0.25970685940E+03  0.25500000920E-02 0.  1.
        2   -1    0    0  501    0  0.00000000000E+00  0.00000000000E+00 -0.61669759774E+03  0.61669759775E+03  0.25500000920E-02 0. -1.
    10030    2    1    2    0    0  0.00000000000E+00  0.00000000000E+00 -0.35699073835E+03  0.87640445715E+03  0.80040139008E+03 0.  0.
        2    1    3    3  502    0  0.85586226404E+02 -0.36591701779E+03 -0.32918748022E+03  0.49958449055E+03  0.25500000920E-02 0. -1.
       -2    1    3    3    0  502 -0.85586226404E+02  0.36591701779E+03 -0.27803258128E+02  0.37681996660E+03  0.25500000920E-02 0.  1.
</event>
<event>
 5   0  0.2769394E-02  0.7816402E+03  0.7818609E-02  0.9586979E-01
        1   -1    0    0  501    0  0.00000000000E+00  0.00000000000E+00  0.31681807639E+03  0.31681807643E+03  0.50400001928E-02 0. -1.
       -1   -1    0    0    0  501  0.00000000000E+00  0.00000000000E+00 -0.48210748815E+03  0.48210748818E+03  0.50400001928E-02 0.  1.
    10030    2    1    2    0    0  0.00000000000E+00  0.00000000000E+00 -0.16528941177E+03  0.79892556461E+03  0.78164024215E+03 0.  0.
        2    1    3    3  502    0 -0.19501905706E+03  0.30333815874E+03  0.71331614337E+02  0.36760667890E+03  0.25500000920E-02 0. -1.
       -2    1    3    3    0  502  0.19501905706E+03 -0.30333815874E+03 -0.23662102610E+03  0.43131888570E+03  0.25500000920E-02 0.  1.
</event>
<event>
 5   0  0.1786500E-02  0.7911087E+03  0.7818609E-02  0.9572977E-01
       -3   -1    0    0    0  501  0.00000000000E+00  0.00000000000E+00  0.25141854635E+03  0.25141856663E+03  0.10100000352E+00 0.  1.
        3   -1    0    0  501    0  0.00000000000E+00  0.00000000000E+00 -0.62232177359E+03  0.62232178178E+03  0.10100000352E+00 0. -1.
    10030    2    1    2    0    0  0.00000000000E+00  0.00000000000E+00 -0.37090322724E+03  0.87374034842E+03  0.79110871091E+03 0.  0.
        2    1    3    3  502    0  0.13949967496E+00  0.32389009846E+03 -0.43623345025E+03  0.54332719283E+03  0.25500000920E-02 0. -1.
       -2    1    3    3    0  502 -0.13949967496E+00 -0.32389009846E+03  0.65330223011E+02  0.33041315559E+03  0.25500000920E-02 0.  1.
</event>
<event>
 5   0  0.2635243E-02  0.7857121E+03  0.7818609E-02  0.9580932E-01
        1   -1    0    0  501    0  0.00000000000E+00  0.00000000000E+00  0.81298291283E+03  0.81298291284E+03  0.50400001928E-02 0. -1.
       -1   -1    0    0    0  501  0.00000000000E+00  0.00000000000E+00 -0.18983903138E+03  0.18983903145E+03  0.50400001928E-02 0.  1.
    10030    2    1    2    0    0  0.00000000000E+00  0.00000000000E+00  0.62314388144E+03  0.10028219443E+04  0.78571213239E+03 0.  0.
        1    1    3    3  502    0 -0.15919687124E+03 -0.66903982958E+02  0.76194575095E+03  0.78126891283E+03  0.50400001928E-02 0. -1.
       -1    1    3    3    0  502  0.15919687124E+03  0.66903982958E+02 -0.13880186950E+03  0.22155303146E+03  0.50400001928E-02 0.  1.
</event>
<event>
 5   0  0.4377843E-02  0.7540588E+03  0.7818609E-02  0.9629004E-01
        2   -1    0    0  501    0  0.00000000000E+00  0.00000000000E+00  0.92821490083E+03  0.92821490083E+03  0.25500000920E-02 0.  1.
       -2   -1    0    0    0  501  0.00000000000E+00  0.00000000000E+00 -0.15314469339E+03  0.15314469341E+03  0.25500000920E-02 0. -1.
    10030    2    1    2    0    0  0.00000000000E+00  0.00000000000E+00  0.77507020744E+03  0.10813595942E+04  0.75405884758E+03 0.  0.
        2    1    3    3  502    0  0.61896978090E+02 -0.36929412387E+03  0.45072784718E+03  0.58597353017E+03  0.25500000920E-02 0.  1.
       -2    1    3    3    0  502 -0.61896978090E+02  0.36929412387E+03  0.32434236026E+03  0.49538606408E+03  0.25500000920E-02 0. -1.
</event>
<event>
 5   0  0.4700220E-02  0.7925577E+03  0.7818609E-02  0.9570852E-01
       -2   -1    0    0    0  501  0.00000000000E+00  0.00000000000E+00  0.16992869909E+03  0.16992869911E+03  0.25500000920E-02 0. -1.
        2   -1    0    0  501    0  0.00000000000E+00  0.00000000000E+00 -0.92413426503E+03  0.92413426504E+03  0.25500000920E-02 0.  1.
    10030    2    1    2    0    0  0.00000000000E+00  0.00000000000E+00 -0.75420556594E+03  0.10940629641E+04  0.79255771640E+03 0.  0.
        4    1    3    3  502    0  0.27999194105E+02  0.20603981332E+03 -0.84277525597E+03  0.86804844595E+03  0.12699999809E+01 0.  1.
       -4    1    3    3    0  502 -0.27999194105E+02 -0.20603981332E+03  0.88569690033E+02  0.22601451820E+03  0.12699999809E+01 0. -1.
</event>
<event>
 5   0  0.4684283E-02  0.8801358E+03  0.7818609E-02  0.9450759E-01
       -2   -1    0    0    0  501  0.00000000000E+00  0.00000000000E+00  0.92778117304E+03  0.92778117304E+03  0.25500000920E-02 0. -1.
        2   -1    0    0  501    0  0.00000000000E+00  0.00000000000E+00 -0.20873428282E+03  0.20873428284E+03  0.25500000920E-02 0.  1.
    10030    2    1    2    0    0  0.00000000000E+00  0.00000000000E+00  0.71904689021E+03  0.11365154559E+04  0.88013575722E+03 0.  0.
        1    1    3    3  502    0  0.32316171127E+03  0.25980155865E+03  0.16917492238E+03  0.44782864569E+03  0.50400001928E-02 0.  1.
       -1    1    3    3    0  502 -0.32316171127E+03 -0.25980155865E+03  0.54987196783E+03  0.68868681020E+03  0.50400001928E-02 0. -1.
</event>
<event>
 5   0  0.4684283E-02  0.8458344E+03  0.7818609E-02  0.9495945E-01
        2   -1    0    0  501    0  0.00000000000E+00  0.00000000000E+00  0.14991754603E+03  0.14991754605E+03  0.25500000920E-02 0.  1.
       -2   -1    0    0    0  501  0.00000000000E+00  0.00000000000E+00 -0.11930487992E+04  0.11930487992E+04  0.25500000920E-02 0. -1.
    10030    2    1    2    0    0  0.00000000000E+00  0.00000000000E+00 -0.10431312532E+04  0.13429663452E+04  0.84583437690E+03 0.  0.
        1    1    3    3  502    0  0.10171206122E+03  0.17202002639E+03 -0.11133540007E+04  0.11311469241E+04  0.50400001928E-02 0. -1.
       -1    1    3    3    0  502 -0.10171206122E+03 -0.17202002639E+03  0.70222747581E+02  0.21181942116E+03  0.50400001928E-02 0.  1.
</event>
<event>
 5   0  0.2769394E-02  0.8216062E+03  0.7818609E-02  0.9529259E-01
       -1   -1    0    0    0  501  0.00000000000E+00  0.00000000000E+00  0.20482940718E+03  0.20482940724E+03  0.50400001928E-02 0. -1.
        1   -1    0    0  501    0  0.00000000000E+00  0.00000000000E+00 -0.82390113298E+03  0.82390113299E+03  0.50400001928E-02 0.  1.
    10030    2    1    2    0    0  0.00000000000E+00  0.00000000000E+00 -0.61907172579E+03  0.10287305402E+04  0.82160618470E+03 0.  0.
        2    1    3    3  502    0 -0.26215882553E+03  0.28392147853E+03 -0.48402500816E+03  0.61936973150E+03  0.25500000920E-02 0.  1.
       -2    1    3    3    0  502  0.26215882553E+03 -0.28392147853E+03 -0.13504671764E+03  0.40936080873E+03  0.25500000920E-02 0. -1.
</event>
<event>
 5   0  0.1786500E-02  0.8223969E+03  0.7818609E-02  0.9528153E-01
        4   -1    0    0  501    0  0.00000000000E+00  0.00000000000E+00  0.31303031890E+03  0.31303289516E+03  0.12699999809E+01 0. -1.
       -4   -1    0    0    0  501  0.00000000000E+00  0.00000000000E+00 -0.54014711254E+03  0.54014860556E+03  0.12699999809E+01 0.  1.
    10030    2    1    2    0    0  0.00000000000E+00  0.00000000000E+00 -0.22711679364E+03  0.85318150072E+03  0.82239688425E+03 0.  0.
        1    1    3    3  502    0  0.25045883990E+03 -0.82997142665E+02  0.21362955738E+03  0.33949336368E+03  0.50400001928E-02 0. -1.
       -1    1    3    3    0  502 -0.25045883990E+03  0.82997142665E+02 -0.44074635102E+03  0.51368813704E+03  0.50400001928E-02 0.  1.
</event>
<event>
 5   0  0.4684283E-02  0.7957867E+03  0.7818609E-02  0.9566136E-01
        2   -1    0    0  501    0  0.00000000000E+00  0.00000000000E+00  0.11084610596E+04  0.11084610596E+04  0.25500000920E-02 0. -1.
       -2   -1    0    0    0  501  0.00000000000E+00  0.00000000000E+00 -0.14282784390E+03  0.14282784393E+03  0.25500000920E-02 0.  1.
    10030    2    1    2    0    0  0.00000000000E+00  0.00000000000E+00  0.96563321565E+03  0.12512889035E+04  0.79578666288E+03 0.  0.
        1    1    3    3  502    0 -0.17626297803E+03  0.21716380621E+03  0.92780740014E+03  0.96904867160E+03  0.50400001928E-02 0. -1.
       -1    1    3    3    0  502  0.17626297803E+03 -0.21716380621E+03  0.37825815512E+02  0.28224023189E+03  0.50400001928E-02 0.  1.
</event>
<event>
 5   0  0.4663634E-02  0.8642485E+03  0.7818609E-02  0.9471410E-01
        2   -1    0    0  501    0  0.00000000000E+00  0.00000000000E+00  0.44079794393E+03  0.44079794394E+03  0.25500000920E-02 0.  1.
       -2   -1    0    0    0  501  0.00000000000E+00  0.00000000000E+00 -0.42362121116E+03  0.42362121117E+03  0.25500000920E-02 0. -1.
    10030    2    1    2    0    0  0.00000000000E+00  0.00000000000E+00  0.17176732769E+02  0.86441915511E+03  0.86424848022E+03 0.  0.
        5    1    3    3  502    0 -0.28987455792E+03  0.31623706395E+03  0.60329897475E+02  0.43323772512E+03  0.46999998093E+01 0.  1.
       -5    1    3    3    0  502  0.28987455792E+03 -0.31623706395E+03 -0.43153164705E+02  0.43118142998E+03  0.46999998093E+01 0. -1.
</event>
<event>
 5   0  0.4700220E-02  0.8323854E+03  0.7818609E-02  0.9514288E-01
        2   -1    0    0  501    0  0.00000000000E+00  0.00000000000E+00  0.13746840517E+03  0.13746840519E+03  0.25500000920E-02 0. -1.
       -2   -1    0    0    0  501  0.00000000000E+00  0.00000000000E+00 -0.12600450119E+04  0.12600450119E+04  0.25500000920E-02 0.  1.
    10030    2    1    2    0    0  0.00000000000E+00  0.00000000000E+00 -0.11225766068E+04  0.13975134171E+04  0.83238543536E+03 0.  0.
        4    1    3    3  502    0  0.21682363974E+03 -0.25015125754E+03 -0.13779070662E+03  0.35857500488E+03  0.12699999809E+01 0. -1.
       -4    1    3    3    0  502 -0.21682363974E+03  0.25015125754E+03 -0.98478590016E+03  0.10389384123E+04  0.12699999809E+01 0.  1.
</event>
<event>
 5   0  0.2635243E-02  0.7840886E+03  0.7818609E-02  0.9583338E-01
       -1   -1    0    0    0  501  0.00000000000E+00  0.00000000000E+00  0.80320881118E+03  0.80320881120E+03  0.50400001928E-02 0.  1.
        1   -1    0    0  501    0  0.00000000000E+00  0.00000000000E+00 -0.19135590125E+03  0.19135590131E+03  0.50400001928E-02 0. -1.
    10030    2    1    2    0    0  0.00000000000E+00  0.00000000000E+00  0.61185290993E+03  0.99456471251E+03  0.78408863273E+03 0.  0.
        1    1    3    3  502    0 -0.21014878384E+03  0.82671513179E+02 -0.10056985793E+03  0.24720717382E+03  0.50400001928E-02 0. -1.
       -1    1    3    3    0  502  0.21014878384E+03 -0.82671513179E+02  0.71242276786E+03  0.74735753869E+03  0.50400001928E-02 0.  1.
</event>
<event>
 5   0  0.4590462E-02  0.8038206E+03  0.7818609E-02  0.9554503E-01
        2   -1    0    0  501    0  0.00000000000E+00  0.00000000000E+00  0.19676428678E+04  0.19676428678E+04  0.25500000920E-02 0. -1.
       -2   -1    0    0    0  501  0.00000000000E+00  0.00000000000E+00 -0.82094113479E+02  0.82094113519E+02  0.25500000920E-02 0.  1.
    10030    2    1    2    0    0  0.00000000000E+00  0.00000000000E+00  0.18855487543E+04  0.20497369813E+04  0.80382061908E+03 0.  0.
        3    1    3    3  502    0  0.28562459692E+03  0.22667395693E+03  0.51176223431E+03  0.62838132355E+03  0.10100000352E+00 0. -1.
       -3    1    3    3    0  502 -0.28562459692E+03 -0.22667395693E+03  0.13737865200E+04  0.14213556578E+04  0.10100000352E+00 0.  1.
</event>
<event>
 5   0  0.4684283E-02  0.7930536E+03  0.7818609E-02  0.9570127E-01
        2   -1    0    0  501    0  0.00000000000E+00  0.00000000000E+00  0.44807118608E+03  0.44807118609E+03  0.25500000920E-02 0.  1.
       -2   -1    0    0    0  501  0.00000000000E+00  0.00000000000E+00 -0.35091188344E+03  0.35091188345E+03  0.25500000920E-02 0. -1.
    10030    2    1    2    0    0  0.00000000000E+00  0.00000000000E+00  0.97159302637E+02  0.79898306954E+03  0.79305360180E+03 0.  0.
        1    1    3    3  502    0  0.32067853105E+03  0.23137596812E+03  0.78192354796E+02  0.40309254927E+03  0.50400001928E-02 0.  1.
       -1    1    3    3    0  502 -0.32067853105E+03 -0.23137596812E+03  0.18966947842E+02  0.39589052027E+03  0.50400001928E-02 0. -1.
</event>
<event>
 5   0  0.2689372E-02  0.7777070E+03  0.7818609E-02  0.9592858E-01
       -1   -1    0    0    0  501  0.00000000000E+00  0.00000000000E+00  0.20987362261E+03  0.20987362267E+03  0.50400001928E-02 0.  1.
        1   -1    0    0  501    0  0.00000000000E+00  0.00000000000E+00 -0.72046711494E+03  0.72046711496E+03  0.50400001928E-02 0. -1.
    10030    2    1    2    0    0  0.00000000000E+00  0.00000000000E+00 -0.51059349233E+03  0.93034073762E+03  0.77770699731E+03 0.  0.
        4    1    3    3  502    0 -0.11228861083E+03  0.14349267904E+03 -0.66623738104E+03  0.69070452573E+03  0.12699999809E+01 0. -1.
       -4    1    3    3    0  502  0.11228861083E+03 -0.14349267904E+03  0.15564388871E+03  0.23963621190E+03  0.12699999809E+01 0.  1.
</event>
<event>
 5   0  0.4590462E-02  0.7904542E+03  0.7818609E-02  0.9573938E-01
        2   -1    0    0  501    0  0.00000000000E+00  0.00000000000E+00  0.22346703940E+04  0.22346703940E+04  0.25500000920E-02 0. -1.
       -2   -1    0    0    0  501  0.00000000000E+00  0.00000000000E+00 -0.69900447674E+02  0.69900447720E+02  0.25500000920E-02 0.  1.
    10030    2    1    2    0    0  0.00000000000E+00  0.00000000000E+00  0.21647699464E+04  0.23045708418E+04  0.79045420108E+03 0.  0.
        3    1    3    3  502    0 -0.25096115603E+03 -0.26227165048E+03  0.62662821054E+03  0.72417597649E+03  0.10100000352E+00 0.  1.
       -3    1    3    3    0  502  0.25096115603E+03  0.26227165048E+03  0.15381417358E+04  0.15803948653E+04  0.10100000352E+00 0. -1.
</event>
<event>
 5   0  0.4684283E-02  0.8521472E+03  0.7818609E-02  0.9487460E-01
       -2   -1    0    0    0  501  0.00000000000E+00  0.00000000000E+00  0.39852892466E+03  0.39852892467E+03  0.25500000920E-02 0.  1.
        2   -1    0    0  501    0  0.00000000000E+00  0.00000000000E+00 -0.45552202354E+03  0.45552202355E+03  0.25500000920E-02 0. -1.
    10030    2    1    2    0    0  0.00000000000E+00  0.00000000000E+00 -0.56993098880E+02  0.85405094822E+03  0.85214717558E+03 0.  0.
        1    1    3    3  502    0  0.36762004212E+03 -0.16067358335E+03  0.11527499234E+03  0.41743121546E+03  0.50400001928E-02 0.  1.
       -1    1    3    3    0  502 -0.36762004212E+03  0.16067358335E+03 -0.17226809122E+03  0.43661973276E+03  0.50400001928E-02 0. -1.
</event>
<event>
 5   0  0.2769394E-02  0.8005713E+03  0.7818609E-02  0.9559191E-01
       -1   -1    0    0    0  501  0.00000000000E+00  0.00000000000E+00  0.86545569509E+02  0.86545569656E+02  0.50400001928E-02 0.  1.
        1   -1    0    0  501    0  0.00000000000E+00  0.00000000000E+00 -0.18513784787E+04  0.18513784787E+04  0.50400001928E-02 0. -1.
    10030    2    1    2    0    0  0.00000000000E+00  0.00000000000E+00 -0.17648329092E+04  0.19379240483E+04  0.80057130841E+03 0.  0.
        2    1    3    3  502    0 -0.83573557911E+02 -0.33231863858E+03 -0.13832589456E+04  0.14250703589E+04  0.25500000920E-02 0. -1.
       -2    1    3    3    0  502  0.83573557911E+02  0.33231863858E+03 -0.38157396357E+03  0.51285368948E+03  0.25500000920E-02 0.  1.
</event>
<event>
 5   0  0.4663634E-02  0.5159714E+03  0.7818609E-02  0.1009692E+00
        2   -1    0    0  501    0  0.00000000000E+00  0.00000000000E+00  0.20445342115E+03  0.20445342117E+03  0.25500000920E-02 0.  1.
       -2   -1    0    0    0  501  0.00000000000E+00  0.00000000000E+00 -0.32553444911E+03  0.32553444912E+03  0.25500000920E-02 0. -1.
    10030    2    1    2    0    0  0.00000000000E+00  0.00000000000E+00 -0.12108102796E+03  0.52998787029E+03  0.51597144042E+03 0.  0.
        5    1    3    3  502    0 -0.21136268281E+03  0.14391580288E+03 -0.25728861438E+02  0.25704086506E+03  0.46999998093E+01 0.  1.
       -5    1    3    3    0  502  0.21136268281E+03 -0.14391580288E+03 -0.95352166517E+02  0.27294700523E+03  0.46999998093E+01 0. -1.
</event>
<event>
 5   0  0.2635243E-02  0.8133341E+03  0.7818609E-02  0.9540915E-01
       -1   -1    0    0    0  501  0.00000000000E+00  0.00000000000E+00  0.45054790278E+03  0.45054790281E+03  0.50400001928E-02 0.  1.
        1   -1    0    0  501    0  0.00000000000E+00  0.00000000000E+00 -0.36705996324E+03  0.36705996328E+03  0.50400001928E-02 0. -1.
    10030    2    1    2    0    0  0.00000000000E+00  0.00000000000E+00  0.83487939543E+02  0.81760786609E+03  0.81333411747E+03 0.  0.
        1    1    3    3  502    0 -0.11177192737E+02  0.24183693243E+03 -0.28672682170E+03  0.37526297690E+03  0.50400001928E-02 0. -1.
       -1    1    3    3    0  502  0.11177192737E+02 -0.24183693243E+03  0.37021476124E+03  0.44234488919E+03  0.50400001928E-02 0.  1.
</event>
<event>
 5   0  0.4684283E-02  0.7887794E+03  0.7818609E-02  0.9576402E-01
        2   -1    0    0  501    0  0.00000000000E+00  0.00000000000E+00  0.74116389208E+03  0.74116389208E+03  0.25500000920E-02 0.  1.
       -2   -1    0    0    0  501  0.00000000000E+00  0.00000000000E+00 -0.20986350321E+03  0.20986350322E+03  0.25500000920E-02 0. -1.
    10030    2    1    2    0    0  0.00000000000E+00  0.00000000000E+00  0.53130038887E+03  0.95102739531E+03  0.78877943901E+03 0.  0.
        1    1    3    3  502    0  0.66211660748E+02  0.27110156535E+03 -0.70354317410E+02  0.28780162050E+03  0.50400001928E-02 0. -1.
       -1    1    3    3    0  502 -0.66211660748E+02 -0.27110156535E+03  0.60165470628E+03  0.66322577481E+03  0.50400001928E-02 0.  1.
</event>
<event>
 5   0  0.4377843E-02  0.7883671E+03  0.7818609E-02  0.9577010E-01
        2   -1    0    0  501    0  0.00000000000E+00  0.00000000000E+00  0.26405937859E+03  0.26405937860E+03  0.25500000920E-02 0. -1.
       -2   -1    0    0    0  501  0.00000000000E+00  0.00000000000E+00 -0.58843085162E+03  0.58843085162E+03  0.25500000920E-02 0.  1.
    10030    2    1    2    0    0  0.00000000000E+00  0.00000000000E+00 -0.32437147303E+03  0.85249023022E+03  0.78836713536E+03 0.  0.
        2    1    3    3  502    0  0.33088026269E+03 -0.44704860440E+02 -0.38875197696E+03  0.51245328800E+03  0.25500000920E-02 0. -1.
       -2    1    3    3    0  502 -0.33088026269E+03  0.44704860440E+02  0.64380503931E+02  0.34003694223E+03  0.25500000920E-02 0.  1.
</event>
<event>
 5   0  0.2606520E-02  0.7971293E+03  0.7818609E-02  0.9564182E-01
        1   -1    0    0  501    0  0.00000000000E+00  0.00000000000E+00  0.41009221176E+03  0.41009221179E+03  0.50400001928E-02 0.  1.
       -1   -1    0    0    0  501  0.00000000000E+00  0.00000000000E+00 -0.38736115051E+03  0.38736115054E+03  0.50400001928E-02 0. -1.
    10030    2    1    2    0    0  0.00000000000E+00  0.00000000000E+00  0.22731061254E+02  0.79745336233E+03  0.79712932699E+03 0.  0.
        5    1    3    3  502    0  0.13806156810E+03 -0.92618827769E+02  0.37371776125E+03  0.40905537390E+03  0.46999998093E+01 0.  1.
       -5    1    3    3    0  502 -0.13806156810E+03  0.92618827769E+02 -0.35098670000E+03  0.38839798843E+03  0.46999998093E+01 0. -1.
</event>
<event>
 5   0  0.2759559E-02  0.5721671E+03  0.7818609E-02  0.9964895E-01
       -1   -1    0    0    0  501  0.00000000000E+00  0.00000000000E+00  0.41299233123E+03  0.41299233126E+03  0.50400001928E-02 0. -1.
        1   -1    0    0  501    0  0.00000000000E+00  0.00000000000E+00 -0.19817268034E+03  0.19817268040E+03  0.50400001928E-02 0.  1.
    10030    2    1    2    0    0  0.00000000000E+00  0.00000000000E+00  0.21481965089E+03  0.61116501166E+03  0.57216709891E+03 0.  0.
        3    1    3    3  502    0 -0.20699964991E+03  0.19703803559E+03  0.93444109230E+02  0.30067366742E+03  0.10100000352E+00 0.  1.
       -3    1    3    3    0  502  0.20699964991E+03 -0.19703803559E+03  0.12137554166E+03  0.31049134424E+03  0.10100000352E+00 0. -1.
</event>
<event>
 5   0  0.4590462E-02  0.9208001E+03  0.7818609E-02  0.9399947E-01
        2   -1    0    0  501    0  0.00000000000E+00  0.00000000000E+00  0.76102734776E+03  0.76102734777E+03  0.25500000920E-02 0. -1.
       -2   -1    0    0    0  501  0.00000000000E+00  0.00000000000E+00 -0.27852905045E+03  0.27852905046E+03  0.25500000920E-02 0.  1.
    10030    2    1    2    0    0  0.00000000000E+00  0.00000000000E+00  0.48249829731E+03  0.10395563982E+04  0.92080014020E+03 0.  0.
        3    1    3    3  502    0 -0.30814635270E+03  0.31055305071E+03  0.79326083225E+02  0.44462344705E+03  0.10100000352E+00 0.  1.
       -3    1    3    3    0  502  0.30814635270E+03 -0.31055305071E+03  0.40317221409E+03  0.59493295118E+03  0.10100000352E+00 0. -1.
</event>
<event>
 5   0  0.4663634E-02  0.7943932E+03  0.7818609E-02  0.9568168E-01
        2   -1    0    0  501    0  0.00000000000E+00  0.00000000000E+00  0.36755997748E+03  0.36755997749E+03  0.25500000920E-02 0. -1.
       -2   -1    0    0    0  501  0.00000000000E+00  0.00000000000E+00 -0.42922287769E+03  0.42922287769E+03  0.25500000920E-02 0.  1.
    10030    2    1    2    0    0  0.00000000000E+00  0.00000000000E+00 -0.61662900207E+02  0.79678285518E+03  0.79439323075E+03 0.  0.
        5    1    3    3  502    0 -0.31314928649E+03  0.16849517419E+03 -0.20825324277E+03  0.41212207230E+03  0.46999998093E+01 0.  1.
       -5    1    3    3    0  502  0.31314928649E+03 -0.16849517419E+03  0.14659034256E+03  0.38466078288E+03  0.46999998093E+01 0. -1.
</event>
<event>
 5   0  0.2606520E-02  0.8878682E+03  0.7818609E-02  0.9440875E-01
        1   -1    0    0  501    0  0.00000000000E+00  0.00000000000E+00  0.74789312332E+03  0.74789312334E+03  0.50400001928E-02 0. -1.
       -1   -1    0    0    0  501  0.00000000000E+00  0.00000000000E+00 -0.26351022795E+03  0.26351022800E+03  0.50400001928E-02 0.  1.
    10030    2    1    2    0    0  0.00000000000E+00  0.00000000000E+00  0.48438289537E+03  0.10114033513E+04  0.88786820518E+03 0.  0.
        5    1    3    3  502    0  0.20721280263E+03 -0.11487083010E+03  0.66982004283E+03  0.71050223994E+03  0.46999998093E+01 0. -1.
       -5    1    3    3    0  502 -0.20721280263E+03  0.11487083010E+03 -0.18543714746E+03  0.30090111140E+03  0.46999998093E+01 0.  1.
</event>
<event>
 5   0  0.4684283E-02  0.8237620E+03  0.7818609E-02  0.9526245E-01
        2   -1    0    0  501    0  0.00000000000E+00  0.00000000000E+00  0.38834406574E+03  0.38834406574E+03  0.25500000920E-02 0.  1.
       -2   -1    0    0    0  501  0.00000000000E+00  0.00000000000E+00 -0.43684449912E+03  0.43684449913E+03  0.25500000920E-02 0. -1.
    10030    2    1    2    0    0  0.00000000000E+00  0.00000000000E+00 -0.48500433386E+02  0.82518856487E+03  0.82376202605E+03 0.  0.
        1    1    3    3  502    0  0.22316357232E+03  0.34148572548E+03  0.32694405587E+02  0.40924736395E+03  0.50400001928E-02 0. -1.
       -1    1    3    3    0  502 -0.22316357232E+03 -0.34148572548E+03 -0.81194838973E+02  0.41594120092E+03  0.50400001928E-02 0.  1.
</event>
<event>
 5   0  0.2635243E-02  0.8094009E+03  0.7818609E-02  0.9546509E-01
       -1   -1    0    0    0  501  0.00000000000E+00  0.00000000000E+00  0.19786278623E+03  0.19786278629E+03  0.50400001928E-02 0. -1.
        1   -1    0    0  501    0  0.00000000000E+00  0.00000000000E+00 -0.82775765919E+03  0.82775765920E+03  0.50400001928E-02 0.  1.
    10030    2    1    2    0    0  0.00000000000E+00  0.00000000000E+00 -0.62989487296E+03  0.10256204455E+04  0.80940085695E+03 0.  0.
        1    1    3    3  502    0  0.23033301037E+03 -0.24253971541E+03 -0.26264000373E+02  0.33551245425E+03  0.50400001928E-02 0. -1.
       -1    1    3    3    0  502 -0.23033301037E+03  0.24253971541E+03 -0.60363087259E+03  0.69010799125E+03  0.50400001928E-02 0.  1.
</event>
<event>
 5   0  0.4590462E-02  0.7193545E+03  0.7818609E-02  0.9684694E-01
       -2   -1    0    0    0  501  0.00000000000E+00  0.00000000000E+00  0.23178324918E+03  0.23178324920E+03  0.25500000920E-02 0.  1.
        2   -1    0    0  501    0  0.00000000000E+00  0.00000000000E+00 -0.55814100831E+03  0.55814100832E+03  0.25500000920E-02 0. -1.
    10030    2    1    2    0    0  0.00000000000E+00  0.00000000000E+00 -0.32635775913E+03  0.78992425751E+03  0.71935453405E+03 0.  0.
        3    1    3    3  502    0  0.50002436954E+02 -0.10318863471E+03 -0.53753258088E+03  0.54962662212E+03  0.10100000352E+00 0. -1.
       -3    1    3    3    0  502 -0.50002436954E+02  0.10318863471E+03  0.21117482175E+03  0.24029763539E+03  0.10100000352E+00 0.  1.
</event>
<event>
 5   0  0.4700220E-02  0.7837605E+03  0.7818609E-02  0.9583825E-01
        2   -1    0    0  501    0  0.00000000000E+00  0.00000000000E+00  0.17570642597E+04  0.17570642597E+04  0.25500000920E-02 0.  1.
       -2   -1    0    0    0  501  0.00000000000E+00  0.00000000000E+00 -0.87401548399E+02  0.87401548437E+02  0.25500000920E-02 0. -1.
    10030    2    1    2    0    0  0.00000000000E+00  0.00000000000E+00  0.16696627113E+04  0.18444658081E+04  0.78376051692E+03 0.  0.
        4    1    3    3  502    0 -0.68856565255E+02  0.26443758996E+03  0.14958685402E+04  0.15206224936E+04  0.12699999809E+01 0.  1.
       -4    1    3    3    0  502  0.68856565255E+02 -0.26443758996E+03  0.17379417108E+03  0.32384331453E+03  0.12699999809E+01 0. -1.
</event>
<event>
 5   0  0.4377843E-02  0.7948291E+03  0.7818609E-02  0.9567532E-01
       -2   -1    0    0    0  501  0.00000000000E+00  0.00000000000E+00  0.17584189226E+03  0.17584189228E+03  0.25500000920E-02 0.  1.
        2   -1    0    0  501    0  0.00000000000E+00  0.00000000000E+00 -0.89818368110E+03  0.89818368110E+03  0.25500000920E-02 0. -1.
    10030    2    1    2    0    0  0.00000000000E+00  0.00000000000E+00 -0.72234178884E+03  0.10740255734E+04  0.79482908375E+03 0.  0.
        2    1    3    3  502    0 -0.60010552519E+02  0.11110019291E+03 -0.87035584754E+03  0.87946791905E+03  0.25500000920E-02 0. -1.
       -2    1    3    3    0  502  0.60010552519E+02 -0.11110019291E+03  0.14801405870E+03  0.19455765433E+03  0.25500000920E-02 0.  1.
</event>
<event>
 5   0  0.4377843E-02  0.8168266E+03  0.7818609E-02  0.9535976E-01
        2   -1    0    0  501    0  0.00000000000E+00  0.00000000000E+00  0.79208717060E+03  0.79208717061E+03  0.25500000920E-02 0. -1.
       -2   -1    0    0    0  501  0.00000000000E+00  0.00000000000E+00 -0.21058469493E+03  0.21058469495E+03  0.25500000920E-02 0.  1.
    10030    2    1    2    0    0  0.00000000000E+00  0.00000000000E+00  0.58150247567E+03  0.10026718656E+04  0.81682662834E+03 0.  0.
        2    1    3    3  502    0  0.19449197073E+03 -0.27715204603E+03  0.10400236073E+02  0.33874555084E+03  0.25500000920E-02 0.  1.
       -2    1    3    3    0  502 -0.19449197073E+03  0.27715204603E+03  0.57110223960E+03  0.66392631472E+03  0.25500000920E-02 0. -1.
</event>
<event>
 5   0  0.4684283E-02  0.7891787E+03  0.7818609E-02  0.9575814E-01
        2   -1    0    0  501    0  0.00000000000E+00  0.00000000000E+00  0.17551664411E+04  0.17551664411E+04  0.25500000920E-02 0. -1.
       -2   -1    0    0    0  501  0.00000000000E+00  0.00000000000E+00 -0.88709971781E+02  0.88709971817E+02  0.25500000920E-02 0.  1.
    10030    2    1    2    0    0  0.00000000000E+00  0.00000000000E+00  0.16664564693E+04  0.18438764129E+04  0.78917872626E+03 0.  0.
        1    1    3    3  502    0  0.28553307578E+03  0.22971431301E+03  0.11750450193E+04  0.12308649806E+04  0.50400001928E-02 0. -1.
       -1    1    3    3    0  502 -0.28553307578E+03 -0.22971431301E+03  0.49141145001E+03  0.61301143235E+03  0.50400001928E-02 0.  1.
</event>
<event>
 5   0  0.2606520E-02  0.8136705E+03  0.7818609E-02  0.9540438E-01
        1   -1    0    0  501    0  0.00000000000E+00  0.00000000000E+00  0.22300873550E+04  0.22300873550E+04  0.50400001928E-02 0. -1.
       -1   -1    0    0    0  501  0.00000000000E+00  0.00000000000E+00 -0.74219023071E+02  0.74219023242E+02  0.50400001928E-02 0.  1.
    10030    2    1    2    0    0  0.00000000000E+00  0.00000000000E+00  0.21558683319E+04  0.23043063782E+04  0.81367046169E+03 0.  0.
        5    1    3    3  502    0 -0.35914279766E+03 -0.18912951824E+03  0.11549357151E+04  0.12241944780E+04  0.46999998093E+01 0. -1.
       -5    1    3    3    0  502  0.35914279766E+03  0.18912951824E+03  0.10009326168E+04  0.10801119003E+04  0.46999998093E+01 0.  1.
</event>
<event>
 5   0  0.2635243E-02  0.8476071E+03  0.7818609E-02  0.9493554E-01
       -1   -1    0    0    0  501  0.00000000000E+00  0.00000000000E+00  0.11109925724E+03  0.11109925736E+03  0.50400001928E-02 0.  1.
        1   -1    0    0  501    0  0.00000000000E+00  0.00000000000E+00 -0.16166573710E+04  0.16166573710E+04  0.50400001928E-02 0. -1.
    10030    2    1    2    0    0  0.00000000000E+00  0.00000000000E+00 -0.15055581137E+04  0.17277566284E+04  0.84760706283E+03 0.  0.
        1    1    3    3  502    0  0.14491743227E+03 -0.44241179683E+02 -0.15595582889E+04  0.15669015287E+04  0.50400001928E-02 0. -1.
       -1    1    3    3    0  502 -0.14491743227E+03  0.44241179683E+02  0.54000175121E+02  0.16085509969E+03  0.50400001928E-02 0.  1.
</event>
<event>
 5   0  0.4684283E-02  0.8281900E+03  0.7818609E-02  0.9520086E-01
       -2   -1    0    0    0  501  0.00000000000E+00  0.00000000000E+00  0.83439159061E+03  0.83439159061E+03  0.25500000920E-02 0. -1.
        2   -1    0    0  501    0  0.00000000000E+00  0.00000000000E+00 -0.20550862426E+03  0.20550862428E+03  0.25500000920E-02 0.  1.
    10030    2    1    2    0    0  0.00000000000E+00  0.00000000000E+00  0.62888296634E+03  0.10399002149E+04  0.82818999726E+03 0.  0.
        1    1    3    3  502    0 -0.24525563818E+03 -0.31329845220E+03  0.17035324991E+03  0.43281228955E+03  0.50400001928E-02 0. -1.
       -1    1    3    3    0  502  0.24525563818E+03  0.31329845220E+03  0.45852971643E+03  0.60708792533E+03  0.50400001928E-02 0.  1.
</event>
<event>
 5   0  0.2769394E-02  0.8087505E+03  0.7818609E-02  0.9547437E-01
       -1   -1    0    0    0  501  0.00000000000E+00  0.00000000000E+00  0.18238676439E+03  0.18238676446E+03  0.50400001928E-02 0. -1.
        1   -1    0    0  501    0  0.00000000000E+00  0.00000000000E+00 -0.89655278911E+03  0.89655278912E+03  0.50400001928E-02 0.  1.
    10030    2    1    2    0    0  0.00000000000E+00  0.00000000000E+00 -0.71416602472E+03  0.10789395536E+04  0.80875054832E+03 0.  0.
        2    1    3    3  502    0  0.26435774891E+03 -0.19442244804E+03 -0.67231689261E+03  0.74812773762E+03  0.25500000920E-02 0.  1.
       -2    1    3    3    0  502 -0.26435774891E+03  0.19442244804E+03 -0.41849132114E+02  0.33081181595E+03  0.25500000920E-02 0. -1.
</event>
<event>
 5   0  0.2759559E-02  0.7875140E+03  0.7818609E-02  0.9578268E-01
       -1   -1    0    0    0  501  0.00000000000E+00  0.00000000000E+00  0.46228820568E+03  0.46228820571E+03  0.50400001928E-02 0.  1.
        1   -1    0    0  501    0  0.00000000000E+00  0.00000000000E+00 -0.33538507358E+03  0.33538507362E+03  0.50400001928E-02 0. -1.
    10030    2    1    2    0    0  0.00000000000E+00  0.00000000000E+00  0.12690313210E+03  0.79767327933E+03  0.78751397170E+03 0.  0.
        3    1    3    3  502    0  0.24547184175E+03  0.16062019855E+03  0.32949808707E+03  0.44116241098E+03  0.10100000352E+00 0.  1.
       -3    1    3    3    0  502 -0.24547184175E+03 -0.16062019855E+03 -0.20259495497E+03  0.35651086835E+03  0.10100000352E+00 0. -1.
</event>
<event>
 5   0  0.2689372E-02  0.7760962E+03  0.7818609E-02  0.9595276E-01
        1   -1    0    0  501    0  0.00000000000E+00  0.00000000000E+00  0.69438625642E+03  0.69438625644E+03  0.50400001928E-02 0. -1.
       -1   -1    0    0    0  501  0.00000000000E+00  0.00000000000E+00 -0.21685528486E+03  0.21685528492E+03  0.50400001928E-02 0.  1.
    10030    2    1    2    0    0  0.00000000000E+00  0.00000000000E+00  0.47753097156E+03  0.91124154136E+03  0.77609620402E+03 0.  0.
        4    1    3    3  502    0  0.17499044273E+03 -0.42942448483E+02 -0.16475784854E+03  0.24415665152E+03  0.12699999809E+01 0.  1.
       -4    1    3    3    0  502 -0.17499044273E+03  0.42942448483E+02  0.64228882010E+03  0.66708488984E+03  0.12699999809E+01 0. -1.
</event>
<event>
 5   0  0.4684283E-02  0.8158176E+03  0.7818609E-02  0.9537400E-01
        2   -1    0    0  501    0  0.00000000000E+00  0.00000000000E+00  0.12234251758E+04  0.12234251758E+04  0.25500000920E-02 0.  1.
       -2   -1    0    0    0  501  0.00000000000E+00  0.00000000000E+00 -0.13600308021E+03  0.13600308023E+03  0.25500000920E-02 0. -1.
    10030    2    1    2    0    0  0.00000000000E+00  0.00000000000E+00  0.10874220955E+04  0.13594282560E+04  0.81581760785E+03 0.  0.
        1    1    3    3  502    0 -0.10914025377E+03  0.30324703728E+02 -0.10926916474E+03  0.15738784272E+03  0.50400001928E-02 0. -1.
       -1    1    3    3    0  502  0.10914025377E+03 -0.30324703728E+02  0.11966912603E+04  0.12020404133E+04  0.50400001928E-02 0.  1.
</event>
<event>
 5   0  0.2769394E-02  0.7974476E+03  0.7818609E-02  0.9563719E-01
        1   -1    0    0  501    0  0.00000000000E+00  0.00000000000E+00  0.78841259608E+03  0.78841259610E+03  0.50400001928E-02 0. -1.
       -1   -1    0    0    0  501  0.00000000000E+00  0.00000000000E+00 -0.20164651550E+03  0.20164651557E+03  0.50400001928E-02 0.  1.
    10030    2    1    2    0    0  0.00000000000E+00  0.00000000000E+00  0.58676608058E+03  0.99005911166E+03  0.79744756020E+03 0.  0.
        2    1    3    3  502    0 -0.20840439999E+03  0.32314197145E+03  0.42434895600E+03  0.57264750424E+03  0.25500000920E-02 0. -1.
       -2    1    3    3    0  502  0.20840439999E+03 -0.32314197145E+03  0.16241712458E+03  0.41741160742E+03  0.25500000920E-02 0.  1.
</event>
<event>
 5   0  0.2759559E-02  0.7897171E+03  0.7818609E-02  0.9575022E-01
       -1   -1    0    0    0  501  0.00000000000E+00  0.00000000000E+00  0.10623857298E+03  0.10623857310E+03  0.50400001928E-02 0. -1.
        1   -1    0    0  501    0  0.00000000000E+00  0.00000000000E+00 -0.14675768318E+04  0.14675768318E+04  0.50400001928E-02 0.  1.
    10030    2    1    2    0    0  0.00000000000E+00  0.00000000000E+00 -0.13613382588E+04  0.15738154049E+04  0.78971708466E+03 0.  0.
        3    1    3    3  502    0  0.23115165233E+03 -0.27882612320E+03 -0.99411748687E+03  0.10580381285E+04  0.10100000352E+00 0.  1.
       -3    1    3    3    0  502 -0.23115165233E+03  0.27882612320E+03 -0.36722077190E+03  0.51577727642E+03  0.10100000352E+00 0. -1.
</event>
<event>
 5   0  0.2606520E-02  0.8050304E+03  0.7818609E-02  0.9552764E-01
        1   -1    0    0  501    0  0.00000000000E+00  0.00000000000E+00  0.19363016750E+04  0.19363016750E+04  0.50400001928E-02 0.  1.
       -1   -1    0    0    0  501  0.00000000000E+00  0.00000000000E+00 -0.83674198132E+02  0.83674198284E+02  0.50400001928E-02 0. -1.
    10030    2    1    2    0    0  0.00000000000E+00  0.00000000000E+00  0.18526274768E+04  0.20199758732E+04  0.80503040974E+03 0.  0.
        5    1    3    3  502    0 -0.16176723505E+03 -0.11020598157E+03  0.18087591601E+04  0.18193256405E+04  0.46999998093E+01 0.  1.
       -5    1    3    3    0  502  0.16176723505E+03  0.11020598157E+03  0.43868316703E+02  0.20065023279E+03  0.46999998093E+01 0. -1.
</event>
<event>
 5   0  0.4684283E-02  0.8260819E+03  0.7818609E-02  0.9523014E-01
        2   -1    0    0  501    0  0.00000000000E+00  0.00000000000E+00  0.22641673656E+04  0.22641673656E+04  0.25500000920E-02 0. -1.
       -2   -1    0    0    0  501  0.00000000000E+00  0.00000000000E+00 -0.75349026441E+02  0.75349026484E+02  0.25500000920E-02 0.  1.
    10030    2    1    2    0    0  0.00000000000E+00  0.00000000000E+00  0.21888183392E+04  0.23395163921E+04  0.82608185248E+03 0.  0.
        1    1    3    3  502    0  0.31754530988E+03  0.23332858515E+03  0.74380982025E+03  0.84174241974E+03  0.50400001928E-02 0.  1.
       -1    1    3    3    0  502 -0.31754530988E+03 -0.23332858515E+03  0.14450085189E+04  0.14977739724E+04  0.50400001928E-02 0. -1.
</event>
<event>
 5   0  0.1786500E-02  0.8316407E+03  0.7818609E-02  0.9515315E-01
       -3   -1    0    0    0  501  0.00000000000E+00  0.00000000000E+00  0.26587142839E+03  0.26587144758E+03  0.10100000352E+00 0. -1.
        3   -1    0    0  501    0  0.00000000000E+00  0.00000000000E+00 -0.65033901168E+03  0.65033901953E+03  0.10100000352E+00 0.  1.
    10030    2    1    2    0    0  0.00000000000E+00  0.00000000000E+00 -0.38446758329E+03  0.91621046710E+03  0.83164072617E+03 0.  0.
        4    1    3    3  502    0  0.30717522992E+03 -0.27618530390E+03 -0.24472349301E+03  0.48013138295E+03  0.12699999809E+01 0. -1.
       -4    1    3    3    0  502 -0.30717522992E+03  0.27618530390E+03 -0.13974409028E+03  0.43607908415E+03  0.12699999809E+01 0.  1.
</event>
<event>
 5   0  0.2606520E-02  0.7571054E+03  0.7818609E-02  0.9624269E-01
       -1   -1    0    0    0  501  0.00000000000E+00  0.00000000000E+00  0.26856698753E+03  0.26856698757E+03  0.50400001928E-02 0.  1.
        1   -1    0    0  501    0  0.00000000000E+00  0.00000000000E+00 -0.53358059064E+03  0.53358059066E+03  0.50400001928E-02 0. -1.
    10030    2    1    2    0    0  0.00000000000E+00  0.00000000000E+00 -0.26501360311E+03  0.80214757824E+03  0.75710536086E+03 0.  0.
        5    1    3    3  502    0  0.35321500257E+03 -0.13099412841E+03 -0.17157525632E+03  0.41398122940E+03  0.46999998093E+01 0.  1.
       -5    1    3    3    0  502 -0.35321500257E+03  0.13099412841E+03 -0.93438346787E+02  0.38816634883E+03  0.46999998093E+01 0. -1.
</event>
<event>
 5   0  0.1786500E-02  0.8059723E+03  0.7818609E-02  0.9551412E-01
       -3   -1    0    0    0  501  0.00000000000E+00  0.00000000000E+00  0.13298545268E+03  0.13298549103E+03  0.10100000352E+00 0. -1.
        3   -1    0    0  501    0  0.00000000000E+00  0.00000000000E+00 -0.12211696894E+04  0.12211696935E+04  0.10100000352E+00 0.  1.
    10030    2    1    2    0    0  0.00000000000E+00  0.00000000000E+00 -0.10881842367E+04  0.13541551846E+04  0.80597228918E+03 0.  0.
        5    1    3    3  502    0  0.28674836557E+03  0.40679186765E+02 -0.73360924211E+02  0.29880317366E+03  0.46999998093E+01 0. -1.
       -5    1    3    3    0  502 -0.28674836557E+03 -0.40679186765E+02 -0.10148233125E+04  0.10553520109E+04  0.46999998093E+01 0.  1.
</event>
<event>
 5   0  0.4377843E-02  0.7817138E+03  0.7818609E-02  0.9586869E-01
        2   -1    0    0  501    0  0.00000000000E+00  0.00000000000E+00  0.20631925750E+03  0.20631925752E+03  0.25500000920E-02 0.  1.
       -2   -1    0    0    0  501  0.00000000000E+00  0.00000000000E+00 -0.74045008308E+03  0.74045008309E+03  0.25500000920E-02 0. -1.
    10030    2    1    2    0    0  0.00000000000E+00  0.00000000000E+00 -0.53413082558E+03  0.94676934060E+03  0.78171378744E+03 0.  0.
        2    1    3    3  502    0 -0.10603477431E+03 -0.30194750201E+03 -0.53884135120E+03  0.62671019546E+03  0.25500000920E-02 0. -1.
       -2    1    3    3    0  502  0.10603477431E+03  0.30194750201E+03  0.47105256160E+01  0.32005914514E+03  0.25500000920E-02 0.  1.
</event>
<event>
 5   0  0.2769394E-02  0.7685005E+03  0.7818609E-02  0.9606765E-01
        1   -1    0    0  501    0  0.00000000000E+00  0.00000000000E+00  0.13887626903E+04  0.13887626903E+04  0.50400001928E-02 0. -1.
       -1   -1    0    0    0  501  0.00000000000E+00  0.00000000000E+00 -0.10631640769E+03  0.10631640781E+03  0.50400001928E-02 0.  1.
    10030    2    1    2    0    0  0.00000000000E+00  0.00000000000E+00  0.12824462826E+04  0.14950790981E+04  0.76850051520E+03 0.  0.
        2    1    3    3  502    0 -0.33380728942E+03  0.15571729687E+03  0.85409727953E+03  0.93013834773E+03  0.25500000920E-02 0. -1.
       -2    1    3    3    0  502  0.33380728942E+03 -0.15571729687E+03  0.42834900309E+03  0.56494075040E+03  0.25500000920E-02 0.  1.
</event>
<event>
 5   0  0.4663634E-02  0.7957712E+03  0.7818609E-02  0.9566158E-01
        2   -1    0    0  501    0  0.00000000000E+00  0.00000000000E+00  0.30180076012E+03  0.30180076013E+03  0.25500000920E-02 0.  1.
       -2   -1    0    0    0  501  0.00000000000E+00  0.00000000000E+00 -0.52456109331E+03  0.52456109332E+03  0.25500000920E-02 0. -1.
    10030    2    1    2    0    0  0.00000000000E+00  0.00000000000E+00 -0.22276033319E+03  0.82636185345E+03  0.79577116484E+03 0.  0.
        5    1    3    3  502    0  0.24121369596E+03 -0.50306818212E+02  0.21299949830E+03  0.32573869796E+03  0.46999998093E+01 0.  1.
       -5    1    3    3    0  502 -0.24121369596E+03  0.50306818212E+02 -0.43575983148E+03  0.50062315549E+03  0.46999998093E+01 0. -1.
</event>
<event>
 5   0  0.4700220E-02  0.8769232E+03  0.7818609E-02  0.9454897E-01
        2   -1    0    0  501    0  0.00000000000E+00  0.00000000000E+00  0.18239318559E+04  0.18239318559E+04  0.25500000920E-02 0. -1.
       -2   -1    0    0    0  501  0.00000000000E+00  0.00000000000E+00 -0.10540338710E+03  0.10540338713E+03  0.25500000920E-02 0.  1.
    10030    2    1    2    0    0  0.00000000000E+00  0.00000000000E+00  0.17185284688E+04  0.19293352430E+04  0.87692324745E+03 0.  0.
        4    1    3    3  502    0 -0.12719464796E+03  0.41932307308E+03  0.82541781988E+03  0.93451939967E+03  0.12699999809E+01 0.  1.
       -4    1    3    3    0  502  0.12719464796E+03 -0.41932307308E+03  0.89311064889E+03  0.99481584333E+03  0.12699999809E+01 0. -1.
</event>
<event>
 5   0  0.4700220E-02  0.8016840E+03  0.7818609E-02  0.9557583E-01
        2   -1    0    0  501    0  0.00000000000E+00  0.00000000000E+00  0.70027137709E+03  0.70027137710E+03  0.25500000920E-02 0. -1.
       -2   -1    0    0    0  501  0.00000000000E+00  0.00000000000E+00 -0.22944580186E+03  0.22944580187E+03  0.25500000920E-02 0.  1.
    10030    2    1    2    0    0  0.00000000000E+00  0.00000000000E+00  0.47082557524E+03  0.92971717897E+03  0.80168404660E+03 0.  0.
        4    1    3    3  502    0  0.29172824009E+03  0.14011886085E+03 -0.38861920314E+02  0.32596092248E+03  0.12699999809E+01 0.  1.
       -4    1    3    3    0  502 -0.29172824009E+03 -0.14011886085E+03  0.50968749555E+03  0.60375625649E+03  0.12699999809E+01 0. -1.
</event>
<event>
 5   0  0.2606520E-02  0.8129858E+03  0.7818609E-02  0.9541409E-01
        1   -1    0    0  501    0  0.00000000000E+00  0.00000000000E+00  0.28581785822E+03  0.28581785827E+03  0.50400001928E-02 0. -1.
       -1   -1    0    0    0  501  0.00000000000E+00  0.00000000000E+00 -0.57811808048E+03  0.57811808050E+03  0.50400001928E-02 0.  1.
    10030    2    1    2    0    0  0.00000000000E+00  0.00000000000E+00 -0.29230022225E+03  0.86393593877E+03  0.81298578485E+03 0.  0.
        5    1    3    3  502    0 -0.10538720373E+02  0.28565882146E+03 -0.45322757825E+03  0.53586318645E+03  0.46999998093E+01 0.  1.
       -5    1    3    3    0  502  0.10538720373E+02 -0.28565882146E+03  0.16092735600E+03  0.32807275232E+03  0.46999998093E+01 0. -1.
</event>
<event>
 5   0  0.2606520E-02  0.8092330E+03  0.7818609E-02  0.9546748E-01
        1   -1    0    0  501    0  0.00000000000E+00  0.00000000000E+00  0.25968318159E+03  0.25968318164E+03  0.50400001928E-02 0.  1.
       -1   -1    0    0    0  501  0.00000000000E+00  0.00000000000E+00 -0.63043934299E+03  0.63043934301E+03  0.50400001928E-02 0. -1.
    10030    2    1    2    0    0  0.00000000000E+00  0.00000000000E+00 -0.37075616140E+03  0.89012252465E+03  0.80923295637E+03 0.  0.
        5    1    3    3  502    0  0.15647288657E+03  0.61281950127E+02 -0.59020632480E+03  0.61368138108E+03  0.46999998093E+01 0. -1.
       -5    1    3    3    0  502 -0.15647288657E+03 -0.61281950127E+02  0.21945016341E+03  0.27644114357E+03  0.46999998093E+01 0.  1.
</event>
<event>
 5   0  0.2606520E-02  0.7833412E+03  0.7818609E-02  0.9584448E-01
       -1   -1    0    0    0  501  0.00000000000E+00  0.00000000000E+00  0.50425674582E+03  0.50425674584E+03  0.50400001928E-02 0.  1.
        1   -1    0    0  501    0  0.00000000000E+00  0.00000000000E+00 -0.30422172747E+03  0.30422172751E+03  0.50400001928E-02 0. -1.
    10030    2    1    2    0    0  0.00000000000E+00  0.00000000000E+00  0.20003501835E+03  0.80847847336E+03  0.78334119853E+03 0.  0.
        5    1    3    3  502    0 -0.21142408580E+03  0.83411960343E+02  0.42919764810E+03  0.48568550556E+03  0.46999998093E+01 0.  1.
       -5    1    3    3    0  502  0.21142408580E+03 -0.83411960343E+02 -0.22916262975E+03  0.32279296779E+03  0.46999998093E+01 0. -1.
</event>
<event>
 5   0  0.4684283E-02  0.8135081E+03  0.7818609E-02  0.9540668E-01
       -2   -1    0    0    0  501  0.00000000000E+00  0.00000000000E+00  0.25821166297E+03  0.25821166299E+03  0.25500000920E-02 0. -1.
        2   -1    0    0  501    0  0.00000000000E+00  0.00000000000E+00 -0.64074899010E+03  0.64074899011E+03  0.25500000920E-02 0.  1.
    10030    2    1    2    0    0  0.00000000000E+00  0.00000000000E+00 -0.38253732713E+03  0.89896065310E+03  0.81350811254E+03 0.  0.
        1    1    3    3  502    0 -0.38436324714E+03  0.12597771200E+03 -0.14382421994E+03  0.42929115521E+03  0.50400001928E-02 0. -1.
       -1    1    3    3    0  502  0.38436324714E+03 -0.12597771200E+03 -0.23871310719E+03  0.46966949789E+03  0.50400001928E-02 0.  1.
</event>
<event>
 5   0  0.4663634E-02  0.8006584E+03  0.7818609E-02  0.9559065E-01
        2   -1    0    0  501    0  0.00000000000E+00  0.00000000000E+00  0.33248373996E+03  0.33248373997E+03  0.25500000920E-02 0.  1.
       -2   -1    0    0    0  501  0.00000000000E+00  0.00000000000E+00 -0.48201894595E+03  0.48201894595E+03  0.25500000920E-02 0. -1.
    10030    2    1    2    0    0  0.00000000000E+00  0.00000000000E+00 -0.14953520599E+03  0.81450268592E+03  0.80065838380E+03 0.  0.
        5    1    3    3  502    0 -0.19359961041E+03  0.15549293482E+03 -0.39417517014E+03  0.46589163620E+03  0.46999998093E+01 0. -1.
       -5    1    3    3    0  502  0.19359961041E+03 -0.15549293482E+03  0.24463996415E+03  0.34861104972E+03  0.46999998093E+01 0.  1.
</event>
<event>
 5   0  0.2759559E-02  0.8130988E+03  0.7818609E-02  0.9541248E-01
       -1   -1    0    0    0  501  0.00000000000E+00  0.00000000000E+00  0.20239590369E+03  0.20239590375E+03  0.50400001928E-02 0.  1.
        1   -1    0    0  501    0  0.00000000000E+00  0.00000000000E+00 -0.81662926313E+03  0.81662926315E+03  0.50400001928E-02 0. -1.
    10030    2    1    2    0    0  0.00000000000E+00  0.00000000000E+00 -0.61423335944E+03  0.10190251669E+04  0.81309880761E+03 0.  0.
        3    1    3    3  502    0  0.34538361990E+03 -0.12703137098E+03 -0.52366481067E+03  0.64004035674E+03  0.10100000352E+00 0. -1.
       -3    1    3    3    0  502 -0.34538361990E+03  0.12703137098E+03 -0.90568548768E+02  0.37898481017E+03  0.10100000352E+00 0.  1.
</event>
<event>
 5   0  0.4700220E-02  0.7765671E+03  0.7818609E-02  0.9594569E-01
       -2   -1    0    0    0  501  0.00000000000E+00  0.00000000000E+00  0.90009512158E+03  0.90009512159E+03  0.25500000920E-02 0. -1.
        2   -1    0    0  501    0  0.00000000000E+00  0.00000000000E+00 -0.16749797200E+03  0.16749797202E+03  0.25500000920E-02 0.  1.
    10030    2    1    2    0    0  0.00000000000E+00  0.00000000000E+00  0.73259714958E+03  0.10675930936E+04  0.77656708014E+03 0.  0.
        4    1    3    3  502    0 -0.13861495240E+03  0.36260937359E+03  0.35540133925E+03  0.52631871303E+03  0.12699999809E+01 0. -1.
       -4    1    3    3    0  502  0.13861495240E+03 -0.36260937359E+03  0.37719581033E+03  0.54127438058E+03  0.12699999809E+01 0.  1.
</event>
<event>
 5   0  0.4684283E-02  0.8085767E+03  0.7818609E-02  0.9547685E-01
       -2   -1    0    0    0  501  0.00000000000E+00  0.00000000000E+00  0.36470747014E+03  0.36470747015E+03  0.25500000920E-02 0. -1.
        2   -1    0    0  501    0  0.00000000000E+00  0.00000000000E+00 -0.44816485396E+03  0.44816485397E+03  0.25500000920E-02 0.  1.
    10030    2    1    2    0    0  0.00000000000E+00  0.00000000000E+00 -0.83457383824E+02  0.81287232412E+03  0.80857670038E+03 0.  0.
        1    1    3    3  502    0 -0.15435205135E+03  0.22148865726E+03  0.26081409190E+03  0.37537417547E+03  0.50400001928E-02 0. -1.
       -1    1    3    3    0  502  0.15435205135E+03 -0.22148865726E+03 -0.34427147573E+03  0.43749814865E+03  0.50400001928E-02 0.  1.
</event>
<event>
 5   0  0.2635243E-02  0.5395144E+03  0.7818609E-02  0.1003950E+00
        1   -1    0    0  501    0  0.00000000000E+00  0.00000000000E+00  0.16090732444E+04  0.16090732444E+04  0.50400001928E-02 0.  1.
       -1   -1    0    0    0  501  0.00000000000E+00  0.00000000000E+00 -0.45224128847E+02  0.45224129128E+02  0.50400001928E-02 0. -1.
    10030    2    1    2    0    0  0.00000000000E+00  0.00000000000E+00  0.15638491155E+04  0.16542973735E+04  0.53951435927E+03 0.  0.
        1    1    3    3  502    0  0.16328164799E+02 -0.63420256904E+02 -0.20479425404E+02  0.68615922655E+02  0.50400001928E-02 0. -1.
       -1    1    3    3    0  502 -0.16328164799E+02  0.63420256904E+02  0.15843285409E+04  0.15856814508E+04  0.50400001928E-02 0.  1.
</event>
<event>
 5   0  0.4590462E-02  0.7963539E+03  0.7818609E-02  0.9565310E-01
        2   -1    0    0  501    0  0.00000000000E+00  0.00000000000E+00  0.54608789786E+03  0.54608789787E+03  0.25500000920E-02 0.  1.
       -2   -1    0    0    0  501  0.00000000000E+00  0.00000000000E+00 -0.29032853551E+03  0.29032853552E+03  0.25500000920E-02 0. -1.
    10030    2    1    2    0    0  0.00000000000E+00  0.00000000000E+00  0.25575936235E+03  0.83641643339E+03  0.79635394054E+03 0.  0.
        3    1    3    3  502    0  0.11036811074E+03  0.36611984504E+03  0.24445920647E+03  0.45385589633E+03  0.10100000352E+00 0.  1.
       -3    1    3    3    0  502 -0.11036811074E+03 -0.36611984504E+03  0.11300155879E+02  0.38256053707E+03  0.10100000352E+00 0. -1.
</event>
<event>
 5   0  0.2759559E-02  0.8041992E+03  0.7818609E-02  0.9553959E-01
        1   -1    0    0  501    0  0.00000000000E+00  0.00000000000E+00  0.13231458300E+03  0.13231458310E+03  0.50400001928E-02 0. -1.
       -1   -1    0    0    0  501  0.00000000000E+00  0.00000000000E+00 -0.12219672107E+04  0.12219672107E+04  0.50400001928E-02 0.  1.
    10030    2    1    2    0    0  0.00000000000E+00  0.00000000000E+00 -0.10896526277E+04  0.13542817938E+04  0.80419918428E+03 0.  0.
        3    1    3    3  502    0  0.86178346571E+02  0.31605222220E+03 -0.93748799098E+03  0.99307575643E+03  0.10100000352E+00 0.  1.
       -3    1    3    3    0  502 -0.86178346571E+02 -0.31605222220E+03 -0.15216463672E+03  0.36120603738E+03  0.10100000352E+00 0. -1.
</event>
<event>
 5   0  0.2606520E-02  0.8043267E+03  0.7818609E-02  0.9553775E-01
        1   -1    0    0  501    0  0.00000000000E+00  0.00000000000E+00  0.35165602777E+03  0.35165602781E+03  0.50400001928E-02 0.  1.
       -1   -1    0    0    0  501  0.00000000000E+00  0.00000000000E+00 -0.45992493068E+03  0.45992493071E+03  0.50400001928E-02 0. -1.
    10030    2    1    2    0    0  0.00000000000E+00  0.00000000000E+00 -0.10826890291E+03  0.81158095851E+03  0.80432673516E+03 0.  0.
        5    1    3    3  502    0 -0.12856389001E+03 -0.19672813817E+02 -0.43808917290E+03  0.45701193292E+03  0.46999998093E+01 0. -1.
       -5    1    3    3    0  502  0.12856389001E+03  0.19672813817E+02  0.32982026999E+03  0.35456902560E+03  0.46999998093E+01 0.  1.
</event>
<event>
 5   0  0.1786500E-02  0.7884931E+03  0.7818609E-02  0.9576824E-01
        3   -1    0    0  501    0  0.00000000000E+00  0.00000000000E+00  0.20501956282E+03  0.20501958770E+03  0.10100000352E+00 0.  1.
       -3   -1    0    0    0  501  0.00000000000E+00  0.00000000000E+00 -0.75812438309E+03  0.75812438982E+03  0.10100000352E+00 0. -1.
    10030    2    1    2    0    0  0.00000000000E+00  0.00000000000E+00 -0.55310482026E+03  0.96314397752E+03  0.78849310665E+03 0.  0.
        5    1    3    3  502    0 -0.18733882238E+03 -0.28833008979E+03 -0.51207760616E+03  0.61682707446E+03  0.46999998093E+01 0. -1.
       -5    1    3    3    0  502  0.18733882238E+03  0.28833008979E+03 -0.41027214104E+02  0.34631690306E+03  0.46999998093E+01 0.  1.
</event>
<event>
 5   0  0.2635243E-02  0.7945382E+03  0.7818609E-02  0.9567957E-01
       -1   -1    0    0    0  501  0.00000000000E+00  0.00000000000E+00  0.20546311882E+03  0.20546311889E+03  0.50400001928E-02 0.  1.
        1   -1    0    0  501    0  0.00000000000E+00  0.00000000000E+00 -0.76813174705E+03  0.76813174707E+03  0.50400001928E-02 0. -1.
    10030    2    1    2    0    0  0.00000000000E+00  0.00000000000E+00 -0.56266862823E+03  0.97359486595E+03  0.79453821671E+03 0.  0.
        1    1    3    3  502    0 -0.15536380437E+03 -0.36330974999E+03 -0.33172115013E+03  0.51591744264E+03  0.50400001928E-02 0.  1.
       -1    1    3    3    0  502  0.15536380437E+03  0.36330974999E+03 -0.23094747810E+03  0.45767742331E+03  0.50400001928E-02 0. -1.
</event>
<event>
 5   0  0.2635243E-02  0.8122516E+03  0.7818609E-02  0.9542451E-01
       -1   -1    0    0    0  501  0.00000000000E+00  0.00000000000E+00  0.20480547777E+03  0.20480547783E+03  0.50400001928E-02 0. -1.
        1   -1    0    0  501    0  0.00000000000E+00  0.00000000000E+00 -0.80534055794E+03  0.80534055795E+03  0.50400001928E-02 0.  1.
    10030    2    1    2    0    0  0.00000000000E+00  0.00000000000E+00 -0.60053508017E+03  0.10101460358E+04  0.81225158116E+03 0.  0.
        1    1    3    3  502    0  0.35105420950E+03  0.76152323588E+02 -0.64632236068E+02  0.36498706875E+03  0.50400001928E-02 0. -1.
       -1    1    3    3    0  502 -0.35105420950E+03 -0.76152323588E+02 -0.53590284410E+03  0.64515896703E+03  0.50400001928E-02 0.  1.
</event>
<event>
 5   0  0.1786500E-02  0.8062307E+03  0.7818609E-02  0.9551042E-01
        3   -1    0    0  501    0  0.00000000000E+00  0.00000000000E+00  0.20117352808E+03  0.20117355344E+03  0.10100000352E+00 0.  1.
       -3   -1    0    0    0  501  0.00000000000E+00  0.00000000000E+00 -0.80777018893E+03  0.80777019524E+03  0.10100000352E+00 0. -1.
    10030    2    1    2    0    0  0.00000000000E+00  0.00000000000E+00 -0.60659666085E+03  0.10089437487E+04  0.80623072321E+03 0.  0.
        5    1    3    3  502    0 -0.17758829134E+03 -0.87278831318E+02  0.13617513658E+03  0.24025185418E+03  0.46999998093E+01 0.  1.
       -5    1    3    3    0  502  0.17758829134E+03  0.87278831318E+02 -0.74277179742E+03  0.76869189450E+03  0.46999998093E+01 0. -1.
</event>
<event>
 5   0  0.4590462E-02  0.7945686E+03  0.7818609E-02  0.9567912E-01
        2   -1    0    0  501    0  0.00000000000E+00  0.00000000000E+00  0.72151892368E+03  0.72151892368E+03  0.25500000920E-02 0.  1.
       -2   -1    0    0    0  501  0.00000000000E+00  0.00000000000E+00 -0.21875352756E+03  0.21875352758E+03  0.25500000920E-02 0. -1.
    10030    2    1    2    0    0  0.00000000000E+00  0.00000000000E+00  0.50276539612E+03  0.94027245126E+03  0.79456858676E+03 0.  0.
        3    1    3    3  502    0 -0.21315303752E+02  0.39462776967E+03  0.20332280634E+03  0.44443851380E+03  0.10100000352E+00 0.  1.
       -3    1    3    3    0  502  0.21315303752E+02 -0.39462776967E+03  0.29944258977E+03  0.49583393746E+03  0.10100000352E+00 0. -1.
</event>
<event>
 5   0  0.2635243E-02  0.7957485E+03  0.7818609E-02  0.9566192E-01
       -1   -1    0    0    0  501  0.00000000000E+00  0.00000000000E+00  0.60552994108E+03  0.60552994110E+03  0.50400001928E-02 0.  1.
        1   -1    0    0  501    0  0.00000000000E+00  0.00000000000E+00 -0.26143034140E+03  0.26143034145E+03  0.50400001928E-02 0. -1.
    10030    2    1    2    0    0  0.00000000000E+00  0.00000000000E+00  0.34409959968E+03  0.86696028255E+03  0.79574845084E+03 0.  0.
        1    1    3    3  502    0 -0.60650771499E+02 -0.18723355945E+02 -0.25587841596E+03  0.26363392028E+03  0.50400001928E-02 0. -1.
       -1    1    3    3    0  502  0.60650771499E+02  0.18723355945E+02  0.59997801564E+03  0.60332636227E+03  0.50400001928E-02 0.  1.
</event>
<event>
 5   0  0.2769394E-02  0.7975989E+03  0.7818609E-02  0.9563499E-01
       -1   -1    0    0    0  501  0.00000000000E+00  0.00000000000E+00  0.15694153512E+03  0.15694153520E+03  0.50400001928E-02 0.  1.
        1   -1    0    0  501    0  0.00000000000E+00  0.00000000000E+00 -0.10133773350E+04  0.10133773350E+04  0.50400001928E-02 0. -1.
    10030    2    1    2    0    0  0.00000000000E+00  0.00000000000E+00 -0.85643579987E+03  0.11703188702E+04  0.79759888332E+03 0.  0.
        2    1    3    3  502    0  0.33518384360E+03  0.56020484540E+02 -0.73443972573E+03  0.80925163851E+03  0.25500000920E-02 0. -1.
       -2    1    3    3    0  502 -0.33518384360E+03 -0.56020484540E+02 -0.12199607414E+03  0.36106723170E+03  0.25500000920E-02 0.  1.
</event>
<event>
 5   0  0.2606520E-02  0.7903011E+03  0.7818609E-02  0.9574163E-01
        1   -1    0    0  501    0  0.00000000000E+00  0.00000000000E+00  0.47860166239E+03  0.47860166242E+03  0.50400001928E-02 0.  1.
       -1   -1    0    0    0  501  0.00000000000E+00  0.00000000000E+00 -0.32625037681E+03  0.32625037685E+03  0.50400001928E-02 0. -1.
    10030    2    1    2    0    0  0.00000000000E+00  0.00000000000E+00  0.15235128558E+03  0.80485203926E+03  0.79030113937E+03 0.  0.
        5    1    3    3  502    0  0.14755579222E+03  0.32206086212E+03 -0.10204925784E+03  0.36868964150E+03  0.46999998093E+01 0. -1.
       -5    1    3    3    0  502 -0.14755579222E+03 -0.32206086212E+03  0.25440054342E+03  0.43616239776E+03  0.46999998093E+01 0.  1.
</event>
<event>
 5   0  0.4684283E-02  0.9343275E+03  0.7818609E-02  0.9383659E-01
        2   -1    0    0  501    0  0.00000000000E+00  0.00000000000E+00  0.10638688549E+04  0.10638688549E+04  0.25500000920E-02 0.  1.
       -2   -1    0    0    0  501  0.00000000000E+00  0.00000000000E+00 -0.20513992291E+03  0.20513992293E+03  0.25500000920E-02 0. -1.
    10030    2    1    2    0    0  0.00000000000E+00  0.00000000000E+00  0.85872893195E+03  0.12690087778E+04  0.93432751193E+03 0.  0.
        1    1    3    3  502    0 -0.15202800499E+03  0.83474128082E+02 -0.15979235144E+03  0.23582629193E+03  0.50400001928E-02 0. -1.
       -1    1    3    3    0  502  0.15202800499E+03 -0.83474128082E+02  0.10185212834E+04  0.10331824859E+04  0.50400001928E-02 0.  1.
</event>
<event>
 5   0  0.4590462E-02  0.8588607E+03  0.7818609E-02  0.9478521E-01
       -2   -1    0    0    0  501  0.00000000000E+00  0.00000000000E+00  0.16336244163E+03  0.16336244165E+03  0.25500000920E-02 0.  1.
        2   -1    0    0  501    0  0.00000000000E+00  0.00000000000E+00 -0.11288421983E+04  0.11288421983E+04  0.25500000920E-02 0. -1.
    10030    2    1    2    0    0  0.00000000000E+00  0.00000000000E+00 -0.96547975663E+03  0.12922046399E+04  0.85886068191E+03 0.  0.
        3    1    3    3  502    0 -0.42380075628E+03  0.69152480529E+02 -0.48967732792E+03  0.65128568406E+03  0.10100000352E+00 0. -1.
       -3    1    3    3    0  502  0.42380075628E+03 -0.69152480529E+02 -0.47580242872E+03  0.64091895585E+03  0.10100000352E+00 0.  1.
</event>
<event>
 5   0  0.2689372E-02  0.7796841E+03  0.7818609E-02  0.9589898E-01
        1   -1    0    0  501    0  0.00000000000E+00  0.00000000000E+00  0.29957545766E+03  0.29957545770E+03  0.50400001928E-02 0.  1.
       -1   -1    0    0    0  501  0.00000000000E+00  0.00000000000E+00 -0.50730737290E+03  0.50730737292E+03  0.50400001928E-02 0. -1.
    10030    2    1    2    0    0  0.00000000000E+00  0.00000000000E+00 -0.20773191524E+03  0.80688283062E+03  0.77968413716E+03 0.  0.
        4    1    3    3  502    0  0.17975216240E+03  0.72312818665E+02 -0.45394948150E+03  0.49357038838E+03  0.12699999809E+01 0. -1.
       -4    1    3    3    0  502 -0.17975216240E+03 -0.72312818665E+02  0.24621756626E+03  0.31331244224E+03  0.12699999809E+01 0.  1.
</event>
<event>
 5   0  0.2769394E-02  0.8793942E+03  0.7818609E-02  0.9451713E-01
       -1   -1    0    0    0  501  0.00000000000E+00  0.00000000000E+00  0.15016372560E+03  0.15016372569E+03  0.50400001928E-02 0.  1.
        1   -1    0    0  501    0  0.00000000000E+00  0.00000000000E+00 -0.12874849033E+04  0.12874849033E+04  0.50400001928E-02 0. -1.
    10030    2    1    2    0    0  0.00000000000E+00  0.00000000000E+00 -0.11373211777E+04  0.14376486290E+04  0.87939417738E+03 0.  0.
        2    1    3    3  502    0 -0.40090878745E+03  0.56607096965E+02 -0.84897957464E+03  0.94058414692E+03  0.25500000920E-02 0.  1.
       -2    1    3    3    0  502  0.40090878745E+03 -0.56607096965E+02 -0.28834160307E+03  0.49706448208E+03  0.25500000920E-02 0. -1.
</event>
<event>
 5   0  0.2689372E-02  0.8064995E+03  0.7818609E-02  0.9550657E-01
       -1   -1    0    0    0  501  0.00000000000E+00  0.00000000000E+00  0.19602556718E+03  0.19602556724E+03  0.50400001928E-02 0. -1.
        1   -1    0    0  501    0  0.00000000000E+00  0.00000000000E+00 -0.82953642931E+03  0.82953642932E+03  0.50400001928E-02 0.  1.
    10030    2    1    2    0    0  0.00000000000E+00  0.00000000000E+00 -0.63351086213E+03  0.10255619966E+04  0.80649947077E+03 0.  0.
        4    1    3    3  502    0 -0.64169150342E+02  0.35211467214E+03 -0.55297023794E+03  0.65869577131E+03  0.12699999809E+01 0.  1.
       -4    1    3    3    0  502  0.64169150342E+02 -0.35211467214E+03 -0.80540624191E+02  0.36686622526E+03  0.12699999809E+01 0. -1.
</event>
<event>
 5   0  0.2635243E-02  0.8015346E+03  0.7818609E-02  0.9557799E-01
        1   -1    0    0  501    0  0.00000000000E+00  0.00000000000E+00  0.11040505879E+04  0.11040505879E+04  0.50400001928E-02 0. -1.
       -1   -1    0    0    0  501  0.00000000000E+00  0.00000000000E+00 -0.14547741102E+03  0.14547741111E+03  0.50400001928E-02 0.  1.
    10030    2    1    2    0    0  0.00000000000E+00  0.00000000000E+00  0.95857317690E+03  0.12495279990E+04  0.80153458124E+03 0.  0.
        1    1    3    3  502    0 -0.15861421846E+03 -0.36390402564E+03  0.56509532335E+03  0.69059201752E+03  0.50400001928E-02 0. -1.
       -1    1    3    3    0  502  0.15861421846E+03  0.36390402564E+03  0.39347785355E+03  0.55893598152E+03  0.50400001928E-02 0.  1.
</event>
<event>
 5   0  0.1786500E-02  0.7950961E+03  0.7818609E-02  0.9567143E-01
       -3   -1    0    0    0  501  0.00000000000E+00  0.00000000000E+00  0.89190881015E+03  0.89190881587E+03  0.10100000352E+00 0.  1.
        3   -1    0    0  501    0  0.00000000000E+00  0.00000000000E+00 -0.17719796969E+03  0.17719799847E+03  0.10100000352E+00 0. -1.
    10030    2    1    2    0    0  0.00000000000E+00  0.00000000000E+00  0.71471084047E+03  0.10691068143E+04  0.79509609167E+03 0.  0.
        2    1    3    3  502    0  0.18117972752E+03 -0.29214688605E+03  0.62583836995E+03  0.71403750742E+03  0.25500000920E-02 0.  1.
       -2    1    3    3    0  502 -0.18117972752E+03  0.29214688605E+03  0.88872470516E+02  0.35506930692E+03  0.25500000920E-02 0. -1.
</event>
<event>
 5   0  0.2689372E-02  0.8005315E+03  0.7818609E-02  0.9559248E-01
        1   -1    0    0  501    0  0.00000000000E+00  0.00000000000E+00  0.14674142317E+04  0.14674142317E+04  0.50400001928E-02 0.  1.
       -1   -1    0    0    0  501  0.00000000000E+00  0.00000000000E+00 -0.10918027062E+03  0.10918027073E+03  0.50400001928E-02 0. -1.
    10030    2    1    2    0    0  0.00000000000E+00  0.00000000000E+00  0.13582339611E+04  0.15765945024E+04  0.80053153098E+03 0.  0.
        4    1    3    3  502    0  0.36787130738E+03  0.10183128743E+03  0.44186622843E+03  0.58390605975E+03  0.12699999809E+01 0.  1.
       -4    1    3    3    0  502 -0.36787130738E+03 -0.10183128743E+03  0.91636773266E+03  0.99268844269E+03  0.12699999809E+01 0. -1.
</event>
<event>
 5   0  0.4700220E-02  0.8112795E+03  0.7818609E-02  0.9543833E-01
        2   -1    0    0  501    0  0.00000000000E+00  0.00000000000E+00  0.82502893225E+03  0.82502893225E+03  0.25500000920E-02 0. -1.
       -2   -1    0    0    0  501  0.00000000000E+00  0.00000000000E+00 -0.19943979537E+03  0.19943979538E+03  0.25500000920E-02 0.  1.
    10030    2    1    2    0    0  0.00000000000E+00  0.00000000000E+00  0.62558913688E+03  0.10244687276E+04  0.81127948681E+03 0.  0.
        4    1    3    3  502    0 -0.12736240711E+03  0.43663131839E+02  0.79598687757E+03  0.80729447787E+03  0.12699999809E+01 0. -1.
       -4    1    3    3    0  502  0.12736240711E+03 -0.43663131839E+02 -0.17039774070E+03  0.21717424976E+03  0.12699999809E+01 0.  1.
</event>
<event>
 5   0  0.1786500E-02  0.8060945E+03  0.7818609E-02  0.9551237E-01
        3   -1    0    0  501    0  0.00000000000E+00  0.00000000000E+00  0.24531098618E+03  0.24531100697E+03  0.10100000352E+00 0. -1.
       -3   -1    0    0    0  501  0.00000000000E+00  0.00000000000E+00 -0.66220863835E+03  0.66220864605E+03  0.10100000352E+00 0.  1.
    10030    2    1    2    0    0  0.00000000000E+00  0.00000000000E+00 -0.41689765217E+03  0.90751965303E+03  0.80609445368E+03 0.  0.
        1    1    3    3  502    0  0.76684852308E+01 -0.28517766472E+02 -0.66098904841E+03  0.66164838911E+03  0.50400001928E-02 0.  1.
       -1    1    3    3    0  502 -0.76684852308E+01  0.28517766472E+02  0.24409139625E+03  0.24587126391E+03  0.50400001928E-02 0. -1.
</event>
<event>
 5   0  0.4700220E-02  0.6692504E+03  0.7818609E-02  0.9771313E-01
        2   -1    0    0  501    0  0.00000000000E+00  0.00000000000E+00  0.13348312662E+04  0.13348312662E+04  0.25500000920E-02 0.  1.
       -2   -1    0    0    0  501  0.00000000000E+00  0.00000000000E+00 -0.83886272760E+02  0.83886272799E+02  0.25500000920E-02 0. -1.
    10030    2    1    2    0    0  0.00000000000E+00  0.00000000000E+00  0.12509449934E+04  0.14187175390E+04  0.66925038577E+03 0.  0.
        4    1    3    3  502    0  0.73002820030E+02 -0.18166622841E+03  0.12007339946E+04  0.12165918663E+04  0.12699999809E+01 0.  1.
       -4    1    3    3    0  502 -0.73002820030E+02  0.18166622841E+03  0.50210998800E+02  0.20212567274E+03  0.12699999809E+01 0. -1.
</event>
<event>
 5   0  0.2635243E-02  0.4377932E+03  0.7818609E-02  0.1031426E+00
        1   -1    0    0  501    0  0.00000000000E+00  0.00000000000E+00  0.10019499253E+04  0.10019499253E+04  0.50400001928E-02 0. -1.
       -1   -1    0    0    0  501  0.00000000000E+00  0.00000000000E+00 -0.47822470013E+02  0.47822470278E+02  0.50400001928E-02 0.  1.
    10030    2    1    2    0    0  0.00000000000E+00  0.00000000000E+00  0.95412745526E+03  0.10497723956E+04  0.43779319502E+03 0.  0.
        1    1    3    3  502    0  0.21771079892E+03 -0.11805514041E+02  0.43042166525E+03  0.48249370159E+03  0.50400001928E-02 0.  1.
       -1    1    3    3    0  502 -0.21771079892E+03  0.11805514041E+02  0.52370579001E+03  0.56727869398E+03  0.50400001928E-02 0. -1.
</event>
<event>
 5   0  0.2689372E-02  0.8032674E+03  0.7818609E-02  0.9555300E-01
        1   -1    0    0  501    0  0.00000000000E+00  0.00000000000E+00  0.61661712360E+03  0.61661712362E+03  0.50400001928E-02 0.  1.
       -1   -1    0    0    0  501  0.00000000000E+00  0.00000000000E+00 -0.26160417130E+03  0.26160417135E+03  0.50400001928E-02 0. -1.
    10030    2    1    2    0    0  0.00000000000E+00  0.00000000000E+00  0.35501295230E+03  0.87822129497E+03  0.80326735688E+03 0.  0.
        4    1    3    3  502    0 -0.12694233872E+02 -0.13670860881E+03  0.59016106057E+03  0.60592250132E+03  0.12699999809E+01 0.  1.
       -4    1    3    3    0  502  0.12694233872E+02  0.13670860881E+03 -0.23514810827E+03  0.27229879364E+03  0.12699999809E+01 0. -1.
</event>
<event>
 5   0  0.4700220E-02  0.6133927E+03  0.7818609E-02  0.9878003E-01
       -2   -1    0    0    0  501  0.00000000000E+00  0.00000000000E+00  0.29318019202E+03  0.29318019203E+03  0.25500000920E-02 0. -1.
        2   -1    0    0  501    0  0.00000000000E+00  0.00000000000E+00 -0.32083564509E+03  0.32083564510E+03  0.25500000920E-02 0.  1.
    10030    2    1    2    0    0  0.00000000000E+00  0.00000000000E+00 -0.27655453070E+02  0.61401583713E+03  0.61339271610E+03 0.  0.
        4    1    3    3  502    0  0.15359188972E+03 -0.12674807765E+01 -0.27955731457E+03  0.31897645701E+03  0.12699999809E+01 0.  1.
       -4    1    3    3    0  502 -0.15359188972E+03  0.12674807765E+01  0.25190186150E+03  0.29503938012E+03  0.12699999809E+01 0. -1.
</event>
<event>
 5   0  0.4700220E-02  0.8092151E+03  0.7818609E-02  0.9546774E-01
        2   -1    0    0  501    0  0.00000000000E+00  0.00000000000E+00  0.15446333820E+04  0.15446333820E+04  0.25500000920E-02 0. -1.
       -2   -1    0    0    0  501  0.00000000000E+00  0.00000000000E+00 -0.10598453970E+03  0.10598453973E+03  0.25500000920E-02 0.  1.
    10030    2    1    2    0    0  0.00000000000E+00  0.00000000000E+00  0.14386488423E+04  0.16506179217E+04  0.80921507161E+03 0.  0.
        4    1    3    3  502    0 -0.10186717780E+03  0.36782653872E+03  0.99323505029E+03  0.10640445303E+04  0.12699999809E+01 0. -1.
       -4    1    3    3    0  502  0.10186717780E+03 -0.36782653872E+03  0.44541379202E+03  0.58657339142E+03  0.12699999809E+01 0.  1.
</event>
<event>
 5   0  0.4663634E-02  0.7397859E+03  0.7818609E-02  0.9651512E-01
       -2   -1    0    0    0  501  0.00000000000E+00  0.00000000000E+00  0.43699728982E+03  0.43699728982E+03  0.25500000920E-02 0. -1.
        2   -1    0    0  501    0  0.00000000000E+00  0.00000000000E+00 -0.31309296659E+03  0.31309296660E+03  0.25500000920E-02 0.  1.
    10030    2    1    2    0    0  0.00000000000E+00  0.00000000000E+00  0.12390432323E+03  0.75009025642E+03  0.73978585514E+03 0.  0.
        5    1    3    3  502    0  0.31381446907E+03  0.96790020050E+02  0.23447167603E+03  0.40354291697E+03  0.46999998093E+01 0. -1.
       -5    1    3    3    0  502 -0.31381446907E+03 -0.96790020050E+02 -0.11056735281E+03  0.34654733945E+03  0.46999998093E+01 0.  1.
</event>
<event>
 5   0  0.4684283E-02  0.7778997E+03  0.7818609E-02  0.9592569E-01
       -2   -1    0    0    0  501  0.00000000000E+00  0.00000000000E+00  0.21856588860E+03  0.21856588862E+03  0.25500000920E-02 0. -1.
        2   -1    0    0  501    0  0.00000000000E+00  0.00000000000E+00 -0.69215743152E+03  0.69215743153E+03  0.25500000920E-02 0.  1.
    10030    2    1    2    0    0  0.00000000000E+00  0.00000000000E+00 -0.47359154292E+03  0.91072332015E+03  0.77789974697E+03 0.  0.
        1    1    3    3  502    0  0.65793518162E+02 -0.29720361766E+03 -0.52025962477E+03  0.60276766218E+03  0.50400001928E-02 0.  1.
       -1    1    3    3    0  502 -0.65793518162E+02  0.29720361766E+03  0.46668081850E+02  0.30795565796E+03  0.50400001928E-02 0. -1.
</event>
<event>
 5   0  0.2606520E-02  0.8237554E+03  0.7818609E-02  0.9526255E-01
       -1   -1    0    0    0  501  0.00000000000E+00  0.00000000000E+00  0.15311852808E+03  0.15311852817E+03  0.50400001928E-02 0. -1.
        1   -1    0    0  501    0  0.00000000000E+00  0.00000000000E+00 -0.11079211193E+04  0.11079211193E+04  0.50400001928E-02 0.  1.
    10030    2    1    2    0    0  0.00000000000E+00  0.00000000000E+00 -0.95480259118E+03  0.12610396474E+04  0.82375542748E+03 0.  0.
        5    1    3    3  502    0 -0.13642538132E+03 -0.27231264873E+03 -0.90179290771E+03  0.95185009415E+03  0.46999998093E+01 0.  1.
       -5    1    3    3    0  502  0.13642538132E+03  0.27231264873E+03 -0.53009683466E+02  0.30918955330E+03  0.46999998093E+01 0. -1.
</event>
<event>
 5   0  0.4663634E-02  0.8162650E+03  0.7818609E-02  0.9536768E-01
        2   -1    0    0  501    0  0.00000000000E+00  0.00000000000E+00  0.30880440541E+03  0.30880440542E+03  0.25500000920E-02 0. -1.
       -2   -1    0    0    0  501  0.00000000000E+00  0.00000000000E+00 -0.53940984492E+03  0.53940984492E+03  0.25500000920E-02 0.  1.
    10030    2    1    2    0    0  0.00000000000E+00  0.00000000000E+00 -0.23060543951E+03  0.84821425034E+03  0.81626499726E+03 0.  0.
        5    1    3    3  502    0 -0.14181633083E+03  0.16471976456E+03  0.24362314712E+03  0.32652534410E+03  0.46999998093E+01 0. -1.
       -5    1    3    3    0  502  0.14181633083E+03 -0.16471976456E+03 -0.47422858663E+03  0.52168890625E+03  0.46999998093E+01 0.  1.
</event>
<event>
 5   0  0.2769394E-02  0.8260843E+03  0.7818609E-02  0.9523010E-01
        1   -1    0    0  501    0  0.00000000000E+00  0.00000000000E+00  0.29451547116E+03  0.29451547121E+03  0.50400001928E-02 0.  1.
       -1   -1    0    0    0  501  0.00000000000E+00  0.00000000000E+00 -0.57926939592E+03  0.57926939594E+03  0.50400001928E-02 0. -1.
    10030    2    1    2    0    0  0.00000000000E+00  0.00000000000E+00 -0.28475392475E+03  0.87378486715E+03  0.82608425502E+03 0.  0.
        2    1    3    3  502    0  0.60424079972E+02  0.13389284622E+03  0.26595217758E+03  0.30382383790E+03  0.25500000920E-02 0.  1.
       -2    1    3    3    0  502 -0.60424079972E+02 -0.13389284622E+03 -0.55070610233E+03  0.56996102925E+03  0.25500000920E-02 0. -1.
</event>
<event>
 5   0  0.4663634E-02  0.8001101E+03  0.7818609E-02  0.9559858E-01
       -2   -1    0    0    0  501  0.00000000000E+00  0.00000000000E+00  0.10517657978E+03  0.10517657981E+03  0.25500000920E-02 0. -1.
        2   -1    0    0  501    0  0.00000000000E+00  0.00000000000E+00 -0.15216698059E+04  0.15216698059E+04  0.25500000920E-02 0.  1.
    10030    2    1    2    0    0  0.00000000000E+00  0.00000000000E+00 -0.14164932262E+04  0.16268463857E+04  0.80011005685E+03 0.  0.
        5    1    3    3  502    0  0.13240135754E+02  0.27891683140E+03 -0.12906736106E+04  0.13205416915E+04  0.46999998093E+01 0.  1.
       -5    1    3    3    0  502 -0.13240135754E+02 -0.27891683140E+03 -0.12581961556E+03  0.30630469420E+03  0.46999998093E+01 0. -1.
</event>
<event>
 5   0  0.2759559E-02  0.8028572E+03  0.7818609E-02  0.9555891E-01
        1   -1    0    0  501    0  0.00000000000E+00  0.00000000000E+00  0.45737839509E+03  0.45737839512E+03  0.50400001928E-02 0. -1.
       -1   -1    0    0    0  501  0.00000000000E+00  0.00000000000E+00 -0.35232294197E+03  0.35232294201E+03  0.50400001928E-02 0.  1.
    10030    2    1    2    0    0  0.00000000000E+00  0.00000000000E+00  0.10505545312E+03  0.80970133713E+03  0.80285715237E+03 0.  0.
        3    1    3    3  502    0  0.50993500135E+02 -0.39621594868E+03  0.92329033366E+02  0.41001472614E+03  0.10100000352E+00 0.  1.
       -3    1    3    3    0  502 -0.50993500135E+02  0.39621594868E+03  0.12726419754E+02  0.39968661099E+03  0.10100000352E+00 0. -1.
</event>
<event>
 5   0  0.2689372E-02  0.7937953E+03  0.7818609E-02  0.9569042E-01
       -1   -1    0    0    0  501  0.00000000000E+00  0.00000000000E+00  0.71752102026E+03  0.71752102028E+03  0.50400001928E-02 0. -1.
        1   -1    0    0  501    0  0.00000000000E+00  0.00000000000E+00 -0.21954441640E+03  0.21954441646E+03  0.50400001928E-02 0.  1.
    10030    2    1    2    0    0  0.00000000000E+00  0.00000000000E+00  0.49797660386E+03  0.93706543673E+03  0.79379527255E+03 0.  0.
        4    1    3    3  502    0  0.25942273843E+03  0.39971821773E+02 -0.10244864511E+03  0.28177161236E+03  0.12699999809E+01 0.  1.
       -4    1    3    3    0  502 -0.25942273843E+03 -0.39971821773E+02  0.60042524898E+03  0.65529382437E+03  0.12699999809E+01 0. -1.
</event>
<event>
 5   0  0.2759559E-02  0.7930437E+03  0.7818609E-02  0.9570141E-01
        1   -1    0    0  501    0  0.00000000000E+00  0.00000000000E+00  0.22224358592E+03  0.22224358598E+03  0.50400001928E-02 0. -1.
       -1   -1    0    0    0  501  0.00000000000E+00  0.00000000000E+00 -0.70746506005E+03  0.70746506006E+03  0.50400001928E-02 0.  1.
    10030    2    1    2    0    0  0.00000000000E+00  0.00000000000E+00 -0.48522147412E+03  0.92970864604E+03  0.79304368579E+03 0.  0.
        3    1    3    3  502    0 -0.35074502910E+03 -0.16408794021E+03 -0.14256605596E+03  0.41264030108E+03  0.10100000352E+00 0. -1.
       -3    1    3    3    0  502  0.35074502910E+03  0.16408794021E+03 -0.34265541816E+03  0.51706834496E+03  0.10100000352E+00 0.  1.
</event>
<event>
 5   0  0.2759559E-02  0.7718256E+03  0.7818609E-02  0.9601718E-01
        1   -1    0    0  501    0  0.00000000000E+00  0.00000000000E+00  0.59285412919E+03  0.59285412921E+03  0.50400001928E-02 0. -1.
       -1   -1    0    0    0  501  0.00000000000E+00  0.00000000000E+00 -0.25120629040E+03  0.25120629045E+03  0.50400001928E-02 0.  1.
    10030    2    1    2    0    0  0.00000000000E+00  0.00000000000E+00  0.34164783879E+03  0.84406041966E+03  0.77182559318E+03 0.  0.
        3    1    3    3  502    0  0.23422572220E+03  0.19566924605E+03 -0.87459003344E+02  0.31748579536E+03  0.10100000352E+00 0.  1.
       -3    1    3    3    0  502 -0.23422572220E+03 -0.19566924605E+03  0.42910684213E+03  0.52657462430E+03  0.10100000352E+00 0. -1.
</event>
<event>
 5   0  0.4377843E-02  0.7996564E+03  0.7818609E-02  0.9560515E-01
       -2   -1    0    0    0  501  0.00000000000E+00  0.00000000000E+00  0.10653100173E+03  0.10653100176E+03  0.25500000920E-02 0.  1.
        2   -1    0    0  501    0  0.00000000000E+00  0.00000000000E+00 -0.15006201675E+04  0.15006201675E+04  0.25500000920E-02 0. -1.
    10030    2    1    2    0    0  0.00000000000E+00  0.00000000000E+00 -0.13940891658E+04  0.16071511693E+04  0.79965635041E+03 0.  0.
        2    1    3    3  502    0 -0.87224455465E+02  0.19669357461E+03 -0.13743393144E+04  0.13910805221E+04  0.25500000920E-02 0. -1.
       -2    1    3    3    0  502  0.87224455465E+02 -0.19669357461E+03 -0.19749851383E+02  0.21607064715E+03  0.25500000920E-02 0.  1.
</event>
<event>
 5   0  0.2606520E-02  0.7977394E+03  0.7818609E-02  0.9563295E-01
        1   -1    0    0  501    0  0.00000000000E+00  0.00000000000E+00  0.20110258283E+03  0.20110258290E+03  0.50400001928E-02 0.  1.
       -1   -1    0    0    0  501  0.00000000000E+00  0.00000000000E+00 -0.79112377914E+03  0.79112377915E+03  0.50400001928E-02 0. -1.
    10030    2    1    2    0    0  0.00000000000E+00  0.00000000000E+00 -0.59002119630E+03  0.99222636205E+03  0.79773939445E+03 0.  0.
        5    1    3    3  502    0 -0.39624906982E+03 -0.12799024039E+02 -0.24082604228E+03  0.46389267399E+03  0.46999998093E+01 0. -1.
       -5    1    3    3    0  502  0.39624906982E+03  0.12799024039E+02 -0.34919515403E+03  0.52833368806E+03  0.46999998093E+01 0.  1.
</event>
<event>
 5   0  0.2769394E-02  0.7869955E+03  0.7818609E-02  0.9579034E-01
        1   -1    0    0  501    0  0.00000000000E+00  0.00000000000E+00  0.31589117326E+03  0.31589117330E+03  0.50400001928E-02 0. -1.
       -1   -1    0    0    0  501  0.00000000000E+00  0.00000000000E+00 -0.49017037533E+03  0.49017037535E+03  0.50400001928E-02 0.  1.
    10030    2    1    2    0    0  0.00000000000E+00  0.00000000000E+00 -0.17427920207E+03  0.80606154865E+03  0.78699553997E+03 0.  0.
        2    1    3    3  502    0  0.16550991404E+03  0.11902883365E+03 -0.43186305187E+03  0.47756370304E+03  0.25500000920E-02 0.  1.
       -2    1    3    3    0  502 -0.16550991404E+03 -0.11902883365E+03  0.25758384980E+03  0.32849784561E+03  0.25500000920E-02 0. -1.
</event>
<event>
 5   0  0.2759559E-02  0.7982310E+03  0.7818609E-02  0.9562581E-01
       -1   -1    0    0    0  501  0.00000000000E+00  0.00000000000E+00  0.13088144064E+03  0.13088144074E+03  0.50400001928E-02 0. -1.
        1   -1    0    0  501    0  0.00000000000E+00  0.00000000000E+00 -0.12170799929E+04  0.12170799929E+04  0.50400001928E-02 0.  1.
    10030    2    1    2    0    0  0.00000000000E+00  0.00000000000E+00 -0.10861985522E+04  0.13479614336E+04  0.79823100146E+03 0.  0.
        3    1    3    3  502    0 -0.29870767144E+03 -0.23497336144E+03 -0.33728442306E+03  0.50813339371E+03  0.10100000352E+00 0.  1.
       -3    1    3    3    0  502  0.29870767144E+03  0.23497336144E+03 -0.74891412919E+03  0.83982803993E+03  0.10100000352E+00 0. -1.
</event>
<event>
 5   0  0.4684283E-02  0.7994009E+03  0.7818609E-02  0.9560885E-01
       -2   -1    0    0    0  501  0.00000000000E+00  0.00000000000E+00  0.10153644098E+03  0.10153644102E+03  0.25500000920E-02 0. -1.
        2   -1    0    0  501    0  0.00000000000E+00  0.00000000000E+00 -0.15734298718E+04  0.15734298718E+04  0.25500000920E-02 0.  1.
    10030    2    1    2    0    0  0.00000000000E+00  0.00000000000E+00 -0.14718934308E+04  0.16749663128E+04  0.79940094907E+03 0.  0.
        1    1    3    3  502    0  0.26178384959E+03  0.23557533325E+03 -0.33986762450E+03  0.48942468649E+03  0.50400001928E-02 0. -1.
       -1    1    3    3    0  502 -0.26178384959E+03 -0.23557533325E+03 -0.11320258063E+04  0.11855416263E+04  0.50400001928E-02 0.  1.
</event>
<event>
 5   0  0.4377843E-02  0.7933745E+03  0.7818609E-02  0.9569657E-01
       -2   -1    0    0    0  501  0.00000000000E+00  0.00000000000E+00  0.22214659070E+03  0.22214659072E+03  0.25500000920E-02 0. -1.
        2   -1    0    0  501    0  0.00000000000E+00  0.00000000000E+00 -0.70836449663E+03  0.70836449663E+03  0.25500000920E-02 0.  1.
    10030    2    1    2    0    0  0.00000000000E+00  0.00000000000E+00 -0.48621790592E+03  0.93051108735E+03  0.79337445865E+03 0.  0.
        2    1    3    3  502    0 -0.87427625964E+02 -0.18999188586E+03  0.15223145880E+03  0.25867919037E+03  0.25500000920E-02 0. -1.
       -2    1    3    3    0  502  0.87427625964E+02  0.18999188586E+03 -0.63844936472E+03  0.67183189698E+03  0.25500000920E-02 0.  1.
</event>
<event>
 5   0  0.2759559E-02  0.8174674E+03  0.7818609E-02  0.9535072E-01
       -1   -1    0    0    0  501  0.00000000000E+00  0.00000000000E+00  0.18177293911E+03  0.18177293918E+03  0.50400001928E-02 0. -1.
        1   -1    0    0  501    0  0.00000000000E+00  0.00000000000E+00 -0.91907642828E+03  0.91907642829E+03  0.50400001928E-02 0.  1.
    10030    2    1    2    0    0  0.00000000000E+00  0.00000000000E+00 -0.73730348917E+03  0.11008493675E+04  0.81746736615E+03 0.  0.
        3    1    3    3  502    0  0.36651228862E+03 -0.16570957549E+03 -0.27087012750E+03  0.48493459073E+03  0.10100000352E+00 0.  1.
       -3    1    3    3    0  502 -0.36651228862E+03  0.16570957549E+03 -0.46643336167E+03  0.61591477674E+03  0.10100000352E+00 0. -1.
</event>
<event>
 5   0  0.4684283E-02  0.7991028E+03  0.7818609E-02  0.9561317E-01
        2   -1    0    0  501    0  0.00000000000E+00  0.00000000000E+00  0.21821939809E+04  0.21821939809E+04  0.25500000920E-02 0.  1.
       -2   -1    0    0    0  501  0.00000000000E+00  0.00000000000E+00 -0.73156336417E+02  0.73156336462E+02  0.25500000920E-02 0. -1.
    10030    2    1    2    0    0  0.00000000000E+00  0.00000000000E+00  0.21090376445E+04  0.22553503173E+04  0.79910278950E+03 0.  0.
        1    1    3    3  502    0  0.77079729024E+02 -0.12619823349E+03  0.69198671706E+01  0.14803770921E+03  0.50400001928E-02 0. -1.
       -1    1    3    3    0  502 -0.77079729024E+02  0.12619823349E+03  0.21021177773E+04  0.21073126081E+04  0.50400001928E-02 0.  1.
</event>
<event>
 5   0  0.2635243E-02  0.8114279E+03  0.7818609E-02  0.9543621E-01
        1   -1    0    0  501    0  0.00000000000E+00  0.00000000000E+00  0.61374202122E+03  0.61374202124E+03  0.50400001928E-02 0.  1.
       -1   -1    0    0    0  501  0.00000000000E+00  0.00000000000E+00 -0.26819705740E+03  0.26819705745E+03  0.50400001928E-02 0. -1.
    10030    2    1    2    0    0  0.00000000000E+00  0.00000000000E+00  0.34554496382E+03  0.88193907868E+03  0.81142788742E+03 0.  0.
        1    1    3    3  502    0  0.12940088803E+03  0.56824617943E+02 -0.24057768369E+03  0.27901836667E+03  0.50400001928E-02 0. -1.
       -1    1    3    3    0  502 -0.12940088803E+03 -0.56824617943E+02  0.58612264750E+03  0.60292071201E+03  0.50400001928E-02 0.  1.
</event>
<event>
 5   0  0.2759559E-02  0.8337597E+03  0.7818609E-02  0.9512397E-01
        1   -1    0    0  501    0  0.00000000000E+00  0.00000000000E+00  0.53725147329E+03  0.53725147332E+03  0.50400001928E-02 0.  1.
       -1   -1    0    0    0  501  0.00000000000E+00  0.00000000000E+00 -0.32347755403E+03  0.32347755407E+03  0.50400001928E-02 0. -1.
    10030    2    1    2    0    0  0.00000000000E+00  0.00000000000E+00  0.21377391926E+03  0.86072902739E+03  0.83375965963E+03 0.  0.
        3    1    3    3  502    0  0.95934840227E+02  0.17942379340E+01  0.52569675468E+03  0.53438169966E+03  0.10100000352E+00 0.  1.
       -3    1    3    3    0  502 -0.95934840227E+02 -0.17942379340E+01 -0.31192283541E+03  0.32634732772E+03  0.10100000352E+00 0. -1.
</event>
<event>
 5   0  0.4700220E-02  0.7410929E+03  0.7818609E-02  0.9649429E-01
       -2   -1    0    0    0  501  0.00000000000E+00  0.00000000000E+00  0.18063010366E+03  0.18063010367E+03  0.25500000920E-02 0. -1.
        2   -1    0    0  501    0  0.00000000000E+00  0.00000000000E+00 -0.76014285568E+03  0.76014285568E+03  0.25500000920E-02 0.  1.
    10030    2    1    2    0    0  0.00000000000E+00  0.00000000000E+00 -0.57951275202E+03  0.94077295935E+03  0.74109293027E+03 0.  0.
        4    1    3    3  502    0  0.19758984305E+03  0.17787192566E+03 -0.61741675436E+03  0.67222409172E+03  0.12699999809E+01 0.  1.
       -4    1    3    3    0  502 -0.19758984305E+03 -0.17787192566E+03  0.37904002343E+02  0.26854886764E+03  0.12699999809E+01 0. -1.
</event>
<event>
 5   0  0.1786500E-02  0.8027923E+03  0.7818609E-02  0.9555984E-01
       -4   -1    0    0    0  501  0.00000000000E+00  0.00000000000E+00  0.99190756470E+03  0.99190837773E+03  0.12699999809E+01 0. -1.
        4   -1    0    0  501    0  0.00000000000E+00  0.00000000000E+00 -0.16242998779E+03  0.16243495262E+03  0.12699999809E+01 0.  1.
    10030    2    1    2    0    0  0.00000000000E+00  0.00000000000E+00  0.82947757691E+03  0.11543433304E+04  0.80279229800E+03 0.  0.
        4    1    3    3  502    0 -0.20157299739E+03  0.10438793343E+02 -0.84148986760E+02  0.21868540545E+03  0.12699999809E+01 0.  1.
       -4    1    3    3    0  502  0.20157299739E+03 -0.10438793343E+02  0.91362656367E+03  0.93565792490E+03  0.12699999809E+01 0. -1.
</event>
<event>
 5   0  0.1786500E-02  0.8708165E+03  0.7818609E-02  0.9462816E-01
       -3   -1    0    0    0  501  0.00000000000E+00  0.00000000000E+00  0.15896059610E+04  0.15896059642E+04  0.10100000352E+00 0. -1.
        3   -1    0    0  501    0  0.00000000000E+00  0.00000000000E+00 -0.11926244829E+03  0.11926249106E+03  0.10100000352E+00 0.  1.
    10030    2    1    2    0    0  0.00000000000E+00  0.00000000000E+00  0.14703435127E+04  0.17088684553E+04  0.87081648586E+03 0.  0.
        4    1    3    3  502    0  0.13713709332E+02  0.27147554026E+02 -0.11717167658E+03  0.12106143153E+03  0.12699999809E+01 0.  1.
       -4    1    3    3    0  502 -0.13713709332E+02 -0.27147554026E+02  0.15875151893E+04  0.15878070237E+04  0.12699999809E+01 0. -1.
</event>
<event>
 5   0  0.4684283E-02  0.7274646E+03  0.7818609E-02  0.9671384E-01
        2   -1    0    0  501    0  0.00000000000E+00  0.00000000000E+00  0.14853666103E+04  0.14853666103E+04  0.25500000920E-02 0. -1.
       -2   -1    0    0    0  501  0.00000000000E+00  0.00000000000E+00 -0.89069716077E+02  0.89069716113E+02  0.25500000920E-02 0.  1.
    10030    2    1    2    0    0  0.00000000000E+00  0.00000000000E+00  0.13962968942E+04  0.15744363264E+04  0.72746458959E+03 0.  0.
        1    1    3    3  502    0 -0.23301035060E+03  0.11893115697E+03  0.15121181423E+03  0.30216461800E+03  0.50400001928E-02 0.  1.
       -1    1    3    3    0  502  0.23301035060E+03 -0.11893115697E+03  0.12450850799E+04  0.12722717084E+04  0.50400001928E-02 0. -1.
</event>
<event>
 5   0  0.4663634E-02  0.5973817E+03  0.7818609E-02  0.9910853E-01
       -2   -1    0    0    0  501  0.00000000000E+00  0.00000000000E+00  0.10358748982E+03  0.10358748985E+03  0.25500000920E-02 0. -1.
        2   -1    0    0  501    0  0.00000000000E+00  0.00000000000E+00 -0.86126439160E+03  0.86126439161E+03  0.25500000920E-02 0.  1.
    10030    2    1    2    0    0  0.00000000000E+00  0.00000000000E+00 -0.75767690178E+03  0.96485188146E+03  0.59738167504E+03 0.  0.
        5    1    3    3  502    0  0.86397703704E+02  0.12029023878E+03 -0.79771554065E+03  0.81136088058E+03  0.46999998093E+01 0.  1.
       -5    1    3    3    0  502 -0.86397703704E+02 -0.12029023878E+03  0.40038638868E+02  0.15349100088E+03  0.46999998093E+01 0. -1.
</event>
<event>
 5   0  0.4700220E-02  0.8162377E+03  0.7818609E-02  0.9536807E-01
        2   -1    0    0  501    0  0.00000000000E+00  0.00000000000E+00  0.14761352517E+04  0.14761352517E+04  0.25500000920E-02 0.  1.
       -2   -1    0    0    0  501  0.00000000000E+00  0.00000000000E+00 -0.11283585045E+03  0.11283585047E+03  0.25500000920E-02 0. -1.
    10030    2    1    2    0    0  0.00000000000E+00  0.00000000000E+00  0.13632994012E+04  0.15889711022E+04  0.81623765295E+03 0.  0.
        4    1    3    3  502    0  0.12367509606E+03  0.35549838250E+03  0.98873984455E+03  0.10579615884E+04  0.12699999809E+01 0.  1.
       -4    1    3    3    0  502 -0.12367509606E+03 -0.35549838250E+03  0.37455955669E+03  0.53100951381E+03  0.12699999809E+01 0. -1.
</event>
<event>
 5   0  0.2759559E-02  0.7664113E+03  0.7818609E-02  0.9609950E-01
        1   -1    0    0  501    0  0.00000000000E+00  0.00000000000E+00  0.22675340022E+04  0.22675340022E+04  0.50400001928E-02 0.  1.
       -1   -1    0    0    0  501  0.00000000000E+00  0.00000000000E+00 -0.64760463140E+02  0.64760463336E+02  0.50400001928E-02 0. -1.
    10030    2    1    2    0    0  0.00000000000E+00  0.00000000000E+00  0.22027735391E+04  0.23322944655E+04  0.76641125358E+03 0.  0.
        3    1    3    3  502    0 -0.69654808217E+02 -0.26425553228E+03  0.28389931587E+03  0.39405787697E+03  0.10100000352E+00 0. -1.
       -3    1    3    3    0  502  0.69654808217E+02  0.26425553228E+03  0.19188742232E+04  0.19382365886E+04  0.10100000352E+00 0.  1.
</event>
<event>
 5   0  0.2759559E-02  0.8033017E+03  0.7818609E-02  0.9555250E-01
       -1   -1    0    0    0  501  0.00000000000E+00  0.00000000000E+00  0.15896462872E+03  0.15896462880E+03  0.50400001928E-02 0.  1.
        1   -1    0    0  501    0  0.00000000000E+00  0.00000000000E+00 -0.10148383794E+04  0.10148383794E+04  0.50400001928E-02 0. -1.
    10030    2    1    2    0    0  0.00000000000E+00  0.00000000000E+00 -0.85587375067E+03  0.11738030082E+04  0.80330170235E+03 0.  0.
        3    1    3    3  502    0 -0.99884296290E+02  0.34230655718E+03 -0.15781705048E+03  0.38994471834E+03  0.10100000352E+00 0.  1.
       -3    1    3    3    0  502  0.99884296290E+02 -0.34230655718E+03 -0.69805670019E+03  0.78385828988E+03  0.10100000352E+00 0. -1.
</event>
<event>
 5   0  0.4590462E-02  0.8087328E+03  0.7818609E-02  0.9547462E-01
        2   -1    0    0  501    0  0.00000000000E+00  0.00000000000E+00  0.76434069106E+03  0.76434069106E+03  0.25500000920E-02 0.  1.
       -2   -1    0    0    0  501  0.00000000000E+00  0.00000000000E+00 -0.21392581359E+03  0.21392581360E+03  0.25500000920E-02 0. -1.
    10030    2    1    2    0    0  0.00000000000E+00  0.00000000000E+00  0.55041487747E+03  0.97826650466E+03  0.80873284637E+03 0.  0.
        3    1    3    3  502    0 -0.96598826493E+02  0.73769141868E+01 -0.19967999522E+03  0.22194112470E+03  0.10100000352E+00 0. -1.
       -3    1    3    3    0  502  0.96598826493E+02 -0.73769141868E+01  0.75009487269E+03  0.75632537996E+03  0.10100000352E+00 0.  1.
</event>
<event>
 5   0  0.4700220E-02  0.8010193E+03  0.7818609E-02  0.9558543E-01
       -2   -1    0    0    0  501  0.00000000000E+00  0.00000000000E+00  0.44596424734E+03  0.44596424734E+03  0.25500000920E-02 0. -1.
        2   -1    0    0  501    0  0.00000000000E+00  0.00000000000E+00 -0.35968797228E+03  0.35968797229E+03  0.25500000920E-02 0.  1.
    10030    2    1    2    0    0  0.00000000000E+00  0.00000000000E+00  0.86276275056E+02  0.80565221963E+03  0.80101929025E+03 0.  0.
        4    1    3    3  502    0 -0.26687270575E+03 -0.13703585482E+03  0.31001504689E+03  0.43140561978E+03  0.12699999809E+01 0. -1.
       -4    1    3    3    0  502  0.26687270575E+03  0.13703585482E+03 -0.22373877184E+03  0.37424659985E+03  0.12699999809E+01 0.  1.
</event>
<event>
 5   0  0.2769394E-02  0.8715996E+03  0.7818609E-02  0.9461797E-01
       -1   -1    0    0    0  501  0.00000000000E+00  0.00000000000E+00  0.64676159064E+03  0.64676159066E+03  0.50400001928E-02 0.  1.
        1   -1    0    0  501    0  0.00000000000E+00  0.00000000000E+00 -0.29364988030E+03  0.29364988035E+03  0.50400001928E-02 0. -1.
    10030    2    1    2    0    0  0.00000000000E+00  0.00000000000E+00  0.35311171033E+03  0.94041147100E+03  0.87159959547E+03 0.  0.
        2    1    3    3  502    0  0.23465495011E+03  0.31530387113E+03  0.37967924166E+03  0.54647580304E+03  0.25500000920E-02 0.  1.
       -2    1    3    3    0  502 -0.23465495011E+03 -0.31530387113E+03 -0.26567531324E+02  0.39393566796E+03  0.25500000920E-02 0. -1.
</event>
<event>
 5   0  0.2635243E-02  0.7816481E+03  0.7818609E-02  0.9586967E-01
       -1   -1    0    0    0  501  0.00000000000E+00  0.00000000000E+00  0.34351832985E+03  0.34351832989E+03  0.50400001928E-02 0.  1.
        1   -1    0    0  501    0  0.00000000000E+00  0.00000000000E+00 -0.44464416237E+03  0.44464416240E+03  0.50400001928E-02 0. -1.
    10030    2    1    2    0    0  0.00000000000E+00  0.00000000000E+00 -0.10112583252E+03  0.78816249229E+03  0.78164805395E+03 0.  0.
        1    1    3    3  502    0 -0.91736799237E+02  0.12126643837E+03 -0.41359437262E+03  0.44066029376E+03  0.50400001928E-02 0. -1.
       -1    1    3    3    0  502  0.91736799237E+02 -0.12126643837E+03  0.31246854010E+03  0.34750219853E+03  0.50400001928E-02 0.  1.
</event>
<event>
 5   0  0.2769394E-02  0.8096366E+03  0.7818609E-02  0.9546172E-01
        1   -1    0    0  501    0  0.00000000000E+00  0.00000000000E+00  0.90778933816E+03  0.90778933818E+03  0.50400001928E-02 0.  1.
       -1   -1    0    0    0  501  0.00000000000E+00  0.00000000000E+00 -0.18052411491E+03  0.18052411498E+03  0.50400001928E-02 0. -1.
    10030    2    1    2    0    0  0.00000000000E+00  0.00000000000E+00  0.72726522325E+03  0.10883134532E+04  0.80963662675E+03 0.  0.
        2    1    3    3  502    0 -0.18584410972E+03  0.31546221509E+03  0.59576867034E+03  0.69928159623E+03  0.25500000920E-02 0.  1.
       -2    1    3    3    0  502  0.18584410972E+03 -0.31546221509E+03  0.13149655291E+03  0.38903185692E+03  0.25500000920E-02 0. -1.
</event>
<event>
 5   0  0.1786500E-02  0.8040975E+03  0.7818609E-02  0.9554105E-01
        3   -1    0    0  501    0  0.00000000000E+00  0.00000000000E+00  0.31619983053E+03  0.31619984666E+03  0.10100000352E+00 0. -1.
       -3   -1    0    0    0  501  0.00000000000E+00  0.00000000000E+00 -0.51120578491E+03  0.51120579488E+03  0.10100000352E+00 0.  1.
    10030    2    1    2    0    0  0.00000000000E+00  0.00000000000E+00 -0.19500595438E+03  0.82740564154E+03  0.80409748999E+03 0.  0.
        1    1    3    3  502    0 -0.56329778514E+02 -0.19050399682E+03  0.26216928495E+03  0.32893396107E+03  0.50400001928E-02 0. -1.
       -1    1    3    3    0  502  0.56329778514E+02  0.19050399682E+03 -0.45717523933E+03  0.49847168047E+03  0.50400001928E-02 0.  1.
</event>
<event>
 5   0  0.4700220E-02  0.8006497E+03  0.7818609E-02  0.9559077E-01
        2   -1    0    0  501    0  0.00000000000E+00  0.00000000000E+00  0.11296811007E+04  0.11296811007E+04  0.25500000920E-02 0.  1.
       -2   -1    0    0    0  501  0.00000000000E+00  0.00000000000E+00 -0.14186303261E+03  0.14186303263E+03  0.25500000920E-02 0. -1.
    10030    2    1    2    0    0  0.00000000000E+00  0.00000000000E+00  0.98781806809E+03  0.12715441333E+04  0.80064970328E+03 0.  0.
        4    1    3    3  502    0 -0.39457036345E+03  0.55646476264E+02  0.43289318637E+03  0.58837099328E+03  0.12699999809E+01 0.  1.
       -4    1    3    3    0  502  0.39457036345E+03 -0.55646476264E+02  0.55492488172E+03  0.68317314004E+03  0.12699999809E+01 0. -1.
</event>
<event>
 5   0  0.4700220E-02  0.6659263E+03  0.7818609E-02  0.9777345E-01
       -2   -1    0    0    0  501  0.00000000000E+00  0.00000000000E+00  0.40502029653E+03  0.40502029654E+03  0.25500000920E-02 0.  1.
        2   -1    0    0  501    0  0.00000000000E+00  0.00000000000E+00 -0.27372565133E+03  0.27372565135E+03  0.25500000920E-02 0. -1.
    10030    2    1    2    0    0  0.00000000000E+00  0.00000000000E+00  0.13129464520E+03  0.67874594789E+03  0.66592625561E+03 0.  0.
        4    1    3    3  502    0  0.24159638498E+03  0.53140091634E+01 -0.16781627689E+03  0.29421245320E+03  0.12699999809E+01 0. -1.
       -4    1    3    3    0  502 -0.24159638498E+03 -0.53140091634E+01  0.29911092209E+03  0.38453349469E+03  0.12699999809E+01 0.  1.
</event>
<event>
 5   0  0.4663634E-02  0.8026531E+03  0.7818609E-02  0.9556185E-01
        2   -1    0    0  501    0  0.00000000000E+00  0.00000000000E+00  0.81238731842E+03  0.81238731843E+03  0.25500000920E-02 0.  1.
       -2   -1    0    0    0  501  0.00000000000E+00  0.00000000000E+00 -0.19825885982E+03  0.19825885984E+03  0.25500000920E-02 0. -1.
    10030    2    1    2    0    0  0.00000000000E+00  0.00000000000E+00  0.61412845860E+03  0.10106461783E+04  0.80265305953E+03 0.  0.
        5    1    3    3  502    0 -0.39340160311E+03 -0.73861527876E+02  0.27099615396E+03  0.48340599095E+03  0.46999998093E+01 0.  1.
       -5    1    3    3    0  502  0.39340160311E+03  0.73861527876E+02  0.34313230464E+03  0.52724018731E+03  0.46999998093E+01 0. -1.
</event>
<event>
 5   0  0.1786500E-02  0.8112123E+03  0.7818609E-02  0.9543928E-01
        3   -1    0    0  501    0  0.00000000000E+00  0.00000000000E+00  0.42773418049E+03  0.42773419242E+03  0.10100000352E+00 0.  1.
       -3   -1    0    0    0  501  0.00000000000E+00  0.00000000000E+00 -0.38462282355E+03  0.38462283681E+03  0.10100000352E+00 0. -1.
    10030    2    1    2    0    0  0.00000000000E+00  0.00000000000E+00  0.43111356942E+02  0.81235702923E+03  0.81121227422E+03 0.  0.
        5    1    3    3  502    0 -0.57208114821E+02 -0.35195654065E+02  0.42209854626E+03  0.42743511230E+03  0.46999998093E+01 0.  1.
       -5    1    3    3    0  502  0.57208114821E+02  0.35195654065E+02 -0.37898718932E+03  0.38492191693E+03  0.46999998093E+01 0. -1.
</event>
<event>
 5   0  0.2759559E-02  0.8171953E+03  0.7818609E-02  0.9535456E-01
       -1   -1    0    0    0  501  0.00000000000E+00  0.00000000000E+00  0.42618302012E+03  0.42618302015E+03  0.50400001928E-02 0.  1.
        1   -1    0    0  501    0  0.00000000000E+00  0.00000000000E+00 -0.39173788620E+03  0.39173788623E+03  0.50400001928E-02 0. -1.
    10030    2    1    2    0    0  0.00000000000E+00  0.00000000000E+00  0.34445133922E+02  0.81792090639E+03  0.81719528991E+03 0.  0.
        3    1    3    3  502    0 -0.18085991949E+03  0.35375986371E+03  0.11267849145E+03  0.41298039214E+03  0.10100000352E+00 0.  1.
       -3    1    3    3    0  502  0.18085991949E+03 -0.35375986371E+03 -0.78233357525E+02  0.40494051425E+03  0.10100000352E+00 0. -1.
</event>
<event>
 5   0  0.2769394E-02  0.8119842E+03  0.7818609E-02  0.9542831E-01
       -1   -1    0    0    0  501  0.00000000000E+00  0.00000000000E+00  0.31347269027E+03  0.31347269031E+03  0.50400001928E-02 0.  1.
        1   -1    0    0  501    0  0.00000000000E+00  0.00000000000E+00 -0.52581795560E+03  0.52581795562E+03  0.50400001928E-02 0. -1.
    10030    2    1    2    0    0  0.00000000000E+00  0.00000000000E+00 -0.21234526533E+03  0.83929064593E+03  0.81198416034E+03 0.  0.
        2    1    3    3  502    0  0.22349769577E+03 -0.14716799211E+03  0.20941444698E+03  0.33980001254E+03  0.25500000920E-02 0.  1.
       -2    1    3    3    0  502 -0.22349769577E+03  0.14716799211E+03 -0.42175971231E+03  0.49949063339E+03  0.25500000920E-02 0. -1.
</event>
<event>
 5   0  0.4684283E-02  0.7723239E+03  0.7818609E-02  0.9600964E-01
        2   -1    0    0  501    0  0.00000000000E+00  0.00000000000E+00  0.18058257364E+03  0.18058257366E+03  0.25500000920E-02 0. -1.
       -2   -1    0    0    0  501  0.00000000000E+00  0.00000000000E+00 -0.82577765483E+03  0.82577765484E+03  0.25500000920E-02 0.  1.
    10030    2    1    2    0    0  0.00000000000E+00  0.00000000000E+00 -0.64519508119E+03  0.10063602285E+04  0.77232390660E+03 0.  0.
        1    1    3    3  502    0 -0.61420122519E+02 -0.31928344925E+02 -0.81762705644E+03  0.82055216416E+03  0.50400001928E-02 0.  1.
       -1    1    3    3    0  502  0.61420122519E+02  0.31928344925E+02  0.17243197525E+03  0.18580806434E+03  0.50400001928E-02 0. -1.
</event>
<event>
 5   0  0.2689372E-02  0.8144567E+03  0.7818609E-02  0.9539324E-01
        1   -1    0    0  501    0  0.00000000000E+00  0.00000000000E+00  0.13984121834E+03  0.13984121843E+03  0.50400001928E-02 0.  1.
       -1   -1    0    0    0  501  0.00000000000E+00  0.00000000000E+00 -0.11858801554E+04  0.11858801554E+04  0.50400001928E-02 0. -1.
    10030    2    1    2    0    0  0.00000000000E+00  0.00000000000E+00 -0.10460389370E+04  0.13257213738E+04  0.81445669203E+03 0.  0.
        4    1    3    3  502    0 -0.12098289210E+03 -0.36311998923E+03 -0.74938805490E+03  0.84147314663E+03  0.12699999809E+01 0. -1.
       -4    1    3    3    0  502  0.12098289210E+03  0.36311998923E+03 -0.29665088213E+03  0.48424822718E+03  0.12699999809E+01 0.  1.
</event>
<event>
 5   0  0.4684283E-02  0.7997402E+03  0.7818609E-02  0.9560393E-01
        2   -1    0    0  501    0  0.00000000000E+00  0.00000000000E+00  0.14070811288E+04  0.14070811288E+04  0.25500000920E-02 0. -1.
       -2   -1    0    0    0  501  0.00000000000E+00  0.00000000000E+00 -0.11363671792E+03  0.11363671795E+03  0.25500000920E-02 0.  1.
    10030    2    1    2    0    0  0.00000000000E+00  0.00000000000E+00  0.12934444109E+04  0.15207178468E+04  0.79974016119E+03 0.  0.
        1    1    3    3  502    0 -0.18054911468E+03  0.19489596509E+03  0.78447031686E+02  0.27701327915E+03  0.50400001928E-02 0.  1.
       -1    1    3    3    0  502  0.18054911468E+03 -0.19489596509E+03  0.12149973792E+04  0.12437045676E+04  0.50400001928E-02 0. -1.
</event>
<event>
 5   0  0.1786500E-02  0.8087713E+03  0.7818609E-02  0.9547407E-01
        3   -1    0    0  501    0  0.00000000000E+00  0.00000000000E+00  0.17863303870E+03  0.17863306725E+03  0.10100000352E+00 0.  1.
       -3   -1    0    0    0  501  0.00000000000E+00  0.00000000000E+00 -0.91543945728E+03  0.91543946285E+03  0.10100000352E+00 0. -1.
    10030    2    1    2    0    0  0.00000000000E+00  0.00000000000E+00 -0.73680641858E+03  0.10940725301E+04  0.80877129193E+03 0.  0.
        4    1    3    3  502    0  0.17190933333E+03  0.85186606104E+02 -0.84994842875E+03  0.87133433376E+03  0.12699999809E+01 0. -1.
       -4    1    3    3    0  502 -0.17190933333E+03 -0.85186606104E+02  0.11314201017E+03  0.22273819634E+03  0.12699999809E+01 0.  1.
</event>
<event>
 5   0  0.4377843E-02  0.7986963E+03  0.7818609E-02  0.9561906E-01
       -2   -1    0    0    0  501  0.00000000000E+00  0.00000000000E+00  0.11790063187E+03  0.11790063190E+03  0.25500000920E-02 0. -1.
        2   -1    0    0  501    0  0.00000000000E+00  0.00000000000E+00 -0.13526555489E+04  0.13526555489E+04  0.25500000920E-02 0.  1.
    10030    2    1    2    0    0  0.00000000000E+00  0.00000000000E+00 -0.12347549170E+04  0.14705561808E+04  0.79869629756E+03 0.  0.
        2    1    3    3  502    0 -0.92963633532E+02  0.28731839266E+03 -0.10985071104E+04  0.11392593943E+04  0.25500000920E-02 0.  1.
       -2    1    3    3    0  502  0.92963633532E+02 -0.28731839266E+03 -0.13624780663E+03  0.33129678649E+03  0.25500000920E-02 0. -1.
</event>
<event>
 5   0  0.2689372E-02  0.8035879E+03  0.7818609E-02  0.9554838E-01
       -1   -1    0    0    0  501  0.00000000000E+00  0.00000000000E+00  0.45740223080E+03  0.45740223082E+03  0.50400001928E-02 0. -1.
        1   -1    0    0  501    0  0.00000000000E+00  0.00000000000E+00 -0.35294620124E+03  0.35294620128E+03  0.50400001928E-02 0.  1.
    10030    2    1    2    0    0  0.00000000000E+00  0.00000000000E+00  0.10445602955E+03  0.81034843210E+03  0.80358790390E+03 0.  0.
        4    1    3    3  502    0  0.30159487776E+03 -0.20505800543E+03 -0.11779803395E+03  0.38325741426E+03  0.12699999809E+01 0.  1.
       -4    1    3    3    0  502 -0.30159487776E+03  0.20505800543E+03  0.22225406350E+03  0.42709101784E+03  0.12699999809E+01 0. -1.
</event>
<event>
 5   0  0.4700220E-02  0.7456350E+03  0.7818609E-02  0.9642223E-01
        2   -1    0    0  501    0  0.00000000000E+00  0.00000000000E+00  0.13685161636E+04  0.13685161636E+04  0.25500000920E-02 0. -1.
       -2   -1    0    0    0  501  0.00000000000E+00  0.00000000000E+00 -0.10156466011E+03  0.10156466014E+03  0.25500000920E-02 0.  1.
    10030    2    1    2    0    0  0.00000000000E+00  0.00000000000E+00  0.12669515035E+04  0.14700808238E+04  0.74563497513E+03 0.  0.
        4    1    3    3  502    0 -0.86323396414E+02  0.31834545794E+03  0.29087560776E+03  0.43977925309E+03  0.12699999809E+01 0.  1.
       -4    1    3    3    0  502  0.86323396414E+02 -0.31834545794E+03  0.97607589575E+03  0.10303015707E+04  0.12699999809E+01 0. -1.
</event>
<event>
 5   0  0.2759559E-02  0.8033123E+03  0.7818609E-02  0.9555235E-01
        1   -1    0    0  501    0  0.00000000000E+00  0.00000000000E+00  0.30421958769E+03  0.30421958773E+03  0.50400001928E-02 0. -1.
       -1   -1    0    0    0  501  0.00000000000E+00  0.00000000000E+00 -0.53030004656E+03  0.53030004659E+03  0.50400001928E-02 0.  1.
    10030    2    1    2    0    0  0.00000000000E+00  0.00000000000E+00 -0.22608045888E+03  0.83451963432E+03  0.80331229679E+03 0.  0.
        3    1    3    3  502    0 -0.37487133990E+03  0.54145605793E+02  0.25821516159E+02  0.37964065773E+03  0.10100000352E+00 0.  1.
       -3    1    3    3    0  502  0.37487133990E+03 -0.54145605793E+02 -0.25190197504E+03  0.45487897658E+03  0.10100000352E+00 0. -1.
</event>
<event>
 5   0  0.4663634E-02  0.7975325E+03  0.7818609E-02  0.9563596E-01
        2   -1    0    0  501    0  0.00000000000E+00  0.00000000000E+00  0.19332977538E+03  0.19332977540E+03  0.25500000920E-02 0. -1.
       -2   -1    0    0    0  501  0.00000000000E+00  0.00000000000E+00 -0.82250403516E+03  0.82250403516E+03  0.25500000920E-02 0.  1.
    10030    2    1    2    0    0  0.00000000000E+00  0.00000000000E+00 -0.62917425978E+03  0.10158338106E+04  0.79753249558E+03 0.  0.
        5    1    3    3  502    0 -0.10241093868E+03  0.12587089799E+03 -0.77851004298E+03  0.79525559435E+03  0.46999998093E+01 0.  1.
       -5    1    3    3    0  502  0.10241093868E+03 -0.12587089799E+03  0.14933578321E+03  0.22057821621E+03  0.46999998093E+01 0. -1.
</event>
<event>
 5   0  0.4663634E-02  0.7556545E+03  0.7818609E-02  0.9626521E-01
       -2   -1    0    0    0  501  0.00000000000E+00  0.00000000000E+00  0.29169681111E+03  0.29169681113E+03  0.25500000920E-02 0. -1.
        2   -1    0    0  501    0  0.00000000000E+00  0.00000000000E+00 -0.48938976545E+03  0.48938976545E+03  0.25500000920E-02 0.  1.
    10030    2    1    2    0    0  0.00000000000E+00  0.00000000000E+00 -0.19769295433E+03  0.78108657658E+03  0.75565450830E+03 0.  0.
        5    1    3    3  502    0 -0.14093560989E+03  0.14235084280E+03  0.23225384163E+03  0.30674182227E+03  0.46999998093E+01 0. -1.
       -5    1    3    3    0  502  0.14093560989E+03 -0.14235084280E+03 -0.42994679596E+03  0.47434475431E+03  0.46999998093E+01 0.  1.
</event>
<event>
 5   0  0.4684283E-02  0.8334770E+03  0.7818609E-02  0.9512786E-01
        2   -1    0    0  501    0  0.00000000000E+00  0.00000000000E+00  0.19531330183E+04  0.19531330183E+04  0.25500000920E-02 0. -1.
       -2   -1    0    0    0  501  0.00000000000E+00  0.00000000000E+00 -0.88919166611E+02  0.88919166648E+02  0.25500000920E-02 0.  1.
    10030    2    1    2    0    0  0.00000000000E+00  0.00000000000E+00  0.18642138517E+04  0.20420521850E+04  0.83347695903E+03 0.  0.
        1    1    3    3  502    0  0.10342371213E+03 -0.79942249605E+02  0.19016041251E+04  0.19060916757E+04  0.50400001928E-02 0. -1.
       -1    1    3    3    0  502 -0.10342371213E+03  0.79942249605E+02 -0.37390273428E+02  0.13596050925E+03  0.50400001928E-02 0.  1.
</event>
<event>
 5   0  0.2769394E-02  0.7045070E+03  0.7818609E-02  0.9709556E-01
        1   -1    0    0  501    0  0.00000000000E+00  0.00000000000E+00  0.94677927201E+03  0.94677927203E+03  0.50400001928E-02 0. -1.
       -1   -1    0    0    0  501  0.00000000000E+00  0.00000000000E+00 -0.13105749409E+03  0.13105749418E+03  0.50400001928E-02 0.  1.
    10030    2    1    2    0    0  0.00000000000E+00  0.00000000000E+00  0.81572177793E+03  0.10778367662E+04  0.70450697343E+03 0.  0.
        2    1    3    3  502    0  0.26519868808E+03 -0.13001540735E+03  0.11418002350E+03  0.31665664067E+03  0.25500000920E-02 0.  1.
       -2    1    3    3    0  502 -0.26519868808E+03  0.13001540735E+03  0.70154175443E+03  0.76118012554E+03  0.25500000920E-02 0. -1.
</event>
<event>
 5   0  0.2759559E-02  0.7967114E+03  0.7818609E-02  0.9564789E-01
        1   -1    0    0  501    0  0.00000000000E+00  0.00000000000E+00  0.12014693870E+04  0.12014693870E+04  0.50400001928E-02 0. -1.
       -1   -1    0    0    0  501  0.00000000000E+00  0.00000000000E+00 -0.13207765417E+03  0.13207765427E+03  0.50400001928E-02 0.  1.
    10030    2    1    2    0    0  0.00000000000E+00  0.00000000000E+00  0.10693917328E+04  0.13335470413E+04  0.79671138630E+03 0.  0.
        3    1    3    3  502    0  0.13720347468E+03  0.22343022591E+03  0.32715061386E+02  0.26422744891E+03  0.10100000352E+00 0.  1.
       -3    1    3    3    0  502 -0.13720347468E+03 -0.22343022591E+03  0.10366766715E+04  0.10693195924E+04  0.10100000352E+00 0. -1.
</event>
<event>
 5   0  0.2635243E-02  0.8098673E+03  0.7818609E-02  0.9545843E-01
        1   -1    0    0  501    0  0.00000000000E+00  0.00000000000E+00  0.13406327247E+03  0.13406327257E+03  0.50400001928E-02 0.  1.
       -1   -1    0    0    0  501  0.00000000000E+00  0.00000000000E+00 -0.12230886619E+04  0.12230886619E+04  0.50400001928E-02 0. -1.
    10030    2    1    2    0    0  0.00000000000E+00  0.00000000000E+00 -0.10890253894E+04  0.13571519345E+04  0.80986731903E+03 0.  0.
        1    1    3    3  502    0 -0.26027752599E+03  0.30967356562E+03 -0.57491584953E+03  0.70297250434E+03  0.50400001928E-02 0.  1.
       -1    1    3    3    0  502  0.26027752599E+03 -0.30967356562E+03 -0.51410953987E+03  0.65417943012E+03  0.50400001928E-02 0. -1.
</event>
<event>
 5   0  0.4700220E-02  0.8235573E+03  0.7818609E-02  0.9526531E-01
       -2   -1    0    0    0  501  0.00000000000E+00  0.00000000000E+00  0.18919669351E+03  0.18919669353E+03  0.25500000920E-02 0.  1.
        2   -1    0    0  501    0  0.00000000000E+00  0.00000000000E+00 -0.89621894889E+03  0.89621894890E+03  0.25500000920E-02 0. -1.
    10030    2    1    2    0    0  0.00000000000E+00  0.00000000000E+00 -0.70702225538E+03  0.10854156424E+04  0.82355731265E+03 0.  0.
        4    1    3    3  502    0  0.37772487888E+02  0.23028793635E+03 -0.80064887391E+03  0.83396614240E+03  0.12699999809E+01 0. -1.
       -4    1    3    3    0  502 -0.37772487888E+02 -0.23028793635E+03  0.93626618531E+02  0.25144950003E+03  0.12699999809E+01 0.  1.
</event>
<event>
 5   0  0.2606520E-02  0.7935913E+03  0.7818609E-02  0.9569340E-01
        1   -1    0    0  501    0  0.00000000000E+00  0.00000000000E+00  0.12186850219E+04  0.12186850219E+04  0.50400001928E-02 0.  1.
       -1   -1    0    0    0  501  0.00000000000E+00  0.00000000000E+00 -0.12919398394E+03  0.12919398403E+03  0.50400001928E-02 0. -1.
    10030    2    1    2    0    0  0.00000000000E+00  0.00000000000E+00  0.10894910380E+04  0.13478790060E+04  0.79359126311E+03 0.  0.
        5    1    3    3  502    0  0.27206336509E+03  0.27322944955E+03  0.38585257155E+03  0.54550628200E+03  0.46999998093E+01 0.  1.
       -5    1    3    3    0  502 -0.27206336509E+03 -0.27322944955E+03  0.70363846644E+03  0.80237272397E+03  0.46999998093E+01 0. -1.
</event>
<event>
 5   0  0.2689372E-02  0.7974828E+03  0.7818609E-02  0.9563668E-01
        1   -1    0    0  501    0  0.00000000000E+00  0.00000000000E+00  0.78478477004E+03  0.78478477006E+03  0.50400001928E-02 0.  1.
       -1   -1    0    0    0  501  0.00000000000E+00  0.00000000000E+00 -0.20259655630E+03  0.20259655637E+03  0.50400001928E-02 0. -1.
    10030    2    1    2    0    0  0.00000000000E+00  0.00000000000E+00  0.58218821374E+03  0.98738132642E+03  0.79748276944E+03 0.  0.
        4    1    3    3  502    0 -0.20509011344E+02  0.39711006310E+03  0.25444783166E+03  0.47208297332E+03  0.12699999809E+01 0. -1.
       -4    1    3    3    0  502  0.20509011344E+02 -0.39711006310E+03  0.32774038208E+03  0.51529835310E+03  0.12699999809E+01 0.  1.
</event>
<event>
 5   0  0.2769394E-02  0.8422286E+03  0.7818609E-02  0.9500827E-01
       -1   -1    0    0    0  501  0.00000000000E+00  0.00000000000E+00  0.22771609561E+03  0.22771609566E+03  0.50400001928E-02 0. -1.
        1   -1    0    0  501    0  0.00000000000E+00  0.00000000000E+00 -0.77876472474E+03  0.77876472476E+03  0.50400001928E-02 0.  1.
    10030    2    1    2    0    0  0.00000000000E+00  0.00000000000E+00 -0.55104862914E+03  0.10064808204E+04  0.84222862111E+03 0.  0.
        2    1    3    3  502    0 -0.10829127033E+03 -0.25914542533E+03  0.99441776891E+02  0.29794633359E+03  0.25500000920E-02 0. -1.
       -2    1    3    3    0  502  0.10829127033E+03  0.25914542533E+03 -0.65049040603E+03  0.70853448684E+03  0.25500000920E-02 0.  1.
</event>
<event>
 5   0  0.4590462E-02  0.8214769E+03  0.7818609E-02  0.9529440E-01
        2   -1    0    0  501    0  0.00000000000E+00  0.00000000000E+00  0.13822512117E+04  0.13822512117E+04  0.25500000920E-02 0.  1.
       -2   -1    0    0    0  501  0.00000000000E+00  0.00000000000E+00 -0.12205168697E+03  0.12205168700E+03  0.25500000920E-02 0. -1.
    10030    2    1    2    0    0  0.00000000000E+00  0.00000000000E+00  0.12601995247E+04  0.15043028987E+04  0.82147694363E+03 0.  0.
        3    1    3    3  502    0 -0.27016303717E+02  0.94130905462E+02  0.13605594591E+04  0.13640793819E+04  0.10100000352E+00 0.  1.
       -3    1    3    3    0  502  0.27016303717E+02 -0.94130905462E+02 -0.10035993442E+03  0.14022351681E+03  0.10100000352E+00 0. -1.
</event>
<event>
 5   0  0.4700220E-02  0.8196260E+03  0.7818609E-02  0.9532036E-01
        2   -1    0    0  501    0  0.00000000000E+00  0.00000000000E+00  0.72545906493E+03  0.72545906493E+03  0.25500000920E-02 0.  1.
       -2   -1    0    0    0  501  0.00000000000E+00  0.00000000000E+00 -0.23150403821E+03  0.23150403823E+03  0.25500000920E-02 0. -1.
    10030    2    1    2    0    0  0.00000000000E+00  0.00000000000E+00  0.49395502671E+03  0.95696310316E+03  0.81962601984E+03 0.  0.
        4    1    3    3  502    0  0.35223231118E+03 -0.74263757445E+01  0.49139216074E+03  0.60464090221E+03  0.12699999809E+01 0.  1.
       -4    1    3    3    0  502 -0.35223231118E+03  0.74263757445E+01  0.25628659769E+01  0.35232220095E+03  0.12699999809E+01 0. -1.
</event>
<event>
 5   0  0.4684283E-02  0.7964071E+03  0.7818609E-02  0.9565232E-01
       -2   -1    0    0    0  501  0.00000000000E+00  0.00000000000E+00  0.45305906390E+03  0.45305906391E+03  0.25500000920E-02 0.  1.
        2   -1    0    0  501    0  0.00000000000E+00  0.00000000000E+00 -0.34998986858E+03  0.34998986858E+03  0.25500000920E-02 0. -1.
    10030    2    1    2    0    0  0.00000000000E+00  0.00000000000E+00  0.10306919533E+03  0.80304893249E+03  0.79640713768E+03 0.  0.
        1    1    3    3  502    0 -0.28995442216E+03 -0.10492599496E+03 -0.20252509032E+03  0.36891658079E+03  0.50400001928E-02 0. -1.
       -1    1    3    3    0  502  0.28995442216E+03  0.10492599496E+03  0.30559428565E+03  0.43413235170E+03  0.50400001928E-02 0.  1.
</event>
<event>
 5   0  0.4590462E-02  0.7895140E+03  0.7818609E-02  0.9575320E-01
        2   -1    0    0  501    0  0.00000000000E+00  0.00000000000E+00  0.14502033329E+04  0.14502033329E+04  0.25500000920E-02 0.  1.
       -2   -1    0    0    0  501  0.00000000000E+00  0.00000000000E+00 -0.10745603914E+03  0.10745603917E+03  0.25500000920E-02 0. -1.
    10030    2    1    2    0    0  0.00000000000E+00  0.00000000000E+00  0.13427472937E+04  0.15576593721E+04  0.78951404326E+03 0.  0.
        3    1    3    3  502    0 -0.10041595187E+03  0.34403446697E+03  0.99789289861E+03  0.10602986962E+04  0.10100000352E+00 0.  1.
       -3    1    3    3    0  502  0.10041595187E+03 -0.34403446697E+03  0.34485439513E+03  0.49736067586E+03  0.10100000352E+00 0. -1.
</event>
<event>
 5   0  0.2606520E-02  0.7816832E+03  0.7818609E-02  0.9586915E-01
        1   -1    0    0  501    0  0.00000000000E+00  0.00000000000E+00  0.65656656746E+03  0.65656656748E+03  0.50400001928E-02 0.  1.
       -1   -1    0    0    0  501  0.00000000000E+00  0.00000000000E+00 -0.23266055819E+03  0.23266055824E+03  0.50400001928E-02 0. -1.
    10030    2    1    2    0    0  0.00000000000E+00  0.00000000000E+00  0.42390600927E+03  0.88922712572E+03  0.78168316882E+03 0.  0.
        5    1    3    3  502    0 -0.25414566501E+03  0.21527169984E+03 -0.20634480792E+02  0.33373611670E+03  0.46999998093E+01 0. -1.
       -5    1    3    3    0  502  0.25414566501E+03 -0.21527169984E+03  0.44454049006E+03  0.55549100902E+03  0.46999998093E+01 0.  1.
</event>
<event>
 5   0  0.2689372E-02  0.7988445E+03  0.7818609E-02  0.9561691E-01
       -1   -1    0    0    0  501  0.00000000000E+00  0.00000000000E+00  0.42078356657E+03  0.42078356660E+03  0.50400001928E-02 0.  1.
        1   -1    0    0  501    0  0.00000000000E+00  0.00000000000E+00 -0.37914533603E+03  0.37914533607E+03  0.50400001928E-02 0. -1.
    10030    2    1    2    0    0  0.00000000000E+00  0.00000000000E+00  0.41638230540E+02  0.79992890267E+03  0.79884448241E+03 0.  0.
        4    1    3    3  502    0  0.32103925096E+03  0.23639562606E+03 -0.34505593578E+01  0.39870115618E+03  0.12699999809E+01 0. -1.
       -4    1    3    3    0  502 -0.32103925096E+03 -0.23639562606E+03  0.45088789898E+02  0.40122774649E+03  0.12699999809E+01 0.  1.
</event>
<event>
 5   0  0.2606520E-02  0.7889442E+03  0.7818609E-02  0.9576159E-01
       -1   -1    0    0    0  501  0.00000000000E+00  0.00000000000E+00  0.38607139373E+03  0.38607139377E+03  0.50400001928E-02 0. -1.
        1   -1    0    0  501    0  0.00000000000E+00  0.00000000000E+00 -0.40305562913E+03  0.40305562916E+03  0.50400001928E-02 0.  1.
    10030    2    1    2    0    0  0.00000000000E+00  0.00000000000E+00 -0.16984235397E+02  0.78912702293E+03  0.78894422747E+03 0.  0.
        5    1    3    3  502    0 -0.36739967274E+02 -0.30430986972E+03  0.23982300378E+03  0.38921907089E+03  0.46999998093E+01 0. -1.
       -5    1    3    3    0  502  0.36739967274E+02  0.30430986972E+03 -0.25680723918E+03  0.39990795203E+03  0.46999998093E+01 0.  1.
</event>
<event>
 5   0  0.2635243E-02  0.8055665E+03  0.7818609E-02  0.9551995E-01
       -1   -1    0    0    0  501  0.00000000000E+00  0.00000000000E+00  0.38742704023E+03  0.38742704026E+03  0.50400001928E-02 0. -1.
        1   -1    0    0  501    0  0.00000000000E+00  0.00000000000E+00 -0.41874812661E+03  0.41874812664E+03  0.50400001928E-02 0.  1.
    10030    2    1    2    0    0  0.00000000000E+00  0.00000000000E+00 -0.31321086383E+02  0.80617516690E+03  0.80556650208E+03 0.  0.
        1    1    3    3  502    0  0.42356278096E+02  0.39942079519E+03  0.14417470945E+02  0.40191900853E+03  0.50400001928E-02 0.  1.
       -1    1    3    3    0  502 -0.42356278096E+02 -0.39942079519E+03 -0.45738557328E+02  0.40425615837E+03  0.50400001928E-02 0. -1.
</event>
<event>
 5   0  0.4700220E-02  0.7890663E+03  0.7818609E-02  0.9575979E-01
        2   -1    0    0  501    0  0.00000000000E+00  0.00000000000E+00  0.80294426410E+03  0.80294426410E+03  0.25500000920E-02 0.  1.
       -2   -1    0    0    0  501  0.00000000000E+00  0.00000000000E+00 -0.19385702796E+03  0.19385702798E+03  0.25500000920E-02 0. -1.
    10030    2    1    2    0    0  0.00000000000E+00  0.00000000000E+00  0.60908723614E+03  0.99680129208E+03  0.78906625492E+03 0.  0.
        4    1    3    3  502    0 -0.61734746549E+02 -0.19938066269E+03  0.72748520734E+03  0.75683562772E+03  0.12699999809E+01 0.  1.
       -4    1    3    3    0  502  0.61734746549E+02  0.19938066269E+03 -0.11839797120E+03  0.23996566436E+03  0.12699999809E+01 0. -1.
</event>
<event>
 5   0  0.4684283E-02  0.8062537E+03  0.7818609E-02  0.9551009E-01
        2   -1    0    0  501    0  0.00000000000E+00  0.00000000000E+00  0.14151230313E+04  0.14151230314E+04  0.25500000920E-02 0. -1.
       -2   -1    0    0    0  501  0.00000000000E+00  0.00000000000E+00 -0.11483894687E+03  0.11483894689E+03  0.25500000920E-02 0.  1.
    10030    2    1    2    0    0  0.00000000000E+00  0.00000000000E+00  0.13002840845E+04  0.15299619782E+04  0.80625365395E+03 0.  0.
        1    1    3    3  502    0 -0.19063167818E+03 -0.18718671959E+03  0.77287665641E+02  0.27812351213E+03  0.50400001928E-02 0.  1.
       -1    1    3    3    0  502  0.19063167818E+03  0.18718671959E+03  0.12229964188E+04  0.12518384661E+04  0.50400001928E-02 0. -1.
</event>
<event>
 5   0  0.4377843E-02  0.8621406E+03  0.7818609E-02  0.9474186E-01
       -2   -1    0    0    0  501  0.00000000000E+00  0.00000000000E+00  0.11792567775E+03  0.11792567777E+03  0.25500000920E-02 0.  1.
        2   -1    0    0  501    0  0.00000000000E+00  0.00000000000E+00 -0.15757517021E+04  0.15757517021E+04  0.25500000920E-02 0. -1.
    10030    2    1    2    0    0  0.00000000000E+00  0.00000000000E+00 -0.14578260244E+04  0.16936773799E+04  0.86214056269E+03 0.  0.
        2    1    3    3  502    0 -0.19632754741E+03  0.30009583953E+03 -0.11988340611E+04  0.12513213516E+04  0.25500000920E-02 0. -1.
       -2    1    3    3    0  502  0.19632754741E+03 -0.30009583953E+03 -0.25899196328E+03  0.44235602836E+03  0.25500000920E-02 0.  1.
</event>
<event>
 5   0  0.2759559E-02  0.7620314E+03  0.7818609E-02  0.9616662E-01
        1   -1    0    0  501    0  0.00000000000E+00  0.00000000000E+00  0.19292828402E+04  0.19292828403E+04  0.50400001928E-02 0. -1.
       -1   -1    0    0    0  501  0.00000000000E+00  0.00000000000E+00 -0.75247121070E+02  0.75247121239E+02  0.50400001928E-02 0.  1.
    10030    2    1    2    0    0  0.00000000000E+00  0.00000000000E+00  0.18540357192E+04  0.20045299615E+04  0.76203144196E+03 0.  0.
        3    1    3    3  502    0 -0.37927034031E+03 -0.27209189820E+02  0.86330532273E+03  0.94333579467E+03  0.10100000352E+00 0. -1.
       -3    1    3    3    0  502  0.37927034031E+03  0.27209189820E+02  0.99073039645E+03  0.10611941668E+04  0.10100000352E+00 0.  1.
</event>
<event>
 5   0  0.4590462E-02  0.7824141E+03  0.7818609E-02  0.9585827E-01
        2   -1    0    0  501    0  0.00000000000E+00  0.00000000000E+00  0.93124093518E+03  0.93124093518E+03  0.25500000920E-02 0.  1.
       -2   -1    0    0    0  501  0.00000000000E+00  0.00000000000E+00 -0.16434301239E+03  0.16434301241E+03  0.25500000920E-02 0. -1.
    10030    2    1    2    0    0  0.00000000000E+00  0.00000000000E+00  0.76689792279E+03  0.10955839476E+04  0.78241406061E+03 0.  0.
        3    1    3    3  502    0 -0.10289098559E+03 -0.34652872422E+03  0.17399771279E+03  0.40117817224E+03  0.10100000352E+00 0. -1.
       -3    1    3    3    0  502  0.10289098559E+03  0.34652872422E+03  0.59290021000E+03  0.69440577535E+03  0.10100000352E+00 0.  1.
</event>
<event>
 5   0  0.4663634E-02  0.7813684E+03  0.7818609E-02  0.9587384E-01
        2   -1    0    0  501    0  0.00000000000E+00  0.00000000000E+00  0.76722046068E+03  0.76722046069E+03  0.25500000920E-02 0. -1.
       -2   -1    0    0    0  501  0.00000000000E+00  0.00000000000E+00 -0.19894428560E+03  0.19894428562E+03  0.25500000920E-02 0.  1.
    10030    2    1    2    0    0  0.00000000000E+00  0.00000000000E+00  0.56827617508E+03  0.96616474631E+03  0.78136835477E+03 0.  0.
        5    1    3    3  502    0 -0.36270904854E+03  0.10296411239E+03  0.41055552902E+03  0.55743824298E+03  0.46999998093E+01 0. -1.
       -5    1    3    3    0  502  0.36270904854E+03 -0.10296411239E+03  0.15772064607E+03  0.40872650333E+03  0.46999998093E+01 0.  1.
</event>
<event>
 5   0  0.4684283E-02  0.8050533E+03  0.7818609E-02  0.9552731E-01
       -2   -1    0    0    0  501  0.00000000000E+00  0.00000000000E+00  0.33574227952E+03  0.33574227953E+03  0.25500000920E-02 0. -1.
        2   -1    0    0  501    0  0.00000000000E+00  0.00000000000E+00 -0.48259545821E+03  0.48259545821E+03  0.25500000920E-02 0.  1.
    10030    2    1    2    0    0  0.00000000000E+00  0.00000000000E+00 -0.14685317868E+03  0.81833773775E+03  0.80505328826E+03 0.  0.
        1    1    3    3  502    0  0.13998562122E+03  0.34390929616E+03 -0.23142020125E+03  0.43752129972E+03  0.50400001928E-02 0.  1.
       -1    1    3    3    0  502 -0.13998562122E+03 -0.34390929616E+03  0.84567022570E+02  0.38081643802E+03  0.50400001928E-02 0. -1.
</event>
<event>
 5   0  0.2759559E-02  0.7794476E+03  0.7818609E-02  0.9590252E-01
        1   -1    0    0  501    0  0.00000000000E+00  0.00000000000E+00  0.73424808501E+03  0.73424808503E+03  0.50400001928E-02 0. -1.
       -1   -1    0    0    0  501  0.00000000000E+00  0.00000000000E+00 -0.20685737920E+03  0.20685737926E+03  0.50400001928E-02 0.  1.
    10030    2    1    2    0    0  0.00000000000E+00  0.00000000000E+00  0.52739070581E+03  0.94110546429E+03  0.77944758537E+03 0.  0.
        3    1    3    3  502    0 -0.31383849611E+03  0.90141492973E+02  0.52057541990E+03  0.61450701249E+03  0.10100000352E+00 0. -1.
       -3    1    3    3    0  502  0.31383849611E+03 -0.90141492973E+02  0.68152859054E+01  0.32659845180E+03  0.10100000352E+00 0.  1.
</event>
<event>
 5   0  0.2689372E-02  0.8027195E+03  0.7818609E-02  0.9556089E-01
       -1   -1    0    0    0  501  0.00000000000E+00  0.00000000000E+00  0.26976512095E+03  0.26976512100E+03  0.50400001928E-02 0. -1.
        1   -1    0    0  501    0  0.00000000000E+00  0.00000000000E+00 -0.59714780811E+03  0.59714780813E+03  0.50400001928E-02 0.  1.
    10030    2    1    2    0    0  0.00000000000E+00  0.00000000000E+00 -0.32738268716E+03  0.86691292913E+03  0.80271950446E+03 0.  0.
        4    1    3    3  502    0  0.34940119657E+03  0.19631312256E+03 -0.14032803285E+03  0.42463349840E+03  0.12699999809E+01 0. -1.
       -4    1    3    3    0  502 -0.34940119657E+03 -0.19631312256E+03 -0.18705465430E+03  0.44227943074E+03  0.12699999809E+01 0.  1.
</event>
<event>
 5   0  0.2759559E-02  0.8200416E+03  0.7818609E-02  0.9531452E-01
       -1   -1    0    0    0  501  0.00000000000E+00  0.00000000000E+00  0.58240892123E+03  0.58240892125E+03  0.50400001928E-02 0. -1.
        1   -1    0    0  501    0  0.00000000000E+00  0.00000000000E+00 -0.28865811902E+03  0.28865811906E+03  0.50400001928E-02 0.  1.
    10030    2    1    2    0    0  0.00000000000E+00  0.00000000000E+00  0.29375080221E+03  0.87106704031E+03  0.82004161780E+03 0.  0.
        3    1    3    3  502    0  0.33555669892E+03  0.11851718183E+02  0.39684400595E+03  0.51983068077E+03  0.10100000352E+00 0. -1.
       -3    1    3    3    0  502 -0.33555669892E+03 -0.11851718183E+02 -0.10309320373E+03  0.35123635955E+03  0.10100000352E+00 0.  1.
</event>
<event>
 5   0  0.4700220E-02  0.7084550E+03  0.7818609E-02  0.9702881E-01
       -2   -1    0    0    0  501  0.00000000000E+00  0.00000000000E+00  0.62588325001E+02  0.62588325053E+02  0.25500000920E-02 0.  1.
        2   -1    0    0  501    0  0.00000000000E+00  0.00000000000E+00 -0.20048008757E+04  0.20048008757E+04  0.25500000920E-02 0. -1.
    10030    2    1    2    0    0  0.00000000000E+00  0.00000000000E+00 -0.19422125507E+04  0.20673892008E+04  0.70845501996E+03 0.  0.
        4    1    3    3  502    0  0.14007350152E+03 -0.95918075671E+02 -0.18783445084E+04  0.18860012111E+04  0.12699999809E+01 0. -1.
       -4    1    3    3    0  502 -0.14007350152E+03  0.95918075671E+02 -0.63868042291E+02  0.18138798966E+03  0.12699999809E+01 0.  1.
</event>
<event>
 5   0  0.4663634E-02  0.8092428E+03  0.7818609E-02  0.9546734E-01
        2   -1    0    0  501    0  0.00000000000E+00  0.00000000000E+00  0.31991597607E+03  0.31991597608E+03  0.25500000920E-02 0. -1.
       -2   -1    0    0    0  501  0.00000000000E+00  0.00000000000E+00 -0.51175466363E+03  0.51175466363E+03  0.25500000920E-02 0.  1.
    10030    2    1    2    0    0  0.00000000000E+00  0.00000000000E+00 -0.19183868756E+03  0.83167063971E+03  0.80924283803E+03 0.  0.
        5    1    3    3  502    0  0.34846090189E+03 -0.15447612292E+03  0.43518950216E+02  0.38367155449E+03  0.46999998093E+01 0.  1.
       -5    1    3    3    0  502 -0.34846090189E+03  0.15447612292E+03 -0.23535763778E+03  0.44799908522E+03  0.46999998093E+01 0. -1.
</event>
<event>
 5   0  0.4377843E-02  0.8076820E+03  0.7818609E-02  0.9548964E-01
        2   -1    0    0  501    0  0.00000000000E+00  0.00000000000E+00  0.81845931352E+03  0.81845931352E+03  0.25500000920E-02 0.  1.
       -2   -1    0    0    0  501  0.00000000000E+00  0.00000000000E+00 -0.19926164680E+03  0.19926164682E+03  0.25500000920E-02 0. -1.
    10030    2    1    2    0    0  0.00000000000E+00  0.00000000000E+00  0.61919766672E+03  0.10177209603E+04  0.80768199351E+03 0.  0.
        2    1    3    3  502    0 -0.33720135472E+03  0.21823583728E+03  0.36239960016E+03  0.54098530895E+03  0.25500000920E-02 0. -1.
       -2    1    3    3    0  502  0.33720135472E+03 -0.21823583728E+03  0.25679806656E+03  0.47673565138E+03  0.25500000920E-02 0.  1.
</event>
<event>
 5   0  0.4590462E-02  0.8228161E+03  0.7818609E-02  0.9527567E-01
        2   -1    0    0  501    0  0.00000000000E+00  0.00000000000E+00  0.21625331290E+04  0.21625331290E+04  0.25500000920E-02 0.  1.
       -2   -1    0    0    0  501  0.00000000000E+00  0.00000000000E+00 -0.78267734855E+02  0.78267734897E+02  0.25500000920E-02 0. -1.
    10030    2    1    2    0    0  0.00000000000E+00  0.00000000000E+00  0.20842653941E+04  0.22408008639E+04  0.82281606596E+03 0.  0.
        3    1    3    3  502    0  0.61977720690E+02  0.12563298237E+03 -0.11313281161E+02  0.14054495599E+03  0.10100000352E+00 0. -1.
       -3    1    3    3    0  502 -0.61977720690E+02 -0.12563298237E+03  0.20955786753E+04  0.21002559079E+04  0.10100000352E+00 0.  1.
</event>
<event>
 5   0  0.4377843E-02  0.8181045E+03  0.7818609E-02  0.9534175E-01
       -2   -1    0    0    0  501  0.00000000000E+00  0.00000000000E+00  0.20075890895E+03  0.20075890896E+03  0.25500000920E-02 0. -1.
        2   -1    0    0  501    0  0.00000000000E+00  0.00000000000E+00 -0.83345619605E+03  0.83345619605E+03  0.25500000920E-02 0.  1.
    10030    2    1    2    0    0  0.00000000000E+00  0.00000000000E+00 -0.63269728710E+03  0.10342151050E+04  0.81810453265E+03 0.  0.
        2    1    3    3  502    0 -0.12049906335E+03  0.17073451398E+03  0.12818558912E+03  0.24515677392E+03  0.25500000920E-02 0. -1.
       -2    1    3    3    0  502  0.12049906335E+03 -0.17073451398E+03 -0.76088287623E+03  0.78905833110E+03  0.25500000920E-02 0.  1.
</event>
<event>
 5   0  0.4590462E-02  0.7908951E+03  0.7818609E-02  0.9573290E-01
        2   -1    0    0  501    0  0.00000000000E+00  0.00000000000E+00  0.54118407795E+03  0.54118407795E+03  0.25500000920E-02 0.  1.
       -2   -1    0    0    0  501  0.00000000000E+00  0.00000000000E+00 -0.28895672812E+03  0.28895672813E+03  0.25500000920E-02 0. -1.
    10030    2    1    2    0    0  0.00000000000E+00  0.00000000000E+00  0.25222734983E+03  0.83014080609E+03  0.79089513965E+03 0.  0.
        3    1    3    3  502    0 -0.17075522203E+03  0.33850660883E+03  0.81317910136E+01  0.37922316160E+03  0.10100000352E+00 0. -1.
       -3    1    3    3    0  502  0.17075522203E+03 -0.33850660883E+03  0.24409555881E+03  0.45091764448E+03  0.10100000352E+00 0.  1.
</event>
<event>
 5   0  0.4590462E-02  0.7969965E+03  0.7818609E-02  0.9564375E-01
       -2   -1    0    0    0  501  0.00000000000E+00  0.00000000000E+00  0.59368644393E+02  0.59368644448E+02  0.25500000920E-02 0.  1.
        2   -1    0    0  501    0  0.00000000000E+00  0.00000000000E+00 -0.26748273418E+04  0.26748273418E+04  0.25500000920E-02 0. -1.
    10030    2    1    2    0    0  0.00000000000E+00  0.00000000000E+00 -0.26154586974E+04  0.27341959862E+04  0.79699654540E+03 0.  0.
        3    1    3    3  502    0  0.28602136494E+03  0.19275506981E+03 -0.19924645382E+04  0.20220973479E+04  0.10100000352E+00 0. -1.
       -3    1    3    3    0  502 -0.28602136494E+03 -0.19275506981E+03 -0.62299415915E+03  0.71209863830E+03  0.10100000352E+00 0.  1.
</event>
<event>
 5   0  0.4700220E-02  0.7904442E+03  0.7818609E-02  0.9573953E-01
        2   -1    0    0  501    0  0.00000000000E+00  0.00000000000E+00  0.10048563389E+04  0.10048563389E+04  0.25500000920E-02 0.  1.
       -2   -1    0    0    0  501  0.00000000000E+00  0.00000000000E+00 -0.15544562102E+03  0.15544562104E+03  0.25500000920E-02 0. -1.
    10030    2    1    2    0    0  0.00000000000E+00  0.00000000000E+00  0.84941071790E+03  0.11603019600E+04  0.79044422360E+03 0.  0.
        4    1    3    3  502    0 -0.22598552212E+03  0.10865582924E+03  0.87313568762E+03  0.90842891154E+03  0.12699999809E+01 0.  1.
       -4    1    3    3    0  502  0.22598552212E+03 -0.10865582924E+03 -0.23724969719E+02  0.25187304842E+03  0.12699999809E+01 0. -1.
</event>
<event>
 5   0  0.2759559E-02  0.8003490E+03  0.7818609E-02  0.9559512E-01
        1   -1    0    0  501    0  0.00000000000E+00  0.00000000000E+00  0.22446906773E+03  0.22446906779E+03  0.50400001928E-02 0. -1.
       -1   -1    0    0    0  501  0.00000000000E+00  0.00000000000E+00 -0.71341520816E+03  0.71341520818E+03  0.50400001928E-02 0.  1.
    10030    2    1    2    0    0  0.00000000000E+00  0.00000000000E+00 -0.48894614043E+03  0.93788427596E+03  0.80034904064E+03 0.  0.
        3    1    3    3  502    0 -0.11097878263E+03 -0.34771230893E+03 -0.43673942510E+03  0.56917613760E+03  0.10100000352E+00 0. -1.
       -3    1    3    3    0  502  0.11097878263E+03  0.34771230893E+03 -0.52206715328E+02  0.36870813837E+03  0.10100000352E+00 0.  1.
</event>
<event>
 5   0  0.2769394E-02  0.8696062E+03  0.7818609E-02  0.9464394E-01
        1   -1    0    0  501    0  0.00000000000E+00  0.00000000000E+00  0.63540385253E+03  0.63540385255E+03  0.50400001928E-02 0.  1.
       -1   -1    0    0    0  501  0.00000000000E+00  0.00000000000E+00 -0.29753317541E+03  0.29753317545E+03  0.50400001928E-02 0. -1.
    10030    2    1    2    0    0  0.00000000000E+00  0.00000000000E+00  0.33787067712E+03  0.93293702800E+03  0.86960617739E+03 0.  0.
        2    1    3    3  502    0  0.14955437180E+03 -0.10306034655E+03  0.59275739947E+03  0.61995909525E+03  0.25500000920E-02 0.  1.
       -2    1    3    3    0  502 -0.14955437180E+03  0.10306034655E+03 -0.25488672234E+03  0.31297793275E+03  0.25500000920E-02 0. -1.
</event>
<event>
 5   0  0.2769394E-02  0.8458197E+03  0.7818609E-02  0.9495965E-01
       -1   -1    0    0    0  501  0.00000000000E+00  0.00000000000E+00  0.61512043213E+03  0.61512043215E+03  0.50400001928E-02 0.  1.
        1   -1    0    0  501    0  0.00000000000E+00  0.00000000000E+00 -0.29076053408E+03  0.29076053412E+03  0.50400001928E-02 0. -1.
    10030    2    1    2    0    0  0.00000000000E+00  0.00000000000E+00  0.32435989805E+03  0.90588096628E+03  0.84581970987E+03 0.  0.
        2    1    3    3  502    0  0.25748811585E+03  0.28726618978E+03  0.34777929258E+03  0.51939621672E+03  0.25500000920E-02 0.  1.
       -2    1    3    3    0  502 -0.25748811585E+03 -0.28726618978E+03 -0.23419394527E+02  0.38648474956E+03  0.25500000920E-02 0. -1.
</event>
<event>
 5   0  0.2759559E-02  0.8199637E+03  0.7818609E-02  0.9531562E-01
       -1   -1    0    0    0  501  0.00000000000E+00  0.00000000000E+00  0.13451604157E+03  0.13451604167E+03  0.50400001928E-02 0.  1.
        1   -1    0    0  501    0  0.00000000000E+00  0.00000000000E+00 -0.12495545811E+04  0.12495545811E+04  0.50400001928E-02 0. -1.
    10030    2    1    2    0    0  0.00000000000E+00  0.00000000000E+00 -0.11150385395E+04  0.13840706228E+04  0.81996374566E+03 0.  0.
        3    1    3    3  502    0 -0.25032373345E+03 -0.31902042958E+03 -0.65948580503E+03  0.77418185413E+03  0.10100000352E+00 0.  1.
       -3    1    3    3    0  502  0.25032373345E+03  0.31902042958E+03 -0.45555273450E+03  0.60988876865E+03  0.10100000352E+00 0. -1.
</event>
<event>
 5   0  0.4684283E-02  0.8360791E+03  0.7818609E-02  0.9509214E-01
        2   -1    0    0  501    0  0.00000000000E+00  0.00000000000E+00  0.12271930976E+04  0.12271930976E+04  0.25500000920E-02 0.  1.
       -2   -1    0    0    0  501  0.00000000000E+00  0.00000000000E+00 -0.14240389697E+03  0.14240389699E+03  0.25500000920E-02 0. -1.
    10030    2    1    2    0    0  0.00000000000E+00  0.00000000000E+00  0.10847892006E+04  0.13695969946E+04  0.83607913369E+03 0.  0.
        1    1    3    3  502    0  0.31326440175E+03  0.75778440279E+02  0.10627295905E+03  0.33936838283E+03  0.50400001928E-02 0. -1.
       -1    1    3    3    0  502 -0.31326440175E+03 -0.75778440279E+02  0.97851624156E+03  0.10302286117E+04  0.50400001928E-02 0.  1.
</event>
<event>
 5   0  0.2759559E-02  0.8116917E+03  0.7818609E-02  0.9543246E-01
       -1   -1    0    0    0  501  0.00000000000E+00  0.00000000000E+00  0.25499098749E+03  0.25499098754E+03  0.50400001928E-02 0. -1.
        1   -1    0    0  501    0  0.00000000000E+00  0.00000000000E+00 -0.64594777994E+03  0.64594777996E+03  0.50400001928E-02 0.  1.
    10030    2    1    2    0    0  0.00000000000E+00  0.00000000000E+00 -0.39095679245E+03  0.90093876750E+03  0.81169172056E+03 0.  0.
        3    1    3    3  502    0 -0.30976755585E+03  0.19659435721E+03 -0.28911152288E+01  0.36689732718E+03  0.10100000352E+00 0.  1.
       -3    1    3    3    0  502  0.30976755585E+03 -0.19659435721E+03 -0.38806567722E+03  0.53404144032E+03  0.10100000352E+00 0. -1.
</event>
<event>
 5   0  0.4590462E-02  0.8110078E+03  0.7818609E-02  0.9544219E-01
       -2   -1    0    0    0  501  0.00000000000E+00  0.00000000000E+00  0.14692888070E+03  0.14692888072E+03  0.25500000920E-02 0. -1.
        2   -1    0    0  501    0  0.00000000000E+00  0.00000000000E+00 -0.11191362017E+04  0.11191362017E+04  0.25500000920E-02 0.  1.
    10030    2    1    2    0    0  0.00000000000E+00  0.00000000000E+00 -0.97220732098E+03  0.12660650824E+04  0.81100784084E+03 0.  0.
        3    1    3    3  502    0 -0.88519184454E+02  0.38504274640E+03 -0.62866779195E+03  0.74250708105E+03  0.10100000352E+00 0.  1.
       -3    1    3    3    0  502  0.88519184454E+02 -0.38504274640E+03 -0.34353952903E+03  0.52355800135E+03  0.10100000352E+00 0. -1.
</event>
<event>
 5   0  0.2635243E-02  0.8071071E+03  0.7818609E-02  0.9549786E-01
        1   -1    0    0  501    0  0.00000000000E+00  0.00000000000E+00  0.34235188077E+03  0.34235188081E+03  0.50400001928E-02 0.  1.
       -1   -1    0    0    0  501  0.00000000000E+00  0.00000000000E+00 -0.47569617730E+03  0.47569617733E+03  0.50400001928E-02 0. -1.
    10030    2    1    2    0    0  0.00000000000E+00  0.00000000000E+00 -0.13334429653E+03  0.81804805814E+03  0.80710713292E+03 0.  0.
        1    1    3    3  502    0 -0.21010024321E+03  0.33920221675E+03 -0.12795016293E+03  0.41901252996E+03  0.50400001928E-02 0. -1.
       -1    1    3    3    0  502  0.21010024321E+03 -0.33920221675E+03 -0.53941335949E+01  0.39903552818E+03  0.50400001928E-02 0.  1.
</event>
<event>
 5   0  0.4700220E-02  0.8130205E+03  0.7818609E-02  0.9541359E-01
       -2   -1    0    0    0  501  0.00000000000E+00  0.00000000000E+00  0.24527578950E+03  0.24527578951E+03  0.25500000920E-02 0. -1.
        2   -1    0    0  501    0  0.00000000000E+00  0.00000000000E+00 -0.67373371292E+03  0.67373371293E+03  0.25500000920E-02 0.  1.
    10030    2    1    2    0    0  0.00000000000E+00  0.00000000000E+00 -0.42845792342E+03  0.91900950244E+03  0.81302046311E+03 0.  0.
        4    1    3    3  502    0 -0.31062878239E+02 -0.22292797210E+03  0.16840765388E+03  0.28111302697E+03  0.12699999809E+01 0. -1.
       -4    1    3    3    0  502  0.31062878239E+02  0.22292797210E+03 -0.59686557730E+03  0.63789647547E+03  0.12699999809E+01 0.  1.
</event>
<event>
 5   0  0.4700220E-02  0.7982821E+03  0.7818609E-02  0.9562507E-01
       -2   -1    0    0    0  501  0.00000000000E+00  0.00000000000E+00  0.24187305656E+03  0.24187305657E+03  0.25500000920E-02 0.  1.
        2   -1    0    0  501    0  0.00000000000E+00  0.00000000000E+00 -0.65866609505E+03  0.65866609506E+03  0.25500000920E-02 0. -1.
    10030    2    1    2    0    0  0.00000000000E+00  0.00000000000E+00 -0.41679303849E+03  0.90053915162E+03  0.79828210970E+03 0.  0.
        4    1    3    3  502    0  0.18424393247E+03  0.18118513882E+03  0.13477122697E+03  0.29144258045E+03  0.12699999809E+01 0.  1.
       -4    1    3    3    0  502 -0.18424393247E+03 -0.18118513882E+03 -0.55156426546E+03  0.60909657117E+03  0.12699999809E+01 0. -1.
</event>
<event>
 5   0  0.2606520E-02  0.7940546E+03  0.7818609E-02  0.9568663E-01
        1   -1    0    0  501    0  0.00000000000E+00  0.00000000000E+00  0.25879572970E+04  0.25879572971E+04  0.50400001928E-02 0.  1.
       -1   -1    0    0    0  501  0.00000000000E+00  0.00000000000E+00 -0.60909299698E+02  0.60909299907E+02  0.50400001928E-02 0. -1.
    10030    2    1    2    0    0  0.00000000000E+00  0.00000000000E+00  0.25270479973E+04  0.26488665970E+04  0.79405457468E+03 0.  0.
        5    1    3    3  502    0 -0.32416894523E+03 -0.22867454586E+03  0.12128204673E+04  0.12760615694E+04  0.46999998093E+01 0.  1.
       -5    1    3    3    0  502  0.32416894523E+03  0.22867454586E+03  0.13142275300E+04  0.13728050275E+04  0.46999998093E+01 0. -1.
</event>
<event>
 5   0  0.2759559E-02  0.7901445E+03  0.7818609E-02  0.9574393E-01
       -1   -1    0    0    0  501  0.00000000000E+00  0.00000000000E+00  0.15374930747E+03  0.15374930755E+03  0.50400001928E-02 0.  1.
        1   -1    0    0  501    0  0.00000000000E+00  0.00000000000E+00 -0.10151726361E+04  0.10151726361E+04  0.50400001928E-02 0. -1.
    10030    2    1    2    0    0  0.00000000000E+00  0.00000000000E+00 -0.86142332863E+03  0.11689219437E+04  0.79014451796E+03 0.  0.
        3    1    3    3  502    0  0.65953634887E+02  0.26775423426E+03 -0.12176298560E+02  0.27602623855E+03  0.10100000352E+00 0.  1.
       -3    1    3    3    0  502 -0.65953634887E+02 -0.26775423426E+03 -0.84924703007E+03  0.89289570511E+03  0.10100000352E+00 0. -1.
</event>
<event>
 5   0  0.2769394E-02  0.7999260E+03  0.7818609E-02  0.9560124E-01
       -1   -1    0    0    0  501  0.00000000000E+00  0.00000000000E+00  0.21481596203E+03  0.21481596209E+03  0.50400001928E-02 0.  1.
        1   -1    0    0  501    0  0.00000000000E+00  0.00000000000E+00 -0.74468583484E+03  0.74468583486E+03  0.50400001928E-02 0. -1.
    10030    2    1    2    0    0  0.00000000000E+00  0.00000000000E+00 -0.52986987281E+03  0.95950179695E+03  0.79992600672E+03 0.  0.
        2    1    3    3  502    0 -0.17457973455E+03 -0.18176779174E+03  0.10758830541E+03  0.27403075976E+03  0.25500000920E-02 0.  1.
       -2    1    3    3    0  502  0.17457973455E+03  0.18176779174E+03 -0.63745817823E+03  0.68547103719E+03  0.25500000920E-02 0. -1.
</event>
<event>
 5   0  0.4700220E-02  0.7858867E+03  0.7818609E-02  0.9580673E-01
        2   -1    0    0  501    0  0.00000000000E+00  0.00000000000E+00  0.10824833070E+04  0.10824833070E+04  0.25500000920E-02 0.  1.
       -2   -1    0    0    0  501  0.00000000000E+00  0.00000000000E+00 -0.14263912125E+03  0.14263912128E+03  0.25500000920E-02 0. -1.
    10030    2    1    2    0    0  0.00000000000E+00  0.00000000000E+00  0.93984418573E+03  0.12251224283E+04  0.78588667807E+03 0.  0.
        4    1    3    3  502    0 -0.18138978496E+03  0.27364444991E+03  0.13333108379E+03  0.35434775272E+03  0.12699999809E+01 0. -1.
       -4    1    3    3    0  502  0.18138978496E+03 -0.27364444991E+03  0.80651310194E+03  0.87077467553E+03  0.12699999809E+01 0.  1.
</event>
<event>
 5   0  0.2759559E-02  0.7973741E+03  0.7818609E-02  0.9563826E-01
       -1   -1    0    0    0  501  0.00000000000E+00  0.00000000000E+00  0.36516221674E+03  0.36516221678E+03  0.50400001928E-02 0. -1.
        1   -1    0    0  501    0  0.00000000000E+00  0.00000000000E+00 -0.43528969201E+03  0.43528969204E+03  0.50400001928E-02 0.  1.
    10030    2    1    2    0    0  0.00000000000E+00  0.00000000000E+00 -0.70127475271E+02  0.80045190882E+03  0.79737406250E+03 0.  0.
        3    1    3    3  502    0  0.22313071874E+02  0.21932531434E+03  0.29840801874E+03  0.37101054235E+03  0.10100000352E+00 0. -1.
       -3    1    3    3    0  502 -0.22313071874E+02 -0.21932531434E+03 -0.36853549401E+03  0.42944136647E+03  0.10100000352E+00 0.  1.
</event>
<event>
 5   0  0.4377843E-02  0.8062513E+03  0.7818609E-02  0.9551012E-01
       -2   -1    0    0    0  501  0.00000000000E+00  0.00000000000E+00  0.13275930855E+03  0.13275930858E+03  0.25500000920E-02 0. -1.
        2   -1    0    0  501    0  0.00000000000E+00  0.00000000000E+00 -0.12240972883E+04  0.12240972883E+04  0.25500000920E-02 0.  1.
    10030    2    1    2    0    0  0.00000000000E+00  0.00000000000E+00 -0.10913379797E+04  0.13568565969E+04  0.80625134942E+03 0.  0.
        2    1    3    3  502    0  0.15050747832E+03 -0.14690439628E+03 -0.11244489363E+04  0.11439487808E+04  0.25500000920E-02 0.  1.
       -2    1    3    3    0  502 -0.15050747832E+03  0.14690439628E+03  0.33110956621E+02  0.21290781604E+03  0.25500000920E-02 0. -1.
</event>
<event>
 5   0  0.4700220E-02  0.5776059E+03  0.7818609E-02  0.9952988E-01
       -2   -1    0    0    0  501  0.00000000000E+00  0.00000000000E+00  0.81865951671E+03  0.81865951671E+03  0.25500000920E-02 0.  1.
        2   -1    0    0  501    0  0.00000000000E+00  0.00000000000E+00 -0.10188256922E+03  0.10188256925E+03  0.25500000920E-02 0. -1.
    10030    2    1    2    0    0  0.00000000000E+00  0.00000000000E+00  0.71677694749E+03  0.92054208596E+03  0.57760586872E+03 0.  0.
        4    1    3    3  502    0  0.28150277982E+03  0.25783462419E+02  0.45263273204E+03  0.53365401244E+03  0.12699999809E+01 0. -1.
       -4    1    3    3    0  502 -0.28150277982E+03 -0.25783462419E+02  0.26414421545E+03  0.38688807353E+03  0.12699999809E+01 0.  1.
</event>
<event>
 5   0  0.2606520E-02  0.7576143E+03  0.7818609E-02  0.9623480E-01
        1   -1    0    0  501    0  0.00000000000E+00  0.00000000000E+00  0.95454013150E+03  0.95454013152E+03  0.50400001928E-02 0.  1.
       -1   -1    0    0    0  501  0.00000000000E+00  0.00000000000E+00 -0.15032880087E+03  0.15032880095E+03  0.50400001928E-02 0. -1.
    10030    2    1    2    0    0  0.00000000000E+00  0.00000000000E+00  0.80421133063E+03  0.11048689325E+04  0.75761434359E+03 0.  0.
        5    1    3    3  502    0 -0.24025687308E+03  0.31317713440E+02  0.82670580035E+03  0.86149215584E+03  0.46999998093E+01 0.  1.
       -5    1    3    3    0  502  0.24025687308E+03 -0.31317713440E+02 -0.22494469714E+02  0.24337677663E+03  0.46999998093E+01 0. -1.
</event>
<event>
 5   0  0.1786500E-02  0.8084489E+03  0.7818609E-02  0.9547868E-01
       -4   -1    0    0    0  501  0.00000000000E+00  0.00000000000E+00  0.30557099586E+03  0.30557363501E+03  0.12699999809E+01 0. -1.
        4   -1    0    0  501    0  0.00000000000E+00  0.00000000000E+00 -0.53472245473E+03  0.53472396289E+03  0.12699999809E+01 0.  1.
    10030    2    1    2    0    0  0.00000000000E+00  0.00000000000E+00 -0.22915145886E+03  0.84029759790E+03  0.80844892352E+03 0.  0.
        3    1    3    3  502    0 -0.30239542797E+03  0.26314360672E+00 -0.39338617182E+03  0.49618117103E+03  0.10100000352E+00 0.  1.
       -3    1    3    3    0  502  0.30239542797E+03 -0.26314360672E+00  0.16423471296E+03  0.34411642687E+03  0.10100000352E+00 0. -1.
</event>
<event>
 5   0  0.4377843E-02  0.9223211E+03  0.7818609E-02  0.9398101E-01
        2   -1    0    0  501    0  0.00000000000E+00  0.00000000000E+00  0.29527206158E+03  0.29527206160E+03  0.25500000920E-02 0. -1.
       -2   -1    0    0    0  501  0.00000000000E+00  0.00000000000E+00 -0.72024779816E+03  0.72024779816E+03  0.25500000920E-02 0.  1.
    10030    2    1    2    0    0  0.00000000000E+00  0.00000000000E+00 -0.42497573657E+03  0.10155198598E+04  0.92232109858E+03 0.  0.
        2    1    3    3  502    0  0.61491949691E+02  0.28088065487E+03 -0.60946700302E+03  0.67388814349E+03  0.25500000920E-02 0.  1.
       -2    1    3    3    0  502 -0.61491949691E+02 -0.28088065487E+03  0.18449126645E+03  0.34163171627E+03  0.25500000920E-02 0. -1.
</event>
<event>
 5   0  0.4590462E-02  0.8079923E+03  0.7818609E-02  0.9548520E-01
       -2   -1    0    0    0  501  0.00000000000E+00  0.00000000000E+00  0.59096269383E+03  0.59096269384E+03  0.25500000920E-02 0. -1.
        2   -1    0    0  501    0  0.00000000000E+00  0.00000000000E+00 -0.27618135187E+03  0.27618135189E+03  0.25500000920E-02 0.  1.
    10030    2    1    2    0    0  0.00000000000E+00  0.00000000000E+00  0.31478134196E+03  0.86714404572E+03  0.80799226654E+03 0.  0.
        3    1    3    3  502    0 -0.81718985734E+01 -0.49225841292E+02 -0.27286135610E+03  0.27738654118E+03  0.10100000352E+00 0.  1.
       -3    1    3    3    0  502  0.81718985734E+01  0.49225841292E+02  0.58764269806E+03  0.58975750454E+03  0.10100000352E+00 0. -1.
</event>
<event>
 5   0  0.4663634E-02  0.8196847E+03  0.7818609E-02  0.9531953E-01
        2   -1    0    0  501    0  0.00000000000E+00  0.00000000000E+00  0.27833699212E+04  0.27833699212E+04  0.25500000920E-02 0.  1.
       -2   -1    0    0    0  501  0.00000000000E+00  0.00000000000E+00 -0.60347976682E+02  0.60347976735E+02  0.25500000920E-02 0. -1.
    10030    2    1    2    0    0  0.00000000000E+00  0.00000000000E+00  0.27230219445E+04  0.28437178979E+04  0.81968467883E+03 0.  0.
        5    1    3    3  502    0 -0.27508148452E+03 -0.26741691935E+03  0.86156071290E+03  0.94312808456E+03  0.46999998093E+01 0. -1.
       -5    1    3    3    0  502  0.27508148452E+03  0.26741691935E+03  0.18614612316E+04  0.19005898134E+04  0.46999998093E+01 0.  1.
</event>
<event>
 5   0  0.2769394E-02  0.8020700E+03  0.7818609E-02  0.9557026E-01
       -1   -1    0    0    0  501  0.00000000000E+00  0.00000000000E+00  0.22674240398E+03  0.22674240403E+03  0.50400001928E-02 0.  1.
        1   -1    0    0  501    0  0.00000000000E+00  0.00000000000E+00 -0.70930296847E+03  0.70930296849E+03  0.50400001928E-02 0. -1.
    10030    2    1    2    0    0  0.00000000000E+00  0.00000000000E+00 -0.48256056450E+03  0.93604537252E+03  0.80206997264E+03 0.  0.
        2    1    3    3  502    0  0.35194468580E+02  0.32804489965E+03  0.24786129705E+02  0.33085715806E+03  0.25500000920E-02 0.  1.
       -2    1    3    3    0  502 -0.35194468580E+02 -0.32804489965E+03 -0.50734669420E+03  0.60518821446E+03  0.25500000920E-02 0. -1.
</event>
<event>
 5   0  0.4377843E-02  0.8005445E+03  0.7818609E-02  0.9559229E-01
       -2   -1    0    0    0  501  0.00000000000E+00  0.00000000000E+00  0.14875840071E+03  0.14875840073E+03  0.25500000920E-02 0.  1.
        2   -1    0    0  501    0  0.00000000000E+00  0.00000000000E+00 -0.10770342323E+04  0.10770342323E+04  0.25500000920E-02 0. -1.
    10030    2    1    2    0    0  0.00000000000E+00  0.00000000000E+00 -0.92827583163E+03  0.12257926331E+04  0.80054453950E+03 0.  0.
        2    1    3    3  502    0 -0.22627753017E+03  0.17422239085E+03 -0.89359182534E+03  0.93811583104E+03  0.25500000920E-02 0. -1.
       -2    1    3    3    0  502  0.22627753017E+03 -0.17422239085E+03 -0.34684006294E+02  0.28767680204E+03  0.25500000920E-02 0.  1.
</event>
<event>
 5   0  0.2769394E-02  0.8623656E+03  0.7818609E-02  0.9473889E-01
        1   -1    0    0  501    0  0.00000000000E+00  0.00000000000E+00  0.46029125367E+03  0.46029125370E+03  0.50400001928E-02 0.  1.
       -1   -1    0    0    0  501  0.00000000000E+00  0.00000000000E+00 -0.40391514314E+03  0.40391514317E+03  0.50400001928E-02 0. -1.
    10030    2    1    2    0    0  0.00000000000E+00  0.00000000000E+00  0.56376110532E+02  0.86420639686E+03  0.86236560143E+03 0.  0.
        2    1    3    3  502    0  0.40928294218E+03  0.13542403243E+03  0.36354825627E+02  0.43263595397E+03  0.25500000920E-02 0.  1.
       -2    1    3    3    0  502 -0.40928294218E+03 -0.13542403243E+03  0.20021284905E+02  0.43157044289E+03  0.25500000920E-02 0. -1.
</event>
<event>
 5   0  0.4663634E-02  0.7679706E+03  0.7818609E-02  0.9607572E-01
        2   -1    0    0  501    0  0.00000000000E+00  0.00000000000E+00  0.92808976970E+03  0.92808976970E+03  0.25500000920E-02 0. -1.
       -2   -1    0    0    0  501  0.00000000000E+00  0.00000000000E+00 -0.15886900356E+03  0.15886900358E+03  0.25500000920E-02 0.  1.
    10030    2    1    2    0    0  0.00000000000E+00  0.00000000000E+00  0.76922076614E+03  0.10869587733E+04  0.76797056438E+03 0.  0.
        5    1    3    3  502    0  0.16042062672E+02  0.16724195391E+03 -0.10403997787E+03  0.19767049834E+03  0.46999998093E+01 0.  1.
       -5    1    3    3    0  502 -0.16042062672E+02 -0.16724195391E+03  0.87326074401E+03  0.88928827494E+03  0.46999998093E+01 0. -1.
</event>
<event>
 5   0  0.2635243E-02  0.7823224E+03  0.7818609E-02  0.9585963E-01
        1   -1    0    0  501    0  0.00000000000E+00  0.00000000000E+00  0.49965825711E+03  0.49965825713E+03  0.50400001928E-02 0. -1.
       -1   -1    0    0    0  501  0.00000000000E+00  0.00000000000E+00 -0.30622350300E+03  0.30622350304E+03  0.50400001928E-02 0.  1.
    10030    2    1    2    0    0  0.00000000000E+00  0.00000000000E+00  0.19343475410E+03  0.80588176018E+03  0.78232244458E+03 0.  0.
        1    1    3    3  502    0 -0.12853199675E+03 -0.82372290624E+02 -0.27426896727E+03  0.31389350883E+03  0.50400001928E-02 0.  1.
       -1    1    3    3    0  502  0.12853199675E+03  0.82372290624E+02  0.46770372137E+03  0.49198825135E+03  0.50400001928E-02 0. -1.
</event>
<event>
 5   0  0.2769394E-02  0.8351387E+03  0.7818609E-02  0.9510503E-01
       -1   -1    0    0    0  501  0.00000000000E+00  0.00000000000E+00  0.10986095265E+03  0.10986095276E+03  0.50400001928E-02 0. -1.
        1   -1    0    0  501    0  0.00000000000E+00  0.00000000000E+00 -0.15871349165E+04  0.15871349165E+04  0.50400001928E-02 0.  1.
    10030    2    1    2    0    0  0.00000000000E+00  0.00000000000E+00 -0.14772739639E+04  0.16969958693E+04  0.83513868074E+03 0.  0.
        2    1    3    3  502    0 -0.37510647981E+03  0.99159778803E+02 -0.10522928486E+04  0.11215425860E+04  0.25500000920E-02 0.  1.
       -2    1    3    3    0  502  0.37510647981E+03 -0.99159778803E+02 -0.42498111524E+03  0.57545328329E+03  0.25500000920E-02 0. -1.
</event>
<event>
 5   0  0.2635243E-02  0.7383381E+03  0.7818609E-02  0.9653826E-01
       -1   -1    0    0    0  501  0.00000000000E+00  0.00000000000E+00  0.51201009368E+03  0.51201009370E+03  0.50400001928E-02 0. -1.
        1   -1    0    0  501    0  0.00000000000E+00  0.00000000000E+00 -0.26617793562E+03  0.26617793566E+03  0.50400001928E-02 0.  1.
    10030    2    1    2    0    0  0.00000000000E+00  0.00000000000E+00  0.24583215806E+03  0.77818802937E+03  0.73833810623E+03 0.  0.
        1    1    3    3  502    0  0.14895774274E+03  0.20324896967E+03 -0.16143630871E+03  0.29926616012E+03  0.50400001928E-02 0.  1.
       -1    1    3    3    0  502 -0.14895774274E+03 -0.20324896967E+03  0.40726846677E+03  0.47892186925E+03  0.50400001928E-02 0. -1.
</event>
<event>
 5   0  0.4663634E-02  0.8014318E+03  0.7818609E-02  0.9557947E-01
       -2   -1    0    0    0  501  0.00000000000E+00  0.00000000000E+00  0.14071360266E+03  0.14071360268E+03  0.25500000920E-02 0.  1.
        2   -1    0    0  501    0  0.00000000000E+00  0.00000000000E+00 -0.11411350994E+04  0.11411350994E+04  0.25500000920E-02 0. -1.
    10030    2    1    2    0    0  0.00000000000E+00  0.00000000000E+00 -0.10004214967E+04  0.12818487020E+04  0.80143179615E+03 0.  0.
        5    1    3    3  502    0 -0.13292508303E+03 -0.25464819772E+03 -0.53405056111E+02  0.29221391534E+03  0.46999998093E+01 0.  1.
       -5    1    3    3    0  502  0.13292508303E+03  0.25464819772E+03 -0.94701644059E+03  0.98963478670E+03  0.46999998093E+01 0. -1.
</event>
<event>
 5   0  0.2606520E-02  0.8080587E+03  0.7818609E-02  0.9548425E-01
       -1   -1    0    0    0  501  0.00000000000E+00  0.00000000000E+00  0.40778355743E+03  0.40778355746E+03  0.50400001928E-02 0. -1.
        1   -1    0    0  501    0  0.00000000000E+00  0.00000000000E+00 -0.40030973243E+03  0.40030973246E+03  0.50400001928E-02 0.  1.
    10030    2    1    2    0    0  0.00000000000E+00  0.00000000000E+00  0.74738250019E+01  0.80809328992E+03  0.80805872754E+03 0.  0.
        5    1    3    3  502    0 -0.15225219584E+03 -0.25564917026E+03 -0.26955193837E+03  0.40151907410E+03  0.46999998093E+01 0.  1.
       -5    1    3    3    0  502  0.15225219584E+03  0.25564917026E+03  0.27702576337E+03  0.40657421581E+03  0.46999998093E+01 0. -1.
</event>
<event>
 5   0  0.2759559E-02  0.7959664E+03  0.7818609E-02  0.9565874E-01
        1   -1    0    0  501    0  0.00000000000E+00  0.00000000000E+00  0.50352676949E+03  0.50352676952E+03  0.50400001928E-02 0. -1.
       -1   -1    0    0    0  501  0.00000000000E+00  0.00000000000E+00 -0.31456248459E+03  0.31456248463E+03  0.50400001928E-02 0.  1.
    10030    2    1    2    0    0  0.00000000000E+00  0.00000000000E+00  0.18896428490E+03  0.81808925415E+03  0.79596641059E+03 0.  0.
        3    1    3    3  502    0 -0.53755133088E+01 -0.27495902589E+03  0.39015689695E+03  0.47734031518E+03  0.10100000352E+00 0. -1.
       -3    1    3    3    0  502  0.53755133088E+01  0.27495902589E+03 -0.20119261204E+03  0.34074893896E+03  0.10100000352E+00 0.  1.
</event>
<event>
 5   0  0.4684283E-02  0.7921896E+03  0.7818609E-02  0.9571392E-01
       -2   -1    0    0    0  501  0.00000000000E+00  0.00000000000E+00  0.20553528345E+03  0.20553528346E+03  0.25500000920E-02 0.  1.
        2   -1    0    0  501    0  0.00000000000E+00  0.00000000000E+00 -0.76332920915E+03  0.76332920915E+03  0.25500000920E-02 0. -1.
    10030    2    1    2    0    0  0.00000000000E+00  0.00000000000E+00 -0.55779392570E+03  0.96886449261E+03  0.79218958684E+03 0.  0.
        1    1    3    3  502    0  0.20256412013E+03  0.15947028197E+02 -0.69473229152E+03  0.72383664413E+03  0.50400001928E-02 0. -1.
       -1    1    3    3    0  502 -0.20256412013E+03 -0.15947028197E+02  0.13693836582E+03  0.24502784848E+03  0.50400001928E-02 0.  1.
</event>
<event>
 5   0  0.2635243E-02  0.8317396E+03  0.7818609E-02  0.9515179E-01
        1   -1    0    0  501    0  0.00000000000E+00  0.00000000000E+00  0.73725103007E+03  0.73725103009E+03  0.50400001928E-02 0. -1.
       -1   -1    0    0    0  501  0.00000000000E+00  0.00000000000E+00 -0.23458455127E+03  0.23458455132E+03  0.50400001928E-02 0.  1.
    10030    2    1    2    0    0  0.00000000000E+00  0.00000000000E+00  0.50266647880E+03  0.97183558141E+03  0.83173962776E+03 0.  0.
        1    1    3    3  502    0  0.22297142328E+03  0.95265491788E+02  0.64611278704E+03  0.69011122518E+03  0.50400001928E-02 0. -1.
       -1    1    3    3    0  502 -0.22297142328E+03 -0.95265491788E+02 -0.14344630823E+03  0.28172435623E+03  0.50400001928E-02 0.  1.
</event>
<event>
 5   0  0.4590462E-02  0.8026859E+03  0.7818609E-02  0.9556137E-01
       -2   -1    0    0    0  501  0.00000000000E+00  0.00000000000E+00  0.12594557273E+03  0.12594557275E+03  0.25500000920E-02 0.  1.
        2   -1    0    0  501    0  0.00000000000E+00  0.00000000000E+00 -0.12789348596E+04  0.12789348596E+04  0.25500000920E-02 0. -1.
    10030    2    1    2    0    0  0.00000000000E+00  0.00000000000E+00 -0.11529892868E+04  0.14048804323E+04  0.80268594951E+03 0.  0.
        3    1    3    3  502    0  0.54135903093E+02  0.19699622179E+02  0.11867144050E+03  0.13191547335E+03  0.10100000352E+00 0.  1.
       -3    1    3    3    0  502 -0.54135903093E+02 -0.19699622179E+02 -0.12716607273E+04  0.12729649590E+04  0.10100000352E+00 0. -1.
</event>
<event>
 5   0  0.2635243E-02  0.8058571E+03  0.7818609E-02  0.9551578E-01
        1   -1    0    0  501    0  0.00000000000E+00  0.00000000000E+00  0.18051284184E+04  0.18051284184E+04  0.50400001928E-02 0.  1.
       -1   -1    0    0    0  501  0.00000000000E+00  0.00000000000E+00 -0.89938988034E+02  0.89938988175E+02  0.50400001928E-02 0. -1.
    10030    2    1    2    0    0  0.00000000000E+00  0.00000000000E+00  0.17151894304E+04  0.18950674066E+04  0.80585711727E+03 0.  0.
        1    1    3    3  502    0  0.26076160888E+03  0.16081735927E+03  0.14730385005E+04  0.15045601563E+04  0.50400001928E-02 0.  1.
       -1    1    3    3    0  502 -0.26076160888E+03 -0.16081735927E+03  0.24215092982E+03  0.39050725031E+03  0.50400001928E-02 0. -1.
</event>
<event>
 5   0  0.2689372E-02  0.4274334E+03  0.7818609E-02  0.1034674E+00
        1   -1    0    0  501    0  0.00000000000E+00  0.00000000000E+00  0.14588546039E+03  0.14588546047E+03  0.50400001928E-02 0.  1.
       -1   -1    0    0    0  501  0.00000000000E+00  0.00000000000E+00 -0.31308687367E+03  0.31308687371E+03  0.50400001928E-02 0. -1.
    10030    2    1    2    0    0  0.00000000000E+00  0.00000000000E+00 -0.16720141328E+03  0.45897233418E+03  0.42743337603E+03 0.  0.
        4    1    3    3  502    0  0.13262876482E+03 -0.16423918255E+03 -0.11934847999E+03  0.24250890894E+03  0.12699999809E+01 0.  1.
       -4    1    3    3    0  502 -0.13262876482E+03  0.16423918255E+03 -0.47852933291E+02  0.21646342524E+03  0.12699999809E+01 0. -1.
</event>
<event>
 5   0  0.4684283E-02  0.7937865E+03  0.7818609E-02  0.9569055E-01
        2   -1    0    0  501    0  0.00000000000E+00  0.00000000000E+00  0.59903801837E+03  0.59903801837E+03  0.25500000920E-02 0. -1.
       -2   -1    0    0    0  501  0.00000000000E+00  0.00000000000E+00 -0.26296205745E+03  0.26296205747E+03  0.25500000920E-02 0.  1.
    10030    2    1    2    0    0  0.00000000000E+00  0.00000000000E+00  0.33607596091E+03  0.86200007584E+03  0.79378654514E+03 0.  0.
        1    1    3    3  502    0  0.40231791929E+02 -0.27520070427E+03 -0.13943727881E+03  0.31112180808E+03  0.50400001928E-02 0.  1.
       -1    1    3    3    0  502 -0.40231791929E+02  0.27520070427E+03  0.47551323973E+03  0.55087826776E+03  0.50400001928E-02 0. -1.
</event>
<event>
 5   0  0.2635243E-02  0.7340828E+03  0.7818609E-02  0.9660658E-01
       -1   -1    0    0    0  501  0.00000000000E+00  0.00000000000E+00  0.47898935733E+03  0.47898935736E+03  0.50400001928E-02 0.  1.
        1   -1    0    0  501    0  0.00000000000E+00  0.00000000000E+00 -0.28125754648E+03  0.28125754653E+03  0.50400001928E-02 0. -1.
    10030    2    1    2    0    0  0.00000000000E+00  0.00000000000E+00  0.19773181085E+03  0.76024690389E+03  0.73408275136E+03 0.  0.
        1    1    3    3  502    0 -0.11252482972E+03 -0.11008521266E+03 -0.24452208116E+03  0.29081203474E+03  0.50400001928E-02 0. -1.
       -1    1    3    3    0  502  0.11252482972E+03  0.11008521266E+03  0.44225389201E+03  0.46943486915E+03  0.50400001928E-02 0.  1.
</event>
<event>
 5   0  0.2635243E-02  0.7672762E+03  0.7818609E-02  0.9608630E-01
        1   -1    0    0  501    0  0.00000000000E+00  0.00000000000E+00  0.19361771149E+04  0.19361771149E+04  0.50400001928E-02 0. -1.
       -1   -1    0    0    0  501  0.00000000000E+00  0.00000000000E+00 -0.76014834979E+02  0.76014835146E+02  0.50400001928E-02 0.  1.
    10030    2    1    2    0    0  0.00000000000E+00  0.00000000000E+00  0.18601622800E+04  0.20121919501E+04  0.76727617989E+03 0.  0.
        1    1    3    3  502    0  0.35906698969E+03 -0.12041662732E+03  0.76950885286E+03  0.85765560796E+03  0.50400001928E-02 0. -1.
       -1    1    3    3    0  502 -0.35906698969E+03  0.12041662732E+03  0.10906534271E+04  0.11545363421E+04  0.50400001928E-02 0.  1.
</event>
<event>
 5   0  0.4590462E-02  0.8096927E+03  0.7818609E-02  0.9546092E-01
       -2   -1    0    0    0  501  0.00000000000E+00  0.00000000000E+00  0.35969592559E+03  0.35969592560E+03  0.25500000920E-02 0. -1.
        2   -1    0    0  501    0  0.00000000000E+00  0.00000000000E+00 -0.45566424601E+03  0.45566424602E+03  0.25500000920E-02 0.  1.
    10030    2    1    2    0    0  0.00000000000E+00  0.00000000000E+00 -0.95968320419E+02  0.81536017162E+03  0.80969271390E+03 0.  0.
        3    1    3    3  502    0 -0.13134113765E+03 -0.29230018722E+03 -0.29712379528E+03  0.43700395170E+03  0.10100000352E+00 0.  1.
       -3    1    3    3    0  502  0.13134113765E+03  0.29230018722E+03  0.20115547486E+03  0.37835621992E+03  0.10100000352E+00 0. -1.
</event>
<event>
 5   0  0.4663634E-02  0.7891069E+03  0.7818609E-02  0.9575920E-01
        2   -1    0    0  501    0  0.00000000000E+00  0.00000000000E+00  0.18067174424E+04  0.18067174424E+04  0.25500000920E-02 0. -1.
       -2   -1    0    0    0  501  0.00000000000E+00  0.00000000000E+00 -0.86163117073E+02  0.86163117110E+02  0.25500000920E-02 0.  1.
    10030    2    1    2    0    0  0.00000000000E+00  0.00000000000E+00  0.17205543253E+04  0.18928805595E+04  0.78910685346E+03 0.  0.
        5    1    3    3  502    0  0.32378075519E+03 -0.20432687128E+03  0.63186666446E+03  0.73882407880E+03  0.46999998093E+01 0.  1.
       -5    1    3    3    0  502 -0.32378075519E+03  0.20432687128E+03  0.10886876609E+04  0.11540564807E+04  0.46999998093E+01 0. -1.
</event>
<event>
 5   0  0.4377843E-02  0.8163978E+03  0.7818609E-02  0.9536581E-01
       -2   -1    0    0    0  501  0.00000000000E+00  0.00000000000E+00  0.11216559555E+03  0.11216559558E+03  0.25500000920E-02 0. -1.
        2   -1    0    0  501    0  0.00000000000E+00  0.00000000000E+00 -0.14855389020E+04  0.14855389020E+04  0.25500000920E-02 0.  1.
    10030    2    1    2    0    0  0.00000000000E+00  0.00000000000E+00 -0.13733733065E+04  0.15977044976E+04  0.81639783360E+03 0.  0.
        2    1    3    3  502    0 -0.48211879187E+01 -0.12782264495E+03  0.71930721599E+02  0.14675115376E+03  0.25500000920E-02 0. -1.
       -2    1    3    3    0  502  0.48211879187E+01  0.12782264495E+03 -0.14453040281E+04  0.14509533438E+04  0.25500000920E-02 0.  1.
</event>
<event>
 5   0  0.4377843E-02  0.8075759E+03  0.7818609E-02  0.9549116E-01
       -2   -1    0    0    0  501  0.00000000000E+00  0.00000000000E+00  0.22824638115E+03  0.22824638117E+03  0.25500000920E-02 0. -1.
        2   -1    0    0  501    0  0.00000000000E+00  0.00000000000E+00 -0.71433641913E+03  0.71433641913E+03  0.25500000920E-02 0.  1.
    10030    2    1    2    0    0  0.00000000000E+00  0.00000000000E+00 -0.48609003798E+03  0.94258280030E+03  0.80757588523E+03 0.  0.
        2    1    3    3  502    0  0.35388884532E+03 -0.89252734526E+02 -0.44467044971E+03  0.57526965357E+03  0.25500000920E-02 0.  1.
       -2    1    3    3    0  502 -0.35388884532E+03  0.89252734526E+02 -0.41419588267E+02  0.36731314673E+03  0.25500000920E-02 0. -1.
</event>
<event>
 5   0  0.4590462E-02  0.7791270E+03  0.7818609E-02  0.9590731E-01
        2   -1    0    0  501    0  0.00000000000E+00  0.00000000000E+00  0.18367216630E+04  0.18367216630E+04  0.25500000920E-02 0.  1.
       -2   -1    0    0    0  501  0.00000000000E+00  0.00000000000E+00 -0.82625315329E+02  0.82625315368E+02  0.25500000920E-02 0. -1.
    10030    2    1    2    0    0  0.00000000000E+00  0.00000000000E+00  0.17540963476E+04  0.19193469783E+04  0.77912696427E+03 0.  0.
        3    1    3    3  502    0  0.21204518501E+02  0.63439398296E+02 -0.68372873164E+02  0.95650660461E+02  0.10100000352E+00 0. -1.
       -3    1    3    3    0  502 -0.21204518501E+02 -0.63439398296E+02  0.18224692208E+04  0.18236963179E+04  0.10100000352E+00 0.  1.
</event>
<event>
 5   0  0.2769394E-02  0.7651741E+03  0.7818609E-02  0.9611841E-01
       -1   -1    0    0    0  501  0.00000000000E+00  0.00000000000E+00  0.11190080517E+03  0.11190080528E+03  0.50400001928E-02 0.  1.
        1   -1    0    0  501    0  0.00000000000E+00  0.00000000000E+00 -0.13080590538E+04  0.13080590539E+04  0.50400001928E-02 0. -1.
    10030    2    1    2    0    0  0.00000000000E+00  0.00000000000E+00 -0.11961582487E+04  0.14199598591E+04  0.76517412770E+03 0.  0.
        2    1    3    3  502    0  0.21393758726E+03 -0.46096968977E+01 -0.11866199804E+04  0.12057601413E+04  0.25500000920E-02 0. -1.
       -2    1    3    3    0  502 -0.21393758726E+03  0.46096968977E+01 -0.95382683012E+01  0.21419971783E+03  0.25500000920E-02 0.  1.
</event>
<event>
 5   0  0.4684283E-02  0.8159440E+03  0.7818609E-02  0.9537221E-01
       -2   -1    0    0    0  501  0.00000000000E+00  0.00000000000E+00  0.31833602497E+03  0.31833602498E+03  0.25500000920E-02 0. -1.
        2   -1    0    0  501    0  0.00000000000E+00  0.00000000000E+00 -0.52284734010E+03  0.52284734011E+03  0.25500000920E-02 0.  1.
    10030    2    1    2    0    0  0.00000000000E+00  0.00000000000E+00 -0.20451131513E+03  0.84118336509E+03  0.81594397828E+03 0.  0.
        1    1    3    3  502    0 -0.40445074571E+03  0.10654817135E+02 -0.48220489657E+02  0.40745447167E+03  0.50400001928E-02 0. -1.
       -1    1    3    3    0  502  0.40445074571E+03 -0.10654817135E+02 -0.15629082547E+03  0.43372889342E+03  0.50400001928E-02 0.  1.
</event>
<event>
 5   0  0.2635243E-02  0.8047593E+03  0.7818609E-02  0.9553154E-01
       -1   -1    0    0    0  501  0.00000000000E+00  0.00000000000E+00  0.25350256418E+03  0.25350256423E+03  0.50400001928E-02 0. -1.
        1   -1    0    0  501    0  0.00000000000E+00  0.00000000000E+00 -0.63868928564E+03  0.63868928566E+03  0.50400001928E-02 0.  1.
    10030    2    1    2    0    0  0.00000000000E+00  0.00000000000E+00 -0.38518672146E+03  0.89219184989E+03  0.80475927246E+03 0.  0.
        1    1    3    3  502    0 -0.13609675752E+03  0.97478272282E+02 -0.59824970593E+03  0.62123027264E+03  0.50400001928E-02 0.  1.
       -1    1    3    3    0  502  0.13609675752E+03 -0.97478272282E+02  0.21306298446E+03  0.27096157725E+03  0.50400001928E-02 0. -1.
</event>
<event>
 5   0  0.2759559E-02  0.6040577E+03  0.7818609E-02  0.9897023E-01
        1   -1    0    0  501    0  0.00000000000E+00  0.00000000000E+00  0.84779918337E+03  0.84779918338E+03  0.50400001928E-02 0.  1.
       -1   -1    0    0    0  501  0.00000000000E+00  0.00000000000E+00 -0.10759791834E+03  0.10759791846E+03  0.50400001928E-02 0. -1.
    10030    2    1    2    0    0  0.00000000000E+00  0.00000000000E+00  0.74020126503E+03  0.95539710184E+03  0.60405770375E+03 0.  0.
        3    1    3    3  502    0  0.14023577847E+03  0.26162006005E+03  0.28189307853E+03  0.40935906892E+03  0.10100000352E+00 0.  1.
       -3    1    3    3    0  502 -0.14023577847E+03 -0.26162006005E+03  0.45830818650E+03  0.54603803292E+03  0.10100000352E+00 0. -1.
</event>
<event>
 5   0  0.2689372E-02  0.7303948E+03  0.7818609E-02  0.9666620E-01
        1   -1    0    0  501    0  0.00000000000E+00  0.00000000000E+00  0.54568582248E+03  0.54568582251E+03  0.50400001928E-02 0.  1.
       -1   -1    0    0    0  501  0.00000000000E+00  0.00000000000E+00 -0.24440647343E+03  0.24440647348E+03  0.50400001928E-02 0. -1.
    10030    2    1    2    0    0  0.00000000000E+00  0.00000000000E+00  0.30127934905E+03  0.79009229599E+03  0.73039481790E+03 0.  0.
        4    1    3    3  502    0  0.59761255046E+02  0.33972551962E+02 -0.23734227709E+03  0.24710020495E+03  0.12699999809E+01 0. -1.
       -4    1    3    3    0  502 -0.59761255046E+02 -0.33972551962E+02  0.53862162614E+03  0.54299209104E+03  0.12699999809E+01 0.  1.
</event>
<event>
 5   0  0.4700220E-02  0.7761073E+03  0.7818609E-02  0.9595259E-01
       -2   -1    0    0    0  501  0.00000000000E+00  0.00000000000E+00  0.72317438866E+02  0.72317438911E+02  0.25500000920E-02 0. -1.
        2   -1    0    0  501    0  0.00000000000E+00  0.00000000000E+00 -0.20822868381E+04  0.20822868381E+04  0.25500000920E-02 0.  1.
    10030    2    1    2    0    0  0.00000000000E+00  0.00000000000E+00 -0.20099693992E+04  0.21546042770E+04  0.77610734093E+03 0.  0.
        4    1    3    3  502    0  0.41739029287E+02 -0.83928061902E+02 -0.20503804643E+04  0.20525222843E+04  0.12699999809E+01 0.  1.
       -4    1    3    3    0  502 -0.41739029287E+02  0.83928061902E+02  0.40411065144E+02  0.10208199266E+03  0.12699999809E+01 0. -1.
</event>
<event>
 5   0  0.2759559E-02  0.8198785E+03  0.7818609E-02  0.9531681E-01
       -1   -1    0    0    0  501  0.00000000000E+00  0.00000000000E+00  0.53924553268E+03  0.53924553270E+03  0.50400001928E-02 0.  1.
        1   -1    0    0  501    0  0.00000000000E+00  0.00000000000E+00 -0.31163945684E+03  0.31163945688E+03  0.50400001928E-02 0. -1.
    10030    2    1    2    0    0  0.00000000000E+00  0.00000000000E+00  0.22760607584E+03  0.85088498958E+03  0.81987849084E+03 0.  0.
        3    1    3    3  502    0  0.16571212332E+03  0.81564005245E+02  0.49361760774E+03  0.52704036623E+03  0.10100000352E+00 0.  1.
       -3    1    3    3    0  502 -0.16571212332E+03 -0.81564005245E+02 -0.26601153190E+03  0.32384462335E+03  0.10100000352E+00 0. -1.
</event>
<event>
 5   0  0.4663634E-02  0.7814217E+03  0.7818609E-02  0.9587305E-01
        2   -1    0    0  501    0  0.00000000000E+00  0.00000000000E+00  0.89502092550E+03  0.89502092550E+03  0.25500000920E-02 0.  1.
       -2   -1    0    0    0  501  0.00000000000E+00  0.00000000000E+00 -0.17056021974E+03  0.17056021976E+03  0.25500000920E-02 0. -1.
    10030    2    1    2    0    0  0.00000000000E+00  0.00000000000E+00  0.72446070576E+03  0.10655811453E+04  0.78142169343E+03 0.  0.
        5    1    3    3  502    0 -0.20430671160E+02  0.33628316307E+03  0.63197384775E+03  0.71618210836E+03  0.46999998093E+01 0.  1.
       -5    1    3    3    0  502  0.20430671160E+02 -0.33628316307E+03  0.92486858005E+02  0.34939903691E+03  0.46999998093E+01 0. -1.
</event>
<event>
 5   0  0.2759559E-02  0.7714877E+03  0.7818609E-02  0.9602230E-01
       -1   -1    0    0    0  501  0.00000000000E+00  0.00000000000E+00  0.55606963119E+03  0.55606963121E+03  0.50400001928E-02 0.  1.
        1   -1    0    0  501    0  0.00000000000E+00  0.00000000000E+00 -0.26758934329E+03  0.26758934334E+03  0.50400001928E-02 0. -1.
    10030    2    1    2    0    0  0.00000000000E+00  0.00000000000E+00  0.28848028790E+03  0.82365897455E+03  0.77148767317E+03 0.  0.
        3    1    3    3  502    0 -0.24630002257E+03 -0.16979131915E+03 -0.11575542377E+03  0.32076801821E+03  0.10100000352E+00 0. -1.
       -3    1    3    3    0  502  0.24630002257E+03  0.16979131915E+03  0.40423571167E+03  0.50289095634E+03  0.10100000352E+00 0.  1.
</event>
<event>
 5   0  0.4684283E-02  0.8172490E+03  0.7818609E-02  0.9535380E-01
       -2   -1    0    0    0  501  0.00000000000E+00  0.00000000000E+00  0.22153180708E+03  0.22153180710E+03  0.25500000920E-02 0. -1.
        2   -1    0    0  501    0  0.00000000000E+00  0.00000000000E+00 -0.75372461258E+03  0.75372461259E+03  0.25500000920E-02 0.  1.
    10030    2    1    2    0    0  0.00000000000E+00  0.00000000000E+00 -0.53219280550E+03  0.97525641968E+03  0.81724898404E+03 0.  0.
        1    1    3    3  502    0  0.69735034141E+02 -0.43343653311E+02 -0.74377908844E+03  0.74829738720E+03  0.50400001928E-02 0.  1.
       -1    1    3    3    0  502 -0.69735034141E+02  0.43343653311E+02  0.21158628294E+03  0.22695903248E+03  0.50400001928E-02 0. -1.
</event>
<event>
 5   0  0.2759559E-02  0.8096238E+03  0.7818609E-02  0.9546191E-01
        1   -1    0    0  501    0  0.00000000000E+00  0.00000000000E+00  0.13897714017E+04  0.13897714017E+04  0.50400001928E-02 0. -1.
       -1   -1    0    0    0  501  0.00000000000E+00  0.00000000000E+00 -0.11791341343E+03  0.11791341354E+03  0.50400001928E-02 0.  1.
    10030    2    1    2    0    0  0.00000000000E+00  0.00000000000E+00  0.12718579883E+04  0.15076848153E+04  0.80962383848E+03 0.  0.
        3    1    3    3  502    0  0.18417885776E+03  0.30382513325E+03  0.27463684676E+03  0.44906232423E+03  0.10100000352E+00 0.  1.
       -3    1    3    3    0  502 -0.18417885776E+03 -0.30382513325E+03  0.99722114154E+03  0.10586224911E+04  0.10100000352E+00 0. -1.
</event>
<event>
 5   0  0.4663634E-02  0.8050043E+03  0.7818609E-02  0.9552802E-01
        2   -1    0    0  501    0  0.00000000000E+00  0.00000000000E+00  0.52339156117E+03  0.52339156118E+03  0.25500000920E-02 0.  1.
       -2   -1    0    0    0  501  0.00000000000E+00  0.00000000000E+00 -0.30953494787E+03  0.30953494788E+03  0.25500000920E-02 0. -1.
    10030    2    1    2    0    0  0.00000000000E+00  0.00000000000E+00  0.21385661331E+03  0.83292650906E+03  0.80500429716E+03 0.  0.
        5    1    3    3  502    0  0.37845205661E+02  0.54688750812E+02 -0.30378170549E+03  0.31101211173E+03  0.46999998093E+01 0. -1.
       -5    1    3    3    0  502 -0.37845205661E+02 -0.54688750812E+02  0.51763831879E+03  0.52191439733E+03  0.46999998093E+01 0.  1.
</event>
<event>
 5   0  0.4590462E-02  0.7989051E+03  0.7818609E-02  0.9561603E-01
        2   -1    0    0  501    0  0.00000000000E+00  0.00000000000E+00  0.71707650206E+03  0.71707650207E+03  0.25500000920E-02 0.  1.
       -2   -1    0    0    0  501  0.00000000000E+00  0.00000000000E+00 -0.22251786547E+03  0.22251786548E+03  0.25500000920E-02 0. -1.
    10030    2    1    2    0    0  0.00000000000E+00  0.00000000000E+00  0.49455863660E+03  0.93959436755E+03  0.79890508228E+03 0.  0.
        3    1    3    3  502    0  0.25554728750E+03 -0.17982323025E+03  0.53994109004E+03  0.62384068575E+03  0.10100000352E+00 0.  1.
       -3    1    3    3    0  502 -0.25554728750E+03  0.17982323025E+03 -0.45382453444E+02  0.31575368180E+03  0.10100000352E+00 0. -1.
</event>
<event>
 5   0  0.1786500E-02  0.8083684E+03  0.7818609E-02  0.9547983E-01
        3   -1    0    0  501    0  0.00000000000E+00  0.00000000000E+00  0.55431444532E+03  0.55431445452E+03  0.10100000352E+00 0.  1.
       -3   -1    0    0    0  501  0.00000000000E+00  0.00000000000E+00 -0.29471512516E+03  0.29471514246E+03  0.10100000352E+00 0. -1.
    10030    2    1    2    0    0  0.00000000000E+00  0.00000000000E+00  0.25959932016E+03  0.84902959699E+03  0.80836838726E+03 0.  0.
        5    1    3    3  502    0 -0.18030512068E+03  0.29009548610E+03  0.35671666652E+03  0.49389695056E+03  0.46999998093E+01 0.  1.
       -5    1    3    3    0  502  0.18030512068E+03 -0.29009548610E+03 -0.97117346352E+02  0.35513264643E+03  0.46999998093E+01 0. -1.
</event>
<event>
 5   0  0.4590462E-02  0.8041145E+03  0.7818609E-02  0.9554081E-01
        2   -1    0    0  501    0  0.00000000000E+00  0.00000000000E+00  0.57376612722E+03  0.57376612722E+03  0.25500000920E-02 0. -1.
       -2   -1    0    0    0  501  0.00000000000E+00  0.00000000000E+00 -0.28173508140E+03  0.28173508141E+03  0.25500000920E-02 0.  1.
    10030    2    1    2    0    0  0.00000000000E+00  0.00000000000E+00  0.29203104582E+03  0.85550120863E+03  0.80411453552E+03 0.  0.
        3    1    3    3  502    0  0.73091336953E+02 -0.26041034530E+03  0.46250551629E+03  0.53578657530E+03  0.10100000352E+00 0. -1.
       -3    1    3    3    0  502 -0.73091336953E+02  0.26041034530E+03 -0.17047447047E+03  0.31971463332E+03  0.10100000352E+00 0.  1.
</event>
<event>
 5   0  0.2635243E-02  0.7454559E+03  0.7818609E-02  0.9642506E-01
       -1   -1    0    0    0  501  0.00000000000E+00  0.00000000000E+00  0.54049053774E+03  0.54049053777E+03  0.50400001928E-02 0. -1.
        1   -1    0    0  501    0  0.00000000000E+00  0.00000000000E+00 -0.25703713438E+03  0.25703713443E+03  0.50400001928E-02 0.  1.
    10030    2    1    2    0    0  0.00000000000E+00  0.00000000000E+00  0.28345340336E+03  0.79752767220E+03  0.74545593837E+03 0.  0.
        1    1    3    3  502    0 -0.16634767784E+03 -0.33263247953E+03  0.11529848032E+03  0.38937084630E+03  0.50400001928E-02 0. -1.
       -1    1    3    3    0  502  0.16634767784E+03  0.33263247953E+03  0.16815492304E+03  0.40815682590E+03  0.50400001928E-02 0.  1.
</event>
<event>
 5   0  0.2689372E-02  0.7938709E+03  0.7818609E-02  0.9568931E-01
        1   -1    0    0  501    0  0.00000000000E+00  0.00000000000E+00  0.82652725108E+03  0.82652725109E+03  0.50400001928E-02 0.  1.
       -1   -1    0    0    0  501  0.00000000000E+00  0.00000000000E+00 -0.19062618090E+03  0.19062618097E+03  0.50400001928E-02 0. -1.
    10030    2    1    2    0    0  0.00000000000E+00  0.00000000000E+00  0.63590107017E+03  0.10171534321E+04  0.79387085430E+03 0.  0.
        4    1    3    3  502    0  0.36305995851E+03  0.12893364770E+03  0.44030700015E+03  0.58507118051E+03  0.12699999809E+01 0.  1.
       -4    1    3    3    0  502 -0.36305995851E+03 -0.12893364770E+03  0.19559407002E+03  0.43208225155E+03  0.12699999809E+01 0. -1.
</event>
<event>
 5   0  0.2635243E-02  0.7929027E+03  0.7818609E-02  0.9570347E-01
        1   -1    0    0  501    0  0.00000000000E+00  0.00000000000E+00  0.48803645242E+03  0.48803645244E+03  0.50400001928E-02 0. -1.
       -1   -1    0    0    0  501  0.00000000000E+00  0.00000000000E+00 -0.32205313298E+03  0.32205313302E+03  0.50400001928E-02 0.  1.
    10030    2    1    2    0    0  0.00000000000E+00  0.00000000000E+00  0.16598331944E+03  0.81008958546E+03  0.79290268895E+03 0.  0.
        1    1    3    3  502    0  0.28778654626E+03 -0.46784077080E+02 -0.19146446246E+03  0.34881010089E+03  0.50400001928E-02 0.  1.
       -1    1    3    3    0  502 -0.28778654626E+03  0.46784077080E+02  0.35744778189E+03  0.46127948457E+03  0.50400001928E-02 0. -1.
</event>
<event>
 5   0  0.2606520E-02  0.7784348E+03  0.7818609E-02  0.9591767E-01
       -1   -1    0    0    0  501  0.00000000000E+00  0.00000000000E+00  0.13873105604E+03  0.13873105613E+03  0.50400001928E-02 0.  1.
        1   -1    0    0  501    0  0.00000000000E+00  0.00000000000E+00 -0.10919701745E+04  0.10919701745E+04  0.50400001928E-02 0. -1.
    10030    2    1    2    0    0  0.00000000000E+00  0.00000000000E+00 -0.95323911846E+03  0.12307012306E+04  0.77843477705E+03 0.  0.
        5    1    3    3  502    0  0.80986172982E+02  0.24376336638E+03 -0.14361087159E+02  0.25730851099E+03  0.46999998093E+01 0.  1.
       -5    1    3    3    0  502 -0.80986172982E+02 -0.24376336638E+03 -0.93887803130E+03  0.97339271964E+03  0.46999998093E+01 0. -1.
</event>
<event>
 5   0  0.2759559E-02  0.7931770E+03  0.7818609E-02  0.9569946E-01
        1   -1    0    0  501    0  0.00000000000E+00  0.00000000000E+00  0.21257840174E+03  0.21257840180E+03  0.50400001928E-02 0.  1.
       -1   -1    0    0    0  501  0.00000000000E+00  0.00000000000E+00 -0.73987969512E+03  0.73987969514E+03  0.50400001928E-02 0. -1.
    10030    2    1    2    0    0  0.00000000000E+00  0.00000000000E+00 -0.52730129338E+03  0.95245809693E+03  0.79317701203E+03 0.  0.
        3    1    3    3  502    0 -0.65953780384E+02 -0.39106204900E+03 -0.26573245237E+03  0.47738158088E+03  0.10100000352E+00 0. -1.
       -3    1    3    3    0  502  0.65953780384E+02  0.39106204900E+03 -0.26156884101E+03  0.47507651606E+03  0.10100000352E+00 0.  1.
</event>
<event>
 5   0  0.2689372E-02  0.8069949E+03  0.7818609E-02  0.9549947E-01
       -1   -1    0    0    0  501  0.00000000000E+00  0.00000000000E+00  0.46226558081E+03  0.46226558084E+03  0.50400001928E-02 0. -1.
        1   -1    0    0  501    0  0.00000000000E+00  0.00000000000E+00 -0.35220058182E+03  0.35220058186E+03  0.50400001928E-02 0.  1.
    10030    2    1    2    0    0  0.00000000000E+00  0.00000000000E+00  0.11006499899E+03  0.81446616270E+03  0.80699493566E+03 0.  0.
        4    1    3    3  502    0 -0.30631991357E+03  0.26250145773E+03  0.46607226289E+02  0.40609451018E+03  0.12699999809E+01 0. -1.
       -4    1    3    3    0  502  0.30631991357E+03 -0.26250145773E+03  0.63457772701E+02  0.40837165251E+03  0.12699999809E+01 0.  1.
</event>
<event>
 5   0  0.2769394E-02  0.8201401E+03  0.7818609E-02  0.9531314E-01
        1   -1    0    0  501    0  0.00000000000E+00  0.00000000000E+00  0.62097386646E+03  0.62097386648E+03  0.50400001928E-02 0. -1.
       -1   -1    0    0    0  501  0.00000000000E+00  0.00000000000E+00 -0.27079635621E+03  0.27079635625E+03  0.50400001928E-02 0.  1.
    10030    2    1    2    0    0  0.00000000000E+00  0.00000000000E+00  0.35017751026E+03  0.89177022274E+03  0.82014013527E+03 0.  0.
        2    1    3    3  502    0  0.13536387728E+03  0.37481413168E+03  0.28022068929E+03  0.48716798673E+03  0.25500000920E-02 0.  1.
       -2    1    3    3    0  502 -0.13536387728E+03 -0.37481413168E+03  0.69956820966E+02  0.40460223601E+03  0.25500000920E-02 0. -1.
</event>
<event>
 5   0  0.4377843E-02  0.7953994E+03  0.7818609E-02  0.9566700E-01
        2   -1    0    0  501    0  0.00000000000E+00  0.00000000000E+00  0.94191108505E+03  0.94191108505E+03  0.25500000920E-02 0. -1.
       -2   -1    0    0    0  501  0.00000000000E+00  0.00000000000E+00 -0.16791929423E+03  0.16791929425E+03  0.25500000920E-02 0.  1.
    10030    2    1    2    0    0  0.00000000000E+00  0.00000000000E+00  0.77399179082E+03  0.11098303793E+04  0.79539938306E+03 0.  0.
        2    1    3    3  502    0 -0.31813616442E+03  0.63554514470E+02  0.66027861701E+02  0.33107321539E+03  0.25500000920E-02 0.  1.
       -2    1    3    3    0  502  0.31813616442E+03 -0.63554514470E+02  0.70796392912E+03  0.77875716392E+03  0.25500000920E-02 0. -1.
</event>
<event>
 5   0  0.2606520E-02  0.7931221E+03  0.7818609E-02  0.9570026E-01
       -1   -1    0    0    0  501  0.00000000000E+00  0.00000000000E+00  0.17402149720E+03  0.17402149727E+03  0.50400001928E-02 0. -1.
        1   -1    0    0  501    0  0.00000000000E+00  0.00000000000E+00 -0.90368537955E+03  0.90368537957E+03  0.50400001928E-02 0.  1.
    10030    2    1    2    0    0  0.00000000000E+00  0.00000000000E+00 -0.72966388235E+03  0.10777068768E+04  0.79312214140E+03 0.  0.
        5    1    3    3  502    0 -0.88690677163E+02 -0.91607307754E+01  0.16018577359E+03  0.18338900529E+03  0.46999998093E+01 0. -1.
       -5    1    3    3    0  502  0.88690677163E+02  0.91607307754E+01 -0.88984965594E+03  0.89431787155E+03  0.46999998093E+01 0.  1.
</event>
<event>
 5   0  0.2759559E-02  0.8228458E+03  0.7818609E-02  0.9527525E-01
       -1   -1    0    0    0  501  0.00000000000E+00  0.00000000000E+00  0.23626259323E+03  0.23626259329E+03  0.50400001928E-02 0.  1.
        1   -1    0    0  501    0  0.00000000000E+00  0.00000000000E+00 -0.71644354854E+03  0.71644354855E+03  0.50400001928E-02 0. -1.
    10030    2    1    2    0    0  0.00000000000E+00  0.00000000000E+00 -0.48018095530E+03  0.95270614184E+03  0.82284581962E+03 0.  0.
        3    1    3    3  502    0 -0.11556354546E+03 -0.21087188046E+03  0.14643179851E+03  0.28153892240E+03  0.10100000352E+00 0.  1.
       -3    1    3    3    0  502  0.11556354546E+03  0.21087188046E+03 -0.62661275382E+03  0.67116721944E+03  0.10100000352E+00 0. -1.
</event>
<event>
 5   0  0.4377843E-02  0.7921381E+03  0.7818609E-02  0.9571467E-01
       -2   -1    0    0    0  501  0.00000000000E+00  0.00000000000E+00  0.34104598376E+03  0.34104598377E+03  0.25500000920E-02 0. -1.
        2   -1    0    0  501    0  0.00000000000E+00  0.00000000000E+00 -0.45996936578E+03  0.45996936579E+03  0.25500000920E-02 0.  1.
    10030    2    1    2    0    0  0.00000000000E+00  0.00000000000E+00 -0.11892338202E+03  0.80101534956E+03  0.79213813154E+03 0.  0.
        2    1    3    3  502    0  0.12211675214E+03  0.37427928371E+03 -0.10322745200E+03  0.40700539335E+03  0.25500000920E-02 0. -1.
       -2    1    3    3    0  502 -0.12211675214E+03 -0.37427928371E+03 -0.15695930017E+02  0.39400995621E+03  0.25500000920E-02 0.  1.
</event>
<event>
 5   0  0.2769394E-02  0.7886203E+03  0.7818609E-02  0.9576636E-01
        1   -1    0    0  501    0  0.00000000000E+00  0.00000000000E+00  0.35407105824E+03  0.35407105827E+03  0.50400001928E-02 0.  1.
       -1   -1    0    0    0  501  0.00000000000E+00  0.00000000000E+00 -0.43912233703E+03  0.43912233706E+03  0.50400001928E-02 0. -1.
    10030    2    1    2    0    0  0.00000000000E+00  0.00000000000E+00 -0.85051278797E+02  0.79319339534E+03  0.78862034109E+03 0.  0.
        2    1    3    3  502    0 -0.12039667082E+03 -0.32784329665E+02 -0.41874056428E+03  0.43693687278E+03  0.25500000920E-02 0. -1.
       -2    1    3    3    0  502  0.12039667082E+03  0.32784329665E+02  0.33368928548E+03  0.35625652256E+03  0.25500000920E-02 0.  1.
</event>
<event>
 5   0  0.2606520E-02  0.8017599E+03  0.7818609E-02  0.9557473E-01
       -1   -1    0    0    0  501  0.00000000000E+00  0.00000000000E+00  0.11880908270E+04  0.11880908271E+04  0.50400001928E-02 0.  1.
        1   -1    0    0  501    0  0.00000000000E+00  0.00000000000E+00 -0.13526299926E+03  0.13526299935E+03  0.50400001928E-02 0. -1.
    10030    2    1    2    0    0  0.00000000000E+00  0.00000000000E+00  0.10528278278E+04  0.13233538264E+04  0.80175988606E+03 0.  0.
        5    1    3    3  502    0 -0.36166765643E+03 -0.17123138252E+03  0.48739083804E+03  0.63063111172E+03  0.46999998093E+01 0.  1.
       -5    1    3    3    0  502  0.36166765643E+03  0.17123138252E+03  0.56543698974E+03  0.69272271468E+03  0.46999998093E+01 0. -1.
</event>
<event>
 5   0  0.4684283E-02  0.7983101E+03  0.7818609E-02  0.9562466E-01
       -2   -1    0    0    0  501  0.00000000000E+00  0.00000000000E+00  0.16374295438E+03  0.16374295440E+03  0.25500000920E-02 0.  1.
        2   -1    0    0  501    0  0.00000000000E+00  0.00000000000E+00 -0.97301749399E+03  0.97301749399E+03  0.25500000920E-02 0. -1.
    10030    2    1    2    0    0  0.00000000000E+00  0.00000000000E+00 -0.80927453960E+03  0.11367604484E+04  0.79831011304E+03 0.  0.
        1    1    3    3  502    0 -0.26853052189E+03  0.15701802232E+03 -0.48472665923E+02  0.31482201302E+03  0.50400001928E-02 0.  1.
       -1    1    3    3    0  502  0.26853052189E+03 -0.15701802232E+03 -0.76080187368E+03  0.82193843537E+03  0.50400001928E-02 0. -1.
</event>
<event>
 5   0  0.4377843E-02  0.8442438E+03  0.7818609E-02  0.9498095E-01
        2   -1    0    0  501    0  0.00000000000E+00  0.00000000000E+00  0.11588403057E+04  0.11588403057E+04  0.25500000920E-02 0. -1.
       -2   -1    0    0    0  501  0.00000000000E+00  0.00000000000E+00 -0.15376312361E+03  0.15376312363E+03  0.25500000920E-02 0.  1.
    10030    2    1    2    0    0  0.00000000000E+00  0.00000000000E+00  0.10050771821E+04  0.13126034293E+04  0.84424381594E+03 0.  0.
        2    1    3    3  502    0 -0.33965229451E+03  0.17478419563E+03  0.78185090688E+03  0.87017471626E+03  0.25500000920E-02 0. -1.
       -2    1    3    3    0  502  0.33965229451E+03 -0.17478419563E+03  0.22322627521E+03  0.44242871308E+03  0.25500000920E-02 0.  1.
</event>
<event>
 5   0  0.4700220E-02  0.8174406E+03  0.7818609E-02  0.9535110E-01
        2   -1    0    0  501    0  0.00000000000E+00  0.00000000000E+00  0.56401237689E+03  0.56401237689E+03  0.25500000920E-02 0. -1.
       -2   -1    0    0    0  501  0.00000000000E+00  0.00000000000E+00 -0.29618548340E+03  0.29618548341E+03  0.25500000920E-02 0.  1.
    10030    2    1    2    0    0  0.00000000000E+00  0.00000000000E+00  0.26782689348E+03  0.86019786031E+03  0.81744058744E+03 0.  0.
        4    1    3    3  502    0 -0.33036889413E+03  0.16673660877E+03  0.31649984428E+03  0.48694811556E+03  0.12699999809E+01 0. -1.
       -4    1    3    3    0  502  0.33036889413E+03 -0.16673660877E+03 -0.48672950794E+02  0.37324974475E+03  0.12699999809E+01 0.  1.
</event>
<event>
 5   0  0.4663634E-02  0.7872164E+03  0.7818609E-02  0.9578707E-01
        2   -1    0    0  501    0  0.00000000000E+00  0.00000000000E+00  0.92983390000E+03  0.92983390000E+03  0.25500000920E-02 0.  1.
       -2   -1    0    0    0  501  0.00000000000E+00  0.00000000000E+00 -0.16661839682E+03  0.16661839684E+03  0.25500000920E-02 0. -1.
    10030    2    1    2    0    0  0.00000000000E+00  0.00000000000E+00  0.76321550317E+03  0.10964522968E+04  0.78721644734E+03 0.  0.
        5    1    3    3  502    0  0.21573867923E+03  0.27937727826E+03  0.13911869158E+03  0.37943502957E+03  0.46999998093E+01 0. -1.
       -5    1    3    3    0  502 -0.21573867923E+03 -0.27937727826E+03  0.62409681160E+03  0.71701726727E+03  0.46999998093E+01 0.  1.
</event>
<event>
 5   0  0.4700220E-02  0.8054930E+03  0.7818609E-02  0.9552100E-01
       -2   -1    0    0    0  501  0.00000000000E+00  0.00000000000E+00  0.75801947708E+02  0.75801947751E+02  0.25500000920E-02 0. -1.
        2   -1    0    0  501    0  0.00000000000E+00  0.00000000000E+00 -0.21398490215E+04  0.21398490215E+04  0.25500000920E-02 0.  1.
    10030    2    1    2    0    0  0.00000000000E+00  0.00000000000E+00 -0.20640470738E+04  0.22156509692E+04  0.80549295137E+03 0.  0.
        4    1    3    3  502    0 -0.60487349734E+02  0.18274817347E+03 -0.20051083301E+04  0.20143278389E+04  0.12699999809E+01 0.  1.
       -4    1    3    3    0  502  0.60487349734E+02 -0.18274817347E+03 -0.58938743667E+02  0.20132313029E+03  0.12699999809E+01 0. -1.
</event>
<event>
 5   0  0.4684283E-02  0.7806030E+03  0.7818609E-02  0.9588526E-01
       -2   -1    0    0    0  501  0.00000000000E+00  0.00000000000E+00  0.39377596581E+03  0.39377596582E+03  0.25500000920E-02 0. -1.
        2   -1    0    0  501    0  0.00000000000E+00  0.00000000000E+00 -0.38685769950E+03  0.38685769951E+03  0.25500000920E-02 0.  1.
    10030    2    1    2    0    0  0.00000000000E+00  0.00000000000E+00  0.69182663058E+01  0.78063366533E+03  0.78060300860E+03 0.  0.
        1    1    3    3  502    0 -0.19103713447E+03 -0.33317170914E+03  0.73008177920E+02  0.39093320221E+03  0.50400001928E-02 0. -1.
       -1    1    3    3    0  502  0.19103713447E+03  0.33317170914E+03 -0.66089911614E+02  0.38970046313E+03  0.50400001928E-02 0.  1.
</event>
<event>
 5   0  0.2769394E-02  0.8354574E+03  0.7818609E-02  0.9510066E-01
        1   -1    0    0  501    0  0.00000000000E+00  0.00000000000E+00  0.12892645325E+04  0.12892645325E+04  0.50400001928E-02 0.  1.
       -1   -1    0    0    0  501  0.00000000000E+00  0.00000000000E+00 -0.13534637013E+03  0.13534637022E+03  0.50400001928E-02 0. -1.
    10030    2    1    2    0    0  0.00000000000E+00  0.00000000000E+00  0.11539181623E+04  0.14246109027E+04  0.83545741886E+03 0.  0.
        2    1    3    3  502    0 -0.11177589870E+03  0.20771732834E+03  0.11648330183E+04  0.11884764619E+04  0.25500000920E-02 0.  1.
       -2    1    3    3    0  502  0.11177589870E+03 -0.20771732834E+03 -0.10914855983E+02  0.23613444076E+03  0.25500000920E-02 0. -1.
</event>
<event>
 5   0  0.4377843E-02  0.8830073E+03  0.7818609E-02  0.9447076E-01
        2   -1    0    0  501    0  0.00000000000E+00  0.00000000000E+00  0.16510558306E+04  0.16510558306E+04  0.25500000920E-02 0.  1.
       -2   -1    0    0    0  501  0.00000000000E+00  0.00000000000E+00 -0.11806111273E+03  0.11806111276E+03  0.25500000920E-02 0. -1.
    10030    2    1    2    0    0  0.00000000000E+00  0.00000000000E+00  0.15329947179E+04  0.17691169434E+04  0.88300733534E+03 0.  0.
        2    1    3    3  502    0 -0.42707327704E+03 -0.21445216916E+02  0.54634773549E+03  0.69379199287E+03  0.25500000920E-02 0. -1.
       -2    1    3    3    0  502  0.42707327704E+03  0.21445216916E+02  0.98664698241E+03  0.10753249505E+04  0.25500000920E-02 0.  1.
</event>
<event>
 5   0  0.4590462E-02  0.8304460E+03  0.7818609E-02  0.9516964E-01
        2   -1    0    0  501    0  0.00000000000E+00  0.00000000000E+00  0.35155821874E+03  0.35155821875E+03  0.25500000920E-02 0.  1.
       -2   -1    0    0    0  501  0.00000000000E+00  0.00000000000E+00 -0.49041707949E+03  0.49041707950E+03  0.25500000920E-02 0. -1.
    10030    2    1    2    0    0  0.00000000000E+00  0.00000000000E+00 -0.13885886075E+03  0.84197529825E+03  0.83044603657E+03 0.  0.
        3    1    3    3  502    0 -0.10155634748E+03 -0.25200857638E+02  0.33797171907E+03  0.35379890903E+03  0.10100000352E+00 0.  1.
       -3    1    3    3    0  502  0.10155634748E+03  0.25200857638E+02 -0.47683057982E+03  0.48817638922E+03  0.10100000352E+00 0. -1.
</event>
<event>
 5   0  0.1786500E-02  0.8842628E+03  0.7818609E-02  0.9445470E-01
       -4   -1    0    0    0  501  0.00000000000E+00  0.00000000000E+00  0.38440666181E+03  0.38440875972E+03  0.12699999809E+01 0. -1.
        4   -1    0    0  501    0  0.00000000000E+00  0.00000000000E+00 -0.50852018752E+03  0.50852177339E+03  0.12699999809E+01 0.  1.
    10030    2    1    2    0    0  0.00000000000E+00  0.00000000000E+00 -0.12411352570E+03  0.89293053311E+03  0.88426283971E+03 0.  0.
        4    1    3    3  502    0 -0.32513984331E+03  0.47873591363E+02 -0.36071039527E+03  0.48797684434E+03  0.12699999809E+01 0.  1.
       -4    1    3    3    0  502  0.32513984331E+03 -0.47873591363E+02  0.23659686957E+03  0.40495368877E+03  0.12699999809E+01 0. -1.
</event>
<event>
 5   0  0.4684283E-02  0.8071479E+03  0.7818609E-02  0.9549728E-01
       -2   -1    0    0    0  501  0.00000000000E+00  0.00000000000E+00  0.22159462511E+03  0.22159462512E+03  0.25500000920E-02 0.  1.
        2   -1    0    0  501    0  0.00000000000E+00  0.00000000000E+00 -0.73499954725E+03  0.73499954726E+03  0.25500000920E-02 0. -1.
    10030    2    1    2    0    0  0.00000000000E+00  0.00000000000E+00 -0.51340492215E+03  0.95659417238E+03  0.80714793969E+03 0.  0.
        1    1    3    3  502    0 -0.86309905908E+02  0.24822556336E+03 -0.61968967695E+03  0.67311263984E+03  0.50400001928E-02 0. -1.
       -1    1    3    3    0  502  0.86309905908E+02 -0.24822556336E+03  0.10628475480E+03  0.28348153254E+03  0.50400001928E-02 0.  1.
</event>
<event>
 5   0  0.2635243E-02  0.7831445E+03  0.7818609E-02  0.9584740E-01
        1   -1    0    0  501    0  0.00000000000E+00  0.00000000000E+00  0.33123382847E+03  0.33123382851E+03  0.50400001928E-02 0. -1.
       -1   -1    0    0    0  501  0.00000000000E+00  0.00000000000E+00 -0.46290209574E+03  0.46290209577E+03  0.50400001928E-02 0.  1.
    10030    2    1    2    0    0  0.00000000000E+00  0.00000000000E+00 -0.13166826726E+03  0.79413592428E+03  0.78314451644E+03 0.  0.
        1    1    3    3  502    0  0.74630347305E+02  0.66810000512E+02 -0.44969099781E+03  0.46071168689E+03  0.50400001928E-02 0.  1.
       -1    1    3    3    0  502 -0.74630347305E+02 -0.66810000512E+02  0.31802273054E+03  0.33342423738E+03  0.50400001928E-02 0. -1.
</event>
<event>
 5   0  0.4377843E-02  0.8182082E+03  0.7818609E-02  0.9534029E-01
       -2   -1    0    0    0  501  0.00000000000E+00  0.00000000000E+00  0.68503815087E+03  0.68503815088E+03  0.25500000920E-02 0.  1.
        2   -1    0    0  501    0  0.00000000000E+00  0.00000000000E+00 -0.24431654989E+03  0.24431654990E+03  0.25500000920E-02 0. -1.
    10030    2    1    2    0    0  0.00000000000E+00  0.00000000000E+00  0.44072160098E+03  0.92935470078E+03  0.81820818273E+03 0.  0.
        2    1    3    3  502    0 -0.50004363068E+02  0.99943714997E+02  0.66736449273E+03  0.67665689138E+03  0.25500000920E-02 0.  1.
       -2    1    3    3    0  502  0.50004363068E+02 -0.99943714997E+02 -0.22664289174E+03  0.25269780940E+03  0.25500000920E-02 0. -1.
</event>
<event>
 5   0  0.2759559E-02  0.7794031E+03  0.7818609E-02  0.9590318E-01
        1   -1    0    0  501    0  0.00000000000E+00  0.00000000000E+00  0.32602195153E+03  0.32602195157E+03  0.50400001928E-02 0. -1.
       -1   -1    0    0    0  501  0.00000000000E+00  0.00000000000E+00 -0.46581919044E+03  0.46581919047E+03  0.50400001928E-02 0.  1.
    10030    2    1    2    0    0  0.00000000000E+00  0.00000000000E+00 -0.13979723891E+03  0.79184114204E+03  0.77940305762E+03 0.  0.
        3    1    3    3  502    0  0.14975872265E+03 -0.28055167478E+03  0.15892977034E+03  0.35552158772E+03  0.10100000352E+00 0. -1.
       -3    1    3    3    0  502 -0.14975872265E+03  0.28055167478E+03 -0.29872700925E+03  0.43631955433E+03  0.10100000352E+00 0.  1.
</event>
<event>
 5   0  0.4663634E-02  0.8100120E+03  0.7818609E-02  0.9545637E-01
       -2   -1    0    0    0  501  0.00000000000E+00  0.00000000000E+00  0.54202666068E+03  0.54202666069E+03  0.25500000920E-02 0. -1.
        2   -1    0    0  501    0  0.00000000000E+00  0.00000000000E+00 -0.30262326370E+03  0.30262326371E+03  0.25500000920E-02 0.  1.
    10030    2    1    2    0    0  0.00000000000E+00  0.00000000000E+00  0.23940339698E+03  0.84464992440E+03  0.81001204207E+03 0.  0.
        5    1    3    3  502    0 -0.30315652891E+03  0.20788903753E+02  0.39886556734E+03  0.50144978846E+03  0.46999998093E+01 0.  1.
       -5    1    3    3    0  502  0.30315652891E+03 -0.20788903753E+02 -0.15946217036E+03  0.34320013594E+03  0.46999998093E+01 0. -1.
</event>
<event>
 5   0  0.2769394E-02  0.7676389E+03  0.7818609E-02  0.9608077E-01
       -1   -1    0    0    0  501  0.00000000000E+00  0.00000000000E+00  0.17540104850E+03  0.17540104858E+03  0.50400001928E-02 0.  1.
        1   -1    0    0  501    0  0.00000000000E+00  0.00000000000E+00 -0.83988881704E+03  0.83988881706E+03  0.50400001928E-02 0. -1.
    10030    2    1    2    0    0  0.00000000000E+00  0.00000000000E+00 -0.66448776854E+03  0.10152898656E+04  0.76763892340E+03 0.  0.
        2    1    3    3  502    0  0.36350228749E+03 -0.12303470401E+02 -0.17008424918E+03  0.40151455792E+03  0.25500000920E-02 0. -1.
       -2    1    3    3    0  502 -0.36350228749E+03  0.12303470401E+02 -0.49440351936E+03  0.61377530771E+03  0.25500000920E-02 0.  1.
</event>
<event>
 5   0  0.4700220E-02  0.7925977E+03  0.7818609E-02  0.9570794E-01
       -2   -1    0    0    0  501  0.00000000000E+00  0.00000000000E+00  0.21371686489E+03  0.21371686491E+03  0.25500000920E-02 0.  1.
        2   -1    0    0  501    0  0.00000000000E+00  0.00000000000E+00 -0.73486381102E+03  0.73486381103E+03  0.25500000920E-02 0. -1.
    10030    2    1    2    0    0  0.00000000000E+00  0.00000000000E+00 -0.52114694613E+03  0.94858067593E+03  0.79259772854E+03 0.  0.
        4    1    3    3  502    0  0.13330035245E+03 -0.22955380395E+03 -0.61274027072E+03  0.66776955991E+03  0.12699999809E+01 0. -1.
       -4    1    3    3    0  502 -0.13330035245E+03  0.22955380395E+03  0.91593324591E+02  0.28081111602E+03  0.12699999809E+01 0.  1.
</event>
<event>
 5   0  0.2635243E-02  0.8136066E+03  0.7818609E-02  0.9540528E-01
        1   -1    0    0  501    0  0.00000000000E+00  0.00000000000E+00  0.78960772730E+03  0.78960772732E+03  0.50400001928E-02 0.  1.
       -1   -1    0    0    0  501  0.00000000000E+00  0.00000000000E+00 -0.20958370172E+03  0.20958370178E+03  0.50400001928E-02 0. -1.
    10030    2    1    2    0    0  0.00000000000E+00  0.00000000000E+00  0.58002402558E+03  0.99919142910E+03  0.81360656446E+03 0.  0.
        1    1    3    3  502    0 -0.40570289085E+03 -0.21083547031E+01  0.32664217734E+03  0.52085928315E+03  0.50400001928E-02 0.  1.
       -1    1    3    3    0  502  0.40570289085E+03  0.21083547031E+01  0.25338184825E+03  0.47833214595E+03  0.50400001928E-02 0. -1.
</event>
<event>
 5   0  0.4684283E-02  0.8502450E+03  0.7818609E-02  0.9490008E-01
        2   -1    0    0  501    0  0.00000000000E+00  0.00000000000E+00  0.84705862387E+03  0.84705862388E+03  0.25500000920E-02 0. -1.
       -2   -1    0    0    0  501  0.00000000000E+00  0.00000000000E+00 -0.21336083770E+03  0.21336083772E+03  0.25500000920E-02 0.  1.
    10030    2    1    2    0    0  0.00000000000E+00  0.00000000000E+00  0.63369778617E+03  0.10604194616E+04  0.85024499430E+03 0.  0.
        1    1    3    3  502    0  0.18038477813E+03 -0.10449923861E+03  0.77893405331E+03  0.80634795125E+03  0.50400001928E-02 0. -1.
       -1    1    3    3    0  502 -0.18038477813E+03  0.10449923861E+03 -0.14523626714E+03  0.25407151035E+03  0.50400001928E-02 0.  1.
</event>
<event>
 5   0  0.2689372E-02  0.7280522E+03  0.7818609E-02  0.9670426E-01
       -1   -1    0    0    0  501  0.00000000000E+00  0.00000000000E+00  0.88922068045E+02  0.88922068188E+02  0.50400001928E-02 0.  1.
        1   -1    0    0  501    0  0.00000000000E+00  0.00000000000E+00 -0.14902375760E+04  0.14902375760E+04  0.50400001928E-02 0. -1.
    10030    2    1    2    0    0  0.00000000000E+00  0.00000000000E+00 -0.14013155080E+04  0.15791596442E+04  0.72805221587E+03 0.  0.
        4    1    3    3  502    0 -0.24219092701E+02 -0.20088776271E+03 -0.44297404913E+02  0.20713843352E+03  0.12699999809E+01 0.  1.
       -4    1    3    3    0  502  0.24219092701E+02  0.20088776271E+03 -0.13570181031E+04  0.13720212107E+04  0.12699999809E+01 0. -1.
</event>
<event>
 5   0  0.1786500E-02  0.6669317E+03  0.7818609E-02  0.9775517E-01
       -3   -1    0    0    0  501  0.00000000000E+00  0.00000000000E+00  0.10538716182E+04  0.10538716230E+04  0.10100000352E+00 0.  1.
        3   -1    0    0  501    0  0.00000000000E+00  0.00000000000E+00 -0.10551517176E+03  0.10551522010E+03  0.10100000352E+00 0. -1.
    10030    2    1    2    0    0  0.00000000000E+00  0.00000000000E+00  0.94835644641E+03  0.11593868431E+04  0.66693170755E+03 0.  0.
        1    1    3    3  502    0  0.20743144868E+03 -0.34105840123E+02  0.92417750980E+03  0.94778430240E+03  0.50400001928E-02 0.  1.
       -1    1    3    3    0  502 -0.20743144868E+03  0.34105840123E+02  0.24178936612E+02  0.21160254071E+03  0.50400001928E-02 0. -1.
</event>
<event>
 5   0  0.4590462E-02  0.8115907E+03  0.7818609E-02  0.9543390E-01
       -2   -1    0    0    0  501  0.00000000000E+00  0.00000000000E+00  0.16115507985E+03  0.16115507987E+03  0.25500000920E-02 0.  1.
        2   -1    0    0  501    0  0.00000000000E+00  0.00000000000E+00 -0.10218100602E+04  0.10218100602E+04  0.25500000920E-02 0. -1.
    10030    2    1    2    0    0  0.00000000000E+00  0.00000000000E+00 -0.86065498036E+03  0.11829651401E+04  0.81159073888E+03 0.  0.
        3    1    3    3  502    0 -0.71720277333E+02 -0.39892409581E+03 -0.40170380916E+03  0.57065768451E+03  0.10100000352E+00 0.  1.
       -3    1    3    3    0  502  0.71720277333E+02  0.39892409581E+03 -0.45895117120E+03  0.61230745557E+03  0.10100000352E+00 0. -1.
</event>
<event>
 5   0  0.2759559E-02  0.7580839E+03  0.7818609E-02  0.9622753E-01
        1   -1    0    0  501    0  0.00000000000E+00  0.00000000000E+00  0.25829134627E+03  0.25829134632E+03  0.50400001928E-02 0. -1.
       -1   -1    0    0    0  501  0.00000000000E+00  0.00000000000E+00 -0.55624322977E+03  0.55624322979E+03  0.50400001928E-02 0.  1.
    10030    2    1    2    0    0  0.00000000000E+00  0.00000000000E+00 -0.29795188349E+03  0.81453457611E+03  0.75808393388E+03 0.  0.
        3    1    3    3  502    0  0.10941679077E+03 -0.27206013889E+03  0.10908370656E+03  0.31287060985E+03  0.10100000352E+00 0. -1.
       -3    1    3    3    0  502 -0.10941679077E+03  0.27206013889E+03 -0.40703559005E+03  0.50166396626E+03  0.10100000352E+00 0.  1.
</event>
<event>
 5   0  0.4684283E-02  0.7936388E+03  0.7818609E-02  0.9569271E-01
        2   -1    0    0  501    0  0.00000000000E+00  0.00000000000E+00  0.30548441112E+03  0.30548441113E+03  0.25500000920E-02 0. -1.
       -2   -1    0    0    0  501  0.00000000000E+00  0.00000000000E+00 -0.51546213239E+03  0.51546213239E+03  0.25500000920E-02 0.  1.
    10030    2    1    2    0    0  0.00000000000E+00  0.00000000000E+00 -0.20997772127E+03  0.82094654352E+03  0.79363882458E+03 0.  0.
        1    1    3    3  502    0  0.43481074762E+02 -0.99212256240E+02 -0.49987272833E+03  0.51147475031E+03  0.50400001928E-02 0.  1.
       -1    1    3    3    0  502 -0.43481074762E+02  0.99212256240E+02  0.28989500706E+03  0.30947179321E+03  0.50400001928E-02 0. -1.
</event>
<event>
 5   0  0.2689372E-02  0.7706302E+03  0.7818609E-02  0.9603529E-01
        1   -1    0    0  501    0  0.00000000000E+00  0.00000000000E+00  0.12143323277E+04  0.12143323277E+04  0.50400001928E-02 0.  1.
       -1   -1    0    0    0  501  0.00000000000E+00  0.00000000000E+00 -0.12226285733E+03  0.12226285743E+03  0.50400001928E-02 0. -1.
    10030    2    1    2    0    0  0.00000000000E+00  0.00000000000E+00  0.10920694704E+04  0.13365951851E+04  0.77063023612E+03 0.  0.
        4    1    3    3  502    0 -0.58647485727E+02  0.32732590628E+02 -0.11202829327E+03  0.13062504149E+03  0.12699999809E+01 0. -1.
       -4    1    3    3    0  502  0.58647485727E+02 -0.32732590628E+02  0.12040977636E+04  0.12059701436E+04  0.12699999809E+01 0.  1.
</event>
<event>
 5   0  0.4590462E-02  0.8030008E+03  0.7818609E-02  0.9555684E-01
        2   -1    0    0  501    0  0.00000000000E+00  0.00000000000E+00  0.18027673807E+04  0.18027673807E+04  0.25500000920E-02 0. -1.
       -2   -1    0    0    0  501  0.00000000000E+00  0.00000000000E+00 -0.89419512504E+02  0.89419512540E+02  0.25500000920E-02 0.  1.
    10030    2    1    2    0    0  0.00000000000E+00  0.00000000000E+00  0.17133478682E+04  0.18921868932E+04  0.80300082285E+03 0.  0.
        3    1    3    3  502    0 -0.30316673595E+03  0.73011624436E+02  0.26072590394E+03  0.40647112354E+03  0.10100000352E+00 0.  1.
       -3    1    3    3    0  502  0.30316673595E+03 -0.73011624436E+02  0.14526219642E+04  0.14857157697E+04  0.10100000352E+00 0. -1.
</event>
<event>
 5   0  0.2689372E-02  0.7677925E+03  0.7818609E-02  0.9607843E-01
        1   -1    0    0  501    0  0.00000000000E+00  0.00000000000E+00  0.52519399025E+03  0.52519399028E+03  0.50400001928E-02 0. -1.
       -1   -1    0    0    0  501  0.00000000000E+00  0.00000000000E+00 -0.28061316251E+03  0.28061316256E+03  0.50400001928E-02 0.  1.
    10030    2    1    2    0    0  0.00000000000E+00  0.00000000000E+00  0.24458082774E+03  0.80580715283E+03  0.76779254116E+03 0.  0.
        4    1    3    3  502    0 -0.21136747727E+03  0.12527575509E+03 -0.18727904505E+03  0.30894219342E+03  0.12699999809E+01 0.  1.
       -4    1    3    3    0  502  0.21136747727E+03 -0.12527575509E+03  0.43185987280E+03  0.49686495941E+03  0.12699999809E+01 0. -1.
</event>
<event>
 5   0  0.2606520E-02  0.7979261E+03  0.7818609E-02  0.9563024E-01
        1   -1    0    0  501    0  0.00000000000E+00  0.00000000000E+00  0.44150833949E+03  0.44150833952E+03  0.50400001928E-02 0. -1.
       -1   -1    0    0    0  501  0.00000000000E+00  0.00000000000E+00 -0.36051760314E+03  0.36051760318E+03  0.50400001928E-02 0.  1.
    10030    2    1    2    0    0  0.00000000000E+00  0.00000000000E+00  0.80990736350E+02  0.80202594270E+03  0.79792613279E+03 0.  0.
        5    1    3    3  502    0 -0.36016367257E+02 -0.12867961242E+03 -0.33732668725E+03  0.36285948422E+03  0.46999998093E+01 0.  1.
       -5    1    3    3    0  502  0.36016367257E+02  0.12867961242E+03  0.41831742360E+03  0.43916645847E+03  0.46999998093E+01 0. -1.
</event>
<event>
 5   0  0.2689372E-02  0.8138718E+03  0.7818609E-02  0.9540152E-01
        1   -1    0    0  501    0  0.00000000000E+00  0.00000000000E+00  0.51267035692E+03  0.51267035694E+03  0.50400001928E-02 0. -1.
       -1   -1    0    0    0  501  0.00000000000E+00  0.00000000000E+00 -0.32300841638E+03  0.32300841642E+03  0.50400001928E-02 0.  1.
    10030    2    1    2    0    0  0.00000000000E+00  0.00000000000E+00  0.18966194054E+03  0.83567877336E+03  0.81387183300E+03 0.  0.
        4    1    3    3  502    0 -0.35196631624E+03 -0.22328972352E+02 -0.11362683034E+03  0.37052873067E+03  0.12699999809E+01 0. -1.
       -4    1    3    3    0  502  0.35196631624E+03  0.22328972352E+02  0.30328877088E+03  0.46515004269E+03  0.12699999809E+01 0.  1.
</event>
<event>
 5   0  0.2759559E-02  0.7983742E+03  0.7818609E-02  0.9562373E-01
       -1   -1    0    0    0  501  0.00000000000E+00  0.00000000000E+00  0.20627767929E+03  0.20627767935E+03  0.50400001928E-02 0.  1.
        1   -1    0    0  501    0  0.00000000000E+00  0.00000000000E+00 -0.77250397334E+03  0.77250397335E+03  0.50400001928E-02 0. -1.
    10030    2    1    2    0    0  0.00000000000E+00  0.00000000000E+00 -0.56622629405E+03  0.97878165270E+03  0.79837416516E+03 0.  0.
        3    1    3    3  502    0 -0.46756427102E+02 -0.39121756271E+03 -0.20448877072E+03  0.44390653566E+03  0.10100000352E+00 0.  1.
       -3    1    3    3    0  502  0.46756427102E+02  0.39121756271E+03 -0.36173752333E+03  0.53487511704E+03  0.10100000352E+00 0. -1.
</event>
<event>
 5   0  0.4377843E-02  0.8026209E+03  0.7818609E-02  0.9556231E-01
        2   -1    0    0  501    0  0.00000000000E+00  0.00000000000E+00  0.74612782059E+03  0.74612782060E+03  0.25500000920E-02 0. -1.
       -2   -1    0    0    0  501  0.00000000000E+00  0.00000000000E+00 -0.21584783362E+03  0.21584783364E+03  0.25500000920E-02 0.  1.
    10030    2    1    2    0    0  0.00000000000E+00  0.00000000000E+00  0.53027998697E+03  0.96197565424E+03  0.80262089106E+03 0.  0.
        2    1    3    3  502    0  0.13715836955E+03  0.10932345851E+03  0.69775597413E+03  0.71946329744E+03  0.25500000920E-02 0. -1.
       -2    1    3    3    0  502 -0.13715836955E+03 -0.10932345851E+03 -0.16747598716E+03  0.24251235680E+03  0.25500000920E-02 0.  1.
</event>
<event>
 5   0  0.4700220E-02  0.4248285E+03  0.7818609E-02  0.1035506E+00
        2   -1    0    0  501    0  0.00000000000E+00  0.00000000000E+00  0.32568342829E+03  0.32568342830E+03  0.25500000920E-02 0.  1.
       -2   -1    0    0    0  501  0.00000000000E+00  0.00000000000E+00 -0.13853886865E+03  0.13853886867E+03  0.25500000920E-02 0. -1.
    10030    2    1    2    0    0  0.00000000000E+00  0.00000000000E+00  0.18714455964E+03  0.46422229697E+03  0.42482850046E+03 0.  0.
        4    1    3    3  502    0  0.10726865827E+02  0.37460219933E+02  0.32174038414E+03  0.32409384661E+03  0.12699999809E+01 0.  1.
       -4    1    3    3    0  502 -0.10726865827E+02 -0.37460219933E+02 -0.13459582450E+03  0.14012845036E+03  0.12699999809E+01 0. -1.
</event>
<event>
 5   0  0.4663634E-02  0.8056141E+03  0.7818609E-02  0.9551926E-01
       -2   -1    0    0    0  501  0.00000000000E+00  0.00000000000E+00  0.67808783237E+03  0.67808783238E+03  0.25500000920E-02 0. -1.
        2   -1    0    0  501    0  0.00000000000E+00  0.00000000000E+00 -0.23928100233E+03  0.23928100234E+03  0.25500000920E-02 0.  1.
    10030    2    1    2    0    0  0.00000000000E+00  0.00000000000E+00  0.43880683004E+03  0.91736883472E+03  0.80561414140E+03 0.  0.
        5    1    3    3  502    0 -0.56990625640E+02  0.15010845068E+03 -0.20123139587E+03  0.25748134507E+03  0.46999998093E+01 0.  1.
       -5    1    3    3    0  502  0.56990625640E+02 -0.15010845068E+03  0.64003822591E+03  0.65988748966E+03  0.46999998093E+01 0. -1.
</event>
<event>
 5   0  0.1786500E-02  0.7899002E+03  0.7818609E-02  0.9574752E-01
       -4   -1    0    0    0  501  0.00000000000E+00  0.00000000000E+00  0.21557298301E+03  0.21557672394E+03  0.12699999809E+01 0. -1.
        4   -1    0    0  501    0  0.00000000000E+00  0.00000000000E+00 -0.72357539758E+03  0.72357651211E+03  0.12699999809E+01 0.  1.
    10030    2    1    2    0    0  0.00000000000E+00  0.00000000000E+00 -0.50800241457E+03  0.93915323605E+03  0.78990021368E+03 0.  0.
        2    1    3    3  502    0  0.12073993894E+03  0.17014779133E+03 -0.65271185009E+03  0.68524533053E+03  0.25500000920E-02 0.  1.
       -2    1    3    3    0  502 -0.12073993894E+03 -0.17014779133E+03  0.14470943553E+03  0.25390790552E+03  0.25500000920E-02 0. -1.
</event>
<event>
 5   0  0.2689372E-02  0.6685269E+03  0.7818609E-02  0.9772623E-01
        1   -1    0    0  501    0  0.00000000000E+00  0.00000000000E+00  0.83356384295E+03  0.83356384297E+03  0.50400001928E-02 0.  1.
       -1   -1    0    0    0  501  0.00000000000E+00  0.00000000000E+00 -0.13404139039E+03  0.13404139048E+03  0.50400001928E-02 0. -1.
    10030    2    1    2    0    0  0.00000000000E+00  0.00000000000E+00  0.69952245257E+03  0.96760523345E+03  0.66852690758E+03 0.  0.
        4    1    3    3  502    0  0.19315661110E+03 -0.13915867873E+03  0.68937161851E+03  0.72932122935E+03  0.12699999809E+01 0.  1.
       -4    1    3    3    0  502 -0.19315661110E+03  0.13915867873E+03  0.10150834063E+02  0.23828400410E+03  0.12699999809E+01 0. -1.
</event>
<event>
 5   0  0.2635243E-02  0.7916682E+03  0.7818609E-02  0.9572156E-01
       -1   -1    0    0    0  501  0.00000000000E+00  0.00000000000E+00  0.12918935193E+03  0.12918935203E+03  0.50400001928E-02 0.  1.
        1   -1    0    0  501    0  0.00000000000E+00  0.00000000000E+00 -0.12128292344E+04  0.12128292344E+04  0.50400001928E-02 0. -1.
    10030    2    1    2    0    0  0.00000000000E+00  0.00000000000E+00 -0.10836398824E+04  0.13420185864E+04  0.79166817005E+03 0.  0.
        1    1    3    3  502    0  0.26767494534E+03 -0.24086261841E+02 -0.49182974588E+02  0.27321967240E+03  0.50400001928E-02 0.  1.
       -1    1    3    3    0  502 -0.26767494534E+03  0.24086261841E+02 -0.10344569078E+04  0.10687989140E+04  0.50400001928E-02 0. -1.
</event>
<event>
 5   0  0.4590462E-02  0.7961937E+03  0.7818609E-02  0.9565543E-01
       -2   -1    0    0    0  501  0.00000000000E+00  0.00000000000E+00  0.93279375115E+02  0.93279375150E+02  0.25500000920E-02 0.  1.
        2   -1    0    0  501    0  0.00000000000E+00  0.00000000000E+00 -0.16989941976E+04  0.16989941976E+04  0.25500000920E-02 0. -1.
    10030    2    1    2    0    0  0.00000000000E+00  0.00000000000E+00 -0.16057148225E+04  0.17922735728E+04  0.79619373801E+03 0.  0.
        3    1    3    3  502    0  0.33934059104E+03  0.19010210840E+03 -0.61197856660E+03  0.72512662655E+03  0.10100000352E+00 0. -1.
       -3    1    3    3    0  502 -0.33934059104E+03 -0.19010210840E+03 -0.99373625591E+03  0.10671469462E+04  0.10100000352E+00 0.  1.
</event>
<event>
 5   0  0.4684283E-02  0.8318109E+03  0.7818609E-02  0.9515080E-01
        2   -1    0    0  501    0  0.00000000000E+00  0.00000000000E+00  0.49290238249E+03  0.49290238249E+03  0.25500000920E-02 0.  1.
       -2   -1    0    0    0  501  0.00000000000E+00  0.00000000000E+00 -0.35093629810E+03  0.35093629811E+03  0.25500000920E-02 0. -1.
    10030    2    1    2    0    0  0.00000000000E+00  0.00000000000E+00  0.14196608439E+03  0.84383868061E+03  0.83181088582E+03 0.  0.
        1    1    3    3  502    0  0.28624726742E+03 -0.23520060830E+03 -0.12074854796E+03  0.38966272096E+03  0.50400001928E-02 0.  1.
       -1    1    3    3    0  502 -0.28624726742E+03  0.23520060830E+03  0.26271463235E+03  0.45417595965E+03  0.50400001928E-02 0. -1.
</event>
<event>
 5   0  0.1786500E-02  0.8020974E+03  0.7818609E-02  0.9556986E-01
        3   -1    0    0  501    0  0.00000000000E+00  0.00000000000E+00  0.51537855893E+03  0.51537856883E+03  0.10100000352E+00 0. -1.
       -3   -1    0    0    0  501  0.00000000000E+00  0.00000000000E+00 -0.31208135424E+03  0.31208137058E+03  0.10100000352E+00 0.  1.
    10030    2    1    2    0    0  0.00000000000E+00  0.00000000000E+00  0.20329720469E+03  0.82745993942E+03  0.80209737433E+03 0.  0.
        4    1    3    3  502    0 -0.26003884243E+03  0.25312031061E+03 -0.74478761804E+02  0.37045754153E+03  0.12699999809E+01 0.  1.
       -4    1    3    3    0  502  0.26003884243E+03 -0.25312031061E+03  0.27777596650E+03  0.45700239789E+03  0.12699999809E+01 0. -1.
</event>
<event>
 5   0  0.4663634E-02  0.6668416E+03  0.7818609E-02  0.9775680E-01
        2   -1    0    0  501    0  0.00000000000E+00  0.00000000000E+00  0.19998982058E+04  0.19998982058E+04  0.25500000920E-02 0. -1.
       -2   -1    0    0    0  501  0.00000000000E+00  0.00000000000E+00 -0.55587544208E+02  0.55587544266E+02  0.25500000920E-02 0.  1.
    10030    2    1    2    0    0  0.00000000000E+00  0.00000000000E+00  0.19443106616E+04  0.20554857500E+04  0.66684160034E+03 0.  0.
        5    1    3    3  502    0 -0.19780822043E+03 -0.17857778560E+01  0.17993475881E+04  0.18101947723E+04  0.46999998093E+01 0. -1.
       -5    1    3    3    0  502  0.19780822043E+03  0.17857778560E+01  0.14496307349E+03  0.24529097771E+03  0.46999998093E+01 0.  1.
</event>
<event>
 5   0  0.2759559E-02  0.7916846E+03  0.7818609E-02  0.9572132E-01
        1   -1    0    0  501    0  0.00000000000E+00  0.00000000000E+00  0.14872110676E+03  0.14872110684E+03  0.50400001928E-02 0.  1.
       -1   -1    0    0    0  501  0.00000000000E+00  0.00000000000E+00 -0.10535903979E+04  0.10535903979E+04  0.50400001928E-02 0. -1.
    10030    2    1    2    0    0  0.00000000000E+00  0.00000000000E+00 -0.90486929111E+03  0.12023115047E+04  0.79168460917E+03 0.  0.
        3    1    3    3  502    0 -0.17059657603E+03 -0.21214619561E+03 -0.88885730177E+03  0.92961094721E+03  0.10100000352E+00 0. -1.
       -3    1    3    3    0  502  0.17059657603E+03  0.21214619561E+03 -0.16011989346E+02  0.27270055752E+03  0.10100000352E+00 0.  1.
</event>
<event>
 5   0  0.1786500E-02  0.8092955E+03  0.7818609E-02  0.9546659E-01
        3   -1    0    0  501    0  0.00000000000E+00  0.00000000000E+00  0.70517046325E+03  0.70517047049E+03  0.10100000352E+00 0. -1.
       -3   -1    0    0    0  501  0.00000000000E+00  0.00000000000E+00 -0.23219888653E+03  0.23219890850E+03  0.10100000352E+00 0.  1.
    10030    2    1    2    0    0  0.00000000000E+00  0.00000000000E+00  0.47297157672E+03  0.93736937898E+03  0.80929552097E+03 0.  0.
        1    1    3    3  502    0 -0.38251521155E+03  0.27720116405E+02  0.38595667907E+03  0.54410371260E+03  0.50400001928E-02 0.  1.
       -1    1    3    3    0  502  0.38251521155E+03 -0.27720116405E+02  0.87014897652E+02  0.39326566638E+03  0.50400001928E-02 0. -1.
</event>
<event>
 5   0  0.4377843E-02  0.8158423E+03  0.7818609E-02  0.9537365E-01
        2   -1    0    0  501    0  0.00000000000E+00  0.00000000000E+00  0.74026744676E+03  0.74026744676E+03  0.25500000920E-02 0. -1.
       -2   -1    0    0    0  501  0.00000000000E+00  0.00000000000E+00 -0.22478317179E+03  0.22478317180E+03  0.25500000920E-02 0.  1.
    10030    2    1    2    0    0  0.00000000000E+00  0.00000000000E+00  0.51548427497E+03  0.96505061857E+03  0.81584230011E+03 0.  0.
        2    1    3    3  502    0  0.19501272828E+03  0.10528011978E+03 -0.14736191324E+03  0.26613793659E+03  0.25500000920E-02 0.  1.
       -2    1    3    3    0  502 -0.19501272828E+03 -0.10528011978E+03  0.66284618820E+03  0.69891268198E+03  0.25500000920E-02 0. -1.
</event>
<event>
 5   0  0.2635243E-02  0.7767617E+03  0.7818609E-02  0.9594276E-01
        1   -1    0    0  501    0  0.00000000000E+00  0.00000000000E+00  0.14119215295E+04  0.14119215295E+04  0.50400001928E-02 0.  1.
       -1   -1    0    0    0  501  0.00000000000E+00  0.00000000000E+00 -0.10683290375E+03  0.10683290387E+03  0.50400001928E-02 0. -1.
    10030    2    1    2    0    0  0.00000000000E+00  0.00000000000E+00  0.13050886257E+04  0.15187544333E+04  0.77676168019E+03 0.  0.
        1    1    3    3  502    0  0.35898952298E+03  0.86528294908E+02  0.88781610063E+03  0.96154981774E+03  0.50400001928E-02 0.  1.
       -1    1    3    3    0  502 -0.35898952298E+03 -0.86528294908E+02  0.41727252509E+03  0.55720461561E+03  0.50400001928E-02 0. -1.
</event>
<event>
 5   0  0.4590462E-02  0.8040186E+03  0.7818609E-02  0.9554218E-01
        2   -1    0    0  501    0  0.00000000000E+00  0.00000000000E+00  0.49220043613E+03  0.49220043613E+03  0.25500000920E-02 0. -1.
       -2   -1    0    0    0  501  0.00000000000E+00  0.00000000000E+00 -0.32834487270E+03  0.32834487271E+03  0.25500000920E-02 0.  1.
    10030    2    1    2    0    0  0.00000000000E+00  0.00000000000E+00  0.16385556342E+03  0.82054530885E+03  0.80401863051E+03 0.  0.
        3    1    3    3  502    0 -0.17315440621E+03  0.22934909487E+03  0.36882544777E+03  0.46756355379E+03  0.10100000352E+00 0. -1.
       -3    1    3    3    0  502  0.17315440621E+03 -0.22934909487E+03 -0.20496988435E+03  0.35298175505E+03  0.10100000352E+00 0.  1.
</event>
<event>
 5   0  0.4377843E-02  0.8054342E+03  0.7818609E-02  0.9552184E-01
       -2   -1    0    0    0  501  0.00000000000E+00  0.00000000000E+00  0.41990759822E+03  0.41990759823E+03  0.25500000920E-02 0. -1.
        2   -1    0    0  501    0  0.00000000000E+00  0.00000000000E+00 -0.38623035399E+03  0.38623035399E+03  0.25500000920E-02 0.  1.
    10030    2    1    2    0    0  0.00000000000E+00  0.00000000000E+00  0.33677244235E+02  0.80613795222E+03  0.80543419423E+03 0.  0.
        2    1    3    3  502    0  0.29353189756E+03  0.99266910078E+02  0.27429122648E+03  0.41382432414E+03  0.25500000920E-02 0. -1.
       -2    1    3    3    0  502 -0.29353189756E+03 -0.99266910078E+02 -0.24061398225E+03  0.39231362808E+03  0.25500000920E-02 0.  1.
</event>
<event>
 5   0  0.2635243E-02  0.7803681E+03  0.7818609E-02  0.9588876E-01
        1   -1    0    0  501    0  0.00000000000E+00  0.00000000000E+00  0.11324943217E+04  0.11324943218E+04  0.50400001928E-02 0. -1.
       -1   -1    0    0    0  501  0.00000000000E+00  0.00000000000E+00 -0.13443211722E+03  0.13443211731E+03  0.50400001928E-02 0.  1.
    10030    2    1    2    0    0  0.00000000000E+00  0.00000000000E+00  0.99806220452E+03  0.12669264391E+04  0.78036814255E+03 0.  0.
        1    1    3    3  502    0 -0.24233378621E+03 -0.20276396617E+03  0.12737859391E+03  0.34068195744E+03  0.50400001928E-02 0. -1.
       -1    1    3    3    0  502  0.24233378621E+03  0.20276396617E+03  0.87068361062E+03  0.92624448162E+03  0.50400001928E-02 0.  1.
</event>
<event>
 5   0  0.4663634E-02  0.8365253E+03  0.7818609E-02  0.9508603E-01
        2   -1    0    0  501    0  0.00000000000E+00  0.00000000000E+00  0.19678035812E+04  0.19678035812E+04  0.25500000920E-02 0.  1.
       -2   -1    0    0    0  501  0.00000000000E+00  0.00000000000E+00 -0.88902992498E+02  0.88902992535E+02  0.25500000920E-02 0. -1.
    10030    2    1    2    0    0  0.00000000000E+00  0.00000000000E+00  0.18789005887E+04  0.20567065737E+04  0.83652525857E+03 0.  0.
        5    1    3    3  502    0 -0.32771435093E+03 -0.14042541284E+03  0.40188352681E+03  0.53726013391E+03  0.46999998093E+01 0. -1.
       -5    1    3    3    0  502  0.32771435093E+03  0.14042541284E+03  0.14770170619E+04  0.15194464398E+04  0.46999998093E+01 0.  1.
</event>
<event>
 5   0  0.4377843E-02  0.8065389E+03  0.7818609E-02  0.9550600E-01
        2   -1    0    0  501    0  0.00000000000E+00  0.00000000000E+00  0.48058752361E+03  0.48058752362E+03  0.25500000920E-02 0. -1.
       -2   -1    0    0    0  501  0.00000000000E+00  0.00000000000E+00 -0.33839051945E+03  0.33839051946E+03  0.25500000920E-02 0.  1.
    10030    2    1    2    0    0  0.00000000000E+00  0.00000000000E+00  0.14219700416E+03  0.81897804307E+03  0.80653893089E+03 0.  0.
        2    1    3    3  502    0 -0.19102644514E+03 -0.24599583134E+03  0.33121568395E+03  0.45465248386E+03  0.25500000920E-02 0. -1.
       -2    1    3    3    0  502  0.19102644514E+03  0.24599583134E+03 -0.18901867979E+03  0.36432555921E+03  0.25500000920E-02 0.  1.
</event>
<event>
 5   0  0.1786500E-02  0.7945233E+03  0.7818609E-02  0.9567978E-01
       -4   -1    0    0    0  501  0.00000000000E+00  0.00000000000E+00  0.56683080892E+03  0.56683223165E+03  0.12699999809E+01 0. -1.
        4   -1    0    0  501    0  0.00000000000E+00  0.00000000000E+00 -0.27841640831E+03  0.27841930486E+03  0.12699999809E+01 0.  1.
    10030    2    1    2    0    0  0.00000000000E+00  0.00000000000E+00  0.28841440060E+03  0.84525153651E+03  0.79452331212E+03 0.  0.
        2    1    3    3  502    0  0.22983106054E+03  0.12505618252E+03  0.46221653452E+03  0.53113603716E+03  0.25500000920E-02 0. -1.
       -2    1    3    3    0  502 -0.22983106054E+03 -0.12505618252E+03 -0.17380213392E+03  0.31411549936E+03  0.25500000920E-02 0.  1.
</event>
<event>
 5   0  0.2635243E-02  0.7871119E+03  0.7818609E-02  0.9578862E-01
        1   -1    0    0  501    0  0.00000000000E+00  0.00000000000E+00  0.25679147813E+03  0.25679147818E+03  0.50400001928E-02 0. -1.
       -1   -1    0    0    0  501  0.00000000000E+00  0.00000000000E+00 -0.60315971570E+03  0.60315971572E+03  0.50400001928E-02 0.  1.
    10030    2    1    2    0    0  0.00000000000E+00  0.00000000000E+00 -0.34636823757E+03  0.85995119390E+03  0.78711187254E+03 0.  0.
        1    1    3    3  502    0 -0.16755579466E+03  0.15596903882E+03  0.17657373165E+03  0.28910131118E+03  0.50400001928E-02 0. -1.
       -1    1    3    3    0  502  0.16755579466E+03 -0.15596903882E+03 -0.52294196922E+03  0.57084988271E+03  0.50400001928E-02 0.  1.
</event>
<event>
 5   0  0.4700220E-02  0.7630798E+03  0.7818609E-02  0.9615051E-01
        2   -1    0    0  501    0  0.00000000000E+00  0.00000000000E+00  0.42340247174E+03  0.42340247175E+03  0.25500000920E-02 0.  1.
       -2   -1    0    0    0  501  0.00000000000E+00  0.00000000000E+00 -0.34381639179E+03  0.34381639180E+03  0.25500000920E-02 0. -1.
    10030    2    1    2    0    0  0.00000000000E+00  0.00000000000E+00  0.79586079957E+02  0.76721886355E+03  0.76307983885E+03 0.  0.
        4    1    3    3  502    0 -0.97857469726E+02 -0.22505224026E+03  0.33351888091E+03  0.41407855782E+03  0.12699999809E+01 0.  1.
       -4    1    3    3    0  502  0.97857469726E+02  0.22505224026E+03 -0.25393280095E+03  0.35314030572E+03  0.12699999809E+01 0. -1.
</event>
<event>
 5   0  0.4590462E-02  0.8029914E+03  0.7818609E-02  0.9555697E-01
        2   -1    0    0  501    0  0.00000000000E+00  0.00000000000E+00  0.20092236095E+04  0.20092236095E+04  0.25500000920E-02 0. -1.
       -2   -1    0    0    0  501  0.00000000000E+00  0.00000000000E+00 -0.80229399677E+02  0.80229399718E+02  0.25500000920E-02 0.  1.
    10030    2    1    2    0    0  0.00000000000E+00  0.00000000000E+00  0.19289942098E+04  0.20894530092E+04  0.80299141726E+03 0.  0.
        3    1    3    3  502    0 -0.13548821642E+03 -0.37214835461E+03  0.11360639914E+04  0.12031179731E+04  0.10100000352E+00 0. -1.
       -3    1    3    3    0  502  0.13548821642E+03  0.37214835461E+03  0.79293021845E+03  0.88633503607E+03  0.10100000352E+00 0.  1.
</event>
<event>
 5   0  0.1786500E-02  0.7659775E+03  0.7818609E-02  0.9610612E-01
        4   -1    0    0  501    0  0.00000000000E+00  0.00000000000E+00  0.34386588482E+03  0.34386823005E+03  0.12699999809E+01 0.  1.
       -4   -1    0    0    0  501  0.00000000000E+00  0.00000000000E+00 -0.42655797737E+03  0.42655986797E+03  0.12699999809E+01 0. -1.
    10030    2    1    2    0    0  0.00000000000E+00  0.00000000000E+00 -0.82692092554E+02  0.77042809802E+03  0.76597746184E+03 0.  0.
        2    1    3    3  502    0 -0.50183363309E+02  0.32469805891E+03 -0.23929701680E+03  0.40646065206E+03  0.25500000920E-02 0. -1.
       -2    1    3    3    0  502  0.50183363309E+02 -0.32469805891E+03  0.15660492425E+03  0.36396744596E+03  0.25500000920E-02 0.  1.
</event>
<event>
 5   0  0.4590462E-02  0.8343878E+03  0.7818609E-02  0.9511534E-01
       -2   -1    0    0    0  501  0.00000000000E+00  0.00000000000E+00  0.32909394118E+03  0.32909394119E+03  0.25500000920E-02 0.  1.
        2   -1    0    0  501    0  0.00000000000E+00  0.00000000000E+00 -0.52887868272E+03  0.52887868273E+03  0.25500000920E-02 0. -1.
    10030    2    1    2    0    0  0.00000000000E+00  0.00000000000E+00 -0.19978474154E+03  0.85797262392E+03  0.83438784773E+03 0.  0.
        3    1    3    3  502    0  0.35531801660E+03 -0.19724326541E+03 -0.19687132360E+03  0.45156851853E+03  0.10100000352E+00 0. -1.
       -3    1    3    3    0  502 -0.35531801660E+03  0.19724326541E+03 -0.29134179451E+01  0.40640410539E+03  0.10100000352E+00 0.  1.
</event>
<event>
 5   0  0.2759559E-02  0.8316277E+03  0.7818609E-02  0.9515333E-01
        1   -1    0    0  501    0  0.00000000000E+00  0.00000000000E+00  0.59355173698E+03  0.59355173701E+03  0.50400001928E-02 0. -1.
       -1   -1    0    0    0  501  0.00000000000E+00  0.00000000000E+00 -0.29129921411E+03  0.29129921416E+03  0.50400001928E-02 0.  1.
    10030    2    1    2    0    0  0.00000000000E+00  0.00000000000E+00  0.30225252287E+03  0.88485095116E+03  0.83162769205E+03 0.  0.
        3    1    3    3  502    0  0.23832889572E+03  0.16028272718E+03  0.47105204646E+03  0.55170758183E+03  0.10100000352E+00 0. -1.
       -3    1    3    3    0  502 -0.23832889572E+03 -0.16028272718E+03 -0.16879952359E+03  0.33314336934E+03  0.10100000352E+00 0.  1.
</event>
<event>
 5   0  0.2759559E-02  0.6185081E+03  0.7818609E-02  0.9867735E-01
        1   -1    0    0  501    0  0.00000000000E+00  0.00000000000E+00  0.30512201887E+03  0.30512201891E+03  0.50400001928E-02 0.  1.
       -1   -1    0    0    0  501  0.00000000000E+00  0.00000000000E+00 -0.31344205185E+03  0.31344205189E+03  0.50400001928E-02 0. -1.
    10030    2    1    2    0    0  0.00000000000E+00  0.00000000000E+00 -0.83200329793E+01  0.61856407080E+03  0.61850811372E+03 0.  0.
        3    1    3    3  502    0  0.12240330561E+03  0.13261157758E+02 -0.28787500863E+03  0.31309816085E+03  0.10100000352E+00 0. -1.
       -3    1    3    3    0  502 -0.12240330561E+03 -0.13261157758E+02  0.27955497565E+03  0.30546590995E+03  0.10100000352E+00 0.  1.
</event>
<event>
 5   0  0.4700220E-02  0.8343625E+03  0.7818609E-02  0.9511569E-01
       -2   -1    0    0    0  501  0.00000000000E+00  0.00000000000E+00  0.11886256485E+03  0.11886256487E+03  0.25500000920E-02 0.  1.
        2   -1    0    0  501    0  0.00000000000E+00  0.00000000000E+00 -0.14642136684E+04  0.14642136684E+04  0.25500000920E-02 0. -1.
    10030    2    1    2    0    0  0.00000000000E+00  0.00000000000E+00 -0.13453511035E+04  0.15830762333E+04  0.83436249228E+03 0.  0.
        4    1    3    3  502    0 -0.74276513224E+02 -0.14200616103E+03 -0.14034769399E+04  0.14125975662E+04  0.12699999809E+01 0. -1.
       -4    1    3    3    0  502  0.74276513224E+02  0.14200616103E+03  0.58125836357E+02  0.17047866711E+03  0.12699999809E+01 0.  1.
</event>
<event>
 5   0  0.2606520E-02  0.8041465E+03  0.7818609E-02  0.9554035E-01
       -1   -1    0    0    0  501  0.00000000000E+00  0.00000000000E+00  0.37588300395E+03  0.37588300398E+03  0.50400001928E-02 0. -1.
        1   -1    0    0  501    0  0.00000000000E+00  0.00000000000E+00 -0.43008832833E+03  0.43008832836E+03  0.50400001928E-02 0.  1.
    10030    2    1    2    0    0  0.00000000000E+00  0.00000000000E+00 -0.54205324381E+02  0.80597133234E+03  0.80414648626E+03 0.  0.
        5    1    3    3  502    0 -0.32494157764E+03 -0.10925086283E+03  0.18341689463E+03  0.38882724588E+03  0.46999998093E+01 0.  1.
       -5    1    3    3    0  502  0.32494157764E+03  0.10925086283E+03 -0.23762221901E+03  0.41714408646E+03  0.46999998093E+01 0. -1.
</event>
<event>
 5   0  0.1786500E-02  0.8070219E+03  0.7818609E-02  0.9549908E-01
        3   -1    0    0  501    0  0.00000000000E+00  0.00000000000E+00  0.11127897157E+04  0.11127897203E+04  0.10100000352E+00 0. -1.
       -3   -1    0    0    0  501  0.00000000000E+00  0.00000000000E+00 -0.14631792238E+03  0.14631795723E+03  0.10100000352E+00 0.  1.
    10030    2    1    2    0    0  0.00000000000E+00  0.00000000000E+00  0.96647179331E+03  0.12591076775E+04  0.80702194288E+03 0.  0.
        4    1    3    3  502    0  0.10898116194E+03 -0.25562035228E+03  0.26761393853E+02  0.27917099286E+03  0.12699999809E+01 0.  1.
       -4    1    3    3    0  502 -0.10898116194E+03  0.25562035228E+03  0.93971039945E+03  0.97993668464E+03  0.12699999809E+01 0. -1.
</event>
<event>
 5   0  0.2759559E-02  0.8510858E+03  0.7818609E-02  0.9488881E-01
       -1   -1    0    0    0  501  0.00000000000E+00  0.00000000000E+00  0.41810187837E+03  0.41810187840E+03  0.50400001928E-02 0. -1.
        1   -1    0    0  501    0  0.00000000000E+00  0.00000000000E+00 -0.43311639134E+03  0.43311639137E+03  0.50400001928E-02 0.  1.
    10030    2    1    2    0    0  0.00000000000E+00  0.00000000000E+00 -0.15014512979E+02  0.85121826977E+03  0.85108584008E+03 0.  0.
        3    1    3    3  502    0 -0.38806445727E+03  0.14659590341E+03  0.87388404521E+02  0.42393528438E+03  0.10100000352E+00 0.  1.
       -3    1    3    3    0  502  0.38806445727E+03 -0.14659590341E+03 -0.10240291750E+03  0.42728298539E+03  0.10100000352E+00 0. -1.
</event>
<event>
 5   0  0.2606520E-02  0.7810310E+03  0.7818609E-02  0.9587887E-01
        1   -1    0    0  501    0  0.00000000000E+00  0.00000000000E+00  0.10354093906E+04  0.10354093906E+04  0.50400001928E-02 0. -1.
       -1   -1    0    0    0  501  0.00000000000E+00  0.00000000000E+00 -0.14728699375E+03  0.14728699384E+03  0.50400001928E-02 0.  1.
    10030    2    1    2    0    0  0.00000000000E+00  0.00000000000E+00  0.88812239684E+03  0.11826963844E+04  0.78103095074E+03 0.  0.
        5    1    3    3  502    0  0.90538440725E+02 -0.49691115561E+02 -0.12618752047E+03  0.16313122490E+03  0.46999998093E+01 0.  1.
       -5    1    3    3    0  502 -0.90538440725E+02  0.49691115561E+02  0.10143099173E+04  0.10195651595E+04  0.46999998093E+01 0. -1.
</event>
<event>
 5   0  0.2759559E-02  0.6068228E+03  0.7818609E-02  0.9891351E-01
        1   -1    0    0  501    0  0.00000000000E+00  0.00000000000E+00  0.27672595844E+03  0.27672595848E+03  0.50400001928E-02 0.  1.
       -1   -1    0    0    0  501  0.00000000000E+00  0.00000000000E+00 -0.33267024597E+03  0.33267024601E+03  0.50400001928E-02 0. -1.
    10030    2    1    2    0    0  0.00000000000E+00  0.00000000000E+00 -0.55944287531E+02  0.60939620449E+03  0.60682284955E+03 0.  0.
        3    1    3    3  502    0  0.19812241451E+03 -0.16608076900E+03 -0.18746368279E+03  0.31933987463E+03  0.10100000352E+00 0. -1.
       -3    1    3    3    0  502 -0.19812241451E+03  0.16608076900E+03  0.13151939526E+03  0.29005632986E+03  0.10100000352E+00 0.  1.
</event>
<event>
 5   0  0.4684283E-02  0.7971712E+03  0.7818609E-02  0.9564121E-01
        2   -1    0    0  501    0  0.00000000000E+00  0.00000000000E+00  0.13916369816E+04  0.13916369816E+04  0.25500000920E-02 0. -1.
       -2   -1    0    0    0  501  0.00000000000E+00  0.00000000000E+00 -0.11416087291E+03  0.11416087294E+03  0.25500000920E-02 0.  1.
    10030    2    1    2    0    0  0.00000000000E+00  0.00000000000E+00  0.12774761086E+04  0.15057978545E+04  0.79717123032E+03 0.  0.
        1    1    3    3  502    0  0.26443489923E+03 -0.27884353135E+03  0.83856256659E+03  0.92242436493E+03  0.50400001928E-02 0.  1.
       -1    1    3    3    0  502 -0.26443489923E+03  0.27884353135E+03  0.43891354205E+03  0.58337348956E+03  0.50400001928E-02 0. -1.
</event>
<event>
 5   0  0.2769394E-02  0.9729081E+03  0.7818609E-02  0.9338768E-01
        1   -1    0    0  501    0  0.00000000000E+00  0.00000000000E+00  0.66894368608E+03  0.66894368610E+03  0.50400001928E-02 0.  1.
       -1   -1    0    0    0  501  0.00000000000E+00  0.00000000000E+00 -0.35374808840E+03  0.35374808844E+03  0.50400001928E-02 0. -1.
    10030    2    1    2    0    0  0.00000000000E+00  0.00000000000E+00  0.31519559768E+03  0.10226917745E+04  0.97290811535E+03 0.  0.
        2    1    3    3  502    0 -0.10130165946E+03  0.17292395495E+03  0.62353156745E+03  0.65494758265E+03  0.25500000920E-02 0.  1.
       -2    1    3    3    0  502  0.10130165946E+03 -0.17292395495E+03 -0.30833596977E+03  0.36774419189E+03  0.25500000920E-02 0. -1.
</event>
<event>
 5   0  0.2759559E-02  0.7432244E+03  0.7818609E-02  0.9646041E-01
       -1   -1    0    0    0  501  0.00000000000E+00  0.00000000000E+00  0.45563552777E+03  0.45563552780E+03  0.50400001928E-02 0. -1.
        1   -1    0    0  501    0  0.00000000000E+00  0.00000000000E+00 -0.30308355724E+03  0.30308355728E+03  0.50400001928E-02 0.  1.
    10030    2    1    2    0    0  0.00000000000E+00  0.00000000000E+00  0.15255197053E+03  0.75871908508E+03  0.74322442530E+03 0.  0.
        3    1    3    3  502    0 -0.31476874053E+03 -0.18428946982E+03  0.14884712530E+03  0.39395107007E+03  0.10100000352E+00 0. -1.
       -3    1    3    3    0  502  0.31476874053E+03  0.18428946982E+03  0.37048452300E+01  0.36476801501E+03  0.10100000352E+00 0.  1.
</event>
<event>
 5   0  0.2769394E-02  0.7996085E+03  0.7818609E-02  0.9560584E-01
       -1   -1    0    0    0  501  0.00000000000E+00  0.00000000000E+00  0.55257736208E+03  0.55257736210E+03  0.50400001928E-02 0. -1.
        1   -1    0    0  501    0  0.00000000000E+00  0.00000000000E+00 -0.28926889268E+03  0.28926889273E+03  0.50400001928E-02 0.  1.
    10030    2    1    2    0    0  0.00000000000E+00  0.00000000000E+00  0.26330846939E+03  0.84184625483E+03  0.79960850841E+03 0.  0.
        2    1    3    3  502    0 -0.24518173977E+03 -0.36616422597E+02  0.46189277361E+03  0.52421348919E+03  0.25500000920E-02 0. -1.
       -2    1    3    3    0  502  0.24518173977E+03  0.36616422597E+02 -0.19858430422E+03  0.31763276564E+03  0.25500000920E-02 0.  1.
</event>
<event>
 5   0  0.2759559E-02  0.8006286E+03  0.7818609E-02  0.9559108E-01
        1   -1    0    0  501    0  0.00000000000E+00  0.00000000000E+00  0.14460122848E+04  0.14460122848E+04  0.50400001928E-02 0.  1.
       -1   -1    0    0    0  501  0.00000000000E+00  0.00000000000E+00 -0.11082308053E+03  0.11082308064E+03  0.50400001928E-02 0. -1.
    10030    2    1    2    0    0  0.00000000000E+00  0.00000000000E+00  0.13351892042E+04  0.15568353654E+04  0.80062859297E+03 0.  0.
        3    1    3    3  502    0  0.38018944647E+03 -0.10405499419E+03  0.80343362928E+03  0.89491735031E+03  0.10100000352E+00 0.  1.
       -3    1    3    3    0  502 -0.38018944647E+03  0.10405499419E+03  0.53175557495E+03  0.66191801510E+03  0.10100000352E+00 0. -1.
</event>
<event>
 5   0  0.4663634E-02  0.8002282E+03  0.7818609E-02  0.9559687E-01
       -2   -1    0    0    0  501  0.00000000000E+00  0.00000000000E+00  0.29920745190E+03  0.29920745191E+03  0.25500000920E-02 0.  1.
        2   -1    0    0  501    0  0.00000000000E+00  0.00000000000E+00 -0.53505114607E+03  0.53505114608E+03  0.25500000920E-02 0. -1.
    10030    2    1    2    0    0  0.00000000000E+00  0.00000000000E+00 -0.23584369418E+03  0.83425859799E+03  0.80022819260E+03 0.  0.
        5    1    3    3  502    0  0.39623395625E+03  0.51015741148E+02 -0.14040867662E+03  0.42348629305E+03  0.46999998093E+01 0.  1.
       -5    1    3    3    0  502 -0.39623395625E+03 -0.51015741148E+02 -0.95435017564E+02  0.41077230494E+03  0.46999998093E+01 0. -1.
</event>
<event>
 5   0  0.4684283E-02  0.8066676E+03  0.7818609E-02  0.9550416E-01
        2   -1    0    0  501    0  0.00000000000E+00  0.00000000000E+00  0.12178395946E+04  0.12178395946E+04  0.25500000920E-02 0.  1.
       -2   -1    0    0    0  501  0.00000000000E+00  0.00000000000E+00 -0.13357930267E+03  0.13357930269E+03  0.25500000920E-02 0. -1.
    10030    2    1    2    0    0  0.00000000000E+00  0.00000000000E+00  0.10842602920E+04  0.13514188973E+04  0.80666762381E+03 0.  0.
        1    1    3    3  502    0  0.35201298912E+03  0.18419683192E+03  0.42562018940E+03  0.58223205257E+03  0.50400001928E-02 0.  1.
       -1    1    3    3    0  502 -0.35201298912E+03 -0.18419683192E+03  0.65864010255E+03  0.76918684474E+03  0.50400001928E-02 0. -1.
</event>
<event>
 5   0  0.2635243E-02  0.8011156E+03  0.7818609E-02  0.9558404E-01
        1   -1    0    0  501    0  0.00000000000E+00  0.00000000000E+00  0.74330413018E+03  0.74330413020E+03  0.50400001928E-02 0.  1.
       -1   -1    0    0    0  501  0.00000000000E+00  0.00000000000E+00 -0.21585586891E+03  0.21585586897E+03  0.50400001928E-02 0. -1.
    10030    2    1    2    0    0  0.00000000000E+00  0.00000000000E+00  0.52744826127E+03  0.95915999917E+03  0.80111561943E+03 0.  0.
        1    1    3    3  502    0  0.13615673865E+03 -0.20661584319E+03  0.64085375139E+03  0.68696600704E+03  0.50400001928E-02 0.  1.
       -1    1    3    3    0  502 -0.13615673865E+03  0.20661584319E+03 -0.11340549012E+03  0.27219399213E+03  0.50400001928E-02 0. -1.
</event>
<event>
 5   0  0.4377843E-02  0.7736861E+03  0.7818609E-02  0.9598906E-01
        2   -1    0    0  501    0  0.00000000000E+00  0.00000000000E+00  0.32751352673E+03  0.32751352674E+03  0.25500000920E-02 0.  1.
       -2   -1    0    0    0  501  0.00000000000E+00  0.00000000000E+00 -0.45692013893E+03  0.45692013893E+03  0.25500000920E-02 0. -1.
    10030    2    1    2    0    0  0.00000000000E+00  0.00000000000E+00 -0.12940661219E+03  0.78443366567E+03  0.77368605039E+03 0.  0.
        2    1    3    3  502    0  0.65507823461E+02 -0.37280632364E+03  0.16228454769E+02  0.37886566568E+03  0.25500000920E-02 0.  1.
       -2    1    3    3    0  502 -0.65507823461E+02  0.37280632364E+03 -0.14563506696E+03  0.40556799999E+03  0.25500000920E-02 0. -1.
</event>
<event>
 5   0  0.4663634E-02  0.8061258E+03  0.7818609E-02  0.9551192E-01
        2   -1    0    0  501    0  0.00000000000E+00  0.00000000000E+00  0.92983200426E+02  0.92983200461E+02  0.25500000920E-02 0.  1.
       -2   -1    0    0    0  501  0.00000000000E+00  0.00000000000E+00 -0.17471941643E+04  0.17471941643E+04  0.25500000920E-02 0. -1.
    10030    2    1    2    0    0  0.00000000000E+00  0.00000000000E+00 -0.16542109639E+04  0.18401773648E+04  0.80612580953E+03 0.  0.
        5    1    3    3  502    0  0.16634331283E+03 -0.15287140410E+03 -0.65210233268E+02  0.23518977111E+03  0.46999998093E+01 0.  1.
       -5    1    3    3    0  502 -0.16634331283E+03  0.15287140410E+03 -0.15890007306E+04  0.16049875937E+04  0.46999998093E+01 0. -1.
</event>
<event>
 5   0  0.2769394E-02  0.8052452E+03  0.7818609E-02  0.9552456E-01
       -1   -1    0    0    0  501  0.00000000000E+00  0.00000000000E+00  0.21169549595E+03  0.21169549601E+03  0.50400001928E-02 0.  1.
        1   -1    0    0  501    0  0.00000000000E+00  0.00000000000E+00 -0.76574586752E+03  0.76574586754E+03  0.50400001928E-02 0. -1.
    10030    2    1    2    0    0  0.00000000000E+00  0.00000000000E+00 -0.55405037157E+03  0.97744136355E+03  0.80524518312E+03 0.  0.
        2    1    3    3  502    0  0.70894982101E+02  0.21407253829E+03 -0.68189565722E+03  0.71821642802E+03  0.25500000920E-02 0. -1.
       -2    1    3    3    0  502 -0.70894982101E+02 -0.21407253829E+03  0.12784528564E+03  0.25922493554E+03  0.25500000920E-02 0.  1.
</event>
<event>
 5   0  0.4377843E-02  0.8005455E+03  0.7818609E-02  0.9559228E-01
        2   -1    0    0  501    0  0.00000000000E+00  0.00000000000E+00  0.53271308657E+03  0.53271308658E+03  0.25500000920E-02 0. -1.
       -2   -1    0    0    0  501  0.00000000000E+00  0.00000000000E+00 -0.30075906177E+03  0.30075906178E+03  0.25500000920E-02 0.  1.
    10030    2    1    2    0    0  0.00000000000E+00  0.00000000000E+00  0.23195402480E+03  0.83347214836E+03  0.80054553429E+03 0.  0.
        2    1    3    3  502    0 -0.81767037568E+02  0.33895374366E+03 -0.88685990754E+02  0.35977867326E+03  0.25500000920E-02 0.  1.
       -2    1    3    3    0  502  0.81767037568E+02 -0.33895374366E+03  0.32064001556E+03  0.47369347510E+03  0.25500000920E-02 0. -1.
</event>
<event>
 5   0  0.4590462E-02  0.8694559E+03  0.7818609E-02  0.9464590E-01
       -2   -1    0    0    0  501  0.00000000000E+00  0.00000000000E+00  0.14146490077E+03  0.14146490080E+03  0.25500000920E-02 0. -1.
        2   -1    0    0  501    0  0.00000000000E+00  0.00000000000E+00 -0.13359382463E+04  0.13359382463E+04  0.25500000920E-02 0.  1.
    10030    2    1    2    0    0  0.00000000000E+00  0.00000000000E+00 -0.11944733455E+04  0.14774031471E+04  0.86945585621E+03 0.  0.
        3    1    3    3  502    0 -0.18910936889E+03  0.33453404555E+03 -0.94261473252E+03  0.10179380753E+04  0.10100000352E+00 0.  1.
       -3    1    3    3    0  502  0.18910936889E+03 -0.33453404555E+03 -0.25185861303E+03  0.45946507179E+03  0.10100000352E+00 0. -1.
</event>
<event>
 5   0  0.2606520E-02  0.7866487E+03  0.7818609E-02  0.9579546E-01
        1   -1    0    0  501    0  0.00000000000E+00  0.00000000000E+00  0.13603536843E+04  0.13603536844E+04  0.50400001928E-02 0. -1.
       -1   -1    0    0    0  501  0.00000000000E+00  0.00000000000E+00 -0.11372338960E+03  0.11372338971E+03  0.50400001928E-02 0.  1.
    10030    2    1    2    0    0  0.00000000000E+00  0.00000000000E+00  0.12466302947E+04  0.14740770741E+04  0.78664866906E+03 0.  0.
        5    1    3    3  502    0 -0.11030811265E+03 -0.37170640210E+03  0.49974750089E+03  0.63253710067E+03  0.46999998093E+01 0.  1.
       -5    1    3    3    0  502  0.11030811265E+03  0.37170640210E+03  0.74688279385E+03  0.84153997340E+03  0.46999998093E+01 0. -1.
</event>
<event>
 5   0  0.2606520E-02  0.7491551E+03  0.7818609E-02  0.9636677E-01
        1   -1    0    0  501    0  0.00000000000E+00  0.00000000000E+00  0.90349433866E+03  0.90349433867E+03  0.50400001928E-02 0.  1.
       -1   -1    0    0    0  501  0.00000000000E+00  0.00000000000E+00 -0.15529520191E+03  0.15529520199E+03  0.50400001928E-02 0. -1.
    10030    2    1    2    0    0  0.00000000000E+00  0.00000000000E+00  0.74819913675E+03  0.10587895407E+04  0.74915508621E+03 0.  0.
        5    1    3    3  502    0 -0.47457058560E+02 -0.18164865613E+03 -0.83948229319E+02  0.20571291132E+03  0.46999998093E+01 0. -1.
       -5    1    3    3    0  502  0.47457058560E+02  0.18164865613E+03  0.83214736607E+03  0.85307662934E+03  0.46999998093E+01 0.  1.
</event>
<event>
 5   0  0.4684283E-02  0.7683876E+03  0.7818609E-02  0.9606937E-01
       -2   -1    0    0    0  501  0.00000000000E+00  0.00000000000E+00  0.13486818346E+03  0.13486818348E+03  0.25500000920E-02 0. -1.
        2   -1    0    0  501    0  0.00000000000E+00  0.00000000000E+00 -0.10944379613E+04  0.10944379613E+04  0.25500000920E-02 0.  1.
    10030    2    1    2    0    0  0.00000000000E+00  0.00000000000E+00 -0.95956977785E+03  0.12293061448E+04  0.76838755784E+03 0.  0.
        1    1    3    3  502    0  0.13819113210E+02  0.22012985911E+03 -0.98305647526E+03  0.10074959833E+04  0.50400001928E-02 0.  1.
       -1    1    3    3    0  502 -0.13819113210E+02 -0.22012985911E+03  0.23486697412E+02  0.22181016150E+03  0.50400001928E-02 0. -1.
</event>
<event>
 5   0  0.2689372E-02  0.8279279E+03  0.7818609E-02  0.9520450E-01
       -1   -1    0    0    0  501  0.00000000000E+00  0.00000000000E+00  0.76046889759E+03  0.76046889760E+03  0.50400001928E-02 0.  1.
        1   -1    0    0  501    0  0.00000000000E+00  0.00000000000E+00 -0.22534273393E+03  0.22534273399E+03  0.50400001928E-02 0. -1.
    10030    2    1    2    0    0  0.00000000000E+00  0.00000000000E+00  0.53512616365E+03  0.98581163159E+03  0.82792787243E+03 0.  0.
        4    1    3    3  502    0 -0.31595538345E+03 -0.26348491856E+03  0.32228882490E+03  0.52261248186E+03  0.12699999809E+01 0. -1.
       -4    1    3    3    0  502  0.31595538345E+03  0.26348491856E+03  0.21283733875E+03  0.46319914973E+03  0.12699999809E+01 0.  1.
</event>
<event>
 5   0  0.2769394E-02  0.7831874E+03  0.7818609E-02  0.9584677E-01
        1   -1    0    0  501    0  0.00000000000E+00  0.00000000000E+00  0.85869749615E+03  0.85869749617E+03  0.50400001928E-02 0. -1.
       -1   -1    0    0    0  501  0.00000000000E+00  0.00000000000E+00 -0.17857931131E+03  0.17857931138E+03  0.50400001928E-02 0.  1.
    10030    2    1    2    0    0  0.00000000000E+00  0.00000000000E+00  0.68011818485E+03  0.10372768075E+04  0.78318735314E+03 0.  0.
        2    1    3    3  502    0  0.28160665909E+03  0.21900542056E+03  0.12617319376E+03  0.37839841373E+03  0.25500000920E-02 0.  1.
       -2    1    3    3    0  502 -0.28160665909E+03 -0.21900542056E+03  0.55394499109E+03  0.65887839382E+03  0.25500000920E-02 0. -1.
</event>
<event>
 5   0  0.4700220E-02  0.1059109E+04  0.7818609E-02  0.9245990E-01
       -2   -1    0    0    0  501  0.00000000000E+00  0.00000000000E+00  0.76372557024E+03  0.76372557024E+03  0.25500000920E-02 0.  1.
        2   -1    0    0  501    0  0.00000000000E+00  0.00000000000E+00 -0.36718414847E+03  0.36718414847E+03  0.25500000920E-02 0. -1.
    10030    2    1    2    0    0  0.00000000000E+00  0.00000000000E+00  0.39654142177E+03  0.11309097187E+04  0.10591089145E+04 0.  0.
        4    1    3    3  502    0  0.47616141335E+03 -0.22432500865E+03  0.26030307887E+03  0.58720584707E+03  0.12699999809E+01 0.  1.
       -4    1    3    3    0  502 -0.47616141335E+03  0.22432500865E+03  0.13623834291E+03  0.54370387165E+03  0.12699999809E+01 0. -1.
</event>
<event>
 5   0  0.4377843E-02  0.7922401E+03  0.7818609E-02  0.9571318E-01
       -2   -1    0    0    0  501  0.00000000000E+00  0.00000000000E+00  0.16097248456E+03  0.16097248458E+03  0.25500000920E-02 0.  1.
        2   -1    0    0  501    0  0.00000000000E+00  0.00000000000E+00 -0.97476976598E+03  0.97476976599E+03  0.25500000920E-02 0. -1.
    10030    2    1    2    0    0  0.00000000000E+00  0.00000000000E+00 -0.81379728143E+03  0.11357422506E+04  0.79224014318E+03 0.  0.
        2    1    3    3  502    0 -0.36919189630E+03 -0.12070628719E+03 -0.29549854376E+03  0.48804923259E+03  0.25500000920E-02 0.  1.
       -2    1    3    3    0  502  0.36919189630E+03  0.12070628719E+03 -0.51829873767E+03  0.64769301798E+03  0.25500000920E-02 0. -1.
</event>
<event>
 5   0  0.4663634E-02  0.7816753E+03  0.7818609E-02  0.9586927E-01
        2   -1    0    0  501    0  0.00000000000E+00  0.00000000000E+00  0.30040959131E+03  0.30040959132E+03  0.25500000920E-02 0. -1.
       -2   -1    0    0    0  501  0.00000000000E+00  0.00000000000E+00 -0.50848597217E+03  0.50848597218E+03  0.25500000920E-02 0.  1.
    10030    2    1    2    0    0  0.00000000000E+00  0.00000000000E+00 -0.20807638086E+03  0.80889556350E+03  0.78167528576E+03 0.  0.
        5    1    3    3  502    0  0.34816069856E+03 -0.15504334726E+03 -0.14553451714E+02  0.38142916054E+03  0.46999998093E+01 0. -1.
       -5    1    3    3    0  502 -0.34816069856E+03  0.15504334726E+03 -0.19352292915E+03  0.42746640296E+03  0.46999998093E+01 0.  1.
</event>
<event>
 5   0  0.1786500E-02  0.7916745E+03  0.7818609E-02  0.9572147E-01
        4   -1    0    0  501    0  0.00000000000E+00  0.00000000000E+00  0.14548458934E+03  0.14549013243E+03  0.12699999809E+01 0. -1.
       -4   -1    0    0    0  501  0.00000000000E+00  0.00000000000E+00 -0.10769750708E+04  0.10769758196E+04  0.12699999809E+01 0.  1.
    10030    2    1    2    0    0  0.00000000000E+00  0.00000000000E+00 -0.93149048144E+03  0.12224659520E+04  0.79167448288E+03 0.  0.
        3    1    3    3  502    0 -0.38455022776E+03 -0.62725003015E+02 -0.35794385934E+03  0.52909084316E+03  0.10100000352E+00 0.  1.
       -3    1    3    3    0  502  0.38455022776E+03  0.62725003015E+02 -0.57354662210E+03  0.69337510887E+03  0.10100000352E+00 0. -1.
</event>
<event>
 5   0  0.4700220E-02  0.7865870E+03  0.7818609E-02  0.9579637E-01
        2   -1    0    0  501    0  0.00000000000E+00  0.00000000000E+00  0.19394392154E+03  0.19394392156E+03  0.25500000920E-02 0. -1.
       -2   -1    0    0    0  501  0.00000000000E+00  0.00000000000E+00 -0.79754893335E+03  0.79754893335E+03  0.25500000920E-02 0.  1.
    10030    2    1    2    0    0  0.00000000000E+00  0.00000000000E+00 -0.60360501181E+03  0.99149285491E+03  0.78658697616E+03 0.  0.
        4    1    3    3  502    0  0.34542085423E+03 -0.32883647384E+02 -0.68418447402E+02  0.35366594075E+03  0.12699999809E+01 0.  1.
       -4    1    3    3    0  502 -0.34542085423E+03  0.32883647384E+02 -0.53518656440E+03  0.63782691416E+03  0.12699999809E+01 0. -1.
</event>
<event>
 5   0  0.4590462E-02  0.8128018E+03  0.7818609E-02  0.9541670E-01
       -2   -1    0    0    0  501  0.00000000000E+00  0.00000000000E+00  0.11498265247E+03  0.11498265250E+03  0.25500000920E-02 0. -1.
        2   -1    0    0  501    0  0.00000000000E+00  0.00000000000E+00 -0.14364053013E+04  0.14364053013E+04  0.25500000920E-02 0.  1.
    10030    2    1    2    0    0  0.00000000000E+00  0.00000000000E+00 -0.13214226489E+04  0.15513879538E+04  0.81280180019E+03 0.  0.
        3    1    3    3  502    0  0.45957449498E+02  0.11966506236E+03 -0.13968079944E+04  0.14026775815E+04  0.10100000352E+00 0.  1.
       -3    1    3    3    0  502 -0.45957449498E+02 -0.11966506236E+03  0.75385345524E+02  0.14871037232E+03  0.10100000352E+00 0. -1.
</event>
<event>
 5   0  0.2759559E-02  0.8167345E+03  0.7818609E-02  0.9536106E-01
       -1   -1    0    0    0  501  0.00000000000E+00  0.00000000000E+00  0.20634995346E+03  0.20634995352E+03  0.50400001928E-02 0. -1.
        1   -1    0    0  501    0  0.00000000000E+00  0.00000000000E+00 -0.80816005939E+03  0.80816005941E+03  0.50400001928E-02 0.  1.
    10030    2    1    2    0    0  0.00000000000E+00  0.00000000000E+00 -0.60181010593E+03  0.10145100129E+04  0.81673445055E+03 0.  0.
        3    1    3    3  502    0 -0.36513786620E+03 -0.87055058486E+02 -0.50065461067E+03  0.62574698875E+03  0.10100000352E+00 0.  1.
       -3    1    3    3    0  502  0.36513786620E+03  0.87055058486E+02 -0.10115549526E+03  0.38876302417E+03  0.10100000352E+00 0. -1.
</event>
<event>
 5   0  0.4590462E-02  0.7927571E+03  0.7818609E-02  0.9570561E-01
       -2   -1    0    0    0  501  0.00000000000E+00  0.00000000000E+00  0.46955051759E+03  0.46955051760E+03  0.25500000920E-02 0.  1.
        2   -1    0    0  501    0  0.00000000000E+00  0.00000000000E+00 -0.33460924344E+03  0.33460924345E+03  0.25500000920E-02 0. -1.
    10030    2    1    2    0    0  0.00000000000E+00  0.00000000000E+00  0.13494127415E+03  0.80415976104E+03  0.79275707112E+03 0.  0.
        3    1    3    3  502    0  0.12896989495E+03  0.51355192495E+02 -0.30914492685E+03  0.33888225920E+03  0.10100000352E+00 0. -1.
       -3    1    3    3    0  502 -0.12896989495E+03 -0.51355192495E+02  0.44408620100E+03  0.46527750185E+03  0.10100000352E+00 0.  1.
</event>
<event>
 5   0  0.2769394E-02  0.7939607E+03  0.7818609E-02  0.9568800E-01
        1   -1    0    0  501    0  0.00000000000E+00  0.00000000000E+00  0.18933127914E+04  0.18933127914E+04  0.50400001928E-02 0.  1.
       -1   -1    0    0    0  501  0.00000000000E+00  0.00000000000E+00 -0.83236861290E+02  0.83236861442E+02  0.50400001928E-02 0. -1.
    10030    2    1    2    0    0  0.00000000000E+00  0.00000000000E+00  0.18100759301E+04  0.19765496529E+04  0.79396074047E+03 0.  0.
        2    1    3    3  502    0  0.31130969986E+03 -0.14714694473E+03  0.41323192957E+03  0.53789086272E+03  0.25500000920E-02 0. -1.
       -2    1    3    3    0  502 -0.31130969986E+03  0.14714694473E+03  0.13968440005E+04  0.14386587901E+04  0.25500000920E-02 0.  1.
</event>
<event>
 5   0  0.2635243E-02  0.7968882E+03  0.7818609E-02  0.9564532E-01
       -1   -1    0    0    0  501  0.00000000000E+00  0.00000000000E+00  0.16854052520E+03  0.16854052527E+03  0.50400001928E-02 0. -1.
        1   -1    0    0  501    0  0.00000000000E+00  0.00000000000E+00 -0.94195555592E+03  0.94195555593E+03  0.50400001928E-02 0.  1.
    10030    2    1    2    0    0  0.00000000000E+00  0.00000000000E+00 -0.77341503072E+03  0.11104960812E+04  0.79688815816E+03 0.  0.
        1    1    3    3  502    0  0.55979946556E+01 -0.89632445211E+02  0.15425265561E+03  0.17849144116E+03  0.50400001928E-02 0. -1.
       -1    1    3    3    0  502 -0.55979946556E+01  0.89632445211E+02 -0.92766768633E+03  0.93200464004E+03  0.50400001928E-02 0.  1.
</event>
<event>
 5   0  0.4700220E-02  0.6170592E+03  0.7818609E-02  0.9870632E-01
        2   -1    0    0  501    0  0.00000000000E+00  0.00000000000E+00  0.54423775327E+03  0.54423775327E+03  0.25500000920E-02 0.  1.
       -2   -1    0    0    0  501  0.00000000000E+00  0.00000000000E+00 -0.17490610648E+03  0.17490610649E+03  0.25500000920E-02 0. -1.
    10030    2    1    2    0    0  0.00000000000E+00  0.00000000000E+00  0.36933164679E+03  0.71914385977E+03  0.61705917522E+03 0.  0.
        4    1    3    3  502    0  0.97415282142E+02 -0.80379030142E+02  0.51272842380E+03  0.52805546598E+03  0.12699999809E+01 0.  1.
       -4    1    3    3    0  502 -0.97415282142E+02  0.80379030142E+02 -0.14339677701E+03  0.19108839378E+03  0.12699999809E+01 0. -1.
</event>
<event>
 5   0  0.4700220E-02  0.8034791E+03  0.7818609E-02  0.9554995E-01
       -2   -1    0    0    0  501  0.00000000000E+00  0.00000000000E+00  0.10485444980E+03  0.10485444983E+03  0.25500000920E-02 0.  1.
        2   -1    0    0  501    0  0.00000000000E+00  0.00000000000E+00 -0.15392258696E+04  0.15392258696E+04  0.25500000920E-02 0. -1.
    10030    2    1    2    0    0  0.00000000000E+00  0.00000000000E+00 -0.14343714198E+04  0.16440803195E+04  0.80347913899E+03 0.  0.
        4    1    3    3  502    0  0.22566740180E+03 -0.16971695625E+03 -0.13244641502E+03  0.31188665766E+03  0.12699999809E+01 0.  1.
       -4    1    3    3    0  502 -0.22566740180E+03  0.16971695625E+03 -0.13019250048E+04  0.13321936618E+04  0.12699999809E+01 0. -1.
</event>
<event>
 5   0  0.4700220E-02  0.7805503E+03  0.7818609E-02  0.9588604E-01
        2   -1    0    0  501    0  0.00000000000E+00  0.00000000000E+00  0.99241825263E+03  0.99241825263E+03  0.25500000920E-02 0. -1.
       -2   -1    0    0    0  501  0.00000000000E+00  0.00000000000E+00 -0.15347832137E+03  0.15347832139E+03  0.25500000920E-02 0.  1.
    10030    2    1    2    0    0  0.00000000000E+00  0.00000000000E+00  0.83893993126E+03  0.11458965740E+04  0.78055028672E+03 0.  0.
        4    1    3    3  502    0  0.23542882795E+03  0.23852093380E+03  0.12587910732E+03  0.35800297688E+03  0.12699999809E+01 0.  1.
       -4    1    3    3    0  502 -0.23542882795E+03 -0.23852093380E+03  0.71306082393E+03  0.78789359715E+03  0.12699999809E+01 0. -1.
</event>
<event>
 5   0  0.1786500E-02  0.8043208E+03  0.7818609E-02  0.9553784E-01
       -3   -1    0    0    0  501  0.00000000000E+00  0.00000000000E+00  0.43373953565E+03  0.43373954741E+03  0.10100000352E+00 0. -1.
        3   -1    0    0  501    0  0.00000000000E+00  0.00000000000E+00 -0.37288042576E+03  0.37288043944E+03  0.10100000352E+00 0.  1.
    10030    2    1    2    0    0  0.00000000000E+00  0.00000000000E+00  0.60859109890E+02  0.80661998684E+03  0.80432081405E+03 0.  0.
        4    1    3    3  502    0 -0.27783577110E+03 -0.65077667866E+02 -0.25375932151E+03  0.38186807239E+03  0.12699999809E+01 0.  1.
       -4    1    3    3    0  502  0.27783577110E+03  0.65077667866E+02  0.31461843140E+03  0.42475191445E+03  0.12699999809E+01 0. -1.
</event>
<event>
 5   0  0.2635243E-02  0.7942059E+03  0.7818609E-02  0.9568442E-01
       -1   -1    0    0    0  501  0.00000000000E+00  0.00000000000E+00  0.23218905419E+03  0.23218905424E+03  0.50400001928E-02 0. -1.
        1   -1    0    0  501    0  0.00000000000E+00  0.00000000000E+00 -0.67914814112E+03  0.67914814114E+03  0.50400001928E-02 0.  1.
    10030    2    1    2    0    0  0.00000000000E+00  0.00000000000E+00 -0.44695908693E+03  0.91133719538E+03  0.79420592940E+03 0.  0.
        1    1    3    3  502    0  0.39280418218E+02  0.11353953677E+03  0.21083389830E+03  0.24266254421E+03  0.50400001928E-02 0. -1.
       -1    1    3    3    0  502 -0.39280418218E+02 -0.11353953677E+03 -0.65779298523E+03  0.66867465117E+03  0.50400001928E-02 0.  1.
</event>
<event>
 5   0  0.1786500E-02  0.8183448E+03  0.7818609E-02  0.9533837E-01
       -3   -1    0    0    0  501  0.00000000000E+00  0.00000000000E+00  0.59132193782E+03  0.59132194644E+03  0.10100000352E+00 0. -1.
        3   -1    0    0  501    0  0.00000000000E+00  0.00000000000E+00 -0.28313180014E+03  0.28313181816E+03  0.10100000352E+00 0.  1.
    10030    2    1    2    0    0  0.00000000000E+00  0.00000000000E+00  0.30819013768E+03  0.87445376460E+03  0.81834480842E+03 0.  0.
        4    1    3    3  502    0 -0.12432045370E+03  0.15118666800E+02 -0.26214631501E+03  0.29052788621E+03  0.12699999809E+01 0.  1.
       -4    1    3    3    0  502  0.12432045370E+03 -0.15118666800E+02  0.57033645269E+03  0.58392587839E+03  0.12699999809E+01 0. -1.
</event>
<event>
 5   0  0.4590462E-02  0.8078757E+03  0.7818609E-02  0.9548687E-01
       -2   -1    0    0    0  501  0.00000000000E+00  0.00000000000E+00  0.54764518087E+03  0.54764518087E+03  0.25500000920E-02 0. -1.
        2   -1    0    0  501    0  0.00000000000E+00  0.00000000000E+00 -0.29794067750E+03  0.29794067751E+03  0.25500000920E-02 0.  1.
    10030    2    1    2    0    0  0.00000000000E+00  0.00000000000E+00  0.24970450337E+03  0.84558585839E+03  0.80787567416E+03 0.  0.
        3    1    3    3  502    0 -0.33238388939E+03  0.20654181921E+03  0.20042216386E+02  0.39184215400E+03  0.10100000352E+00 0.  1.
       -3    1    3    3    0  502  0.33238388939E+03 -0.20654181921E+03  0.22966228698E+03  0.45374370439E+03  0.10100000352E+00 0. -1.
</event>
<event>
 5   0  0.1786500E-02  0.7461439E+03  0.7818609E-02  0.9641419E-01
       -3   -1    0    0    0  501  0.00000000000E+00  0.00000000000E+00  0.28775916267E+03  0.28775918039E+03  0.10100000352E+00 0.  1.
        3   -1    0    0  501    0  0.00000000000E+00  0.00000000000E+00 -0.48367765860E+03  0.48367766915E+03  0.10100000352E+00 0. -1.
    10030    2    1    2    0    0  0.00000000000E+00  0.00000000000E+00 -0.19591849594E+03  0.77143684954E+03  0.74614392431E+03 0.  0.
        3    1    3    3  502    0 -0.31698715171E+02 -0.31798882094E+03  0.10107885442E+03  0.33516957469E+03  0.10100000352E+00 0.  1.
       -3    1    3    3    0  502  0.31698715171E+02  0.31798882094E+03 -0.29699735035E+03  0.43626727485E+03  0.10100000352E+00 0. -1.
</event>
<event>
 5   0  0.4684283E-02  0.7144389E+03  0.7818609E-02  0.9692853E-01
        2   -1    0    0  501    0  0.00000000000E+00  0.00000000000E+00  0.29227894978E+03  0.29227894979E+03  0.25500000920E-02 0. -1.
       -2   -1    0    0    0  501  0.00000000000E+00  0.00000000000E+00 -0.43658887772E+03  0.43658887773E+03  0.25500000920E-02 0.  1.
    10030    2    1    2    0    0  0.00000000000E+00  0.00000000000E+00 -0.14430992794E+03  0.72886782752E+03  0.71443890899E+03 0.  0.
        1    1    3    3  502    0 -0.15260885746E+03 -0.24810807718E+03  0.13880289627E+03  0.32266596563E+03  0.50400001928E-02 0. -1.
       -1    1    3    3    0  502  0.15260885746E+03  0.24810807718E+03 -0.28311282421E+03  0.40620186188E+03  0.50400001928E-02 0.  1.
</event>
<event>
 5   0  0.1786500E-02  0.8070763E+03  0.7818609E-02  0.9549831E-01
        4   -1    0    0  501    0  0.00000000000E+00  0.00000000000E+00  0.21222416246E+03  0.21222796242E+03  0.12699999809E+01 0. -1.
       -4   -1    0    0    0  501  0.00000000000E+00  0.00000000000E+00 -0.76730499380E+03  0.76730604481E+03  0.12699999809E+01 0.  1.
    10030    2    1    2    0    0  0.00000000000E+00  0.00000000000E+00 -0.55508083134E+03  0.97953400723E+03  0.80707629256E+03 0.  0.
        3    1    3    3  502    0 -0.58721513187E+02 -0.35589053401E+03 -0.49713550431E+03  0.61420681220E+03  0.10100000352E+00 0.  1.
       -3    1    3    3    0  502  0.58721513187E+02  0.35589053401E+03 -0.57945327027E+02  0.36532719503E+03  0.10100000352E+00 0. -1.
</event>
<event>
 5   0  0.2635243E-02  0.8593294E+03  0.7818609E-02  0.9477900E-01
       -1   -1    0    0    0  501  0.00000000000E+00  0.00000000000E+00  0.56902981508E+03  0.56902981510E+03  0.50400001928E-02 0.  1.
        1   -1    0    0  501    0  0.00000000000E+00  0.00000000000E+00 -0.32443244896E+03  0.32443244900E+03  0.50400001928E-02 0. -1.
    10030    2    1    2    0    0  0.00000000000E+00  0.00000000000E+00  0.24459736613E+03  0.89346226410E+03  0.85932935820E+03 0.  0.
        1    1    3    3  502    0  0.31229521156E+03  0.17829635791E+03 -0.12218786272E+03  0.37979963695E+03  0.50400001928E-02 0. -1.
       -1    1    3    3    0  502 -0.31229521156E+03 -0.17829635791E+03  0.36678522885E+03  0.51366262715E+03  0.50400001928E-02 0.  1.
</event>
<event>
 5   0  0.2769394E-02  0.7955372E+03  0.7818609E-02  0.9566499E-01
       -1   -1    0    0    0  501  0.00000000000E+00  0.00000000000E+00  0.95094849280E+03  0.95094849281E+03  0.50400001928E-02 0. -1.
        1   -1    0    0  501    0  0.00000000000E+00  0.00000000000E+00 -0.16638111221E+03  0.16638111229E+03  0.50400001928E-02 0.  1.
    10030    2    1    2    0    0  0.00000000000E+00  0.00000000000E+00  0.78456738059E+03  0.11173296051E+04  0.79553722210E+03 0.  0.
        2    1    3    3  502    0  0.20198041094E+03 -0.29618726385E+03  0.63431762406E+03  0.72861638045E+03  0.25500000920E-02 0. -1.
       -2    1    3    3    0  502 -0.20198041094E+03  0.29618726385E+03  0.15024975653E+03  0.38871322464E+03  0.25500000920E-02 0.  1.
</event>
<event>
 5   0  0.4590462E-02  0.8063587E+03  0.7818609E-02  0.9550858E-01
        2   -1    0    0  501    0  0.00000000000E+00  0.00000000000E+00  0.99940705768E+03  0.99940705768E+03  0.25500000920E-02 0. -1.
       -2   -1    0    0    0  501  0.00000000000E+00  0.00000000000E+00 -0.16265003905E+03  0.16265003907E+03  0.25500000920E-02 0.  1.
    10030    2    1    2    0    0  0.00000000000E+00  0.00000000000E+00  0.83675701863E+03  0.11620570968E+04  0.80635872159E+03 0.  0.
        3    1    3    3  502    0  0.18916581173E+03  0.33744973193E+03  0.58204243823E+03  0.69887726820E+03  0.10100000352E+00 0. -1.
       -3    1    3    3    0  502 -0.18916581173E+03 -0.33744973193E+03  0.25471458040E+03  0.46317982855E+03  0.10100000352E+00 0.  1.
</event>
<event>
 5   0  0.2769394E-02  0.8213057E+03  0.7818609E-02  0.9529680E-01
       -1   -1    0    0    0  501  0.00000000000E+00  0.00000000000E+00  0.17658400184E+03  0.17658400191E+03  0.50400001928E-02 0.  1.
        1   -1    0    0  501    0  0.00000000000E+00  0.00000000000E+00 -0.95498898119E+03  0.95498898120E+03  0.50400001928E-02 0. -1.
    10030    2    1    2    0    0  0.00000000000E+00  0.00000000000E+00 -0.77840497935E+03  0.11315729831E+04  0.82130573128E+03 0.  0.
        2    1    3    3  502    0  0.78700414837E+02  0.38930179318E+03 -0.53295471157E+03  0.66467312723E+03  0.25500000920E-02 0. -1.
       -2    1    3    3    0  502 -0.78700414837E+02 -0.38930179318E+03 -0.24545026778E+03  0.46689985589E+03  0.25500000920E-02 0.  1.
</event>
<event>
 5   0  0.4377843E-02  0.8003206E+03  0.7818609E-02  0.9559553E-01
       -2   -1    0    0    0  501  0.00000000000E+00  0.00000000000E+00  0.30594119743E+03  0.30594119744E+03  0.25500000920E-02 0. -1.
        2   -1    0    0  501    0  0.00000000000E+00  0.00000000000E+00 -0.52339551237E+03  0.52339551238E+03  0.25500000920E-02 0.  1.
    10030    2    1    2    0    0  0.00000000000E+00  0.00000000000E+00 -0.21745431495E+03  0.82933670982E+03  0.80032056025E+03 0.  0.
        2    1    3    3  502    0 -0.76389058710E+02 -0.23849492736E+03  0.21469939156E+03  0.32986504423E+03  0.25500000920E-02 0. -1.
       -2    1    3    3    0  502  0.76389058710E+02  0.23849492736E+03 -0.43215370651E+03  0.49947166558E+03  0.25500000920E-02 0.  1.
</event>
<event>
 5   0  0.2759559E-02  0.8086917E+03  0.7818609E-02  0.9547521E-01
        1   -1    0    0  501    0  0.00000000000E+00  0.00000000000E+00  0.35667703888E+03  0.35667703892E+03  0.50400001928E-02 0. -1.
       -1   -1    0    0    0  501  0.00000000000E+00  0.00000000000E+00 -0.45838542399E+03  0.45838542402E+03  0.50400001928E-02 0.  1.
    10030    2    1    2    0    0  0.00000000000E+00  0.00000000000E+00 -0.10170838511E+03  0.81506246293E+03  0.80869167356E+03 0.  0.
        3    1    3    3  502    0 -0.21080441270E+03  0.33103732839E+03 -0.14894164574E+03  0.41977117247E+03  0.10100000352E+00 0.  1.
       -3    1    3    3    0  502  0.21080441270E+03 -0.33103732839E+03  0.47233260638E+02  0.39529129046E+03  0.10100000352E+00 0. -1.
</event>
<event>
 5   0  0.2635243E-02  0.7958167E+03  0.7818609E-02  0.9566092E-01
        1   -1    0    0  501    0  0.00000000000E+00  0.00000000000E+00  0.39062635263E+03  0.39062635267E+03  0.50400001928E-02 0. -1.
       -1   -1    0    0    0  501  0.00000000000E+00  0.00000000000E+00 -0.40532606089E+03  0.40532606092E+03  0.50400001928E-02 0.  1.
    10030    2    1    2    0    0  0.00000000000E+00  0.00000000000E+00 -0.14699708258E+02  0.79595241359E+03  0.79581666436E+03 0.  0.
        1    1    3    3  502    0 -0.13764738501E+02  0.26203516211E+03 -0.30653153076E+03  0.40350151621E+03  0.50400001928E-02 0.  1.
       -1    1    3    3    0  502  0.13764738501E+02 -0.26203516211E+03  0.29183182250E+03  0.39245089738E+03  0.50400001928E-02 0. -1.
</event>
<event>
 5   0  0.4700220E-02  0.8071109E+03  0.7818609E-02  0.9549781E-01
        2   -1    0    0  501    0  0.00000000000E+00  0.00000000000E+00  0.83330111153E+03  0.83330111153E+03  0.25500000920E-02 0. -1.
       -2   -1    0    0    0  501  0.00000000000E+00  0.00000000000E+00 -0.19543597057E+03  0.19543597058E+03  0.25500000920E-02 0.  1.
    10030    2    1    2    0    0  0.00000000000E+00  0.00000000000E+00  0.63786514096E+03  0.10287370821E+04  0.80711092550E+03 0.  0.
        4    1    3    3  502    0 -0.28751383876E+03 -0.25359027352E+03  0.47956738752E+03  0.61396964614E+03  0.12699999809E+01 0. -1.
       -4    1    3    3    0  502  0.28751383876E+03  0.25359027352E+03  0.15829775343E+03  0.41476743597E+03  0.12699999809E+01 0.  1.
</event>
<event>
 5   0  0.4663634E-02  0.7730925E+03  0.7818609E-02  0.9599803E-01
        2   -1    0    0  501    0  0.00000000000E+00  0.00000000000E+00  0.10141507995E+04  0.10141507995E+04  0.25500000920E-02 0.  1.
       -2   -1    0    0    0  501  0.00000000000E+00  0.00000000000E+00 -0.14733310567E+03  0.14733310569E+03  0.25500000920E-02 0. -1.
    10030    2    1    2    0    0  0.00000000000E+00  0.00000000000E+00  0.86681769387E+03  0.11614839052E+04  0.77309245740E+03 0.  0.
        5    1    3    3  502    0 -0.16149285608E+03  0.33101897156E+03  0.60953058835E+03  0.71218195023E+03  0.46999998093E+01 0.  1.
       -5    1    3    3    0  502  0.16149285608E+03 -0.33101897156E+03  0.25728710552E+03  0.44930195499E+03  0.46999998093E+01 0. -1.
</event>
<event>
 5   0  0.2769394E-02  0.8269376E+03  0.7818609E-02  0.9521824E-01
       -1   -1    0    0    0  501  0.00000000000E+00  0.00000000000E+00  0.14256658024E+03  0.14256658033E+03  0.50400001928E-02 0.  1.
        1   -1    0    0  501    0  0.00000000000E+00  0.00000000000E+00 -0.11991342164E+04  0.11991342164E+04  0.50400001928E-02 0. -1.
    10030    2    1    2    0    0  0.00000000000E+00  0.00000000000E+00 -0.10565676361E+04  0.13417007967E+04  0.82693763861E+03 0.  0.
        2    1    3    3  502    0 -0.11538445229E+03  0.39440470199E+03 -0.60241993500E+03  0.72923138911E+03  0.25500000920E-02 0.  1.
       -2    1    3    3    0  502  0.11538445229E+03 -0.39440470199E+03 -0.45414770112E+03  0.61246940758E+03  0.25500000920E-02 0. -1.
</event>
<event>
 5   0  0.2769394E-02  0.7784471E+03  0.7818609E-02  0.9591749E-01
       -1   -1    0    0    0  501  0.00000000000E+00  0.00000000000E+00  0.30867724386E+03  0.30867724390E+03  0.50400001928E-02 0.  1.
        1   -1    0    0  501    0  0.00000000000E+00  0.00000000000E+00 -0.49078763305E+03  0.49078763307E+03  0.50400001928E-02 0. -1.
    10030    2    1    2    0    0  0.00000000000E+00  0.00000000000E+00 -0.18211038919E+03  0.79946487698E+03  0.77844710525E+03 0.  0.
        2    1    3    3  502    0  0.30234659040E+03  0.74891504440E+02  0.14864038975E+03  0.34513209592E+03  0.25500000920E-02 0.  1.
       -2    1    3    3    0  502 -0.30234659040E+03 -0.74891504440E+02 -0.33075077894E+03  0.45433278105E+03  0.25500000920E-02 0. -1.
</event>
<event>
 5   0  0.2635243E-02  0.7925556E+03  0.7818609E-02  0.9570855E-01
        1   -1    0    0  501    0  0.00000000000E+00  0.00000000000E+00  0.99561426513E+03  0.99561426514E+03  0.50400001928E-02 0.  1.
       -1   -1    0    0    0  501  0.00000000000E+00  0.00000000000E+00 -0.15772786639E+03  0.15772786647E+03  0.50400001928E-02 0. -1.
    10030    2    1    2    0    0  0.00000000000E+00  0.00000000000E+00  0.83788639873E+03  0.11533421316E+04  0.79255564812E+03 0.  0.
        1    1    3    3  502    0 -0.53570398364E+02 -0.31415294793E+03  0.76195840011E+02  0.32767006018E+03  0.50400001928E-02 0. -1.
       -1    1    3    3    0  502  0.53570398364E+02  0.31415294793E+03  0.76169055872E+03  0.82567207144E+03  0.50400001928E-02 0.  1.
</event>
<event>
 5   0  0.2606520E-02  0.5776067E+03  0.7818609E-02  0.9952986E-01
       -1   -1    0    0    0  501  0.00000000000E+00  0.00000000000E+00  0.41003718350E+03  0.41003718353E+03  0.50400001928E-02 0.  1.
        1   -1    0    0  501    0  0.00000000000E+00  0.00000000000E+00 -0.20341414235E+03  0.20341414241E+03  0.50400001928E-02 0. -1.
    10030    2    1    2    0    0  0.00000000000E+00  0.00000000000E+00  0.20662304115E+03  0.61345132595E+03  0.57760665523E+03 0.  0.
        5    1    3    3  502    0  0.15704797862E+03  0.10829006027E+03  0.33354648948E+03  0.38427354239E+03  0.46999998093E+01 0.  1.
       -5    1    3    3    0  502 -0.15704797862E+03 -0.10829006027E+03 -0.12692344833E+03  0.22917778355E+03  0.46999998093E+01 0. -1.
</event>
<event>
 5   0  0.2759559E-02  0.8355206E+03  0.7818609E-02  0.9509979E-01
       -1   -1    0    0    0  501  0.00000000000E+00  0.00000000000E+00  0.24902145057E+03  0.24902145062E+03  0.50400001928E-02 0. -1.
        1   -1    0    0  501    0  0.00000000000E+00  0.00000000000E+00 -0.70083792112E+03  0.70083792114E+03  0.50400001928E-02 0.  1.
    10030    2    1    2    0    0  0.00000000000E+00  0.00000000000E+00 -0.45181647056E+03  0.94985937176E+03  0.83552061797E+03 0.  0.
        3    1    3    3  502    0  0.33566506381E+03 -0.24850494999E+03 -0.23715787372E+03  0.48028076425E+03  0.10100000352E+00 0. -1.
       -3    1    3    3    0  502 -0.33566506381E+03  0.24850494999E+03 -0.21465859684E+03  0.46957860751E+03  0.10100000352E+00 0.  1.
</event>
<event>
 5   0  0.4684283E-02  0.7957602E+03  0.7818609E-02  0.9566174E-01
       -2   -1    0    0    0  501  0.00000000000E+00  0.00000000000E+00  0.13069974592E+03  0.13069974595E+03  0.25500000920E-02 0.  1.
        2   -1    0    0  501    0  0.00000000000E+00  0.00000000000E+00 -0.12112384496E+04  0.12112384496E+04  0.25500000920E-02 0. -1.
    10030    2    1    2    0    0  0.00000000000E+00  0.00000000000E+00 -0.10805387036E+04  0.13419381955E+04  0.79576015892E+03 0.  0.
        1    1    3    3  502    0 -0.78805612200E+02 -0.38716232157E+03 -0.46110790318E+03  0.60722770536E+03  0.50400001928E-02 0. -1.
       -1    1    3    3    0  502  0.78805612200E+02  0.38716232157E+03 -0.61943080047E+03  0.73471049016E+03  0.50400001928E-02 0.  1.
</event>
<event>
 5   0  0.2606520E-02  0.8157168E+03  0.7818609E-02  0.9537542E-01
        1   -1    0    0  501    0  0.00000000000E+00  0.00000000000E+00  0.41991015889E+03  0.41991015892E+03  0.50400001928E-02 0.  1.
       -1   -1    0    0    0  501  0.00000000000E+00  0.00000000000E+00 -0.39615253022E+03  0.39615253025E+03  0.50400001928E-02 0. -1.
    10030    2    1    2    0    0  0.00000000000E+00  0.00000000000E+00  0.23757628665E+02  0.81606268917E+03  0.81571679383E+03 0.  0.
        5    1    3    3  502    0  0.35112295563E+03  0.20349087773E+03  0.52275568438E+02  0.40920739527E+03  0.46999998093E+01 0.  1.
       -5    1    3    3    0  502 -0.35112295563E+03 -0.20349087773E+03 -0.28517939773E+02  0.40685529390E+03  0.46999998093E+01 0. -1.
</event>
<event>
 5   0  0.2635243E-02  0.8032029E+03  0.7818609E-02  0.9555393E-01
        1   -1    0    0  501    0  0.00000000000E+00  0.00000000000E+00  0.18603995619E+04  0.18603995619E+04  0.50400001928E-02 0. -1.
       -1   -1    0    0    0  501  0.00000000000E+00  0.00000000000E+00 -0.86693054891E+02  0.86693055037E+02  0.50400001928E-02 0.  1.
    10030    2    1    2    0    0  0.00000000000E+00  0.00000000000E+00  0.17737065070E+04  0.19470926170E+04  0.80320289215E+03 0.  0.
        1    1    3    3  502    0 -0.22467774206E+03 -0.31059226354E+03  0.59660036725E+03  0.70914007091E+03  0.50400001928E-02 0.  1.
       -1    1    3    3    0  502  0.22467774206E+03  0.31059226354E+03  0.11771061398E+04  0.12379525461E+04  0.50400001928E-02 0. -1.
</event>
<event>
 5   0  0.2635243E-02  0.7622152E+03  0.7818609E-02  0.9616379E-01
        1   -1    0    0  501    0  0.00000000000E+00  0.00000000000E+00  0.17211706809E+03  0.17211706816E+03  0.50400001928E-02 0. -1.
       -1   -1    0    0    0  501  0.00000000000E+00  0.00000000000E+00 -0.84386178210E+03  0.84386178211E+03  0.50400001928E-02 0.  1.
    10030    2    1    2    0    0  0.00000000000E+00  0.00000000000E+00 -0.67174471401E+03  0.10159788503E+04  0.76221523430E+03 0.  0.
        1    1    3    3  502    0 -0.25103884354E+03 -0.19192298714E+03 -0.51898763395E+02  0.32023181545E+03  0.50400001928E-02 0. -1.
       -1    1    3    3    0  502  0.25103884354E+03  0.19192298714E+03 -0.61984595061E+03  0.69574703483E+03  0.50400001928E-02 0.  1.
</event>
<event>
 5   0  0.2769394E-02  0.7970182E+03  0.7818609E-02  0.9564343E-01
       -1   -1    0    0    0  501  0.00000000000E+00  0.00000000000E+00  0.17532503150E+03  0.17532503157E+03  0.50400001928E-02 0.  1.
        1   -1    0    0  501    0  0.00000000000E+00  0.00000000000E+00 -0.90580048864E+03  0.90580048866E+03  0.50400001928E-02 0. -1.
    10030    2    1    2    0    0  0.00000000000E+00  0.00000000000E+00 -0.73047545715E+03  0.10811255202E+04  0.79701819113E+03 0.  0.
        2    1    3    3  502    0 -0.11240086793E+03  0.28548846599E+03 -0.71019525736E+03  0.77363746219E+03  0.25500000920E-02 0. -1.
       -2    1    3    3    0  502  0.11240086793E+03 -0.28548846599E+03 -0.20280199787E+02  0.30748805804E+03  0.25500000920E-02 0.  1.
</event>
<event>
 5   0  0.2759559E-02  0.7705580E+03  0.7818609E-02  0.9603639E-01
        1   -1    0    0  501    0  0.00000000000E+00  0.00000000000E+00  0.15976063633E+03  0.15976063641E+03  0.50400001928E-02 0.  1.
       -1   -1    0    0    0  501  0.00000000000E+00  0.00000000000E+00 -0.92913939329E+03  0.92913939331E+03  0.50400001928E-02 0. -1.
    10030    2    1    2    0    0  0.00000000000E+00  0.00000000000E+00 -0.76937875697E+03  0.10889000297E+04  0.77055798162E+03 0.  0.
        3    1    3    3  502    0 -0.22177693119E+03  0.26394967954E+03 -0.14162474296E+03  0.37270902666E+03  0.10100000352E+00 0.  1.
       -3    1    3    3    0  502  0.22177693119E+03 -0.26394967954E+03 -0.62775401401E+03  0.71619100305E+03  0.10100000352E+00 0. -1.
</event>
<event>
 5   0  0.4684283E-02  0.7926554E+03  0.7818609E-02  0.9570709E-01
        2   -1    0    0  501    0  0.00000000000E+00  0.00000000000E+00  0.24249589314E+04  0.24249589314E+04  0.25500000920E-02 0.  1.
       -2   -1    0    0    0  501  0.00000000000E+00  0.00000000000E+00 -0.64774563911E+02  0.64774563961E+02  0.25500000920E-02 0. -1.
    10030    2    1    2    0    0  0.00000000000E+00  0.00000000000E+00  0.23601843675E+04  0.24897334954E+04  0.79265542917E+03 0.  0.
        1    1    3    3  502    0 -0.28304756865E+02 -0.39472892091E+03  0.12477206270E+04  0.13089762578E+04  0.50400001928E-02 0.  1.
       -1    1    3    3    0  502  0.28304756865E+02  0.39472892091E+03  0.11124637405E+04  0.11807572376E+04  0.50400001928E-02 0. -1.
</event>
<event>
 5   0  0.4663634E-02  0.7829066E+03  0.7818609E-02  0.9585094E-01
       -2   -1    0    0    0  501  0.00000000000E+00  0.00000000000E+00  0.11953015861E+03  0.11953015863E+03  0.25500000920E-02 0.  1.
        2   -1    0    0  501    0  0.00000000000E+00  0.00000000000E+00 -0.12819833591E+04  0.12819833591E+04  0.25500000920E-02 0. -1.
    10030    2    1    2    0    0  0.00000000000E+00  0.00000000000E+00 -0.11624532005E+04  0.14015135177E+04  0.78290656982E+03 0.  0.
        5    1    3    3  502    0 -0.34347214381E+03 -0.13001685653E+01 -0.24518133001E+03  0.42203172700E+03  0.46999998093E+01 0.  1.
       -5    1    3    3    0  502  0.34347214381E+03  0.13001685653E+01 -0.91727187049E+03  0.97948179075E+03  0.46999998093E+01 0. -1.
</event>
<event>
 5   0  0.2759559E-02  0.7593135E+03  0.7818609E-02  0.9620851E-01
       -1   -1    0    0    0  501  0.00000000000E+00  0.00000000000E+00  0.12739329200E+03  0.12739329210E+03  0.50400001928E-02 0. -1.
        1   -1    0    0  501    0  0.00000000000E+00  0.00000000000E+00 -0.11314507671E+04  0.11314507671E+04  0.50400001928E-02 0.  1.
    10030    2    1    2    0    0  0.00000000000E+00  0.00000000000E+00 -0.10040574751E+04  0.12588440592E+04  0.75931347421E+03 0.  0.
        3    1    3    3  502    0 -0.32197410108E+03  0.20327133732E+02 -0.83384626895E+03  0.89408060295E+03  0.10100000352E+00 0.  1.
       -3    1    3    3    0  502  0.32197410108E+03 -0.20327133732E+02 -0.17021120618E+03  0.36476345628E+03  0.10100000352E+00 0. -1.
</event>
<event>
 5   0  0.1786500E-02  0.7829492E+03  0.7818609E-02  0.9585031E-01
        4   -1    0    0  501    0  0.00000000000E+00  0.00000000000E+00  0.36631061181E+03  0.36631281336E+03  0.12699999809E+01 0.  1.
       -4   -1    0    0    0  501  0.00000000000E+00  0.00000000000E+00 -0.41836282275E+03  0.41836475038E+03  0.12699999809E+01 0. -1.
    10030    2    1    2    0    0  0.00000000000E+00  0.00000000000E+00 -0.52052210939E+02  0.78467756374E+03  0.78294919782E+03 0.  0.
        4    1    3    3  502    0  0.34007890108E+03 -0.12672022040E+03  0.12105984139E+03  0.38258171848E+03  0.12699999809E+01 0.  1.
       -4    1    3    3    0  502 -0.34007890108E+03  0.12672022040E+03 -0.17311205233E+03  0.40209584526E+03  0.12699999809E+01 0. -1.
</event>
<event>
 5   0  0.2689372E-02  0.7852462E+03  0.7818609E-02  0.9581622E-01
        1   -1    0    0  501    0  0.00000000000E+00  0.00000000000E+00  0.22560213238E+04  0.22560213238E+04  0.50400001928E-02 0. -1.
       -1   -1    0    0    0  501  0.00000000000E+00  0.00000000000E+00 -0.68329541244E+02  0.68329541430E+02  0.50400001928E-02 0.  1.
    10030    2    1    2    0    0  0.00000000000E+00  0.00000000000E+00  0.21876917825E+04  0.23243508652E+04  0.78524620932E+03 0.  0.
        4    1    3    3  502    0  0.25323508972E+03  0.19814347315E+02  0.19800304125E+04  0.19962571644E+04  0.12699999809E+01 0. -1.
       -4    1    3    3    0  502 -0.25323508972E+03 -0.19814347315E+02  0.20766137004E+03  0.32809370084E+03  0.12699999809E+01 0.  1.
</event>
<event>
 5   0  0.2769394E-02  0.8030220E+03  0.7818609E-02  0.9555653E-01
        1   -1    0    0  501    0  0.00000000000E+00  0.00000000000E+00  0.19296508617E+04  0.19296508617E+04  0.50400001928E-02 0.  1.
       -1   -1    0    0    0  501  0.00000000000E+00  0.00000000000E+00 -0.83544180728E+02  0.83544180880E+02  0.50400001928E-02 0. -1.
    10030    2    1    2    0    0  0.00000000000E+00  0.00000000000E+00  0.18461066810E+04  0.20131950426E+04  0.80302204326E+03 0.  0.
        2    1    3    3  502    0 -0.75659714747E+02 -0.32490772308E+03  0.36290509588E+03  0.49293968147E+03  0.25500000920E-02 0. -1.
       -2    1    3    3    0  502  0.75659714747E+02  0.32490772308E+03  0.14832015851E+04  0.15202553611E+04  0.25500000920E-02 0.  1.
</event>
<event>
 5   0  0.2635243E-02  0.8139651E+03  0.7818609E-02  0.9540020E-01
        1   -1    0    0  501    0  0.00000000000E+00  0.00000000000E+00  0.70311062620E+03  0.70311062622E+03  0.50400001928E-02 0.  1.
       -1   -1    0    0    0  501  0.00000000000E+00  0.00000000000E+00 -0.23557432473E+03  0.23557432478E+03  0.50400001928E-02 0. -1.
    10030    2    1    2    0    0  0.00000000000E+00  0.00000000000E+00  0.46753630147E+03  0.93868495100E+03  0.81396513687E+03 0.  0.
        1    1    3    3  502    0 -0.21773505194E+03 -0.34147612195E+03  0.28018909272E+03  0.49246362547E+03  0.50400001928E-02 0.  1.
       -1    1    3    3    0  502  0.21773505194E+03  0.34147612195E+03  0.18734720875E+03  0.44622132553E+03  0.50400001928E-02 0. -1.
</event>
<event>
 5   0  0.2606520E-02  0.8087342E+03  0.7818609E-02  0.9547460E-01
        1   -1    0    0  501    0  0.00000000000E+00  0.00000000000E+00  0.21329659370E+03  0.21329659376E+03  0.50400001928E-02 0. -1.
       -1   -1    0    0    0  501  0.00000000000E+00  0.00000000000E+00 -0.76659799936E+03  0.76659799938E+03  0.50400001928E-02 0.  1.
    10030    2    1    2    0    0  0.00000000000E+00  0.00000000000E+00 -0.55330140567E+03  0.97989459314E+03  0.80873417644E+03 0.  0.
        5    1    3    3  502    0 -0.99949384917E+02 -0.27930154698E+03  0.56255860466E+02  0.30197027259E+03  0.46999998093E+01 0. -1.
       -5    1    3    3    0  502  0.99949384917E+02  0.27930154698E+03 -0.60955726613E+03  0.67792432055E+03  0.46999998093E+01 0.  1.
</event>
<event>
 5   0  0.4663634E-02  0.7986613E+03  0.7818609E-02  0.9561957E-01
        2   -1    0    0  501    0  0.00000000000E+00  0.00000000000E+00  0.13698363197E+04  0.13698363197E+04  0.25500000920E-02 0.  1.
       -2   -1    0    0    0  501  0.00000000000E+00  0.00000000000E+00 -0.11641168779E+03  0.11641168782E+03  0.25500000920E-02 0. -1.
    10030    2    1    2    0    0  0.00000000000E+00  0.00000000000E+00  0.12534246319E+04  0.14862480075E+04  0.79866127488E+03 0.  0.
        5    1    3    3  502    0  0.28501907327E+03  0.96503923368E+02  0.13826320562E+03  0.33119130934E+03  0.46999998093E+01 0. -1.
       -5    1    3    3    0  502 -0.28501907327E+03 -0.96503923368E+02  0.11151614263E+04  0.11550566982E+04  0.46999998093E+01 0.  1.
</event>
<event>
 5   0  0.4700220E-02  0.8047278E+03  0.7818609E-02  0.9553199E-01
        2   -1    0    0  501    0  0.00000000000E+00  0.00000000000E+00  0.70683699559E+03  0.70683699560E+03  0.25500000920E-02 0.  1.
       -2   -1    0    0    0  501  0.00000000000E+00  0.00000000000E+00 -0.22904389833E+03  0.22904389835E+03  0.25500000920E-02 0. -1.
    10030    2    1    2    0    0  0.00000000000E+00  0.00000000000E+00  0.47779309726E+03  0.93588089395E+03  0.80472778246E+03 0.  0.
        4    1    3    3  502    0 -0.33424338617E+03  0.20149269991E+03  0.12508417636E+03  0.40983608113E+03  0.12699999809E+01 0.  1.
       -4    1    3    3    0  502  0.33424338617E+03 -0.20149269991E+03  0.35270892090E+03  0.52604481282E+03  0.12699999809E+01 0. -1.
</event>
<event>
 5   0  0.2606520E-02  0.6901276E+03  0.7818609E-02  0.9734266E-01
       -1   -1    0    0    0  501  0.00000000000E+00  0.00000000000E+00  0.12845178327E+03  0.12845178336E+03  0.50400001928E-02 0.  1.
        1   -1    0    0  501    0  0.00000000000E+00  0.00000000000E+00 -0.92695494026E+03  0.92695494027E+03  0.50400001928E-02 0. -1.
    10030    2    1    2    0    0  0.00000000000E+00  0.00000000000E+00 -0.79850315699E+03  0.10554067236E+04  0.69012756833E+03 0.  0.
        5    1    3    3  502    0  0.10003577082E+03  0.32348140608E+03 -0.50068815667E+03  0.60444858818E+03  0.46999998093E+01 0. -1.
       -5    1    3    3    0  502 -0.10003577082E+03 -0.32348140608E+03 -0.29781500032E+03  0.45095813546E+03  0.46999998093E+01 0.  1.
</event>
<event>
 5   0  0.2606520E-02  0.7526635E+03  0.7818609E-02  0.9631181E-01
        1   -1    0    0  501    0  0.00000000000E+00  0.00000000000E+00  0.40473550291E+03  0.40473550294E+03  0.50400001928E-02 0. -1.
       -1   -1    0    0    0  501  0.00000000000E+00  0.00000000000E+00 -0.34992129398E+03  0.34992129401E+03  0.50400001928E-02 0.  1.
    10030    2    1    2    0    0  0.00000000000E+00  0.00000000000E+00  0.54814208935E+02  0.75465679695E+03  0.75266345978E+03 0.  0.
        5    1    3    3  502    0 -0.15524825041E+03 -0.24843972358E+03 -0.20939451134E+03  0.36012840333E+03  0.46999998093E+01 0.  1.
       -5    1    3    3    0  502  0.15524825041E+03  0.24843972358E+03  0.26420872028E+03  0.39452839362E+03  0.46999998093E+01 0. -1.
</event>
<event>
 5   0  0.4590462E-02  0.8083609E+03  0.7818609E-02  0.9547993E-01
       -2   -1    0    0    0  501  0.00000000000E+00  0.00000000000E+00  0.23956000702E+03  0.23956000703E+03  0.25500000920E-02 0.  1.
        2   -1    0    0  501    0  0.00000000000E+00  0.00000000000E+00 -0.68192441167E+03  0.68192441168E+03  0.25500000920E-02 0. -1.
    10030    2    1    2    0    0  0.00000000000E+00  0.00000000000E+00 -0.44236440465E+03  0.92148441871E+03  0.80836085224E+03 0.  0.
        3    1    3    3  502    0 -0.28830101701E+03  0.19187112406E+03  0.16379619832E+02  0.34669915893E+03  0.10100000352E+00 0. -1.
       -3    1    3    3    0  502  0.28830101701E+03 -0.19187112406E+03 -0.45874402449E+03  0.57478525978E+03  0.10100000352E+00 0.  1.
</event>
<event>
 5   0  0.4700220E-02  0.6937808E+03  0.7818609E-02  0.9727927E-01
        2   -1    0    0  501    0  0.00000000000E+00  0.00000000000E+00  0.54537018207E+03  0.54537018207E+03  0.25500000920E-02 0. -1.
       -2   -1    0    0    0  501  0.00000000000E+00  0.00000000000E+00 -0.22064456020E+03  0.22064456021E+03  0.25500000920E-02 0.  1.
    10030    2    1    2    0    0  0.00000000000E+00  0.00000000000E+00  0.32472562187E+03  0.76601474229E+03  0.69378084141E+03 0.  0.
        4    1    3    3  502    0 -0.16184323859E+03 -0.27041987456E+03  0.23184624586E+01  0.31516207037E+03  0.12699999809E+01 0.  1.
       -4    1    3    3    0  502  0.16184323859E+03  0.27041987456E+03  0.32240715941E+03  0.45085267191E+03  0.12699999809E+01 0. -1.
</event>
<event>
 5   0  0.4700220E-02  0.7904462E+03  0.7818609E-02  0.9573950E-01
        2   -1    0    0  501    0  0.00000000000E+00  0.00000000000E+00  0.99175288043E+03  0.99175288043E+03  0.25500000920E-02 0. -1.
       -2   -1    0    0    0  501  0.00000000000E+00  0.00000000000E+00 -0.15750024031E+03  0.15750024033E+03  0.25500000920E-02 0.  1.
    10030    2    1    2    0    0  0.00000000000E+00  0.00000000000E+00  0.83425264012E+03  0.11492531208E+04  0.79044624614E+03 0.  0.
        4    1    3    3  502    0 -0.87982004393E+02 -0.26846034194E+03  0.81896864775E+03  0.86632733259E+03  0.12699999809E+01 0. -1.
       -4    1    3    3    0  502  0.87982004393E+02  0.26846034194E+03  0.15283992373E+02  0.28292578818E+03  0.12699999809E+01 0.  1.
</event>
<event>
 5   0  0.2689372E-02  0.7981257E+03  0.7818609E-02  0.9562734E-01
        1   -1    0    0  501    0  0.00000000000E+00  0.00000000000E+00  0.16766476991E+03  0.16766476998E+03  0.50400001928E-02 0. -1.
       -1   -1    0    0    0  501  0.00000000000E+00  0.00000000000E+00 -0.94981879642E+03  0.94981879644E+03  0.50400001928E-02 0.  1.
    10030    2    1    2    0    0  0.00000000000E+00  0.00000000000E+00 -0.78215402652E+03  0.11174835664E+04  0.79812567934E+03 0.  0.
        4    1    3    3  502    0  0.24327483405E+03 -0.13444624169E+03 -0.79199285591E+03  0.83935256806E+03  0.12699999809E+01 0.  1.
       -4    1    3    3    0  502 -0.24327483405E+03  0.13444624169E+03  0.98388293944E+01  0.27813099836E+03  0.12699999809E+01 0. -1.
</event>
<event>
 5   0  0.2759559E-02  0.8049887E+03  0.7818609E-02  0.9552824E-01
        1   -1    0    0  501    0  0.00000000000E+00  0.00000000000E+00  0.24272902518E+03  0.24272902523E+03  0.50400001928E-02 0. -1.
       -1   -1    0    0    0  501  0.00000000000E+00  0.00000000000E+00 -0.66741794092E+03  0.66741794094E+03  0.50400001928E-02 0.  1.
    10030    2    1    2    0    0  0.00000000000E+00  0.00000000000E+00 -0.42468891574E+03  0.91014696617E+03  0.80498871103E+03 0.  0.
        3    1    3    3  502    0 -0.17039488410E+03 -0.22253990512E+03  0.11425645451E+03  0.30267635107E+03  0.10100000352E+00 0. -1.
       -3    1    3    3    0  502  0.17039488410E+03  0.22253990512E+03 -0.53894537025E+03  0.60747061510E+03  0.10100000352E+00 0.  1.
</event>
<event>
 5   0  0.2759559E-02  0.8102262E+03  0.7818609E-02  0.9545332E-01
        1   -1    0    0  501    0  0.00000000000E+00  0.00000000000E+00  0.17965815213E+04  0.17965815213E+04  0.50400001928E-02 0. -1.
       -1   -1    0    0    0  501  0.00000000000E+00  0.00000000000E+00 -0.91349388123E+02  0.91349388262E+02  0.50400001928E-02 0.  1.
    10030    2    1    2    0    0  0.00000000000E+00  0.00000000000E+00  0.17052321332E+04  0.18879309096E+04  0.81022619761E+03 0.  0.
        3    1    3    3  502    0 -0.82010859524E+02 -0.38816845796E+03  0.66165811869E+03  0.77148688197E+03  0.10100000352E+00 0. -1.
       -3    1    3    3    0  502  0.82010859524E+02  0.38816845796E+03  0.10435740145E+04  0.11164440276E+04  0.10100000352E+00 0.  1.
</event>
<event>
 5   0  0.4700220E-02  0.7811010E+03  0.7818609E-02  0.9587783E-01
        2   -1    0    0  501    0  0.00000000000E+00  0.00000000000E+00  0.11922995030E+04  0.11922995030E+04  0.25500000920E-02 0. -1.
       -2   -1    0    0    0  501  0.00000000000E+00  0.00000000000E+00 -0.12792900156E+03  0.12792900159E+03  0.25500000920E-02 0.  1.
    10030    2    1    2    0    0  0.00000000000E+00  0.00000000000E+00  0.10643705014E+04  0.13202285046E+04  0.78110097940E+03 0.  0.
        4    1    3    3  502    0  0.29635892576E+03 -0.13259933318E+03  0.89907042887E+03  0.95589771681E+03  0.12699999809E+01 0. -1.
       -4    1    3    3    0  502 -0.29635892576E+03  0.13259933318E+03  0.16530007258E+03  0.36433078779E+03  0.12699999809E+01 0.  1.
</event>
<event>
 5   0  0.2689372E-02  0.7903320E+03  0.7818609E-02  0.9574118E-01
        1   -1    0    0  501    0  0.00000000000E+00  0.00000000000E+00  0.50060260429E+03  0.50060260431E+03  0.50400001928E-02 0. -1.
       -1   -1    0    0    0  501  0.00000000000E+00  0.00000000000E+00 -0.31193639529E+03  0.31193639533E+03  0.50400001928E-02 0.  1.
    10030    2    1    2    0    0  0.00000000000E+00  0.00000000000E+00  0.18866620900E+03  0.81253899965E+03  0.79033201095E+03 0.  0.
        4    1    3    3  502    0 -0.56222064026E+02 -0.38729079490E+03  0.15063947482E+03  0.41934346850E+03  0.12699999809E+01 0. -1.
       -4    1    3    3    0  502  0.56222064026E+02  0.38729079490E+03  0.38026734172E+02  0.39319553115E+03  0.12699999809E+01 0.  1.
</event>
<event>
 5   0  0.4590462E-02  0.7955932E+03  0.7818609E-02  0.9566418E-01
        2   -1    0    0  501    0  0.00000000000E+00  0.00000000000E+00  0.11560558755E+04  0.11560558756E+04  0.25500000920E-02 0.  1.
       -2   -1    0    0    0  501  0.00000000000E+00  0.00000000000E+00 -0.13688104825E+03  0.13688104828E+03  0.25500000920E-02 0. -1.
    10030    2    1    2    0    0  0.00000000000E+00  0.00000000000E+00  0.10191748273E+04  0.12929369238E+04  0.79559321290E+03 0.  0.
        3    1    3    3  502    0  0.11319857553E+03 -0.21600056483E+03  0.10203312368E+04  0.10490691133E+04  0.10100000352E+00 0.  1.
       -3    1    3    3    0  502 -0.11319857553E+03  0.21600056483E+03 -0.11564095421E+01  0.24386781049E+03  0.10100000352E+00 0. -1.
</event>
<event>
 5   0  0.2606520E-02  0.7277632E+03  0.7818609E-02  0.9670897E-01
       -1   -1    0    0    0  501  0.00000000000E+00  0.00000000000E+00  0.91899245101E+03  0.91899245103E+03  0.50400001928E-02 0.  1.
        1   -1    0    0  501    0  0.00000000000E+00  0.00000000000E+00 -0.14408151284E+03  0.14408151293E+03  0.50400001928E-02 0. -1.
    10030    2    1    2    0    0  0.00000000000E+00  0.00000000000E+00  0.77491093818E+03  0.10630739640E+04  0.72776321062E+03 0.  0.
        5    1    3    3  502    0  0.26221029031E+03 -0.19899714785E+03  0.61391107863E+03  0.69660821389E+03  0.46999998093E+01 0. -1.
       -5    1    3    3    0  502 -0.26221029031E+03  0.19899714785E+03  0.16099985955E+03  0.36646575006E+03  0.46999998093E+01 0.  1.
</event>
<event>
 5   0  0.4590462E-02  0.7893439E+03  0.7818609E-02  0.9575571E-01
        2   -1    0    0  501    0  0.00000000000E+00  0.00000000000E+00  0.49077348015E+03  0.49077348015E+03  0.25500000920E-02 0. -1.
       -2   -1    0    0    0  501  0.00000000000E+00  0.00000000000E+00 -0.31738868878E+03  0.31738868879E+03  0.25500000920E-02 0.  1.
    10030    2    1    2    0    0  0.00000000000E+00  0.00000000000E+00  0.17338479136E+03  0.80816216894E+03  0.78934390822E+03 0.  0.
        3    1    3    3  502    0  0.38903576165E+03 -0.99138402248E+01  0.15397696315E+03  0.41851645542E+03  0.10100000352E+00 0. -1.
       -3    1    3    3    0  502 -0.38903576165E+03  0.99138402248E+01  0.19407828210E+02  0.38964571353E+03  0.10100000352E+00 0.  1.
</event>
<event>
 5   0  0.4684283E-02  0.6361281E+03  0.7818609E-02  0.9833163E-01
       -2   -1    0    0    0  501  0.00000000000E+00  0.00000000000E+00  0.18579491493E+03  0.18579491495E+03  0.25500000920E-02 0. -1.
        2   -1    0    0  501    0  0.00000000000E+00  0.00000000000E+00 -0.54449677119E+03  0.54449677119E+03  0.25500000920E-02 0.  1.
    10030    2    1    2    0    0  0.00000000000E+00  0.00000000000E+00 -0.35870185625E+03  0.73029168614E+03  0.63612807293E+03 0.  0.
        1    1    3    3  502    0 -0.11378327043E+03  0.20912868109E+03  0.62779997007E+02  0.24621690830E+03  0.50400001928E-02 0. -1.
       -1    1    3    3    0  502  0.11378327043E+03 -0.20912868109E+03 -0.42148185326E+03  0.48407477784E+03  0.50400001928E-02 0.  1.
</event>
<event>
 5   0  0.2606520E-02  0.8000232E+03  0.7818609E-02  0.9559984E-01
       -1   -1    0    0    0  501  0.00000000000E+00  0.00000000000E+00  0.31339207871E+03  0.31339207875E+03  0.50400001928E-02 0.  1.
        1   -1    0    0  501    0  0.00000000000E+00  0.00000000000E+00 -0.51057217466E+03  0.51057217468E+03  0.50400001928E-02 0. -1.
    10030    2    1    2    0    0  0.00000000000E+00  0.00000000000E+00 -0.19718009595E+03  0.82396425344E+03  0.80002318760E+03 0.  0.
        5    1    3    3  502    0 -0.31761265059E+03  0.21337942621E+03  0.21424377645E+02  0.38326188083E+03  0.46999998093E+01 0.  1.
       -5    1    3    3    0  502  0.31761265059E+03 -0.21337942621E+03 -0.21860447359E+03  0.44070237260E+03  0.46999998093E+01 0. -1.
</event>
<event>
 5   0  0.2769394E-02  0.7991679E+03  0.7818609E-02  0.9561222E-01
        1   -1    0    0  501    0  0.00000000000E+00  0.00000000000E+00  0.42430626974E+03  0.42430626977E+03  0.50400001928E-02 0.  1.
       -1   -1    0    0    0  501  0.00000000000E+00  0.00000000000E+00 -0.37630210658E+03  0.37630210661E+03  0.50400001928E-02 0. -1.
    10030    2    1    2    0    0  0.00000000000E+00  0.00000000000E+00  0.48004163163E+02  0.80060837639E+03  0.79916792520E+03 0.  0.
        2    1    3    3  502    0 -0.40949493738E+02 -0.39747011560E+03  0.26833716473E+02  0.40047397191E+03  0.25500000920E-02 0. -1.
       -2    1    3    3    0  502  0.40949493738E+02  0.39747011560E+03  0.21170446689E+02  0.40013440448E+03  0.25500000920E-02 0.  1.
</event>
<event>
 5   0  0.4377843E-02  0.7962890E+03  0.7818609E-02  0.9565404E-01
        2   -1    0    0  501    0  0.00000000000E+00  0.00000000000E+00  0.42827865033E+03  0.42827865034E+03  0.25500000920E-02 0. -1.
       -2   -1    0    0    0  501  0.00000000000E+00  0.00000000000E+00 -0.37013063103E+03  0.37013063104E+03  0.25500000920E-02 0.  1.
    10030    2    1    2    0    0  0.00000000000E+00  0.00000000000E+00  0.58148019302E+02  0.79840928137E+03  0.79628901062E+03 0.  0.
        2    1    3    3  502    0 -0.17066182802E+03 -0.17502360532E+03  0.34417234604E+03  0.42215320175E+03  0.25500000920E-02 0. -1.
       -2    1    3    3    0  502  0.17066182802E+03  0.17502360532E+03 -0.28602432674E+03  0.37625607963E+03  0.25500000920E-02 0.  1.
</event>
<event>
 5   0  0.4377843E-02  0.5955887E+03  0.7818609E-02  0.9914600E-01
       -2   -1    0    0    0  501  0.00000000000E+00  0.00000000000E+00  0.98247727062E+02  0.98247727095E+02  0.25500000920E-02 0.  1.
        2   -1    0    0  501    0  0.00000000000E+00  0.00000000000E+00 -0.90263146448E+03  0.90263146448E+03  0.25500000920E-02 0. -1.
    10030    2    1    2    0    0  0.00000000000E+00  0.00000000000E+00 -0.80438373742E+03  0.10008791916E+04  0.59558874999E+03 0.  0.
        2    1    3    3  502    0 -0.25150719414E+03 -0.98048986485E+01 -0.13473832620E+03  0.28549329466E+03  0.25500000920E-02 0.  1.
       -2    1    3    3    0  502  0.25150719414E+03  0.98048986485E+01 -0.66964541122E+03  0.71538589692E+03  0.25500000920E-02 0. -1.
</event>
<event>
 5   0  0.2759559E-02  0.8085987E+03  0.7818609E-02  0.9547654E-01
        1   -1    0    0  501    0  0.00000000000E+00  0.00000000000E+00  0.78830867143E+03  0.78830867145E+03  0.50400001928E-02 0.  1.
       -1   -1    0    0    0  501  0.00000000000E+00  0.00000000000E+00 -0.20735274814E+03  0.20735274820E+03  0.50400001928E-02 0. -1.
    10030    2    1    2    0    0  0.00000000000E+00  0.00000000000E+00  0.58095592329E+03  0.99566141965E+03  0.80859871244E+03 0.  0.
        3    1    3    3  502    0  0.10984592377E+03 -0.31573514393E+03  0.10491430337E+02  0.33446208812E+03  0.10100000352E+00 0. -1.
       -3    1    3    3    0  502 -0.10984592377E+03  0.31573514393E+03  0.57046449296E+03  0.66119933152E+03  0.10100000352E+00 0.  1.
</event>
<event>
 5   0  0.2769394E-02  0.7993153E+03  0.7818609E-02  0.9561009E-01
        1   -1    0    0  501    0  0.00000000000E+00  0.00000000000E+00  0.54046340492E+03  0.54046340494E+03  0.50400001928E-02 0.  1.
       -1   -1    0    0    0  501  0.00000000000E+00  0.00000000000E+00 -0.29553568979E+03  0.29553568983E+03  0.50400001928E-02 0. -1.
    10030    2    1    2    0    0  0.00000000000E+00  0.00000000000E+00  0.24492771513E+03  0.83599909477E+03  0.79931526998E+03 0.  0.
        2    1    3    3  502    0  0.20662384334E+03  0.33079003412E+03  0.21370734558E+03  0.44473170437E+03  0.25500000920E-02 0.  1.
       -2    1    3    3    0  502 -0.20662384334E+03 -0.33079003412E+03  0.31220369548E+02  0.39126739040E+03  0.25500000920E-02 0. -1.
</event>
<event>
 5   0  0.4684283E-02  0.7978546E+03  0.7818609E-02  0.9563128E-01
       -2   -1    0    0    0  501  0.00000000000E+00  0.00000000000E+00  0.19082079167E+03  0.19082079168E+03  0.25500000920E-02 0.  1.
        2   -1    0    0  501    0  0.00000000000E+00  0.00000000000E+00 -0.83399187164E+03  0.83399187164E+03  0.25500000920E-02 0. -1.
    10030    2    1    2    0    0  0.00000000000E+00  0.00000000000E+00 -0.64317107997E+03  0.10248126633E+04  0.79785459628E+03 0.  0.
        1    1    3    3  502    0 -0.21589922957E+03 -0.19388232069E+03 -0.67320915366E+03  0.73308484925E+03  0.50400001928E-02 0. -1.
       -1    1    3    3    0  502  0.21589922957E+03  0.19388232069E+03  0.30038073687E+02  0.29172781407E+03  0.50400001928E-02 0.  1.
</event>
<event>
 5   0  0.2689372E-02  0.8189613E+03  0.7818609E-02  0.9532970E-01
       -1   -1    0    0    0  501  0.00000000000E+00  0.00000000000E+00  0.10799541121E+03  0.10799541133E+03  0.50400001928E-02 0.  1.
        1   -1    0    0  501    0  0.00000000000E+00  0.00000000000E+00 -0.15526068848E+04  0.15526068848E+04  0.50400001928E-02 0. -1.
    10030    2    1    2    0    0  0.00000000000E+00  0.00000000000E+00 -0.14446114736E+04  0.16606022961E+04  0.81896133993E+03 0.  0.
        4    1    3    3  502    0  0.69432525045E+02  0.40134596890E+03 -0.63691736845E+03  0.75601905361E+03  0.12699999809E+01 0.  1.
       -4    1    3    3    0  502 -0.69432525045E+02 -0.40134596890E+03 -0.80769410513E+03  0.90458324252E+03  0.12699999809E+01 0. -1.
</event>
<event>
 5   0  0.4684283E-02  0.7960257E+03  0.7818609E-02  0.9565788E-01
        2   -1    0    0  501    0  0.00000000000E+00  0.00000000000E+00  0.16186625358E+04  0.16186625358E+04  0.25500000920E-02 0. -1.
       -2   -1    0    0    0  501  0.00000000000E+00  0.00000000000E+00 -0.97867371048E+02  0.97867371081E+02  0.25500000920E-02 0.  1.
    10030    2    1    2    0    0  0.00000000000E+00  0.00000000000E+00  0.15207951647E+04  0.17165299069E+04  0.79602574587E+03 0.  0.
        1    1    3    3  502    0  0.13909480857E+02 -0.10765473094E+03  0.15861265154E+04  0.15898365757E+04  0.50400001928E-02 0. -1.
       -1    1    3    3    0  502 -0.13909480857E+02  0.10765473094E+03 -0.65331350638E+02  0.12669333113E+03  0.50400001928E-02 0.  1.
</event>
<event>
 5   0  0.2635243E-02  0.7656487E+03  0.7818609E-02  0.9611115E-01
       -1   -1    0    0    0  501  0.00000000000E+00  0.00000000000E+00  0.36790177513E+03  0.36790177516E+03  0.50400001928E-02 0. -1.
        1   -1    0    0  501    0  0.00000000000E+00  0.00000000000E+00 -0.39835218182E+03  0.39835218185E+03  0.50400001928E-02 0.  1.
    10030    2    1    2    0    0  0.00000000000E+00  0.00000000000E+00 -0.30450406693E+02  0.76625395702E+03  0.76564867882E+03 0.  0.
        1    1    3    3  502    0  0.93459954628E+02 -0.16776748806E+03  0.31620692224E+03  0.36995609316E+03  0.50400001928E-02 0. -1.
       -1    1    3    3    0  502 -0.93459954628E+02  0.16776748806E+03 -0.34665732893E+03  0.39629786386E+03  0.50400001928E-02 0.  1.
</event>
<event>
 5   0  0.4700220E-02  0.7636155E+03  0.7818609E-02  0.9614229E-01
        2   -1    0    0  501    0  0.00000000000E+00  0.00000000000E+00  0.18682864075E+04  0.18682864075E+04  0.25500000920E-02 0. -1.
       -2   -1    0    0    0  501  0.00000000000E+00  0.00000000000E+00 -0.78027196431E+02  0.78027196473E+02  0.25500000920E-02 0.  1.
    10030    2    1    2    0    0  0.00000000000E+00  0.00000000000E+00  0.17902592111E+04  0.19463136040E+04  0.76361548060E+03 0.  0.
        4    1    3    3  502    0 -0.17376717171E+03  0.29891728161E+03  0.48234006655E+03  0.59346450940E+03  0.12699999809E+01 0. -1.
       -4    1    3    3    0  502  0.17376717171E+03 -0.29891728161E+03  0.13079191445E+04  0.13528490946E+04  0.12699999809E+01 0.  1.
</event>
<event>
 5   0  0.2606520E-02  0.7385267E+03  0.7818609E-02  0.9653524E-01
       -1   -1    0    0    0  501  0.00000000000E+00  0.00000000000E+00  0.27959599423E+03  0.27959599428E+03  0.50400001928E-02 0. -1.
        1   -1    0    0  501    0  0.00000000000E+00  0.00000000000E+00 -0.48768735678E+03  0.48768735681E+03  0.50400001928E-02 0.  1.
    10030    2    1    2    0    0  0.00000000000E+00  0.00000000000E+00 -0.20809136255E+03  0.76728335108E+03  0.73852672645E+03 0.  0.
        5    1    3    3  502    0 -0.86404973948E+02  0.26587338600E+03  0.14654919012E+03  0.31567900157E+03  0.46999998093E+01 0. -1.
       -5    1    3    3    0  502  0.86404973948E+02 -0.26587338600E+03 -0.35464055267E+03  0.45160434952E+03  0.46999998093E+01 0.  1.
</event>
<event>
 5   0  0.4590462E-02  0.7959850E+03  0.7818609E-02  0.9565847E-01
       -2   -1    0    0    0  501  0.00000000000E+00  0.00000000000E+00  0.64785356057E+02  0.64785356107E+02  0.25500000920E-02 0. -1.
        2   -1    0    0  501    0  0.00000000000E+00  0.00000000000E+00 -0.24449665192E+04  0.24449665192E+04  0.25500000920E-02 0.  1.
    10030    2    1    2    0    0  0.00000000000E+00  0.00000000000E+00 -0.23801811631E+04  0.25097518753E+04  0.79598499121E+03 0.  0.
        3    1    3    3  502    0  0.65759991530E+02  0.21117907679E+03 -0.14684290388E+03  0.26548790477E+03  0.10100000352E+00 0. -1.
       -3    1    3    3    0  502 -0.65759991530E+02 -0.21117907679E+03 -0.22333382592E+04  0.22442639705E+04  0.10100000352E+00 0.  1.
</event>
<event>
 5   0  0.4377843E-02  0.7893890E+03  0.7818609E-02  0.9575504E-01
       -2   -1    0    0    0  501  0.00000000000E+00  0.00000000000E+00  0.10666860616E+03  0.10666860619E+03  0.25500000920E-02 0. -1.
        2   -1    0    0  501    0  0.00000000000E+00  0.00000000000E+00 -0.14604460767E+04  0.14604460767E+04  0.25500000920E-02 0.  1.
    10030    2    1    2    0    0  0.00000000000E+00  0.00000000000E+00 -0.13537774705E+04  0.15671146829E+04  0.78938899763E+03 0.  0.
        2    1    3    3  502    0  0.31625918861E+03 -0.19444092319E+03 -0.41086415308E+03  0.55374768558E+03  0.25500000920E-02 0.  1.
       -2    1    3    3    0  502 -0.31625918861E+03  0.19444092319E+03 -0.94291331742E+03  0.10133669973E+04  0.25500000920E-02 0. -1.
</event>
<event>
 5   0  0.4684283E-02  0.8380227E+03  0.7818609E-02  0.9506555E-01
       -2   -1    0    0    0  501  0.00000000000E+00  0.00000000000E+00  0.72987633387E+02  0.72987633431E+02  0.25500000920E-02 0. -1.
        2   -1    0    0  501    0  0.00000000000E+00  0.00000000000E+00 -0.24054830739E+04  0.24054830739E+04  0.25500000920E-02 0.  1.
    10030    2    1    2    0    0  0.00000000000E+00  0.00000000000E+00 -0.23324954405E+04  0.24784707073E+04  0.83802271275E+03 0.  0.
        1    1    3    3  502    0 -0.90989310962E+02 -0.36869483506E+03 -0.64254428257E+03  0.74637664165E+03  0.50400001928E-02 0. -1.
       -1    1    3    3    0  502  0.90989310962E+02  0.36869483506E+03 -0.16899511579E+04  0.17320940657E+04  0.50400001928E-02 0.  1.
</event>
<event>
 5   0  0.2769394E-02  0.8493055E+03  0.7818609E-02  0.9491270E-01
       -1   -1    0    0    0  501  0.00000000000E+00  0.00000000000E+00  0.18819012833E+03  0.18819012840E+03  0.50400001928E-02 0.  1.
        1   -1    0    0  501    0  0.00000000000E+00  0.00000000000E+00 -0.95823281981E+03  0.95823281982E+03  0.50400001928E-02 0. -1.
    10030    2    1    2    0    0  0.00000000000E+00  0.00000000000E+00 -0.77004269147E+03  0.11464229482E+04  0.84930549835E+03 0.  0.
        2    1    3    3  502    0 -0.38880621545E+03  0.17006450643E+03 -0.40583456388E+03  0.58719153840E+03  0.25500000920E-02 0. -1.
       -2    1    3    3    0  502  0.38880621545E+03 -0.17006450643E+03 -0.36420812760E+03  0.55923140983E+03  0.25500000920E-02 0.  1.
</event>
<event>
 5   0  0.4377843E-02  0.8052183E+03  0.7818609E-02  0.9552494E-01
       -2   -1    0    0    0  501  0.00000000000E+00  0.00000000000E+00  0.19175228952E+03  0.19175228954E+03  0.25500000920E-02 0. -1.
        2   -1    0    0  501    0  0.00000000000E+00  0.00000000000E+00 -0.84533095553E+03  0.84533095554E+03  0.25500000920E-02 0.  1.
    10030    2    1    2    0    0  0.00000000000E+00  0.00000000000E+00 -0.65357866601E+03  0.10370832451E+04  0.80521834589E+03 0.  0.
        2    1    3    3  502    0  0.31682598019E+03  0.18226904692E+03 -0.54419576621E+03  0.65555300255E+03  0.25500000920E-02 0. -1.
       -2    1    3    3    0  502 -0.31682598019E+03 -0.18226904692E+03 -0.10938289980E+03  0.38153024253E+03  0.25500000920E-02 0.  1.
</event>
<event>
 5   0  0.2759559E-02  0.7971111E+03  0.7818609E-02  0.9564208E-01
       -1   -1    0    0    0  501  0.00000000000E+00  0.00000000000E+00  0.28970669213E+03  0.28970669217E+03  0.50400001928E-02 0. -1.
        1   -1    0    0  501    0  0.00000000000E+00  0.00000000000E+00 -0.54830125446E+03  0.54830125448E+03  0.50400001928E-02 0.  1.
    10030    2    1    2    0    0  0.00000000000E+00  0.00000000000E+00 -0.25859456233E+03  0.83800794665E+03  0.79711114093E+03 0.  0.
        3    1    3    3  502    0  0.28480369702E+03  0.10058534635E+03  0.14407464614E+03  0.33464618868E+03  0.10100000352E+00 0. -1.
       -3    1    3    3    0  502 -0.28480369702E+03 -0.10058534635E+03 -0.40266920847E+03  0.50336175797E+03  0.10100000352E+00 0.  1.
</event>
<event>
 5   0  0.2689372E-02  0.8101797E+03  0.7818609E-02  0.9545398E-01
       -1   -1    0    0    0  501  0.00000000000E+00  0.00000000000E+00  0.32785220841E+03  0.32785220845E+03  0.50400001928E-02 0.  1.
        1   -1    0    0  501    0  0.00000000000E+00  0.00000000000E+00 -0.50052368305E+03  0.50052368307E+03  0.50400001928E-02 0. -1.
    10030    2    1    2    0    0  0.00000000000E+00  0.00000000000E+00 -0.17267147464E+03  0.82837589152E+03  0.81017972050E+03 0.  0.
        4    1    3    3  502    0  0.72190731814E+02  0.22093718503E+03 -0.42555726668E+03  0.48489724851E+03  0.12699999809E+01 0. -1.
       -4    1    3    3    0  502 -0.72190731814E+02 -0.22093718503E+03  0.25288579204E+03  0.34347864301E+03  0.12699999809E+01 0.  1.
</event>
<event>
 5   0  0.2769394E-02  0.7889172E+03  0.7818609E-02  0.9576199E-01
       -1   -1    0    0    0  501  0.00000000000E+00  0.00000000000E+00  0.19831341803E+03  0.19831341809E+03  0.50400001928E-02 0.  1.
        1   -1    0    0  501    0  0.00000000000E+00  0.00000000000E+00 -0.78460445106E+03  0.78460445108E+03  0.50400001928E-02 0. -1.
    10030    2    1    2    0    0  0.00000000000E+00  0.00000000000E+00 -0.58629103304E+03  0.98291786917E+03  0.78891720866E+03 0.  0.
        2    1    3    3  502    0 -0.74980304901E+02  0.22750362110E+03 -0.68360912485E+03  0.72436274016E+03  0.25500000920E-02 0. -1.
       -2    1    3    3    0  502  0.74980304901E+02 -0.22750362110E+03  0.97318091818E+02  0.25855512901E+03  0.25500000920E-02 0.  1.
</event>
<event>
 5   0  0.2606520E-02  0.8064871E+03  0.7818609E-02  0.9550674E-01
        1   -1    0    0  501    0  0.00000000000E+00  0.00000000000E+00  0.25958441747E+03  0.25958441752E+03  0.50400001928E-02 0.  1.
       -1   -1    0    0    0  501  0.00000000000E+00  0.00000000000E+00 -0.62640654743E+03  0.62640654745E+03  0.50400001928E-02 0. -1.
    10030    2    1    2    0    0  0.00000000000E+00  0.00000000000E+00 -0.36682212996E+03  0.88599096496E+03  0.80648714495E+03 0.  0.
        5    1    3    3  502    0 -0.42121213868E+01 -0.37545052771E+03 -0.34487789837E+03  0.50984673727E+03  0.46999998093E+01 0. -1.
       -5    1    3    3    0  502  0.42121213868E+01  0.37545052771E+03 -0.21944231591E+02  0.37614422769E+03  0.46999998093E+01 0.  1.
</event>
<event>
 5   0  0.4590462E-02  0.6863040E+03  0.7818609E-02  0.9740945E-01
       -2   -1    0    0    0  501  0.00000000000E+00  0.00000000000E+00  0.32508961319E+03  0.32508961320E+03  0.25500000920E-02 0. -1.
        2   -1    0    0  501    0  0.00000000000E+00  0.00000000000E+00 -0.36221791137E+03  0.36221791138E+03  0.25500000920E-02 0.  1.
    10030    2    1    2    0    0  0.00000000000E+00  0.00000000000E+00 -0.37128298182E+02  0.68730752458E+03  0.68630395804E+03 0.  0.
        3    1    3    3  502    0 -0.89405578356E+02 -0.40505941529E+01  0.31319584132E+03  0.32573211382E+03  0.10100000352E+00 0. -1.
       -3    1    3    3    0  502  0.89405578356E+02  0.40505941529E+01 -0.35032413950E+03  0.36157541076E+03  0.10100000352E+00 0.  1.
</event>
<event>
 5   0  0.4700220E-02  0.8436895E+03  0.7818609E-02  0.9498846E-01
        2   -1    0    0  501    0  0.00000000000E+00  0.00000000000E+00  0.53671956337E+03  0.53671956337E+03  0.25500000920E-02 0.  1.
       -2   -1    0    0    0  501  0.00000000000E+00  0.00000000000E+00 -0.33155672503E+03  0.33155672504E+03  0.25500000920E-02 0. -1.
    10030    2    1    2    0    0  0.00000000000E+00  0.00000000000E+00  0.20516283834E+03  0.86827628841E+03  0.84368947059E+03 0.  0.
        4    1    3    3  502    0 -0.40228004380E+03 -0.11862806663E+03  0.14917230469E+03  0.44514698833E+03  0.12699999809E+01 0.  1.
       -4    1    3    3    0  502  0.40228004380E+03  0.11862806663E+03  0.55990533649E+02  0.42312930008E+03  0.12699999809E+01 0. -1.
</event>
<event>
 5   0  0.4663634E-02  0.7934767E+03  0.7818609E-02  0.9569508E-01
       -2   -1    0    0    0  501  0.00000000000E+00  0.00000000000E+00  0.25801032662E+03  0.25801032663E+03  0.25500000920E-02 0. -1.
        2   -1    0    0  501    0  0.00000000000E+00  0.00000000000E+00 -0.61005828015E+03  0.61005828016E+03  0.25500000920E-02 0.  1.
    10030    2    1    2    0    0  0.00000000000E+00  0.00000000000E+00 -0.35204795353E+03  0.86806860679E+03  0.79347674478E+03 0.  0.
        5    1    3    3  502    0 -0.10099920290E+02  0.12382564423E+03 -0.58819651429E+03  0.60119217226E+03  0.46999998093E+01 0.  1.
       -5    1    3    3    0  502  0.10099920290E+02 -0.12382564423E+03  0.23614856076E+03  0.26687643453E+03  0.46999998093E+01 0. -1.
</event>
<event>
 5   0  0.2769394E-02  0.8307730E+03  0.7818609E-02  0.9516512E-01
       -1   -1    0    0    0  501  0.00000000000E+00  0.00000000000E+00  0.53811524933E+03  0.53811524936E+03  0.50400001928E-02 0. -1.
        1   -1    0    0  501    0  0.00000000000E+00  0.00000000000E+00 -0.32064866397E+03  0.32064866400E+03  0.50400001928E-02 0.  1.
    10030    2    1    2    0    0  0.00000000000E+00  0.00000000000E+00  0.21746658537E+03  0.85876391336E+03  0.83077297930E+03 0.  0.
        2    1    3    3  502    0  0.13397109461E+03  0.38934696264E+03  0.16541344427E+03  0.44373519024E+03  0.25500000920E-02 0. -1.
       -2    1    3    3    0  502 -0.13397109461E+03 -0.38934696264E+03  0.52053141102E+02  0.41502872312E+03  0.25500000920E-02 0.  1.
</event>
<event>
 5   0  0.1786500E-02  0.8074897E+03  0.7818609E-02  0.9549239E-01
       -4   -1    0    0    0  501  0.00000000000E+00  0.00000000000E+00  0.11984822811E+04  0.11984829540E+04  0.12699999809E+01 0.  1.
        4   -1    0    0  501    0  0.00000000000E+00  0.00000000000E+00 -0.13600992131E+03  0.13601585053E+03  0.12699999809E+01 0. -1.
    10030    2    1    2    0    0  0.00000000000E+00  0.00000000000E+00  0.10624723598E+04  0.13344988045E+04  0.80748965564E+03 0.  0.
        3    1    3    3  502    0  0.16369676240E+03  0.36160519591E+03  0.65329684594E+03  0.76442902015E+03  0.10100000352E+00 0.  1.
       -3    1    3    3    0  502 -0.16369676240E+03 -0.36160519591E+03  0.40917551388E+03  0.57006978440E+03  0.10100000352E+00 0. -1.
</event>
<event>
 5   0  0.1786500E-02  0.8234355E+03  0.7818609E-02  0.9526701E-01
       -3   -1    0    0    0  501  0.00000000000E+00  0.00000000000E+00  0.22353457465E+03  0.22353459747E+03  0.10100000352E+00 0. -1.
        3   -1    0    0  501    0  0.00000000000E+00  0.00000000000E+00 -0.75832334865E+03  0.75832335538E+03  0.10100000352E+00 0.  1.
    10030    2    1    2    0    0  0.00000000000E+00  0.00000000000E+00 -0.53478877400E+03  0.98185795284E+03  0.82343549035E+03 0.  0.
        2    1    3    3  502    0  0.40524665909E+03  0.71726705861E+02 -0.28159970800E+03  0.49866619155E+03  0.25500000920E-02 0.  1.
       -2    1    3    3    0  502 -0.40524665909E+03 -0.71726705861E+02 -0.25318906600E+03  0.48319176130E+03  0.25500000920E-02 0. -1.
</event>
<event>
 5   0  0.2606520E-02  0.7924191E+03  0.7818609E-02  0.9571055E-01
        1   -1    0    0  501    0  0.00000000000E+00  0.00000000000E+00  0.32829360253E+03  0.32829360257E+03  0.50400001928E-02 0.  1.
       -1   -1    0    0    0  501  0.00000000000E+00  0.00000000000E+00 -0.47817560357E+03  0.47817560360E+03  0.50400001928E-02 0. -1.
    10030    2    1    2    0    0  0.00000000000E+00  0.00000000000E+00 -0.14988200104E+03  0.80646920617E+03  0.79241905975E+03 0.  0.
        5    1    3    3  502    0  0.21917551312E+03  0.24916337174E+03  0.14532096600E+03  0.36229899879E+03  0.46999998093E+01 0. -1.
       -5    1    3    3    0  502 -0.21917551312E+03 -0.24916337174E+03 -0.29520296704E+03  0.44417020737E+03  0.46999998093E+01 0.  1.
</event>
<event>
 5   0  0.2689372E-02  0.8179909E+03  0.7818609E-02  0.9534335E-01
        1   -1    0    0  501    0  0.00000000000E+00  0.00000000000E+00  0.80860897811E+03  0.80860897813E+03  0.50400001928E-02 0. -1.
       -1   -1    0    0    0  501  0.00000000000E+00  0.00000000000E+00 -0.20687041038E+03  0.20687041044E+03  0.50400001928E-02 0.  1.
    10030    2    1    2    0    0  0.00000000000E+00  0.00000000000E+00  0.60173856774E+03  0.10154793886E+04  0.81799088302E+03 0.  0.
        4    1    3    3  502    0 -0.25468086866E+02  0.15121269904E+03  0.77156942850E+03  0.78666060007E+03  0.12699999809E+01 0. -1.
       -4    1    3    3    0  502  0.25468086866E+02 -0.15121269904E+03 -0.16983086077E+03  0.22881878850E+03  0.12699999809E+01 0.  1.
</event>
<event>
 5   0  0.2635243E-02  0.8395321E+03  0.7818609E-02  0.9504495E-01
        1   -1    0    0  501    0  0.00000000000E+00  0.00000000000E+00  0.51646491601E+03  0.51646491603E+03  0.50400001928E-02 0.  1.
       -1   -1    0    0    0  501  0.00000000000E+00  0.00000000000E+00 -0.34117231678E+03  0.34117231682E+03  0.50400001928E-02 0. -1.
    10030    2    1    2    0    0  0.00000000000E+00  0.00000000000E+00  0.17529259923E+03  0.85763723285E+03  0.83953208862E+03 0.  0.
        1    1    3    3  502    0 -0.23376343350E+03  0.31860032620E+03 -0.57012682357E+02  0.39925174598E+03  0.50400001928E-02 0. -1.
       -1    1    3    3    0  502  0.23376343350E+03 -0.31860032620E+03  0.23230528158E+03  0.45838548687E+03  0.50400001928E-02 0.  1.
</event>
<event>
 5   0  0.4700220E-02  0.4952600E+03  0.7818609E-02  0.1015024E+00
       -2   -1    0    0    0  501  0.00000000000E+00  0.00000000000E+00  0.12547855227E+03  0.12547855230E+03  0.25500000920E-02 0. -1.
        2   -1    0    0  501    0  0.00000000000E+00  0.00000000000E+00 -0.48869394192E+03  0.48869394193E+03  0.25500000920E-02 0.  1.
    10030    2    1    2    0    0  0.00000000000E+00  0.00000000000E+00 -0.36321538965E+03  0.61417249423E+03  0.49525996546E+03 0.  0.
        4    1    3    3  502    0 -0.17566065489E+03 -0.75592330560E+02 -0.37669469381E+03  0.42245872149E+03  0.12699999809E+01 0. -1.
       -4    1    3    3    0  502  0.17566065489E+03  0.75592330560E+02  0.13479304163E+02  0.19171377274E+03  0.12699999809E+01 0.  1.
</event>
<event>
 5   0  0.4663634E-02  0.7931939E+03  0.7818609E-02  0.9569921E-01
       -2   -1    0    0    0  501  0.00000000000E+00  0.00000000000E+00  0.15413136901E+03  0.15413136903E+03  0.25500000920E-02 0.  1.
        2   -1    0    0  501    0  0.00000000000E+00  0.00000000000E+00 -0.10204874991E+04  0.10204874991E+04  0.25500000920E-02 0. -1.
    10030    2    1    2    0    0  0.00000000000E+00  0.00000000000E+00 -0.86635613007E+03  0.11746188681E+04  0.79319388626E+03 0.  0.
        5    1    3    3  502    0  0.38425283540E+02 -0.32991410681E+03 -0.11231289420E+03  0.35065096106E+03  0.46999998093E+01 0.  1.
       -5    1    3    3    0  502 -0.38425283540E+02  0.32991410681E+03 -0.75404323586E+03  0.82396790704E+03  0.46999998093E+01 0. -1.
</event>
<event>
 5   0  0.2606520E-02  0.8046595E+03  0.7818609E-02  0.9553297E-01
       -1   -1    0    0    0  501  0.00000000000E+00  0.00000000000E+00  0.18301915762E+03  0.18301915769E+03  0.50400001928E-02 0. -1.
        1   -1    0    0  501    0  0.00000000000E+00  0.00000000000E+00 -0.88443870434E+03  0.88443870436E+03  0.50400001928E-02 0.  1.
    10030    2    1    2    0    0  0.00000000000E+00  0.00000000000E+00 -0.70141954672E+03  0.10674578620E+04  0.80465949738E+03 0.  0.
        5    1    3    3  502    0  0.25908893697E+03  0.28823570138E+03 -0.49383611269E+03  0.62777630810E+03  0.46999998093E+01 0.  1.
       -5    1    3    3    0  502 -0.25908893697E+03 -0.28823570138E+03 -0.20758343403E+03  0.43968155395E+03  0.46999998093E+01 0. -1.
</event>
<event>
 5   0  0.4684283E-02  0.7914440E+03  0.7818609E-02  0.9572485E-01
        2   -1    0    0  501    0  0.00000000000E+00  0.00000000000E+00  0.10624369302E+04  0.10624369302E+04  0.25500000920E-02 0. -1.
       -2   -1    0    0    0  501  0.00000000000E+00  0.00000000000E+00 -0.14739312275E+03  0.14739312277E+03  0.25500000920E-02 0.  1.
    10030    2    1    2    0    0  0.00000000000E+00  0.00000000000E+00  0.91504380747E+03  0.12098300530E+04  0.79144398887E+03 0.  0.
        1    1    3    3  502    0  0.28348476947E+03  0.21537098292E+03  0.72161621836E+03  0.80466032675E+03  0.50400001928E-02 0. -1.
       -1    1    3    3    0  502 -0.28348476947E+03 -0.21537098292E+03  0.19342758911E+03  0.40516972624E+03  0.50400001928E-02 0.  1.
</event>
<event>
 5   0  0.4377843E-02  0.7929061E+03  0.7818609E-02  0.9570342E-01
       -2   -1    0    0    0  501  0.00000000000E+00  0.00000000000E+00  0.24052575630E+03  0.24052575631E+03  0.25500000920E-02 0. -1.
        2   -1    0    0  501    0  0.00000000000E+00  0.00000000000E+00 -0.65346433091E+03  0.65346433091E+03  0.25500000920E-02 0.  1.
    10030    2    1    2    0    0  0.00000000000E+00  0.00000000000E+00 -0.41293857461E+03  0.89399008722E+03  0.79290605348E+03 0.  0.
        2    1    3    3  502    0 -0.56895815852E+02  0.22373176478E+03  0.15692747179E+03  0.27914022971E+03  0.25500000920E-02 0. -1.
       -2    1    3    3    0  502  0.56895815852E+02 -0.22373176478E+03 -0.56986604641E+03  0.61484985751E+03  0.25500000920E-02 0.  1.
</event>
<event>
 5   0  0.4377843E-02  0.7857339E+03  0.7818609E-02  0.9580899E-01
       -2   -1    0    0    0  501  0.00000000000E+00  0.00000000000E+00  0.22467092816E+03  0.22467092818E+03  0.25500000920E-02 0. -1.
        2   -1    0    0  501    0  0.00000000000E+00  0.00000000000E+00 -0.68698007911E+03  0.68698007911E+03  0.25500000920E-02 0.  1.
    10030    2    1    2    0    0  0.00000000000E+00  0.00000000000E+00 -0.46230915094E+03  0.91165100729E+03  0.78573392955E+03 0.  0.
        2    1    3    3  502    0 -0.10674282308E+03 -0.37795938081E+03 -0.21971984998E+03  0.45002681732E+03  0.25500000920E-02 0. -1.
       -2    1    3    3    0  502  0.10674282308E+03  0.37795938081E+03 -0.24258930096E+03  0.46162418997E+03  0.25500000920E-02 0.  1.
</event>
<event>
 5   0  0.2689372E-02  0.8129938E+03  0.7818609E-02  0.9541397E-01
        1   -1    0    0  501    0  0.00000000000E+00  0.00000000000E+00  0.14950539256E+04  0.14950539256E+04  0.50400001928E-02 0.  1.
       -1   -1    0    0    0  501  0.00000000000E+00  0.00000000000E+00 -0.11052426149E+03  0.11052426161E+03  0.50400001928E-02 0. -1.
    10030    2    1    2    0    0  0.00000000000E+00  0.00000000000E+00  0.13845296641E+04  0.16055781872E+04  0.81299380345E+03 0.  0.
        4    1    3    3  502    0  0.16468816115E+03 -0.19479494672E+03  0.67214604619E+02  0.26379286886E+03  0.12699999809E+01 0. -1.
       -4    1    3    3    0  502 -0.16468816115E+03  0.19479494672E+03  0.13173150594E+04  0.13417853183E+04  0.12699999809E+01 0.  1.
</event>
<event>
 5   0  0.2635243E-02  0.7447297E+03  0.7818609E-02  0.9643655E-01
       -1   -1    0    0    0  501  0.00000000000E+00  0.00000000000E+00  0.20787139154E+03  0.20787139160E+03  0.50400001928E-02 0. -1.
        1   -1    0    0  501    0  0.00000000000E+00  0.00000000000E+00 -0.66702588194E+03  0.66702588196E+03  0.50400001928E-02 0.  1.
    10030    2    1    2    0    0  0.00000000000E+00  0.00000000000E+00 -0.45915449041E+03  0.87489727356E+03  0.74472974509E+03 0.  0.
        1    1    3    3  502    0 -0.80909943586E+02  0.16396917627E+03  0.15150112418E+03  0.23745504920E+03  0.50400001928E-02 0. -1.
       -1    1    3    3    0  502  0.80909943586E+02 -0.16396917627E+03 -0.61065561459E+03  0.63744222436E+03  0.50400001928E-02 0.  1.
</event>
<event>
 5   0  0.4663634E-02  0.7412150E+03  0.7818609E-02  0.9649234E-01
       -2   -1    0    0    0  501  0.00000000000E+00  0.00000000000E+00  0.29646887856E+03  0.29646887857E+03  0.25500000920E-02 0. -1.
        2   -1    0    0  501    0  0.00000000000E+00  0.00000000000E+00 -0.46328618947E+03  0.46328618947E+03  0.25500000920E-02 0.  1.
    10030    2    1    2    0    0  0.00000000000E+00  0.00000000000E+00 -0.16681731091E+03  0.75975506804E+03  0.74121504855E+03 0.  0.
        5    1    3    3  502    0 -0.29940578795E+03 -0.13917687981E+03 -0.25588462328E+03  0.41774760341E+03  0.46999998093E+01 0.  1.
       -5    1    3    3    0  502  0.29940578795E+03  0.13917687981E+03  0.89067312367E+02  0.34200746463E+03  0.46999998093E+01 0. -1.
</event>
<event>
 5   0  0.2606520E-02  0.6731685E+03  0.7818609E-02  0.9764251E-01
       -1   -1    0    0    0  501  0.00000000000E+00  0.00000000000E+00  0.81562311495E+03  0.81562311496E+03  0.50400001928E-02 0. -1.
        1   -1    0    0  501    0  0.00000000000E+00  0.00000000000E+00 -0.13889865639E+03  0.13889865648E+03  0.50400001928E-02 0.  1.
    10030    2    1    2    0    0  0.00000000000E+00  0.00000000000E+00  0.67672445856E+03  0.95452177144E+03  0.67316849253E+03 0.  0.
        5    1    3    3  502    0  0.98644199545E+02  0.29590628650E+03  0.15914019081E+03  0.35019837067E+03  0.46999998093E+01 0.  1.
       -5    1    3    3    0  502 -0.98644199545E+02 -0.29590628650E+03  0.51758426775E+03  0.60432340077E+03  0.46999998093E+01 0. -1.
</event>
<event>
 5   0  0.4377843E-02  0.8280735E+03  0.7818609E-02  0.9520248E-01
       -2   -1    0    0    0  501  0.00000000000E+00  0.00000000000E+00  0.12496794819E+03  0.12496794822E+03  0.25500000920E-02 0. -1.
        2   -1    0    0  501    0  0.00000000000E+00  0.00000000000E+00 -0.13717633416E+04  0.13717633416E+04  0.25500000920E-02 0.  1.
    10030    2    1    2    0    0  0.00000000000E+00  0.00000000000E+00 -0.12467953934E+04  0.14967312898E+04  0.82807354799E+03 0.  0.
        2    1    3    3  502    0 -0.55364970599E+02  0.27225005067E+03 -0.11782725634E+04  0.12105831668E+04  0.25500000920E-02 0.  1.
       -2    1    3    3    0  502  0.55364970599E+02 -0.27225005067E+03 -0.68522829983E+02  0.28614812300E+03  0.25500000920E-02 0. -1.
</event>
<event>
 5   0  0.4700220E-02  0.8256943E+03  0.7818609E-02  0.9523553E-01
        2   -1    0    0  501    0  0.00000000000E+00  0.00000000000E+00  0.72897395483E+03  0.72897395483E+03  0.25500000920E-02 0.  1.
       -2   -1    0    0    0  501  0.00000000000E+00  0.00000000000E+00 -0.23381188729E+03  0.23381188731E+03  0.25500000920E-02 0. -1.
    10030    2    1    2    0    0  0.00000000000E+00  0.00000000000E+00  0.49516206754E+03  0.96278584214E+03  0.82569431674E+03 0.  0.
        4    1    3    3  502    0 -0.30928990736E+03 -0.11238663460E+03  0.53827199528E+03  0.63089567778E+03  0.12699999809E+01 0.  1.
       -4    1    3    3    0  502  0.30928990736E+03  0.11238663460E+03 -0.43109927743E+02  0.33189016437E+03  0.12699999809E+01 0. -1.
</event>
<event>
 5   0  0.2689372E-02  0.8200173E+03  0.7818609E-02  0.9531486E-01
        1   -1    0    0  501    0  0.00000000000E+00  0.00000000000E+00  0.10594560403E+04  0.10594560403E+04  0.50400001928E-02 0.  1.
       -1   -1    0    0    0  501  0.00000000000E+00  0.00000000000E+00 -0.15867304204E+03  0.15867304212E+03  0.50400001928E-02 0. -1.
    10030    2    1    2    0    0  0.00000000000E+00  0.00000000000E+00  0.90078299825E+03  0.12181290824E+04  0.82001734830E+03 0.  0.
        4    1    3    3  502    0  0.34709353180E+03  0.95075816436E+02  0.74221473389E+03  0.82486220351E+03  0.12699999809E+01 0.  1.
       -4    1    3    3    0  502 -0.34709353180E+03 -0.95075816436E+02  0.15856826436E+03  0.39326687891E+03  0.12699999809E+01 0. -1.
</event>
<event>
 5   0  0.4663634E-02  0.8044122E+03  0.7818609E-02  0.9553653E-01
        2   -1    0    0  501    0  0.00000000000E+00  0.00000000000E+00  0.23713793102E+03  0.23713793104E+03  0.25500000920E-02 0.  1.
       -2   -1    0    0    0  501  0.00000000000E+00  0.00000000000E+00 -0.68217574228E+03  0.68217574228E+03  0.25500000920E-02 0. -1.
    10030    2    1    2    0    0  0.00000000000E+00  0.00000000000E+00 -0.44503781125E+03  0.91931367332E+03  0.80441219316E+03 0.  0.
        5    1    3    3  502    0 -0.27256754758E+03  0.55954444567E+02  0.10934488274E+03  0.29900227631E+03  0.46999998093E+01 0.  1.
       -5    1    3    3    0  502  0.27256754758E+03 -0.55954444567E+02 -0.55438269399E+03  0.62031139701E+03  0.46999998093E+01 0. -1.
</event>
<event>
 5   0  0.4590462E-02  0.7733425E+03  0.7818609E-02  0.9599425E-01
        2   -1    0    0  501    0  0.00000000000E+00  0.00000000000E+00  0.47505889788E+03  0.47505889789E+03  0.25500000920E-02 0.  1.
       -2   -1    0    0    0  501  0.00000000000E+00  0.00000000000E+00 -0.31472865175E+03  0.31472865176E+03  0.25500000920E-02 0. -1.
    10030    2    1    2    0    0  0.00000000000E+00  0.00000000000E+00  0.16033024613E+03  0.78978754965E+03  0.77334247637E+03 0.  0.
        3    1    3    3  502    0 -0.37098353525E+02 -0.37641683279E+03 -0.18464339976E+01  0.37824507843E+03  0.10100000352E+00 0.  1.
       -3    1    3    3    0  502  0.37098353525E+02  0.37641683279E+03  0.16217668013E+03  0.41154247122E+03  0.10100000352E+00 0. -1.
</event>
<event>
 5   0  0.4700220E-02  0.7427272E+03  0.7818609E-02  0.9646830E-01
        2   -1    0    0  501    0  0.00000000000E+00  0.00000000000E+00  0.17732887954E+04  0.17732887954E+04  0.25500000920E-02 0. -1.
       -2   -1    0    0    0  501  0.00000000000E+00  0.00000000000E+00 -0.77771275456E+02  0.77771275498E+02  0.25500000920E-02 0.  1.
    10030    2    1    2    0    0  0.00000000000E+00  0.00000000000E+00  0.16955175200E+04  0.18510600709E+04  0.74272722156E+03 0.  0.
        4    1    3    3  502    0 -0.16568560272E+03 -0.19539329307E+03  0.15177936549E+04  0.15392626318E+04  0.12699999809E+01 0. -1.
       -4    1    3    3    0  502  0.16568560272E+03  0.19539329307E+03  0.17772386507E+03  0.31179743912E+03  0.12699999809E+01 0.  1.
</event>
<event>
 5   0  0.2769394E-02  0.8028041E+03  0.7818609E-02  0.9555967E-01
        1   -1    0    0  501    0  0.00000000000E+00  0.00000000000E+00  0.16688726619E+04  0.16688726619E+04  0.50400001928E-02 0. -1.
       -1   -1    0    0    0  501  0.00000000000E+00  0.00000000000E+00 -0.96546365277E+02  0.96546365408E+02  0.50400001928E-02 0.  1.
    10030    2    1    2    0    0  0.00000000000E+00  0.00000000000E+00  0.15723262966E+04  0.17654190273E+04  0.80280406013E+03 0.  0.
        2    1    3    3  502    0 -0.32894509433E+03  0.20442043582E+02  0.28228983374E+03  0.43394734989E+03  0.25500000920E-02 0.  1.
       -2    1    3    3    0  502  0.32894509433E+03 -0.20442043582E+02  0.12900364629E+04  0.13314716774E+04  0.25500000920E-02 0. -1.
</event>
<event>
 5   0  0.4663634E-02  0.7995063E+03  0.7818609E-02  0.9560732E-01
        2   -1    0    0  501    0  0.00000000000E+00  0.00000000000E+00  0.55659991996E+03  0.55659991997E+03  0.25500000920E-02 0.  1.
       -2   -1    0    0    0  501  0.00000000000E+00  0.00000000000E+00 -0.28710492981E+03  0.28710492983E+03  0.25500000920E-02 0. -1.
    10030    2    1    2    0    0  0.00000000000E+00  0.00000000000E+00  0.26949499015E+03  0.84370484979E+03  0.79950630007E+03 0.  0.
        5    1    3    3  502    0 -0.37397547609E+02  0.22636210822E+03  0.48016850800E+03  0.53218630824E+03  0.46999998093E+01 0.  1.
       -5    1    3    3    0  502  0.37397547609E+02 -0.22636210822E+03 -0.21067351786E+03  0.31151854155E+03  0.46999998093E+01 0. -1.
</event>
<event>
 5   0  0.2759559E-02  0.8166032E+03  0.7818609E-02  0.9536291E-01
        1   -1    0    0  501    0  0.00000000000E+00  0.00000000000E+00  0.30147492596E+03  0.30147492601E+03  0.50400001928E-02 0.  1.
       -1   -1    0    0    0  501  0.00000000000E+00  0.00000000000E+00 -0.55298189735E+03  0.55298189737E+03  0.50400001928E-02 0. -1.
    10030    2    1    2    0    0  0.00000000000E+00  0.00000000000E+00 -0.25150697139E+03  0.85445682338E+03  0.81660315109E+03 0.  0.
        3    1    3    3  502    0  0.28407109236E+03 -0.24391399751E+02 -0.43156646004E+03  0.51724360366E+03  0.10100000352E+00 0. -1.
       -3    1    3    3    0  502 -0.28407109236E+03  0.24391399751E+02  0.18005948866E+03  0.33721321972E+03  0.10100000352E+00 0.  1.
</event>
<event>
 5   0  0.4700220E-02  0.8300906E+03  0.7818609E-02  0.9517455E-01
       -2   -1    0    0    0  501  0.00000000000E+00  0.00000000000E+00  0.16164584068E+03  0.16164584070E+03  0.25500000920E-02 0.  1.
        2   -1    0    0  501    0  0.00000000000E+00  0.00000000000E+00 -0.10656792188E+04  0.10656792188E+04  0.25500000920E-02 0. -1.
    10030    2    1    2    0    0  0.00000000000E+00  0.00000000000E+00 -0.90403337815E+03  0.12273250595E+04  0.83009062937E+03 0.  0.
        4    1    3    3  502    0 -0.20488203839E+03 -0.23583258179E+03 -0.47999872566E+02  0.31606843714E+03  0.12699999809E+01 0.  1.
       -4    1    3    3    0  502  0.20488203839E+03  0.23583258179E+03 -0.85603350558E+03  0.91125662240E+03  0.12699999809E+01 0. -1.
</event>
<event>
 5   0  0.2635243E-02  0.8078338E+03  0.7818609E-02  0.9548747E-01
       -1   -1    0    0    0  501  0.00000000000E+00  0.00000000000E+00  0.12197726906E+03  0.12197726916E+03  0.50400001928E-02 0.  1.
        1   -1    0    0  501    0  0.00000000000E+00  0.00000000000E+00 -0.13375350808E+04  0.13375350808E+04  0.50400001928E-02 0. -1.
    10030    2    1    2    0    0  0.00000000000E+00  0.00000000000E+00 -0.12155578118E+04  0.14595123500E+04  0.80783383566E+03 0.  0.
        1    1    3    3  502    0 -0.69747954325E+02  0.25119418247E+03 -0.50373315880E+02  0.26551980231E+03  0.50400001928E-02 0.  1.
       -1    1    3    3    0  502  0.69747954325E+02 -0.25119418247E+03 -0.11651844959E+04  0.11939925477E+04  0.50400001928E-02 0. -1.
</event>
<event>
 5   0  0.4663634E-02  0.7893692E+03  0.7818609E-02  0.9575534E-01
        2   -1    0    0  501    0  0.00000000000E+00  0.00000000000E+00  0.16171603756E+04  0.16171603756E+04  0.25500000920E-02 0.  1.
       -2   -1    0    0    0  501  0.00000000000E+00  0.00000000000E+00 -0.96326818892E+02  0.96326818926E+02  0.25500000920E-02 0. -1.
    10030    2    1    2    0    0  0.00000000000E+00  0.00000000000E+00  0.15208335567E+04  0.17134871946E+04  0.78936915231E+03 0.  0.
        5    1    3    3  502    0 -0.25110971465E+03 -0.25781365212E+03  0.40885741365E+03  0.54471133889E+03  0.46999998093E+01 0. -1.
       -5    1    3    3    0  502  0.25110971465E+03  0.25781365212E+03  0.11119761431E+04  0.11687758557E+04  0.46999998093E+01 0.  1.
</event>
<event>
 5   0  0.2606520E-02  0.7304759E+03  0.7818609E-02  0.9666488E-01
        1   -1    0    0  501    0  0.00000000000E+00  0.00000000000E+00  0.55204955725E+03  0.55204955727E+03  0.50400001928E-02 0. -1.
       -1   -1    0    0    0  501  0.00000000000E+00  0.00000000000E+00 -0.24164275480E+03  0.24164275485E+03  0.50400001928E-02 0.  1.
    10030    2    1    2    0    0  0.00000000000E+00  0.00000000000E+00  0.31040680245E+03  0.79369231212E+03  0.73047594300E+03 0.  0.
        5    1    3    3  502    0 -0.25473958829E+03 -0.25856564752E+03  0.19904684439E+03  0.41399298083E+03  0.46999998093E+01 0.  1.
       -5    1    3    3    0  502  0.25473958829E+03  0.25856564752E+03  0.11135995806E+03  0.37969933128E+03  0.46999998093E+01 0. -1.
</event>
<event>
 5   0  0.2606520E-02  0.8231294E+03  0.7818609E-02  0.9527129E-01
       -1   -1    0    0    0  501  0.00000000000E+00  0.00000000000E+00  0.30525820180E+03  0.30525820185E+03  0.50400001928E-02 0. -1.
        1   -1    0    0  501    0  0.00000000000E+00  0.00000000000E+00 -0.55489255521E+03  0.55489255524E+03  0.50400001928E-02 0.  1.
    10030    2    1    2    0    0  0.00000000000E+00  0.00000000000E+00 -0.24963435341E+03  0.86015075708E+03  0.82312940326E+03 0.  0.
        5    1    3    3  502    0 -0.33207233239E+03 -0.23221178888E+03 -0.49687339347E+02  0.40827107480E+03  0.46999998093E+01 0. -1.
       -5    1    3    3    0  502  0.33207233239E+03  0.23221178888E+03 -0.19994701406E+03  0.45187968228E+03  0.46999998093E+01 0.  1.
</event>
<event>
 5   0  0.4663634E-02  0.8059153E+03  0.7818609E-02  0.9551494E-01
       -2   -1    0    0    0  501  0.00000000000E+00  0.00000000000E+00  0.10301104991E+03  0.10301104994E+03  0.25500000920E-02 0.  1.
        2   -1    0    0  501    0  0.00000000000E+00  0.00000000000E+00 -0.15762857284E+04  0.15762857284E+04  0.25500000920E-02 0. -1.
    10030    2    1    2    0    0  0.00000000000E+00  0.00000000000E+00 -0.14732746785E+04  0.16792967784E+04  0.80591525081E+03 0.  0.
        5    1    3    3  502    0 -0.99293787266E+02  0.12418673516E+03  0.34818586040E+02  0.16283741988E+03  0.46999998093E+01 0.  1.
       -5    1    3    3    0  502  0.99293787266E+02 -0.12418673516E+03 -0.15080932645E+04  0.15164593585E+04  0.46999998093E+01 0. -1.
</event>
<event>
 5   0  0.2689372E-02  0.7919768E+03  0.7818609E-02  0.9571704E-01
       -1   -1    0    0    0  501  0.00000000000E+00  0.00000000000E+00  0.15940819875E+03  0.15940819883E+03  0.50400001928E-02 0. -1.
        1   -1    0    0  501    0  0.00000000000E+00  0.00000000000E+00 -0.98368092977E+03  0.98368092978E+03  0.50400001928E-02 0.  1.
    10030    2    1    2    0    0  0.00000000000E+00  0.00000000000E+00 -0.82427273102E+03  0.11430891286E+04  0.79197678050E+03 0.  0.
        4    1    3    3  502    0  0.15228967646E+03  0.12151829552E+03 -0.90971367870E+03  0.93034371703E+03  0.12699999809E+01 0.  1.
       -4    1    3    3    0  502 -0.15228967646E+03 -0.12151829552E+03  0.85440947685E+02  0.21274541157E+03  0.12699999809E+01 0. -1.
</event>
<event>
 5   0  0.2689372E-02  0.7603977E+03  0.7818609E-02  0.9619178E-01
        1   -1    0    0  501    0  0.00000000000E+00  0.00000000000E+00  0.15592013553E+03  0.15592013561E+03  0.50400001928E-02 0. -1.
       -1   -1    0    0    0  501  0.00000000000E+00  0.00000000000E+00 -0.92708473506E+03  0.92708473507E+03  0.50400001928E-02 0.  1.
    10030    2    1    2    0    0  0.00000000000E+00  0.00000000000E+00 -0.77116459953E+03  0.10830048707E+04  0.76039773169E+03 0.  0.
        4    1    3    3  502    0 -0.31607896712E+03  0.55410252213E+02 -0.95181950075E+02  0.33471992177E+03  0.12699999809E+01 0. -1.
       -4    1    3    3    0  502  0.31607896712E+03 -0.55410252213E+02 -0.67598264945E+03  0.74828494891E+03  0.12699999809E+01 0.  1.
</event>
<event>
 5   0  0.2606520E-02  0.8112627E+03  0.7818609E-02  0.9543856E-01
        1   -1    0    0  501    0  0.00000000000E+00  0.00000000000E+00  0.23638865423E+03  0.23638865429E+03  0.50400001928E-02 0.  1.
       -1   -1    0    0    0  501  0.00000000000E+00  0.00000000000E+00 -0.69604348257E+03  0.69604348259E+03  0.50400001928E-02 0. -1.
    10030    2    1    2    0    0  0.00000000000E+00  0.00000000000E+00 -0.45965482834E+03  0.93243213688E+03  0.81126267550E+03 0.  0.
        5    1    3    3  502    0 -0.10045524996E+03  0.99849318079E+02 -0.66666484620E+03  0.68156089289E+03  0.46999998093E+01 0. -1.
       -5    1    3    3    0  502  0.10045524996E+03 -0.99849318079E+02  0.20701001786E+03  0.25087124398E+03  0.46999998093E+01 0.  1.
</event>
<event>
 5   0  0.2689372E-02  0.7422772E+03  0.7818609E-02  0.9647545E-01
       -1   -1    0    0    0  501  0.00000000000E+00  0.00000000000E+00  0.39455234569E+03  0.39455234572E+03  0.50400001928E-02 0. -1.
        1   -1    0    0  501    0  0.00000000000E+00  0.00000000000E+00 -0.34911425337E+03  0.34911425341E+03  0.50400001928E-02 0.  1.
    10030    2    1    2    0    0  0.00000000000E+00  0.00000000000E+00  0.45438092315E+02  0.74366659913E+03  0.74227716550E+03 0.  0.
        4    1    3    3  502    0 -0.35925627017E+03 -0.90181197368E+02  0.46097649978E+02  0.37326173424E+03  0.12699999809E+01 0.  1.
       -4    1    3    3    0  502  0.35925627017E+03  0.90181197368E+02 -0.65955766316E+00  0.37040486489E+03  0.12699999809E+01 0. -1.
</event>
<event>
 5   0  0.2689372E-02  0.7850831E+03  0.7818609E-02  0.9581863E-01
       -1   -1    0    0    0  501  0.00000000000E+00  0.00000000000E+00  0.29562844470E+03  0.29562844475E+03  0.50400001928E-02 0. -1.
        1   -1    0    0  501    0  0.00000000000E+00  0.00000000000E+00 -0.52122474822E+03  0.52122474825E+03  0.50400001928E-02 0.  1.
    10030    2    1    2    0    0  0.00000000000E+00  0.00000000000E+00 -0.22559630352E+03  0.81685319299E+03  0.78508308270E+03 0.  0.
        4    1    3    3  502    0  0.10312974188E+03  0.36715428740E+03 -0.16033391568E+02  0.38170236698E+03  0.12699999809E+01 0. -1.
       -4    1    3    3    0  502 -0.10312974188E+03 -0.36715428740E+03 -0.20956291195E+03  0.43515082601E+03  0.12699999809E+01 0.  1.
</event>
<event>
 5   0  0.2689372E-02  0.8282930E+03  0.7818609E-02  0.9519943E-01
       -1   -1    0    0    0  501  0.00000000000E+00  0.00000000000E+00  0.27622004749E+03  0.27622004754E+03  0.50400001928E-02 0. -1.
        1   -1    0    0  501    0  0.00000000000E+00  0.00000000000E+00 -0.62094457796E+03  0.62094457798E+03  0.50400001928E-02 0.  1.
    10030    2    1    2    0    0  0.00000000000E+00  0.00000000000E+00 -0.34472453047E+03  0.89716462552E+03  0.82829304197E+03 0.  0.
        4    1    3    3  502    0  0.35974016093E+03 -0.15374623350E+03 -0.25178162203E+02  0.39202862198E+03  0.12699999809E+01 0. -1.
       -4    1    3    3    0  502 -0.35974016093E+03  0.15374623350E+03 -0.31954636826E+03  0.50513600354E+03  0.12699999809E+01 0.  1.
</event>
<event>
 5   0  0.2635243E-02  0.7808490E+03  0.7818609E-02  0.9588159E-01
       -1   -1    0    0    0  501  0.00000000000E+00  0.00000000000E+00  0.25832643086E+03  0.25832643091E+03  0.50400001928E-02 0.  1.
        1   -1    0    0  501    0  0.00000000000E+00  0.00000000000E+00 -0.59007244625E+03  0.59007244627E+03  0.50400001928E-02 0. -1.
    10030    2    1    2    0    0  0.00000000000E+00  0.00000000000E+00 -0.33174601539E+03  0.84839887718E+03  0.78084904820E+03 0.  0.
        1    1    3    3  502    0  0.11209790925E+03  0.26097682965E+03  0.12517424815E+03  0.31039239568E+03  0.50400001928E-02 0.  1.
       -1    1    3    3    0  502 -0.11209790925E+03 -0.26097682965E+03 -0.45692026354E+03  0.53800648149E+03  0.50400001928E-02 0. -1.
</event>
<event>
 5   0  0.4377843E-02  0.6002812E+03  0.7818609E-02  0.9904823E-01
       -2   -1    0    0    0  501  0.00000000000E+00  0.00000000000E+00  0.17064039799E+03  0.17064039801E+03  0.25500000920E-02 0.  1.
        2   -1    0    0  501    0  0.00000000000E+00  0.00000000000E+00 -0.52791934583E+03  0.52791934584E+03  0.25500000920E-02 0. -1.
    10030    2    1    2    0    0  0.00000000000E+00  0.00000000000E+00 -0.35727894784E+03  0.69855974385E+03  0.60028115842E+03 0.  0.
        2    1    3    3  502    0 -0.19710771899E+03  0.37112425595E+02 -0.43847931335E+03  0.48217516865E+03  0.25500000920E-02 0. -1.
       -2    1    3    3    0  502  0.19710771899E+03 -0.37112425595E+02  0.81200365510E+02  0.21638457520E+03  0.25500000920E-02 0.  1.
</event>
<event>
 5   0  0.2635243E-02  0.8054402E+03  0.7818609E-02  0.9552176E-01
        1   -1    0    0  501    0  0.00000000000E+00  0.00000000000E+00  0.12014627408E+04  0.12014627408E+04  0.50400001928E-02 0.  1.
       -1   -1    0    0    0  501  0.00000000000E+00  0.00000000000E+00 -0.13498833828E+03  0.13498833837E+03  0.50400001928E-02 0. -1.
    10030    2    1    2    0    0  0.00000000000E+00  0.00000000000E+00  0.10664744025E+04  0.13364510792E+04  0.80544015036E+03 0.  0.
        1    1    3    3  502    0  0.28287732643E+03 -0.27116360684E+03  0.68741797678E+03  0.79126023425E+03  0.50400001928E-02 0. -1.
       -1    1    3    3    0  502 -0.28287732643E+03  0.27116360684E+03  0.37905642576E+03  0.54519084495E+03  0.50400001928E-02 0.  1.
</event>
<event>
 5   0  0.2689372E-02  0.8033669E+03  0.7818609E-02  0.9555156E-01
        1   -1    0    0  501    0  0.00000000000E+00  0.00000000000E+00  0.94217369524E+03  0.94217369526E+03  0.50400001928E-02 0. -1.
       -1   -1    0    0    0  501  0.00000000000E+00  0.00000000000E+00 -0.17125251080E+03  0.17125251088E+03  0.50400001928E-02 0.  1.
    10030    2    1    2    0    0  0.00000000000E+00  0.00000000000E+00  0.77092118444E+03  0.11134262061E+04  0.80336694224E+03 0.  0.
        4    1    3    3  502    0 -0.33667951176E+03  0.58564210337E+02  0.92880273768E+02  0.35413446390E+03  0.12699999809E+01 0.  1.
       -4    1    3    3    0  502  0.33667951176E+03 -0.58564210337E+02  0.67804091067E+03  0.75929174223E+03  0.12699999809E+01 0. -1.
</event>
<event>
 5   0  0.4663634E-02  0.7712625E+03  0.7818609E-02  0.9602571E-01
       -2   -1    0    0    0  501  0.00000000000E+00  0.00000000000E+00  0.56151514244E+03  0.56151514245E+03  0.25500000920E-02 0. -1.
        2   -1    0    0  501    0  0.00000000000E+00  0.00000000000E+00 -0.26483961182E+03  0.26483961183E+03  0.25500000920E-02 0.  1.
    10030    2    1    2    0    0  0.00000000000E+00  0.00000000000E+00  0.29667553063E+03  0.82635475428E+03  0.77126247766E+03 0.  0.
        5    1    3    3  502    0  0.44436402840E+01 -0.14104509130E+03  0.53282473091E+03  0.55121479260E+03  0.46999998093E+01 0. -1.
       -5    1    3    3    0  502 -0.44436402840E+01  0.14104509130E+03 -0.23614920028E+03  0.27513996167E+03  0.46999998093E+01 0.  1.
</event>
<event>
 5   0  0.1786500E-02  0.8333825E+03  0.7818609E-02  0.9512916E-01
        4   -1    0    0  501    0  0.00000000000E+00  0.00000000000E+00  0.48702576288E+03  0.48702741875E+03  0.12699999809E+01 0. -1.
       -4   -1    0    0    0  501  0.00000000000E+00  0.00000000000E+00 -0.35651076396E+03  0.35651302602E+03  0.12699999809E+01 0.  1.
    10030    2    1    2    0    0  0.00000000000E+00  0.00000000000E+00  0.13051499892E+03  0.84354044477E+03  0.83338245543E+03 0.  0.
        4    1    3    3  502    0 -0.33259369554E+03  0.22634462567E+03  0.17511385270E+03  0.43876751269E+03  0.12699999809E+01 0.  1.
       -4    1    3    3    0  502  0.33259369554E+03 -0.22634462567E+03 -0.44598853786E+02  0.40477293208E+03  0.12699999809E+01 0. -1.
</event>
<event>
 5   0  0.2759559E-02  0.8162980E+03  0.7818609E-02  0.9536721E-01
        1   -1    0    0  501    0  0.00000000000E+00  0.00000000000E+00  0.49300336846E+03  0.49300336848E+03  0.50400001928E-02 0. -1.
       -1   -1    0    0    0  501  0.00000000000E+00  0.00000000000E+00 -0.33789954415E+03  0.33789954419E+03  0.50400001928E-02 0.  1.
    10030    2    1    2    0    0  0.00000000000E+00  0.00000000000E+00  0.15510382430E+03  0.83090291268E+03  0.81629801787E+03 0.  0.
        3    1    3    3  502    0  0.28934911745E+03  0.76147383713E+02  0.36012322328E+03  0.46819876331E+03  0.10100000352E+00 0. -1.
       -3    1    3    3    0  502 -0.28934911745E+03 -0.76147383713E+02 -0.20501939898E+03  0.36270414937E+03  0.10100000352E+00 0.  1.
</event>
<event>
 5   0  0.2689372E-02  0.7828207E+03  0.7818609E-02  0.9585222E-01
        1   -1    0    0  501    0  0.00000000000E+00  0.00000000000E+00  0.14115479369E+04  0.14115479369E+04  0.50400001928E-02 0. -1.
       -1   -1    0    0    0  501  0.00000000000E+00  0.00000000000E+00 -0.10853480351E+03  0.10853480362E+03  0.50400001928E-02 0.  1.
    10030    2    1    2    0    0  0.00000000000E+00  0.00000000000E+00  0.13030131334E+04  0.15200827405E+04  0.78282074083E+03 0.  0.
        4    1    3    3  502    0  0.17270437996E+02  0.37687855417E+03  0.44910455539E+03  0.58654260476E+03  0.12699999809E+01 0.  1.
       -4    1    3    3    0  502 -0.17270437996E+02 -0.37687855417E+03  0.85390857799E+03  0.93354013577E+03  0.12699999809E+01 0. -1.
</event>
<event>
 5   0  0.2689372E-02  0.8388761E+03  0.7818609E-02  0.9505390E-01
       -1   -1    0    0    0  501  0.00000000000E+00  0.00000000000E+00  0.26244232160E+03  0.26244232165E+03  0.50400001928E-02 0. -1.
        1   -1    0    0  501    0  0.00000000000E+00  0.00000000000E+00 -0.67035018205E+03  0.67035018207E+03  0.50400001928E-02 0.  1.
    10030    2    1    2    0    0  0.00000000000E+00  0.00000000000E+00 -0.40790786045E+03  0.93279250372E+03  0.83887605305E+03 0.  0.
        4    1    3    3  502    0  0.21550784417E+03 -0.11390462792E+03  0.17559390763E+03  0.30042091881E+03  0.12699999809E+01 0. -1.
       -4    1    3    3    0  502 -0.21550784417E+03  0.11390462792E+03 -0.58350176808E+03  0.63237158491E+03  0.12699999809E+01 0.  1.
</event>
<event>
 5   0  0.4700220E-02  0.8152245E+03  0.7818609E-02  0.9538238E-01
       -2   -1    0    0    0  501  0.00000000000E+00  0.00000000000E+00  0.22150213278E+03  0.22150213279E+03  0.25500000920E-02 0.  1.
        2   -1    0    0  501    0  0.00000000000E+00  0.00000000000E+00 -0.75009552953E+03  0.75009552954E+03  0.25500000920E-02 0. -1.
    10030    2    1    2    0    0  0.00000000000E+00  0.00000000000E+00 -0.52859339675E+03  0.97159766233E+03  0.81522453248E+03 0.  0.
        4    1    3    3  502    0 -0.22861058021E+03 -0.25417456854E+03  0.27206590761E+00  0.34186136897E+03  0.12699999809E+01 0.  1.
       -4    1    3    3    0  502  0.22861058021E+03  0.25417456854E+03 -0.52886546266E+03  0.62973629336E+03  0.12699999809E+01 0. -1.
</event>
<event>
 5   0  0.1786500E-02  0.7872385E+03  0.7818609E-02  0.9578675E-01
       -3   -1    0    0    0  501  0.00000000000E+00  0.00000000000E+00  0.22383793171E+03  0.22383795450E+03  0.10100000352E+00 0.  1.
        3   -1    0    0  501    0  0.00000000000E+00  0.00000000000E+00 -0.69217990618E+03  0.69217991355E+03  0.10100000352E+00 0. -1.
    10030    2    1    2    0    0  0.00000000000E+00  0.00000000000E+00 -0.46834197447E+03  0.91601786805E+03  0.78723854678E+03 0.  0.
        2    1    3    3  502    0  0.29181727247E+03  0.25356391009E+03 -0.32034026821E+03  0.50206559777E+03  0.25500000920E-02 0.  1.
       -2    1    3    3    0  502 -0.29181727247E+03 -0.25356391009E+03 -0.14800170625E+03  0.41395227028E+03  0.25500000920E-02 0. -1.
</event>
<event>
 5   0  0.2759559E-02  0.7660630E+03  0.7818609E-02  0.9610482E-01
        1   -1    0    0  501    0  0.00000000000E+00  0.00000000000E+00  0.11309455571E+03  0.11309455583E+03  0.50400001928E-02 0. -1.
       -1   -1    0    0    0  501  0.00000000000E+00  0.00000000000E+00 -0.12972606950E+04  0.12972606950E+04  0.50400001928E-02 0.  1.
    10030    2    1    2    0    0  0.00000000000E+00  0.00000000000E+00 -0.11841661393E+04  0.14103552508E+04  0.76606297922E+03 0.  0.
        3    1    3    3  502    0  0.17163064383E+03 -0.49779198976E+02  0.31642422869E+02  0.18148360719E+03  0.10100000352E+00 0. -1.
       -3    1    3    3    0  502 -0.17163064383E+03  0.49779198976E+02 -0.12158085622E+04  0.12288716436E+04  0.10100000352E+00 0.  1.
</event>
<event>
 5   0  0.4377843E-02  0.7653566E+03  0.7818609E-02  0.9611562E-01
        2   -1    0    0  501    0  0.00000000000E+00  0.00000000000E+00  0.22150838509E+04  0.22150838509E+04  0.25500000920E-02 0. -1.
       -2   -1    0    0    0  501  0.00000000000E+00  0.00000000000E+00 -0.66111582275E+02  0.66111582324E+02  0.25500000920E-02 0.  1.
    10030    2    1    2    0    0  0.00000000000E+00  0.00000000000E+00  0.21489722686E+04  0.22811954332E+04  0.76535664448E+03 0.  0.
        2    1    3    3  502    0  0.29295162040E+03  0.22038058120E+03  0.14017305630E+04  0.14488743299E+04  0.25500000920E-02 0.  1.
       -2    1    3    3    0  502 -0.29295162040E+03 -0.22038058120E+03  0.74724170556E+03  0.83232110331E+03  0.25500000920E-02 0. -1.
</event>
<event>
 5   0  0.4663634E-02  0.7996036E+03  0.7818609E-02  0.9560591E-01
       -2   -1    0    0    0  501  0.00000000000E+00  0.00000000000E+00  0.33362331092E+03  0.33362331093E+03  0.25500000920E-02 0.  1.
        2   -1    0    0  501    0  0.00000000000E+00  0.00000000000E+00 -0.47910767463E+03  0.47910767463E+03  0.25500000920E-02 0. -1.
    10030    2    1    2    0    0  0.00000000000E+00  0.00000000000E+00 -0.14548436371E+03  0.81273098556E+03  0.79960362356E+03 0.  0.
        5    1    3    3  502    0  0.45633658043E+02 -0.32678515100E+03 -0.30216545943E+03  0.44743381693E+03  0.46999998093E+01 0. -1.
       -5    1    3    3    0  502 -0.45633658043E+02  0.32678515100E+03  0.15668109572E+03  0.36529716863E+03  0.46999998093E+01 0.  1.
</event>
<event>
 5   0  0.4590462E-02  0.8074536E+03  0.7818609E-02  0.9549291E-01
       -2   -1    0    0    0  501  0.00000000000E+00  0.00000000000E+00  0.43679097210E+03  0.43679097211E+03  0.25500000920E-02 0.  1.
        2   -1    0    0  501    0  0.00000000000E+00  0.00000000000E+00 -0.37316551624E+03  0.37316551625E+03  0.25500000920E-02 0. -1.
    10030    2    1    2    0    0  0.00000000000E+00  0.00000000000E+00  0.63625455855E+02  0.80995648836E+03  0.80745359892E+03 0.  0.
        3    1    3    3  502    0  0.37146744154E+03  0.78875712617E+02 -0.10567371908E+03  0.39417811110E+03  0.10100000352E+00 0. -1.
       -3    1    3    3    0  502 -0.37146744154E+03 -0.78875712617E+02  0.16929917493E+03  0.41577837726E+03  0.10100000352E+00 0.  1.
</event>
<event>
 5   0  0.2769394E-02  0.8938217E+03  0.7818609E-02  0.9433338E-01
       -1   -1    0    0    0  501  0.00000000000E+00  0.00000000000E+00  0.82356797108E+03  0.82356797110E+03  0.50400001928E-02 0. -1.
        1   -1    0    0  501    0  0.00000000000E+00  0.00000000000E+00 -0.24251708999E+03  0.24251709005E+03  0.50400001928E-02 0.  1.
    10030    2    1    2    0    0  0.00000000000E+00  0.00000000000E+00  0.58105088109E+03  0.10660850611E+04  0.89382169988E+03 0.  0.
        2    1    3    3  502    0  0.41714943344E+03 -0.13245174092E+03  0.18270271509E+03  0.47427565361E+03  0.25500000920E-02 0.  1.
       -2    1    3    3    0  502 -0.41714943344E+03  0.13245174092E+03  0.39834816600E+03  0.59180940754E+03  0.25500000920E-02 0. -1.
</event>
<event>
 5   0  0.4590462E-02  0.8186764E+03  0.7818609E-02  0.9533370E-01
        2   -1    0    0  501    0  0.00000000000E+00  0.00000000000E+00  0.51295747834E+03  0.51295747834E+03  0.25500000920E-02 0.  1.
       -2   -1    0    0    0  501  0.00000000000E+00  0.00000000000E+00 -0.32665038768E+03  0.32665038769E+03  0.25500000920E-02 0. -1.
    10030    2    1    2    0    0  0.00000000000E+00  0.00000000000E+00  0.18630709066E+03  0.83960786603E+03  0.81867639313E+03 0.  0.
        3    1    3    3  502    0 -0.62442391116E+02  0.32153815091E+03 -0.15862674138E+03  0.36393445561E+03  0.10100000352E+00 0. -1.
       -3    1    3    3    0  502  0.62442391116E+02 -0.32153815091E+03  0.34493383204E+03  0.47567341042E+03  0.10100000352E+00 0.  1.
</event>
<event>
 5   0  0.2606520E-02  0.7944810E+03  0.7818609E-02  0.9568040E-01
       -1   -1    0    0    0  501  0.00000000000E+00  0.00000000000E+00  0.29734348007E+03  0.29734348011E+03  0.50400001928E-02 0. -1.
        1   -1    0    0  501    0  0.00000000000E+00  0.00000000000E+00 -0.53069944306E+03  0.53069944308E+03  0.50400001928E-02 0.  1.
    10030    2    1    2    0    0  0.00000000000E+00  0.00000000000E+00 -0.23335596299E+03  0.82804292320E+03  0.79448101123E+03 0.  0.
        5    1    3    3  502    0  0.20212357349E+03  0.57199850882E+02  0.23468676834E+03  0.31500116053E+03  0.46999998093E+01 0. -1.
       -5    1    3    3    0  502 -0.20212357349E+03 -0.57199850882E+02 -0.46804273133E+03  0.51304176267E+03  0.46999998093E+01 0.  1.
</event>
<event>
 5   0  0.2759559E-02  0.7585818E+03  0.7818609E-02  0.9621982E-01
       -1   -1    0    0    0  501  0.00000000000E+00  0.00000000000E+00  0.67301463929E+03  0.67301463931E+03  0.50400001928E-02 0.  1.
        1   -1    0    0  501    0  0.00000000000E+00  0.00000000000E+00 -0.21375698929E+03  0.21375698934E+03  0.50400001928E-02 0. -1.
    10030    2    1    2    0    0  0.00000000000E+00  0.00000000000E+00  0.45925765001E+03  0.88677162866E+03  0.75858179012E+03 0.  0.
        3    1    3    3  502    0 -0.25499737588E+03 -0.13713594018E+03 -0.56788641601E+02  0.29505065296E+03  0.10100000352E+00 0. -1.
       -3    1    3    3    0  502  0.25499737588E+03  0.13713594018E+03  0.51604629161E+03  0.59172097570E+03  0.10100000352E+00 0.  1.
</event>
<event>
 5   0  0.1786500E-02  0.8217555E+03  0.7818609E-02  0.9529050E-01
        3   -1    0    0  501    0  0.00000000000E+00  0.00000000000E+00  0.19352892522E+03  0.19352895157E+03  0.10100000352E+00 0. -1.
       -3   -1    0    0    0  501  0.00000000000E+00  0.00000000000E+00 -0.87232694658E+03  0.87232695243E+03  0.10100000352E+00 0.  1.
    10030    2    1    2    0    0  0.00000000000E+00  0.00000000000E+00 -0.67879802136E+03  0.10658559040E+04  0.82175547111E+03 0.  0.
        3    1    3    3  502    0  0.11233132435E+03  0.13339407521E+03  0.14314485341E+03  0.22561641117E+03  0.10100000352E+00 0. -1.
       -3    1    3    3    0  502 -0.11233132435E+03 -0.13339407521E+03 -0.82194287477E+03  0.84023949283E+03  0.10100000352E+00 0.  1.
</event>
<event>
 5   0  0.2689372E-02  0.7486123E+03  0.7818609E-02  0.9637530E-01
       -1   -1    0    0    0  501  0.00000000000E+00  0.00000000000E+00  0.31336044355E+03  0.31336044359E+03  0.50400001928E-02 0. -1.
        1   -1    0    0  501    0  0.00000000000E+00  0.00000000000E+00 -0.44710518036E+03  0.44710518039E+03  0.50400001928E-02 0.  1.
    10030    2    1    2    0    0  0.00000000000E+00  0.00000000000E+00 -0.13374473681E+03  0.76046562399E+03  0.74861225654E+03 0.  0.
        4    1    3    3  502    0 -0.19966269685E+03  0.14659488274E+03 -0.35193678290E+03  0.43036770815E+03  0.12699999809E+01 0.  1.
       -4    1    3    3    0  502  0.19966269685E+03 -0.14659488274E+03  0.21819204609E+03  0.33009791583E+03  0.12699999809E+01 0. -1.
</event>
<event>
 5   0  0.4700220E-02  0.8073883E+03  0.7818609E-02  0.9549384E-01
        2   -1    0    0  501    0  0.00000000000E+00  0.00000000000E+00  0.12257816196E+04  0.12257816196E+04  0.25500000920E-02 0.  1.
       -2   -1    0    0    0  501  0.00000000000E+00  0.00000000000E+00 -0.13295106771E+03  0.13295106774E+03  0.25500000920E-02 0. -1.
    10030    2    1    2    0    0  0.00000000000E+00  0.00000000000E+00  0.10928305519E+04  0.13587326873E+04  0.80738832076E+03 0.  0.
        4    1    3    3  502    0 -0.33800057885E+03 -0.10851839999E+03  0.86988940410E+03  0.93953702572E+03  0.12699999809E+01 0.  1.
       -4    1    3    3    0  502  0.33800057885E+03  0.10851839999E+03  0.22294114777E+03  0.41919566160E+03  0.12699999809E+01 0. -1.
</event>
<event>
 5   0  0.2689372E-02  0.8002753E+03  0.7818609E-02  0.9559619E-01
       -1   -1    0    0    0  501  0.00000000000E+00  0.00000000000E+00  0.25348283298E+03  0.25348283303E+03  0.50400001928E-02 0.  1.
        1   -1    0    0  501    0  0.00000000000E+00  0.00000000000E+00 -0.63164092541E+03  0.63164092543E+03  0.50400001928E-02 0. -1.
    10030    2    1    2    0    0  0.00000000000E+00  0.00000000000E+00 -0.37815809243E+03  0.88512375846E+03  0.80027528071E+03 0.  0.
        4    1    3    3  502    0  0.33681951767E+02  0.10939730757E+03 -0.61314414442E+03  0.62373840632E+03  0.12699999809E+01 0. -1.
       -4    1    3    3    0  502 -0.33681951767E+02 -0.10939730757E+03  0.23498605200E+03  0.26138535214E+03  0.12699999809E+01 0.  1.
</event>
<event>
 5   0  0.1786500E-02  0.7898009E+03  0.7818609E-02  0.9574898E-01
        4   -1    0    0  501    0  0.00000000000E+00  0.00000000000E+00  0.95151088179E+02  0.95159563269E+02  0.12699999809E+01 0. -1.
       -4   -1    0    0    0  501  0.00000000000E+00  0.00000000000E+00 -0.16388524597E+04  0.16388529518E+04  0.12699999809E+01 0.  1.
    10030    2    1    2    0    0  0.00000000000E+00  0.00000000000E+00 -0.15437013715E+04  0.17340125151E+04  0.78980091031E+03 0.  0.
        4    1    3    3  502    0 -0.29289251969E+03 -0.21749389717E+03 -0.11037653772E+04  0.11624926856E+04  0.12699999809E+01 0.  1.
       -4    1    3    3    0  502  0.29289251969E+03  0.21749389717E+03 -0.43993599435E+03  0.57151982943E+03  0.12699999809E+01 0. -1.
</event>
<event>
 5   0  0.2759559E-02  0.8031719E+03  0.7818609E-02  0.9555437E-01
       -1   -1    0    0    0  501  0.00000000000E+00  0.00000000000E+00  0.16283672554E+03  0.16283672562E+03  0.50400001928E-02 0.  1.
        1   -1    0    0  501    0  0.00000000000E+00  0.00000000000E+00 -0.99038646121E+03  0.99038646122E+03  0.50400001928E-02 0. -1.
    10030    2    1    2    0    0  0.00000000000E+00  0.00000000000E+00 -0.82754973567E+03  0.11532231868E+04  0.80317193281E+03 0.  0.
        3    1    3    3  502    0 -0.36609110801E+03 -0.11560471763E+03 -0.24458897466E+03  0.45520426935E+03  0.10100000352E+00 0.  1.
       -3    1    3    3    0  502  0.36609110801E+03  0.11560471763E+03 -0.58296076100E+03  0.69801891749E+03  0.10100000352E+00 0. -1.
</event>
<event>
 5   0  0.4377843E-02  0.7827012E+03  0.7818609E-02  0.9585400E-01
        2   -1    0    0  501    0  0.00000000000E+00  0.00000000000E+00  0.12597065330E+04  0.12597065330E+04  0.25500000920E-02 0.  1.
       -2   -1    0    0    0  501  0.00000000000E+00  0.00000000000E+00 -0.12158012533E+03  0.12158012536E+03  0.25500000920E-02 0. -1.
    10030    2    1    2    0    0  0.00000000000E+00  0.00000000000E+00  0.11381264077E+04  0.13812866584E+04  0.78270116439E+03 0.  0.
        2    1    3    3  502    0 -0.78990698279E+02 -0.37434871534E+03  0.42376379949E+03  0.57092227918E+03  0.25500000920E-02 0. -1.
       -2    1    3    3    0  502  0.78990698279E+02  0.37434871534E+03  0.71436260819E+03  0.81036437920E+03  0.25500000920E-02 0.  1.
</event>
<event>
 5   0  0.4700220E-02  0.7927780E+03  0.7818609E-02  0.9570530E-01
       -2   -1    0    0    0  501  0.00000000000E+00  0.00000000000E+00  0.33203997150E+03  0.33203997151E+03  0.25500000920E-02 0.  1.
        2   -1    0    0  501    0  0.00000000000E+00  0.00000000000E+00 -0.47320877078E+03  0.47320877079E+03  0.25500000920E-02 0. -1.
    10030    2    1    2    0    0  0.00000000000E+00  0.00000000000E+00 -0.14116879928E+03  0.80524874230E+03  0.79277796834E+03 0.  0.
        4    1    3    3  502    0  0.22013357581E+02 -0.25259995382E+03 -0.38005947251E+03  0.45687869301E+03  0.12699999809E+01 0. -1.
       -4    1    3    3    0  502 -0.22013357581E+02  0.25259995382E+03  0.23889067323E+03  0.34837004929E+03  0.12699999809E+01 0.  1.
</event>
<event>
 5   0  0.4377843E-02  0.8420637E+03  0.7818609E-02  0.9501051E-01
       -2   -1    0    0    0  501  0.00000000000E+00  0.00000000000E+00  0.12978414092E+03  0.12978414095E+03  0.25500000920E-02 0.  1.
        2   -1    0    0  501    0  0.00000000000E+00  0.00000000000E+00 -0.13658665844E+04  0.13658665844E+04  0.25500000920E-02 0. -1.
    10030    2    1    2    0    0  0.00000000000E+00  0.00000000000E+00 -0.12360824435E+04  0.14956507254E+04  0.84206370613E+03 0.  0.
        2    1    3    3  502    0  0.22960142427E+03 -0.56048744332E+02  0.84619608728E+00  0.23634506938E+03  0.25500000920E-02 0.  1.
       -2    1    3    3    0  502 -0.22960142427E+03  0.56048744332E+02 -0.12369286396E+04  0.12593056560E+04  0.25500000920E-02 0. -1.
</event>
<event>
 5   0  0.2689372E-02  0.8206012E+03  0.7818609E-02  0.9530667E-01
        1   -1    0    0  501    0  0.00000000000E+00  0.00000000000E+00  0.61135856950E+03  0.61135856952E+03  0.50400001928E-02 0. -1.
       -1   -1    0    0    0  501  0.00000000000E+00  0.00000000000E+00 -0.27536475090E+03  0.27536475095E+03  0.50400001928E-02 0.  1.
    10030    2    1    2    0    0  0.00000000000E+00  0.00000000000E+00  0.33599381860E+03  0.88672332047E+03  0.82060124356E+03 0.  0.
        4    1    3    3  502    0 -0.62791303162E+02 -0.39105053000E+03  0.52209993998E+02  0.39948812390E+03  0.12699999809E+01 0.  1.
       -4    1    3    3    0  502  0.62791303162E+02  0.39105053000E+03  0.28378382460E+03  0.48723519657E+03  0.12699999809E+01 0. -1.
</event>
<event>
 5   0  0.4663634E-02  0.7879392E+03  0.7818609E-02  0.9577641E-01
        2   -1    0    0  501    0  0.00000000000E+00  0.00000000000E+00  0.56449151075E+03  0.56449151075E+03  0.25500000920E-02 0. -1.
       -2   -1    0    0    0  501  0.00000000000E+00  0.00000000000E+00 -0.27495901845E+03  0.27495901846E+03  0.25500000920E-02 0.  1.
    10030    2    1    2    0    0  0.00000000000E+00  0.00000000000E+00  0.28953249230E+03  0.83945052921E+03  0.78793916447E+03 0.  0.
        5    1    3    3  502    0 -0.20382654739E+03 -0.33711020117E+03  0.14350902493E+03  0.41929164001E+03  0.46999998093E+01 0.  1.
       -5    1    3    3    0  502  0.20382654739E+03  0.33711020117E+03  0.14602346737E+03  0.42015888920E+03  0.46999998093E+01 0. -1.
</event>
<event>
 5   0  0.2769394E-02  0.8028006E+03  0.7818609E-02  0.9555972E-01
       -1   -1    0    0    0  501  0.00000000000E+00  0.00000000000E+00  0.75449623146E+03  0.75449623148E+03  0.50400001928E-02 0. -1.
        1   -1    0    0  501    0  0.00000000000E+00  0.00000000000E+00 -0.21354937547E+03  0.21354937553E+03  0.50400001928E-02 0.  1.
    10030    2    1    2    0    0  0.00000000000E+00  0.00000000000E+00  0.54094685599E+03  0.96804560700E+03  0.80280059556E+03 0.  0.
        2    1    3    3  502    0  0.11959459606E+01 -0.21751535249E+03  0.67726713253E+03  0.71134037399E+03  0.25500000920E-02 0. -1.
       -2    1    3    3    0  502 -0.11959459606E+01  0.21751535249E+03 -0.13632027653E+03  0.25670523302E+03  0.25500000920E-02 0.  1.
</event>
<event>
 5   0  0.2635243E-02  0.7910502E+03  0.7818609E-02  0.9573063E-01
       -1   -1    0    0    0  501  0.00000000000E+00  0.00000000000E+00  0.95094488131E+03  0.95094488133E+03  0.50400001928E-02 0. -1.
        1   -1    0    0  501    0  0.00000000000E+00  0.00000000000E+00 -0.16451017403E+03  0.16451017410E+03  0.50400001928E-02 0.  1.
    10030    2    1    2    0    0  0.00000000000E+00  0.00000000000E+00  0.78643470729E+03  0.11154550554E+04  0.79105020818E+03 0.  0.
        1    1    3    3  502    0 -0.16929208985E+03 -0.18829973660E+03  0.82167132229E+03  0.85980251476E+03  0.50400001928E-02 0. -1.
       -1    1    3    3    0  502  0.16929208985E+03  0.18829973660E+03 -0.35236615002E+02  0.25565254067E+03  0.50400001928E-02 0.  1.
</event>
<event>
 5   0  0.2606520E-02  0.7965434E+03  0.7818609E-02  0.9565034E-01
       -1   -1    0    0    0  501  0.00000000000E+00  0.00000000000E+00  0.18645996566E+03  0.18645996572E+03  0.50400001928E-02 0.  1.
        1   -1    0    0  501    0  0.00000000000E+00  0.00000000000E+00 -0.85069387005E+03  0.85069387006E+03  0.50400001928E-02 0. -1.
    10030    2    1    2    0    0  0.00000000000E+00  0.00000000000E+00 -0.66423390439E+03  0.10371538358E+04  0.79654340707E+03 0.  0.
        5    1    3    3  502    0  0.26418564264E+03 -0.16702342943E+02  0.55289885351E+02  0.27046641836E+03  0.46999998093E+01 0. -1.
       -5    1    3    3    0  502 -0.26418564264E+03  0.16702342943E+02 -0.71952378974E+03  0.76668741743E+03  0.46999998093E+01 0.  1.
</event>
<event>
 5   0  0.2689372E-02  0.7969273E+03  0.7818609E-02  0.9564475E-01
        1   -1    0    0  501    0  0.00000000000E+00  0.00000000000E+00  0.23419828812E+03  0.23419828818E+03  0.50400001928E-02 0.  1.
       -1   -1    0    0    0  501  0.00000000000E+00  0.00000000000E+00 -0.67794373065E+03  0.67794373067E+03  0.50400001928E-02 0. -1.
    10030    2    1    2    0    0  0.00000000000E+00  0.00000000000E+00 -0.44374544252E+03  0.91214201884E+03  0.79692725187E+03 0.  0.
        4    1    3    3  502    0 -0.26520541895E+02 -0.16163191559E+03  0.19388246363E+03  0.25381142189E+03  0.12699999809E+01 0.  1.
       -4    1    3    3    0  502  0.26520541895E+02  0.16163191559E+03 -0.63762790615E+03  0.65833059695E+03  0.12699999809E+01 0. -1.
</event>
<event>
 5   0  0.4684283E-02  0.8025246E+03  0.7818609E-02  0.9556370E-01
       -2   -1    0    0    0  501  0.00000000000E+00  0.00000000000E+00  0.11924608221E+04  0.11924608221E+04  0.25500000920E-02 0.  1.
        2   -1    0    0  501    0  0.00000000000E+00  0.00000000000E+00 -0.13502450316E+03  0.13502450319E+03  0.25500000920E-02 0. -1.
    10030    2    1    2    0    0  0.00000000000E+00  0.00000000000E+00  0.10574363189E+04  0.13274853253E+04  0.80252459168E+03 0.  0.
        1    1    3    3  502    0 -0.26300186447E+03  0.32452593833E+02  0.10271276117E+04  0.10607611807E+04  0.50400001928E-02 0.  1.
       -1    1    3    3    0  502  0.26300186447E+03 -0.32452593833E+02  0.30308707172E+02  0.26672414461E+03  0.50400001928E-02 0. -1.
</event>
<event>
 5   0  0.2635243E-02  0.7871792E+03  0.7818609E-02  0.9578762E-01
       -1   -1    0    0    0  501  0.00000000000E+00  0.00000000000E+00  0.58896777667E+03  0.58896777669E+03  0.50400001928E-02 0. -1.
        1   -1    0    0  501    0  0.00000000000E+00  0.00000000000E+00 -0.26302419330E+03  0.26302419335E+03  0.50400001928E-02 0.  1.
    10030    2    1    2    0    0  0.00000000000E+00  0.00000000000E+00  0.32594358336E+03  0.85199197004E+03  0.78717920290E+03 0.  0.
        1    1    3    3  502    0  0.16894545929E+03  0.27165030458E+03  0.41114618842E+03  0.52093919460E+03  0.50400001928E-02 0. -1.
       -1    1    3    3    0  502 -0.16894545929E+03 -0.27165030458E+03 -0.85202605059E+02  0.33105277544E+03  0.50400001928E-02 0.  1.
</event>
<event>
 5   0  0.4590462E-02  0.8110422E+03  0.7818609E-02  0.9544170E-01
        2   -1    0    0  501    0  0.00000000000E+00  0.00000000000E+00  0.24319965067E+03  0.24319965068E+03  0.25500000920E-02 0.  1.
       -2   -1    0    0    0  501  0.00000000000E+00  0.00000000000E+00 -0.67618261713E+03  0.67618261714E+03  0.25500000920E-02 0. -1.
    10030    2    1    2    0    0  0.00000000000E+00  0.00000000000E+00 -0.43298296646E+03  0.91938226782E+03  0.81104223388E+03 0.  0.
        3    1    3    3  502    0  0.44003784711E+02 -0.37051116510E+03 -0.36425002659E+02  0.37488884693E+03  0.10100000352E+00 0.  1.
       -3    1    3    3    0  502 -0.44003784711E+02  0.37051116510E+03 -0.39655796380E+03  0.54449342089E+03  0.10100000352E+00 0. -1.
</event>
<event>
 5   0  0.4684283E-02  0.7789228E+03  0.7818609E-02  0.9591037E-01
       -2   -1    0    0    0  501  0.00000000000E+00  0.00000000000E+00  0.60585771741E+02  0.60585771794E+02  0.25500000920E-02 0.  1.
        2   -1    0    0  501    0  0.00000000000E+00  0.00000000000E+00 -0.25035612440E+04  0.25035612440E+04  0.25500000920E-02 0. -1.
    10030    2    1    2    0    0  0.00000000000E+00  0.00000000000E+00 -0.24429754722E+04  0.25641470158E+04  0.77892282066E+03 0.  0.
        1    1    3    3  502    0 -0.13705266277E+03  0.34900126763E+03 -0.15682322994E+04  0.16124322814E+04  0.50400001928E-02 0. -1.
       -1    1    3    3    0  502  0.13705266277E+03 -0.34900126763E+03 -0.87474317283E+03  0.95171473437E+03  0.50400001928E-02 0.  1.
</event>
<event>
 5   0  0.4684283E-02  0.7886145E+03  0.7818609E-02  0.9576645E-01
        2   -1    0    0  501    0  0.00000000000E+00  0.00000000000E+00  0.10840909513E+04  0.10840909513E+04  0.25500000920E-02 0.  1.
       -2   -1    0    0    0  501  0.00000000000E+00  0.00000000000E+00 -0.14341803842E+03  0.14341803844E+03  0.25500000920E-02 0. -1.
    10030    2    1    2    0    0  0.00000000000E+00  0.00000000000E+00  0.94067291290E+03  0.12275089898E+04  0.78861447544E+03 0.  0.
        1    1    3    3  502    0  0.28507597703E+03  0.26107026992E+03  0.34924415233E+03  0.52095822911E+03  0.50400001928E-02 0. -1.
       -1    1    3    3    0  502 -0.28507597703E+03 -0.26107026992E+03  0.59142876058E+03  0.70655076065E+03  0.50400001928E-02 0.  1.
</event>
<event>
 5   0  0.4663634E-02  0.7927246E+03  0.7818609E-02  0.9570608E-01
       -2   -1    0    0    0  501  0.00000000000E+00  0.00000000000E+00  0.33331100445E+03  0.33331100446E+03  0.25500000920E-02 0.  1.
        2   -1    0    0  501    0  0.00000000000E+00  0.00000000000E+00 -0.47134081673E+03  0.47134081674E+03  0.25500000920E-02 0. -1.
    10030    2    1    2    0    0  0.00000000000E+00  0.00000000000E+00 -0.13802981228E+03  0.80465182120E+03  0.79272462072E+03 0.  0.
        5    1    3    3  502    0  0.34373426648E+03 -0.14147566431E+03  0.70576525709E+02  0.37838042434E+03  0.46999998093E+01 0.  1.
       -5    1    3    3    0  502 -0.34373426648E+03  0.14147566431E+03 -0.20860633799E+03  0.42627139687E+03  0.46999998093E+01 0. -1.
</event>
<event>
 5   0  0.2606520E-02  0.7769252E+03  0.7818609E-02  0.9594031E-01
       -1   -1    0    0    0  501  0.00000000000E+00  0.00000000000E+00  0.16595575683E+03  0.16595575691E+03  0.50400001928E-02 0. -1.
        1   -1    0    0  501    0  0.00000000000E+00  0.00000000000E+00 -0.90929778481E+03  0.90929778483E+03  0.50400001928E-02 0.  1.
    10030    2    1    2    0    0  0.00000000000E+00  0.00000000000E+00 -0.74334202798E+03  0.10752535417E+04  0.77692522707E+03 0.  0.
        5    1    3    3  502    0  0.18662821060E+03 -0.32853613582E+03 -0.49634525667E+03  0.62381630737E+03  0.46999998093E+01 0.  1.
       -5    1    3    3    0  502 -0.18662821060E+03  0.32853613582E+03 -0.24699677131E+03  0.45143723436E+03  0.46999998093E+01 0. -1.
</event>
<event>
 5   0  0.4590462E-02  0.7883915E+03  0.7818609E-02  0.9576974E-01
       -2   -1    0    0    0  501  0.00000000000E+00  0.00000000000E+00  0.86402460597E+02  0.86402460634E+02  0.25500000920E-02 0.  1.
        2   -1    0    0  501    0  0.00000000000E+00  0.00000000000E+00 -0.17984475041E+04  0.17984475041E+04  0.25500000920E-02 0. -1.
    10030    2    1    2    0    0  0.00000000000E+00  0.00000000000E+00 -0.17120450435E+04  0.18848499647E+04  0.78839150082E+03 0.  0.
        3    1    3    3  502    0  0.23224820868E+03  0.20998929401E+03 -0.14285845715E+04  0.14624939734E+04  0.10100000352E+00 0. -1.
       -3    1    3    3    0  502 -0.23224820868E+03 -0.20998929401E+03 -0.28346047195E+03  0.42235599131E+03  0.10100000352E+00 0.  1.
</event>
<event>
 5   0  0.2769394E-02  0.8094186E+03  0.7818609E-02  0.9546483E-01
       -1   -1    0    0    0  501  0.00000000000E+00  0.00000000000E+00  0.76790489380E+02  0.76790489546E+02  0.50400001928E-02 0. -1.
        1   -1    0    0  501    0  0.00000000000E+00  0.00000000000E+00 -0.21329414505E+04  0.21329414505E+04  0.50400001928E-02 0.  1.
    10030    2    1    2    0    0  0.00000000000E+00  0.00000000000E+00 -0.20561509611E+04  0.22097319400E+04  0.80941860120E+03 0.  0.
        2    1    3    3  502    0 -0.21366313896E+03  0.21524151945E+03 -0.17596442452E+04  0.17855891796E+04  0.25500000920E-02 0.  1.
       -2    1    3    3    0  502  0.21366313896E+03 -0.21524151945E+03 -0.29650671590E+03  0.42414276043E+03  0.25500000920E-02 0. -1.
</event>
<event>
 5   0  0.2635243E-02  0.8009905E+03  0.7818609E-02  0.9558584E-01
        1   -1    0    0  501    0  0.00000000000E+00  0.00000000000E+00  0.25869775437E+03  0.25869775442E+03  0.50400001928E-02 0. -1.
       -1   -1    0    0    0  501  0.00000000000E+00  0.00000000000E+00 -0.62001485768E+03  0.62001485770E+03  0.50400001928E-02 0.  1.
    10030    2    1    2    0    0  0.00000000000E+00  0.00000000000E+00 -0.36131710331E+03  0.87871261212E+03  0.80099051527E+03 0.  0.
        1    1    3    3  502    0 -0.31967842529E+03  0.63686192203E+02 -0.43593078436E+03  0.54432148171E+03  0.50400001928E-02 0.  1.
       -1    1    3    3    0  502  0.31967842529E+03 -0.63686192203E+02  0.74613681051E+02  0.33439113041E+03  0.50400001928E-02 0. -1.
</event>
<event>
 5   0  0.2759559E-02  0.8029745E+03  0.7818609E-02  0.9555722E-01
        1   -1    0    0  501    0  0.00000000000E+00  0.00000000000E+00  0.68864739343E+03  0.68864739345E+03  0.50400001928E-02 0.  1.
       -1   -1    0    0    0  501  0.00000000000E+00  0.00000000000E+00 -0.23407045032E+03  0.23407045038E+03  0.50400001928E-02 0. -1.
    10030    2    1    2    0    0  0.00000000000E+00  0.00000000000E+00  0.45457694310E+03  0.92271784382E+03  0.80297448410E+03 0.  0.
        3    1    3    3  502    0 -0.23241060253E+03 -0.19259962060E+03  0.53149782703E+03  0.61122766001E+03  0.10100000352E+00 0.  1.
       -3    1    3    3    0  502  0.23241060253E+03  0.19259962060E+03 -0.76920883931E+02  0.31149018381E+03  0.10100000352E+00 0. -1.
</event>
<event>
 5   0  0.2759559E-02  0.7221404E+03  0.7818609E-02  0.9680101E-01
        1   -1    0    0  501    0  0.00000000000E+00  0.00000000000E+00  0.43520101350E+03  0.43520101353E+03  0.50400001928E-02 0.  1.
       -1   -1    0    0    0  501  0.00000000000E+00  0.00000000000E+00 -0.29956659954E+03  0.29956659958E+03  0.50400001928E-02 0. -1.
    10030    2    1    2    0    0  0.00000000000E+00  0.00000000000E+00  0.13563441396E+03  0.73476761311E+03  0.72214039564E+03 0.  0.
        3    1    3    3  502    0 -0.25268031580E+03 -0.24941083517E+03  0.13468213642E+03  0.37972673697E+03  0.10100000352E+00 0. -1.
       -3    1    3    3    0  502  0.25268031580E+03  0.24941083517E+03  0.95227754113E+00  0.35504087614E+03  0.10100000352E+00 0.  1.
</event>
<event>
 5   0  0.4377843E-02  0.7940807E+03  0.7818609E-02  0.9568625E-01
       -2   -1    0    0    0  501  0.00000000000E+00  0.00000000000E+00  0.12991288892E+03  0.12991288894E+03  0.25500000920E-02 0.  1.
        2   -1    0    0  501    0  0.00000000000E+00  0.00000000000E+00 -0.12134363417E+04  0.12134363417E+04  0.25500000920E-02 0. -1.
    10030    2    1    2    0    0  0.00000000000E+00  0.00000000000E+00 -0.10835234528E+04  0.13433492307E+04  0.79408065254E+03 0.  0.
        2    1    3    3  502    0  0.35365022951E+03  0.17152140156E+03 -0.63675273298E+03  0.74829280298E+03  0.25500000920E-02 0. -1.
       -2    1    3    3    0  502 -0.35365022951E+03 -0.17152140156E+03 -0.44677071982E+03  0.59505642768E+03  0.25500000920E-02 0.  1.
</event>
<event>
 5   0  0.2606520E-02  0.8285800E+03  0.7818609E-02  0.9519546E-01
       -1   -1    0    0    0  501  0.00000000000E+00  0.00000000000E+00  0.15131317570E+03  0.15131317578E+03  0.50400001928E-02 0. -1.
        1   -1    0    0  501    0  0.00000000000E+00  0.00000000000E+00 -0.11343110594E+04  0.11343110594E+04  0.50400001928E-02 0.  1.
    10030    2    1    2    0    0  0.00000000000E+00  0.00000000000E+00 -0.98299788374E+03  0.12856242352E+04  0.82858001110E+03 0.  0.
        5    1    3    3  502    0  0.19912973334E+02 -0.87628323384E+02 -0.11189647913E+04  0.11225771883E+04  0.46999998093E+01 0.  1.
       -5    1    3    3    0  502 -0.19912973334E+02  0.87628323384E+02  0.13596690755E+03  0.16304704693E+03  0.46999998093E+01 0. -1.
</event>
<event>
 5   0  0.4663634E-02  0.8087045E+03  0.7818609E-02  0.9547502E-01
       -2   -1    0    0    0  501  0.00000000000E+00  0.00000000000E+00  0.15775090933E+03  0.15775090935E+03  0.25500000920E-02 0.  1.
        2   -1    0    0  501    0  0.00000000000E+00  0.00000000000E+00 -0.10364488035E+04  0.10364488035E+04  0.25500000920E-02 0. -1.
    10030    2    1    2    0    0  0.00000000000E+00  0.00000000000E+00 -0.87869789415E+03  0.11941997128E+04  0.80870449791E+03 0.  0.
        5    1    3    3  502    0 -0.30739115960E+03 -0.20642654556E+03 -0.19951913986E+03  0.42063193041E+03  0.46999998093E+01 0.  1.
       -5    1    3    3    0  502  0.30739115960E+03  0.20642654556E+03 -0.67917875429E+03  0.77356778242E+03  0.46999998093E+01 0. -1.
</event>
<event>
 5   0  0.2769394E-02  0.7483225E+03  0.7818609E-02  0.9637986E-01
        1   -1    0    0  501    0  0.00000000000E+00  0.00000000000E+00  0.97161013785E+03  0.97161013786E+03  0.50400001928E-02 0.  1.
       -1   -1    0    0    0  501  0.00000000000E+00  0.00000000000E+00 -0.14408726322E+03  0.14408726331E+03  0.50400001928E-02 0. -1.
    10030    2    1    2    0    0  0.00000000000E+00  0.00000000000E+00  0.82752287463E+03  0.11156974012E+04  0.74832251265E+03 0.  0.
        2    1    3    3  502    0 -0.29984013516E+03 -0.22074704207E+03  0.35871229731E+03  0.51701825450E+03  0.25500000920E-02 0.  1.
       -2    1    3    3    0  502  0.29984013516E+03  0.22074704207E+03  0.46881057732E+03  0.59867914667E+03  0.25500000920E-02 0. -1.
</event>
<event>
 5   0  0.1786500E-02  0.7930467E+03  0.7818609E-02  0.9570137E-01
        4   -1    0    0  501    0  0.00000000000E+00  0.00000000000E+00  0.63908623986E+03  0.63908750174E+03  0.12699999809E+01 0. -1.
       -4   -1    0    0    0  501  0.00000000000E+00  0.00000000000E+00 -0.24602119359E+03  0.24602447154E+03  0.12699999809E+01 0.  1.
    10030    2    1    2    0    0  0.00000000000E+00  0.00000000000E+00  0.39306504627E+03  0.88511197328E+03  0.79304670394E+03 0.  0.
        1    1    3    3  502    0 -0.30544163210E+03 -0.18433931794E+03  0.38970067229E+03  0.52833908502E+03  0.50400001928E-02 0.  1.
       -1    1    3    3    0  502  0.30544163210E+03  0.18433931794E+03  0.33643739825E+01  0.35677288825E+03  0.50400001928E-02 0. -1.
</event>
<event>
 5   0  0.2635243E-02  0.8096420E+03  0.7818609E-02  0.9546165E-01
       -1   -1    0    0    0  501  0.00000000000E+00  0.00000000000E+00  0.60154932828E+03  0.60154932830E+03  0.50400001928E-02 0.  1.
        1   -1    0    0  501    0  0.00000000000E+00  0.00000000000E+00 -0.27242992822E+03  0.27242992827E+03  0.50400001928E-02 0. -1.
    10030    2    1    2    0    0  0.00000000000E+00  0.00000000000E+00  0.32911940006E+03  0.87397925656E+03  0.80964199583E+03 0.  0.
        1    1    3    3  502    0  0.20241488857E+03 -0.53903163615E+02  0.53850115279E+03  0.57780691389E+03  0.50400001928E-02 0.  1.
       -1    1    3    3    0  502 -0.20241488857E+03  0.53903163615E+02 -0.20938175273E+03  0.29617234267E+03  0.50400001928E-02 0. -1.
</event>
<event>
 5   0  0.2769394E-02  0.8047261E+03  0.7818609E-02  0.9553201E-01
        1   -1    0    0  501    0  0.00000000000E+00  0.00000000000E+00  0.65415387264E+03  0.65415387266E+03  0.50400001928E-02 0. -1.
       -1   -1    0    0    0  501  0.00000000000E+00  0.00000000000E+00 -0.24748921346E+03  0.24748921351E+03  0.50400001928E-02 0.  1.
    10030    2    1    2    0    0  0.00000000000E+00  0.00000000000E+00  0.40666465919E+03  0.90164308617E+03  0.80472610856E+03 0.  0.
        2    1    3    3  502    0 -0.25312152671E+02 -0.39786227933E+03  0.26430013553E+03  0.47831962121E+03  0.25500000920E-02 0.  1.
       -2    1    3    3    0  502  0.25312152671E+02  0.39786227933E+03  0.14236452366E+03  0.42332346496E+03  0.25500000920E-02 0. -1.
</event>
<event>
 5   0  0.4684283E-02  0.7967897E+03  0.7818609E-02  0.9564676E-01
       -2   -1    0    0    0  501  0.00000000000E+00  0.00000000000E+00  0.15099034820E+03  0.15099034822E+03  0.25500000920E-02 0. -1.
        2   -1    0    0  501    0  0.00000000000E+00  0.00000000000E+00 -0.10511828133E+04  0.10511828133E+04  0.25500000920E-02 0.  1.
    10030    2    1    2    0    0  0.00000000000E+00  0.00000000000E+00 -0.90019246514E+03  0.12021731616E+04  0.79678970631E+03 0.  0.
        1    1    3    3  502    0  0.54596413445E+02 -0.36381059071E+03 -0.68079290918E+03  0.77383325044E+03  0.50400001928E-02 0.  1.
       -1    1    3    3    0  502 -0.54596413445E+02  0.36381059071E+03 -0.21939955597E+03  0.42833991112E+03  0.50400001928E-02 0. -1.
</event>
<event>
 5   0  0.4684283E-02  0.7846019E+03  0.7818609E-02  0.9582577E-01
        2   -1    0    0  501    0  0.00000000000E+00  0.00000000000E+00  0.10973896036E+04  0.10973896036E+04  0.25500000920E-02 0.  1.
       -2   -1    0    0    0  501  0.00000000000E+00  0.00000000000E+00 -0.14024194216E+03  0.14024194218E+03  0.25500000920E-02 0. -1.
    10030    2    1    2    0    0  0.00000000000E+00  0.00000000000E+00  0.95714766144E+03  0.12376315458E+04  0.78460193559E+03 0.  0.
        1    1    3    3  502    0 -0.76795967208E+02  0.30633641733E+02  0.10834900028E+04  0.10866400631E+04  0.50400001928E-02 0.  1.
       -1    1    3    3    0  502  0.76795967208E+02 -0.30633641733E+02 -0.12634234137E+03  0.15099148265E+03  0.50400001928E-02 0. -1.
</event>
<event>
 5   0  0.1786500E-02  0.7922413E+03  0.7818609E-02  0.9571316E-01
        3   -1    0    0  501    0  0.00000000000E+00  0.00000000000E+00  0.55871614408E+03  0.55871615321E+03  0.10100000352E+00 0. -1.
       -3   -1    0    0    0  501  0.00000000000E+00  0.00000000000E+00 -0.28084306223E+03  0.28084308039E+03  0.10100000352E+00 0.  1.
    10030    2    1    2    0    0  0.00000000000E+00  0.00000000000E+00  0.27787308185E+03  0.83955923361E+03  0.79224128718E+03 0.  0.
        2    1    3    3  502    0  0.21591540774E+03 -0.31791643879E+03  0.24069921441E+03  0.45346051336E+03  0.25500000920E-02 0.  1.
       -2    1    3    3    0  502 -0.21591540774E+03  0.31791643879E+03  0.37173867436E+02  0.38609872025E+03  0.25500000920E-02 0. -1.
</event>
<event>
 5   0  0.2689372E-02  0.7924077E+03  0.7818609E-02  0.9571072E-01
       -1   -1    0    0    0  501  0.00000000000E+00  0.00000000000E+00  0.31504974918E+03  0.31504974922E+03  0.50400001928E-02 0. -1.
        1   -1    0    0  501    0  0.00000000000E+00  0.00000000000E+00 -0.49826253584E+03  0.49826253586E+03  0.50400001928E-02 0.  1.
    10030    2    1    2    0    0  0.00000000000E+00  0.00000000000E+00 -0.18321278665E+03  0.81331228508E+03  0.79240769044E+03 0.  0.
        4    1    3    3  502    0 -0.88303481802E+02  0.33028251204E+03 -0.29711811535E+03  0.45295124465E+03  0.12699999809E+01 0.  1.
       -4    1    3    3    0  502  0.88303481802E+02 -0.33028251204E+03  0.11390532869E+03  0.36036104044E+03  0.12699999809E+01 0. -1.
</event>
<event>
 5   0  0.4663634E-02  0.7726955E+03  0.7818609E-02  0.9600402E-01
        2   -1    0    0  501    0  0.00000000000E+00  0.00000000000E+00  0.31686699479E+03  0.31686699480E+03  0.25500000920E-02 0. -1.
       -2   -1    0    0    0  501  0.00000000000E+00  0.00000000000E+00 -0.47106389332E+03  0.47106389333E+03  0.25500000920E-02 0.  1.
    10030    2    1    2    0    0  0.00000000000E+00  0.00000000000E+00 -0.15419689852E+03  0.78793088813E+03  0.77269554221E+03 0.  0.
        5    1    3    3  502    0  0.87212759337E+02  0.27889246687E+03 -0.33477723127E+03  0.44439279702E+03  0.46999998093E+01 0.  1.
       -5    1    3    3    0  502 -0.87212759337E+02 -0.27889246687E+03  0.18058033275E+03  0.34353809111E+03  0.46999998093E+01 0. -1.
</event>
<event>
 5   0  0.2606520E-02  0.7888447E+03  0.7818609E-02  0.9576306E-01
       -1   -1    0    0    0  501  0.00000000000E+00  0.00000000000E+00  0.17276733386E+03  0.17276733393E+03  0.50400001928E-02 0.  1.
        1   -1    0    0  501    0  0.00000000000E+00  0.00000000000E+00 -0.90045376645E+03  0.90045376646E+03  0.50400001928E-02 0. -1.
    10030    2    1    2    0    0  0.00000000000E+00  0.00000000000E+00 -0.72768643259E+03  0.10732211004E+04  0.78884471612E+03 0.  0.
        5    1    3    3  502    0  0.60194339072E+02 -0.37964155699E+03 -0.24371942326E+03  0.45516185860E+03  0.46999998093E+01 0.  1.
       -5    1    3    3    0  502 -0.60194339072E+02  0.37964155699E+03 -0.48396700933E+03  0.61805924180E+03  0.46999998093E+01 0. -1.
</event>
<event>
 5   0  0.2769394E-02  0.8045633E+03  0.7818609E-02  0.9553435E-01
       -1   -1    0    0    0  501  0.00000000000E+00  0.00000000000E+00  0.18686144550E+03  0.18686144557E+03  0.50400001928E-02 0.  1.
        1   -1    0    0  501    0  0.00000000000E+00  0.00000000000E+00 -0.86604559853E+03  0.86604559855E+03  0.50400001928E-02 0. -1.
    10030    2    1    2    0    0  0.00000000000E+00  0.00000000000E+00 -0.67918415303E+03  0.10529070441E+04  0.80456331623E+03 0.  0.
        2    1    3    3  502    0 -0.29414229942E+03  0.27048820102E+03 -0.27895432059E+03  0.48733876531E+03  0.25500000920E-02 0.  1.
       -2    1    3    3    0  502  0.29414229942E+03 -0.27048820102E+03 -0.40022983244E+03  0.56556827880E+03  0.25500000920E-02 0. -1.
</event>
<event>
 5   0  0.4663634E-02  0.8009328E+03  0.7818609E-02  0.9558668E-01
        2   -1    0    0  501    0  0.00000000000E+00  0.00000000000E+00  0.69897791634E+03  0.69897791634E+03  0.25500000920E-02 0. -1.
       -2   -1    0    0    0  501  0.00000000000E+00  0.00000000000E+00 -0.22943977721E+03  0.22943977723E+03  0.25500000920E-02 0.  1.
    10030    2    1    2    0    0  0.00000000000E+00  0.00000000000E+00  0.46953813913E+03  0.92841769357E+03  0.80093279970E+03 0.  0.
        5    1    3    3  502    0  0.15200284807E+03  0.36420562512E+03  0.15614479453E+03  0.42444539113E+03  0.46999998093E+01 0.  1.
       -5    1    3    3    0  502 -0.15200284807E+03 -0.36420562512E+03  0.31339334460E+03  0.50397230244E+03  0.46999998093E+01 0. -1.
</event>
<event>
 5   0  0.4684283E-02  0.8014195E+03  0.7818609E-02  0.9557965E-01
       -2   -1    0    0    0  501  0.00000000000E+00  0.00000000000E+00  0.14833733466E+03  0.14833733469E+03  0.25500000920E-02 0.  1.
        2   -1    0    0  501    0  0.00000000000E+00  0.00000000000E+00 -0.10824536617E+04  0.10824536617E+04  0.25500000920E-02 0. -1.
    10030    2    1    2    0    0  0.00000000000E+00  0.00000000000E+00 -0.93411632699E+03  0.12307909963E+04  0.80141946840E+03 0.  0.
        1    1    3    3  502    0  0.15121591300E+03 -0.11636735076E+03  0.74090338670E+02  0.20468754475E+03  0.50400001928E-02 0.  1.
       -1    1    3    3    0  502 -0.15121591300E+03  0.11636735076E+03 -0.10082066657E+04  0.10261034516E+04  0.50400001928E-02 0. -1.
</event>
<event>
 5   0  0.2769394E-02  0.8083139E+03  0.7818609E-02  0.9548060E-01
        1   -1    0    0  501    0  0.00000000000E+00  0.00000000000E+00  0.82790934027E+03  0.82790934028E+03  0.50400001928E-02 0.  1.
       -1   -1    0    0    0  501  0.00000000000E+00  0.00000000000E+00 -0.19729556385E+03  0.19729556391E+03  0.50400001928E-02 0. -1.
    10030    2    1    2    0    0  0.00000000000E+00  0.00000000000E+00  0.63061377642E+03  0.10252049042E+04  0.80831389978E+03 0.  0.
        2    1    3    3  502    0  0.38125553949E+03  0.49954455138E+02  0.47316934293E+03  0.60970522474E+03  0.25500000920E-02 0.  1.
       -2    1    3    3    0  502 -0.38125553949E+03 -0.49954455138E+02  0.15744443349E+03  0.41549967945E+03  0.25500000920E-02 0. -1.
</event>
<event>
 5   0  0.2606520E-02  0.8114890E+03  0.7818609E-02  0.9543535E-01
        1   -1    0    0  501    0  0.00000000000E+00  0.00000000000E+00  0.11220706721E+04  0.11220706722E+04  0.50400001928E-02 0. -1.
       -1   -1    0    0    0  501  0.00000000000E+00  0.00000000000E+00 -0.14671855069E+03  0.14671855077E+03  0.50400001928E-02 0.  1.
    10030    2    1    2    0    0  0.00000000000E+00  0.00000000000E+00  0.97535212145E+03  0.12687892229E+04  0.81148895950E+03 0.  0.
        5    1    3    3  502    0 -0.36950232588E+03 -0.15938710463E+03  0.40688099250E+03  0.57228528726E+03  0.46999998093E+01 0.  1.
       -5    1    3    3    0  502  0.36950232588E+03  0.15938710463E+03  0.56847112895E+03  0.69650393567E+03  0.46999998093E+01 0. -1.
</event>
<event>
 5   0  0.2759559E-02  0.7896597E+03  0.7818609E-02  0.9575106E-01
        1   -1    0    0  501    0  0.00000000000E+00  0.00000000000E+00  0.31858346504E+03  0.31858346508E+03  0.50400001928E-02 0. -1.
       -1   -1    0    0    0  501  0.00000000000E+00  0.00000000000E+00 -0.48932422007E+03  0.48932422010E+03  0.50400001928E-02 0.  1.
    10030    2    1    2    0    0  0.00000000000E+00  0.00000000000E+00 -0.17074075503E+03  0.80790768518E+03  0.78965968768E+03 0.  0.
        3    1    3    3  502    0 -0.54878079966E+02  0.34781693267E+03  0.97369473426E+02  0.36533415782E+03  0.10100000352E+00 0. -1.
       -3    1    3    3    0  502  0.54878079966E+02 -0.34781693267E+03 -0.26811022845E+03  0.44257352736E+03  0.10100000352E+00 0.  1.
</event>
<event>
 5   0  0.2759559E-02  0.7916280E+03  0.7818609E-02  0.9572215E-01
        1   -1    0    0  501    0  0.00000000000E+00  0.00000000000E+00  0.45072689258E+03  0.45072689261E+03  0.50400001928E-02 0. -1.
       -1   -1    0    0    0  501  0.00000000000E+00  0.00000000000E+00 -0.34759125275E+03  0.34759125279E+03  0.50400001928E-02 0.  1.
    10030    2    1    2    0    0  0.00000000000E+00  0.00000000000E+00  0.10313563983E+03  0.79831814539E+03  0.79162800674E+03 0.  0.
        3    1    3    3  502    0  0.10022475453E+03  0.22654518881E+03 -0.25974969759E+03  0.35893960438E+03  0.10100000352E+00 0.  1.
       -3    1    3    3    0  502 -0.10022475453E+03 -0.22654518881E+03  0.36288533741E+03  0.43937854101E+03  0.10100000352E+00 0. -1.
</event>
<event>
 5   0  0.2606520E-02  0.8036276E+03  0.7818609E-02  0.9554781E-01
       -1   -1    0    0    0  501  0.00000000000E+00  0.00000000000E+00  0.28305395691E+03  0.28305395695E+03  0.50400001928E-02 0.  1.
        1   -1    0    0  501    0  0.00000000000E+00  0.00000000000E+00 -0.57040126935E+03  0.57040126937E+03  0.50400001928E-02 0. -1.
    10030    2    1    2    0    0  0.00000000000E+00  0.00000000000E+00 -0.28734731244E+03  0.85345522633E+03  0.80362761611E+03 0.  0.
        5    1    3    3  502    0 -0.72291695846E+02  0.39451231521E+03 -0.11840355008E+03  0.41821949597E+03  0.46999998093E+01 0. -1.
       -5    1    3    3    0  502  0.72291695846E+02 -0.39451231521E+03 -0.16894376236E+03  0.43523573036E+03  0.46999998093E+01 0.  1.
</event>
<event>
 5   0  0.2689372E-02  0.7851945E+03  0.7818609E-02  0.9581698E-01
       -1   -1    0    0    0  501  0.00000000000E+00  0.00000000000E+00  0.32691914928E+03  0.32691914932E+03  0.50400001928E-02 0. -1.
        1   -1    0    0  501    0  0.00000000000E+00  0.00000000000E+00 -0.47147014608E+03  0.47147014611E+03  0.50400001928E-02 0.  1.
    10030    2    1    2    0    0  0.00000000000E+00  0.00000000000E+00 -0.14455099680E+03  0.79838929543E+03  0.78519454683E+03 0.  0.
        4    1    3    3  502    0  0.14288810455E+03 -0.32276891560E+03 -0.24701866631E+03  0.43083247058E+03  0.12699999809E+01 0.  1.
       -4    1    3    3    0  502 -0.14288810455E+03  0.32276891560E+03  0.10246766951E+03  0.36755682485E+03  0.12699999809E+01 0. -1.
</event>
<event>
 5   0  0.2606520E-02  0.8072186E+03  0.7818609E-02  0.9549627E-01
       -1   -1    0    0    0  501  0.00000000000E+00  0.00000000000E+00  0.78519943996E+03  0.78519943997E+03  0.50400001928E-02 0. -1.
        1   -1    0    0  501    0  0.00000000000E+00  0.00000000000E+00 -0.20746382979E+03  0.20746382985E+03  0.50400001928E-02 0.  1.
    10030    2    1    2    0    0  0.00000000000E+00  0.00000000000E+00  0.57773561017E+03  0.99266326982E+03  0.80721863952E+03 0.  0.
        5    1    3    3  502    0 -0.80049268609E+01  0.32802109887E+03  0.57783271064E+03  0.66451083636E+03  0.46999998093E+01 0. -1.
       -5    1    3    3    0  502  0.80049268609E+01 -0.32802109887E+03 -0.97100468645E-01  0.32815243346E+03  0.46999998093E+01 0.  1.
</event>
<event>
 5   0  0.4700220E-02  0.8283468E+03  0.7818609E-02  0.9519869E-01
        2   -1    0    0  501    0  0.00000000000E+00  0.00000000000E+00  0.20160215494E+03  0.20160215495E+03  0.25500000920E-02 0. -1.
       -2   -1    0    0    0  501  0.00000000000E+00  0.00000000000E+00 -0.85088171107E+03  0.85088171107E+03  0.25500000920E-02 0.  1.
    10030    2    1    2    0    0  0.00000000000E+00  0.00000000000E+00 -0.64927955613E+03  0.10524838660E+04  0.82834675483E+03 0.  0.
        4    1    3    3  502    0  0.12234311978E+03 -0.27632231471E+03  0.35220639060E+02  0.30424326924E+03  0.12699999809E+01 0. -1.
       -4    1    3    3    0  502 -0.12234311978E+03  0.27632231471E+03 -0.68450019519E+03  0.74824059679E+03  0.12699999809E+01 0.  1.
</event>
<event>
 5   0  0.2759559E-02  0.5351497E+03  0.7818609E-02  0.1004991E+00
       -1   -1    0    0    0  501  0.00000000000E+00  0.00000000000E+00  0.98388728975E+02  0.98388729104E+02  0.50400001928E-02 0. -1.
        1   -1    0    0  501    0  0.00000000000E+00  0.00000000000E+00 -0.72768792854E+03  0.72768792856E+03  0.50400001928E-02 0.  1.
    10030    2    1    2    0    0  0.00000000000E+00  0.00000000000E+00 -0.62929919957E+03  0.82607665767E+03  0.53514966296E+03 0.  0.
        3    1    3    3  502    0 -0.19084697389E+03  0.11019556464E+03 -0.80389569511E+02  0.23458073876E+03  0.10100000352E+00 0. -1.
       -3    1    3    3    0  502  0.19084697389E+03 -0.11019556464E+03 -0.54890963006E+03  0.59149591891E+03  0.10100000352E+00 0.  1.
</event>
<event>
 5   0  0.4590462E-02  0.7701367E+03  0.7818609E-02  0.9604278E-01
       -2   -1    0    0    0  501  0.00000000000E+00  0.00000000000E+00  0.10814369306E+03  0.10814369309E+03  0.25500000920E-02 0.  1.
        2   -1    0    0  501    0  0.00000000000E+00  0.00000000000E+00 -0.13711169718E+04  0.13711169718E+04  0.25500000920E-02 0. -1.
    10030    2    1    2    0    0  0.00000000000E+00  0.00000000000E+00 -0.12629732787E+04  0.14792606649E+04  0.77013674881E+03 0.  0.
        3    1    3    3  502    0 -0.55865733639E+02  0.67817392966E+02  0.88631611449E+02  0.12480285146E+03  0.10100000352E+00 0.  1.
       -3    1    3    3    0  502  0.55865733639E+02 -0.67817392966E+02 -0.13516048901E+04  0.13544578134E+04  0.10100000352E+00 0. -1.
</event>
<event>
 5   0  0.4590462E-02  0.7970875E+03  0.7818609E-02  0.9564242E-01
       -2   -1    0    0    0  501  0.00000000000E+00  0.00000000000E+00  0.40981311191E+03  0.40981311191E+03  0.25500000920E-02 0. -1.
        2   -1    0    0  501    0  0.00000000000E+00  0.00000000000E+00 -0.38758427145E+03  0.38758427146E+03  0.25500000920E-02 0.  1.
    10030    2    1    2    0    0  0.00000000000E+00  0.00000000000E+00  0.22228840451E+02  0.79739738338E+03  0.79708748934E+03 0.  0.
        3    1    3    3  502    0 -0.10326483134E+03 -0.25640014206E+03  0.29833655917E+03  0.40670550891E+03  0.10100000352E+00 0. -1.
       -3    1    3    3    0  502  0.10326483134E+03  0.25640014206E+03 -0.27610771872E+03  0.39069187447E+03  0.10100000352E+00 0.  1.
</event>
<event>
 5   0  0.1786500E-02  0.7879566E+03  0.7818609E-02  0.9577615E-01
        4   -1    0    0  501    0  0.00000000000E+00  0.00000000000E+00  0.83396552848E+03  0.83396649549E+03  0.12699999809E+01 0. -1.
       -4   -1    0    0    0  501  0.00000000000E+00  0.00000000000E+00 -0.18611824805E+03  0.18612258100E+03  0.12699999809E+01 0.  1.
    10030    2    1    2    0    0  0.00000000000E+00  0.00000000000E+00  0.64784728043E+03  0.10200890765E+04  0.78795661378E+03 0.  0.
        3    1    3    3  502    0 -0.51133431220E+02 -0.23106271662E+03  0.73170080758E+03  0.76901930328E+03  0.10100000352E+00 0. -1.
       -3    1    3    3    0  502  0.51133431220E+02  0.23106271662E+03 -0.83853527152E+02  0.25106977321E+03  0.10100000352E+00 0.  1.
</event>
<event>
 5   0  0.4663634E-02  0.8028560E+03  0.7818609E-02  0.9555892E-01
        2   -1    0    0  501    0  0.00000000000E+00  0.00000000000E+00  0.11458455660E+04  0.11458455660E+04  0.25500000920E-02 0. -1.
       -2   -1    0    0    0  501  0.00000000000E+00  0.00000000000E+00 -0.14063364504E+03  0.14063364507E+03  0.25500000920E-02 0.  1.
    10030    2    1    2    0    0  0.00000000000E+00  0.00000000000E+00  0.10052119210E+04  0.12864792111E+04  0.80285599860E+03 0.  0.
        5    1    3    3  502    0 -0.16624064814E+03  0.36141111146E+03  0.41678659898E+03  0.57618322057E+03  0.46999998093E+01 0.  1.
       -5    1    3    3    0  502  0.16624064814E+03 -0.36141111146E+03  0.58842532199E+03  0.71029599051E+03  0.46999998093E+01 0. -1.
</event>
<event>
 5   0  0.2606520E-02  0.8010627E+03  0.7818609E-02  0.9558480E-01
       -1   -1    0    0    0  501  0.00000000000E+00  0.00000000000E+00  0.19082905387E+03  0.19082905394E+03  0.50400001928E-02 0. -1.
        1   -1    0    0  501    0  0.00000000000E+00  0.00000000000E+00 -0.84067579068E+03  0.84067579069E+03  0.50400001928E-02 0.  1.
    10030    2    1    2    0    0  0.00000000000E+00  0.00000000000E+00 -0.64984673681E+03  0.10315048446E+04  0.80106270862E+03 0.  0.
        5    1    3    3  502    0  0.24821345738E+03 -0.31197530793E+03 -0.37420537469E+03  0.54680002343E+03  0.46999998093E+01 0.  1.
       -5    1    3    3    0  502 -0.24821345738E+03  0.31197530793E+03 -0.27564136212E+03  0.48470482119E+03  0.46999998093E+01 0. -1.
</event>
<event>
 5   0  0.2769394E-02  0.7648432E+03  0.7818609E-02  0.9612347E-01
       -1   -1    0    0    0  501  0.00000000000E+00  0.00000000000E+00  0.67400849877E+03  0.67400849879E+03  0.50400001928E-02 0. -1.
        1   -1    0    0  501    0  0.00000000000E+00  0.00000000000E+00 -0.21697986151E+03  0.21697986157E+03  0.50400001928E-02 0.  1.
    10030    2    1    2    0    0  0.00000000000E+00  0.00000000000E+00  0.45702863726E+03  0.89098836036E+03  0.76484317544E+03 0.  0.
        2    1    3    3  502    0 -0.17207927296E+03 -0.23855980240E+03 -0.56177417347E+02  0.29946278188E+03  0.25500000920E-02 0.  1.
       -2    1    3    3    0  502  0.17207927296E+03  0.23855980240E+03  0.51320605461E+03  0.59152557848E+03  0.25500000920E-02 0. -1.
</event>
<event>
 5   0  0.4663634E-02  0.8625995E+03  0.7818609E-02  0.9473581E-01
        2   -1    0    0  501    0  0.00000000000E+00  0.00000000000E+00  0.19853956954E+04  0.19853956954E+04  0.25500000920E-02 0.  1.
       -2   -1    0    0    0  501  0.00000000000E+00  0.00000000000E+00 -0.93693895396E+02  0.93693895431E+02  0.25500000920E-02 0. -1.
    10030    2    1    2    0    0  0.00000000000E+00  0.00000000000E+00  0.18917018000E+04  0.20790895908E+04  0.86259945893E+03 0.  0.
        5    1    3    3  502    0 -0.32320030591E+03 -0.28204286747E+03  0.10533914775E+04  0.11373927693E+04  0.46999998093E+01 0. -1.
       -5    1    3    3    0  502  0.32320030591E+03  0.28204286747E+03  0.83831032243E+03  0.94169682145E+03  0.46999998093E+01 0.  1.
</event>
<event>
 5   0  0.4684283E-02  0.7632042E+03  0.7818609E-02  0.9614860E-01
        2   -1    0    0  501    0  0.00000000000E+00  0.00000000000E+00  0.36956129425E+03  0.36956129426E+03  0.25500000920E-02 0.  1.
       -2   -1    0    0    0  501  0.00000000000E+00  0.00000000000E+00 -0.39403518642E+03  0.39403518643E+03  0.25500000920E-02 0. -1.
    10030    2    1    2    0    0  0.00000000000E+00  0.00000000000E+00 -0.24473892168E+02  0.76359648069E+03  0.76320417578E+03 0.  0.
        1    1    3    3  502    0 -0.34412181131E+03  0.15133356052E+03 -0.77833486225E+02  0.38390066314E+03  0.50400001928E-02 0.  1.
       -1    1    3    3    0  502  0.34412181131E+03 -0.15133356052E+03  0.53359594057E+02  0.37969581755E+03  0.50400001928E-02 0. -1.
</event>
<event>
 5   0  0.2769394E-02  0.7578123E+03  0.7818609E-02  0.9623173E-01
       -1   -1    0    0    0  501  0.00000000000E+00  0.00000000000E+00  0.30362681614E+03  0.30362681618E+03  0.50400001928E-02 0.  1.
        1   -1    0    0  501    0  0.00000000000E+00  0.00000000000E+00 -0.47284978540E+03  0.47284978543E+03  0.50400001928E-02 0. -1.
    10030    2    1    2    0    0  0.00000000000E+00  0.00000000000E+00 -0.16922296926E+03  0.77647660161E+03  0.75781231154E+03 0.  0.
        2    1    3    3  502    0  0.13303111626E+03 -0.24500304540E+03 -0.34753641089E+03  0.44553936644E+03  0.25500000920E-02 0. -1.
       -2    1    3    3    0  502 -0.13303111626E+03  0.24500304540E+03  0.17831344163E+03  0.33093723517E+03  0.25500000920E-02 0.  1.
</event>
<event>
 5   0  0.4684283E-02  0.8114558E+03  0.7818609E-02  0.9543582E-01
        2   -1    0    0  501    0  0.00000000000E+00  0.00000000000E+00  0.19046851842E+03  0.19046851844E+03  0.25500000920E-02 0. -1.
       -2   -1    0    0    0  501  0.00000000000E+00  0.00000000000E+00 -0.86426426239E+03  0.86426426240E+03  0.25500000920E-02 0.  1.
    10030    2    1    2    0    0  0.00000000000E+00  0.00000000000E+00 -0.67379574397E+03  0.10547327808E+04  0.81145581172E+03 0.  0.
        1    1    3    3  502    0 -0.76707033281E+02  0.36422856342E+03 -0.54676161173E+03  0.66143380277E+03  0.50400001928E-02 0.  1.
       -1    1    3    3    0  502  0.76707033281E+02 -0.36422856342E+03 -0.12703413224E+03  0.39329897806E+03  0.50400001928E-02 0. -1.
</event>
<event>
 5   0  0.2689372E-02  0.8058975E+03  0.7818609E-02  0.9551520E-01
       -1   -1    0    0    0  501  0.00000000000E+00  0.00000000000E+00  0.41488965949E+03  0.41488965953E+03  0.50400001928E-02 0.  1.
        1   -1    0    0  501    0  0.00000000000E+00  0.00000000000E+00 -0.39135149612E+03  0.39135149615E+03  0.50400001928E-02 0. -1.
    10030    2    1    2    0    0  0.00000000000E+00  0.00000000000E+00  0.23538163373E+02  0.80624115568E+03  0.80589748478E+03 0.  0.
        4    1    3    3  502    0  0.61712328226E+02  0.39066965124E+03 -0.65301996711E+02  0.40087049221E+03  0.12699999809E+01 0.  1.
       -4    1    3    3    0  502 -0.61712328226E+02 -0.39066965124E+03  0.88840160084E+02  0.40537066346E+03  0.12699999809E+01 0. -1.
</event>
<event>
 5   0  0.1786500E-02  0.7954878E+03  0.7818609E-02  0.9566571E-01
        3   -1    0    0  501    0  0.00000000000E+00  0.00000000000E+00  0.57918247100E+03  0.57918247981E+03  0.10100000352E+00 0. -1.
       -3   -1    0    0    0  501  0.00000000000E+00  0.00000000000E+00 -0.27314396131E+03  0.27314397998E+03  0.10100000352E+00 0.  1.
    10030    2    1    2    0    0  0.00000000000E+00  0.00000000000E+00  0.30603850969E+03  0.85232645979E+03  0.79548779038E+03 0.  0.
        3    1    3    3  502    0  0.28546029087E+03 -0.18669771564E+03  0.37222620993E+03  0.50487223755E+03  0.10100000352E+00 0. -1.
       -3    1    3    3    0  502 -0.28546029087E+03  0.18669771564E+03 -0.66187700234E+02  0.34745422224E+03  0.10100000352E+00 0.  1.
</event>
<event>
 5   0  0.4590462E-02  0.8117236E+03  0.7818609E-02  0.9543201E-01
        2   -1    0    0  501    0  0.00000000000E+00  0.00000000000E+00  0.14479454690E+03  0.14479454693E+03  0.25500000920E-02 0.  1.
       -2   -1    0    0    0  501  0.00000000000E+00  0.00000000000E+00 -0.11376381134E+04  0.11376381134E+04  0.25500000920E-02 0. -1.
    10030    2    1    2    0    0  0.00000000000E+00  0.00000000000E+00 -0.99284356648E+03  0.12824326603E+04  0.81172358641E+03 0.  0.
        3    1    3    3  502    0 -0.18569510507E+03  0.10564897117E+03  0.48764270164E+02  0.21914000412E+03  0.10100000352E+00 0.  1.
       -3    1    3    3    0  502  0.18569510507E+03 -0.10564897117E+03 -0.10416078366E+04  0.10632926562E+04  0.10100000352E+00 0. -1.
</event>
<event>
 5   0  0.2689372E-02  0.8097075E+03  0.7818609E-02  0.9546071E-01
        1   -1    0    0  501    0  0.00000000000E+00  0.00000000000E+00  0.11846931474E+04  0.11846931474E+04  0.50400001928E-02 0.  1.
       -1   -1    0    0    0  501  0.00000000000E+00  0.00000000000E+00 -0.13835360772E+03  0.13835360781E+03  0.50400001928E-02 0. -1.
    10030    2    1    2    0    0  0.00000000000E+00  0.00000000000E+00  0.10463395397E+04  0.13230467552E+04  0.80970753005E+03 0.  0.
        4    1    3    3  502    0  0.36752676131E+03 -0.18303549445E+02  0.79898856734E+03  0.87965634418E+03  0.12699999809E+01 0.  1.
       -4    1    3    3    0  502 -0.36752676131E+03  0.18303549445E+02  0.24735097235E+03  0.44339041107E+03  0.12699999809E+01 0. -1.
</event>
<event>
 5   0  0.4590462E-02  0.7922215E+03  0.7818609E-02  0.9571345E-01
        2   -1    0    0  501    0  0.00000000000E+00  0.00000000000E+00  0.11656410043E+04  0.11656410043E+04  0.25500000920E-02 0. -1.
       -2   -1    0    0    0  501  0.00000000000E+00  0.00000000000E+00 -0.13460725642E+03  0.13460725644E+03  0.25500000920E-02 0.  1.
    10030    2    1    2    0    0  0.00000000000E+00  0.00000000000E+00  0.10310337479E+04  0.13002482607E+04  0.79222152853E+03 0.  0.
        3    1    3    3  502    0 -0.21373133243E+03 -0.17826207192E+01 -0.31839331948E+02  0.21609723149E+03  0.10100000352E+00 0.  1.
       -3    1    3    3    0  502  0.21373133243E+03  0.17826207192E+01  0.10628730798E+04  0.10841510292E+04  0.10100000352E+00 0. -1.
</event>
<event>
 5   0  0.4700220E-02  0.8036582E+03  0.7818609E-02  0.9554737E-01
       -2   -1    0    0    0  501  0.00000000000E+00  0.00000000000E+00  0.11345677974E+03  0.11345677977E+03  0.25500000920E-02 0. -1.
        2   -1    0    0  501    0  0.00000000000E+00  0.00000000000E+00 -0.14231553420E+04  0.14231553420E+04  0.25500000920E-02 0.  1.
    10030    2    1    2    0    0  0.00000000000E+00  0.00000000000E+00 -0.13096985623E+04  0.15366121218E+04  0.80365819152E+03 0.  0.
        4    1    3    3  502    0 -0.17184685354E+03  0.29819656001E+03 -0.10513921279E+04  0.11062908971E+04  0.12699999809E+01 0.  1.
       -4    1    3    3    0  502  0.17184685354E+03 -0.29819656001E+03 -0.25830643436E+03  0.43032122467E+03  0.12699999809E+01 0. -1.
</event>
<event>
 5   0  0.4377843E-02  0.8020102E+03  0.7818609E-02  0.9557112E-01
        2   -1    0    0  501    0  0.00000000000E+00  0.00000000000E+00  0.24023928827E+04  0.24023928827E+04  0.25500000920E-02 0. -1.
       -2   -1    0    0    0  501  0.00000000000E+00  0.00000000000E+00 -0.66935387750E+02  0.66935387799E+02  0.25500000920E-02 0.  1.
    10030    2    1    2    0    0  0.00000000000E+00  0.00000000000E+00  0.23354574949E+04  0.24693282705E+04  0.80201022236E+03 0.  0.
        2    1    3    3  502    0  0.22585906568E+03  0.62171184127E+02  0.16564656944E+03  0.28690827743E+03  0.25500000920E-02 0.  1.
       -2    1    3    3    0  502 -0.22585906568E+03 -0.62171184127E+02  0.21698109255E+04  0.21824199930E+04  0.25500000920E-02 0. -1.
</event>
<event>
 5   0  0.4377843E-02  0.7872461E+03  0.7818609E-02  0.9578664E-01
       -2   -1    0    0    0  501  0.00000000000E+00  0.00000000000E+00  0.88454315303E+02  0.88454315340E+02  0.25500000920E-02 0. -1.
        2   -1    0    0  501    0  0.00000000000E+00  0.00000000000E+00 -0.17516286287E+04  0.17516286287E+04  0.25500000920E-02 0.  1.
    10030    2    1    2    0    0  0.00000000000E+00  0.00000000000E+00 -0.16631743134E+04  0.18400829441E+04  0.78724611414E+03 0.  0.
        2    1    3    3  502    0  0.34103254992E+03  0.17665160336E+03 -0.10330638646E+04  0.11021478745E+04  0.25500000920E-02 0.  1.
       -2    1    3    3    0  502 -0.34103254992E+03 -0.17665160336E+03 -0.63011044888E+03  0.73793506955E+03  0.25500000920E-02 0. -1.
</event>
<event>
 5   0  0.2689372E-02  0.8487218E+03  0.7818609E-02  0.9492054E-01
        1   -1    0    0  501    0  0.00000000000E+00  0.00000000000E+00  0.26488260598E+04  0.26488260598E+04  0.50400001928E-02 0.  1.
       -1   -1    0    0    0  501  0.00000000000E+00  0.00000000000E+00 -0.67985652726E+02  0.67985652913E+02  0.50400001928E-02 0. -1.
    10030    2    1    2    0    0  0.00000000000E+00  0.00000000000E+00  0.25808404071E+04  0.27168117127E+04  0.84872178927E+03 0.  0.
        4    1    3    3  502    0 -0.41203872444E+03 -0.10093044714E+03  0.12556934090E+04  0.13254170724E+04  0.12699999809E+01 0. -1.
       -4    1    3    3    0  502  0.41203872444E+03  0.10093044714E+03  0.13251469981E+04  0.13913946403E+04  0.12699999809E+01 0.  1.
</event>
<event>
 5   0  0.4377843E-02  0.7681752E+03  0.7818609E-02  0.9607260E-01
       -2   -1    0    0    0  501  0.00000000000E+00  0.00000000000E+00  0.92985420558E+02  0.92985420593E+02  0.25500000920E-02 0. -1.
        2   -1    0    0  501    0  0.00000000000E+00  0.00000000000E+00 -0.15865205657E+04  0.15865205657E+04  0.25500000920E-02 0.  1.
    10030    2    1    2    0    0  0.00000000000E+00  0.00000000000E+00 -0.14935351451E+04  0.16795059863E+04  0.76817519370E+03 0.  0.
        2    1    3    3  502    0  0.19165076132E+03 -0.25855194268E+03 -0.28844434829E+03  0.43217966570E+03  0.25500000920E-02 0. -1.
       -2    1    3    3    0  502 -0.19165076132E+03  0.25855194268E+03 -0.12050907968E+04  0.12473263206E+04  0.25500000920E-02 0.  1.
</event>
<event>
 5   0  0.4663634E-02  0.7800984E+03  0.7818609E-02  0.9589279E-01
       -2   -1    0    0    0  501  0.00000000000E+00  0.00000000000E+00  0.11562417811E+03  0.11562417814E+03  0.25500000920E-02 0. -1.
        2   -1    0    0  501    0  0.00000000000E+00  0.00000000000E+00 -0.13158008074E+04  0.13158008074E+04  0.25500000920E-02 0.  1.
    10030    2    1    2    0    0  0.00000000000E+00  0.00000000000E+00 -0.12001766293E+04  0.14314249856E+04  0.78009842184E+03 0.  0.
        5    1    3    3  502    0 -0.37451068613E+03  0.90671920350E+02 -0.71074297124E+03  0.80849076205E+03  0.46999998093E+01 0.  1.
       -5    1    3    3    0  502  0.37451068613E+03 -0.90671920350E+02 -0.48943365806E+03  0.62293422350E+03  0.46999998093E+01 0. -1.
</event>
<event>
 5   0  0.4663634E-02  0.8250038E+03  0.7818609E-02  0.9524514E-01
        2   -1    0    0  501    0  0.00000000000E+00  0.00000000000E+00  0.19342383500E+04  0.19342383500E+04  0.25500000920E-02 0. -1.
       -2   -1    0    0    0  501  0.00000000000E+00  0.00000000000E+00 -0.87971490912E+02  0.87971490949E+02  0.25500000920E-02 0.  1.
    10030    2    1    2    0    0  0.00000000000E+00  0.00000000000E+00  0.18462668591E+04  0.20222098410E+04  0.82500383386E+03 0.  0.
        5    1    3    3  502    0  0.84809325138E+02  0.28172148362E+03  0.21451675148E+03  0.36414165187E+03  0.46999998093E+01 0.  1.
       -5    1    3    3    0  502 -0.84809325138E+02 -0.28172148362E+03  0.16317501076E+04  0.16580681891E+04  0.46999998093E+01 0. -1.
</event>
<event>
 5   0  0.4590462E-02  0.7923314E+03  0.7818609E-02  0.9571184E-01
        2   -1    0    0  501    0  0.00000000000E+00  0.00000000000E+00  0.61236467847E+03  0.61236467847E+03  0.25500000920E-02 0. -1.
       -2   -1    0    0    0  501  0.00000000000E+00  0.00000000000E+00 -0.25629706151E+03  0.25629706153E+03  0.25500000920E-02 0.  1.
    10030    2    1    2    0    0  0.00000000000E+00  0.00000000000E+00  0.35606761695E+03  0.86866174000E+03  0.79233141468E+03 0.  0.
        3    1    3    3  502    0 -0.39405099792E+02 -0.39290747629E+03  0.14305035845E+03  0.41999102618E+03  0.10100000352E+00 0.  1.
       -3    1    3    3    0  502  0.39405099792E+02  0.39290747629E+03  0.21301725850E+03  0.44867071382E+03  0.10100000352E+00 0. -1.
</event>
<event>
 5   0  0.2606520E-02  0.7950866E+03  0.7818609E-02  0.9567156E-01
       -1   -1    0    0    0  501  0.00000000000E+00  0.00000000000E+00  0.18065593264E+03  0.18065593271E+03  0.50400001928E-02 0. -1.
        1   -1    0    0  501    0  0.00000000000E+00  0.00000000000E+00 -0.87481594303E+03  0.87481594304E+03  0.50400001928E-02 0.  1.
    10030    2    1    2    0    0  0.00000000000E+00  0.00000000000E+00 -0.69416001039E+03  0.10554718758E+04  0.79508663709E+03 0.  0.
        5    1    3    3  502    0 -0.53211322111E+02 -0.20677329845E+03  0.98039985088E+02  0.23499057518E+03  0.46999998093E+01 0. -1.
       -5    1    3    3    0  502  0.53211322111E+02  0.20677329845E+03 -0.79219999548E+03  0.82048130057E+03  0.46999998093E+01 0.  1.
</event>
<event>
 5   0  0.2635243E-02  0.7961264E+03  0.7818609E-02  0.9565641E-01
       -1   -1    0    0    0  501  0.00000000000E+00  0.00000000000E+00  0.74767065958E+03  0.74767065959E+03  0.50400001928E-02 0. -1.
        1   -1    0    0  501    0  0.00000000000E+00  0.00000000000E+00 -0.21193061540E+03  0.21193061546E+03  0.50400001928E-02 0.  1.
    10030    2    1    2    0    0  0.00000000000E+00  0.00000000000E+00  0.53574004418E+03  0.95960127505E+03  0.79612637951E+03 0.  0.
        1    1    3    3  502    0 -0.34414710226E+03 -0.94955761388E+02  0.55646753113E+02  0.36131756914E+03  0.50400001928E-02 0.  1.
       -1    1    3    3    0  502  0.34414710226E+03  0.94955761388E+02  0.48009329106E+03  0.59828370591E+03  0.50400001928E-02 0. -1.
</event>
<event>
 5   0  0.4590462E-02  0.7978548E+03  0.7818609E-02  0.9563127E-01
       -2   -1    0    0    0  501  0.00000000000E+00  0.00000000000E+00  0.77096702079E+02  0.77096702121E+02  0.25500000920E-02 0. -1.
        2   -1    0    0  501    0  0.00000000000E+00  0.00000000000E+00 -0.20642007955E+04  0.20642007955E+04  0.25500000920E-02 0.  1.
    10030    2    1    2    0    0  0.00000000000E+00  0.00000000000E+00 -0.19871040935E+04  0.21412974977E+04  0.79785480838E+03 0.  0.
        3    1    3    3  502    0 -0.21940641578E+03  0.20242338179E+03 -0.17037690404E+04  0.17297234906E+04  0.10100000352E+00 0.  1.
       -3    1    3    3    0  502  0.21940641578E+03 -0.20242338179E+03 -0.28333505306E+03  0.41157400704E+03  0.10100000352E+00 0. -1.
</event>
<event>
 5   0  0.1786500E-02  0.7831600E+03  0.7818609E-02  0.9584717E-01
        4   -1    0    0  501    0  0.00000000000E+00  0.00000000000E+00  0.32001873827E+03  0.32002125827E+03  0.12699999809E+01 0. -1.
       -4   -1    0    0    0  501  0.00000000000E+00  0.00000000000E+00 -0.47913826489E+03  0.47913994802E+03  0.12699999809E+01 0.  1.
    10030    2    1    2    0    0  0.00000000000E+00  0.00000000000E+00 -0.15911952663E+03  0.79916120628E+03  0.78316001550E+03 0.  0.
        5    1    3    3  502    0 -0.27888401106E+03 -0.15837983047E+03  0.14964550093E+03  0.35394396205E+03  0.46999998093E+01 0. -1.
       -5    1    3    3    0  502  0.27888401106E+03  0.15837983047E+03 -0.30876502756E+03  0.44521724423E+03  0.46999998093E+01 0.  1.
</event>
<event>
 5   0  0.4700220E-02  0.8052485E+03  0.7818609E-02  0.9552451E-01
        2   -1    0    0  501    0  0.00000000000E+00  0.00000000000E+00  0.12391842725E+04  0.12391842725E+04  0.25500000920E-02 0.  1.
       -2   -1    0    0    0  501  0.00000000000E+00  0.00000000000E+00 -0.13081692184E+03  0.13081692187E+03  0.25500000920E-02 0. -1.
    10030    2    1    2    0    0  0.00000000000E+00  0.00000000000E+00  0.11083673507E+04  0.13700011944E+04  0.80524846389E+03 0.  0.
        4    1    3    3  502    0 -0.18122759234E+01 -0.19530431246E+03 -0.44817426238E+02  0.20039279778E+03  0.12699999809E+01 0. -1.
       -4    1    3    3    0  502  0.18122759234E+01  0.19530431246E+03  0.11531847769E+04  0.11696083966E+04  0.12699999809E+01 0.  1.
</event>
<event>
 5   0  0.1786500E-02  0.8067717E+03  0.7818609E-02  0.9550267E-01
       -3   -1    0    0    0  501  0.00000000000E+00  0.00000000000E+00  0.69945483659E+03  0.69945484389E+03  0.10100000352E+00 0.  1.
        3   -1    0    0  501    0  0.00000000000E+00  0.00000000000E+00 -0.23263849684E+03  0.23263851876E+03  0.10100000352E+00 0. -1.
    10030    2    1    2    0    0  0.00000000000E+00  0.00000000000E+00  0.46681633975E+03  0.93209336265E+03  0.80677167875E+03 0.  0.
        1    1    3    3  502    0 -0.18717345690E+03  0.19317435983E+03 -0.11390453474E+03  0.29210354213E+03  0.50400001928E-02 0. -1.
       -1    1    3    3    0  502  0.18717345690E+03 -0.19317435983E+03  0.58072087450E+03  0.63998982052E+03  0.50400001928E-02 0.  1.
</event>
<event>
 5   0  0.2689372E-02  0.7897730E+03  0.7818609E-02  0.9574939E-01
       -1   -1    0    0    0  501  0.00000000000E+00  0.00000000000E+00  0.16649850582E+03  0.16649850589E+03  0.50400001928E-02 0.  1.
        1   -1    0    0  501    0  0.00000000000E+00  0.00000000000E+00 -0.93655714438E+03  0.93655714439E+03  0.50400001928E-02 0. -1.
    10030    2    1    2    0    0  0.00000000000E+00  0.00000000000E+00 -0.77005863856E+03  0.11030556503E+04  0.78977304386E+03 0.  0.
        4    1    3    3  502    0 -0.14907605053E+02 -0.81995556245E+02  0.15407289839E+03  0.17517299692E+03  0.12699999809E+01 0.  1.
       -4    1    3    3    0  502  0.14907605053E+02  0.81995556245E+02 -0.92413153695E+03  0.92788265336E+03  0.12699999809E+01 0. -1.
</event>
<event>
 5   0  0.4700220E-02  0.7532977E+03  0.7818609E-02  0.9630191E-01
       -2   -1    0    0    0  501  0.00000000000E+00  0.00000000000E+00  0.65588158210E+03  0.65588158210E+03  0.25500000920E-02 0.  1.
        2   -1    0    0  501    0  0.00000000000E+00  0.00000000000E+00 -0.21629567617E+03  0.21629567618E+03  0.25500000920E-02 0. -1.
    10030    2    1    2    0    0  0.00000000000E+00  0.00000000000E+00  0.43958590593E+03  0.87217725829E+03  0.75329768431E+03 0.  0.
        4    1    3    3  502    0  0.23449826898E+03  0.27081613071E+03  0.35447753359E+03  0.50397098084E+03  0.12699999809E+01 0.  1.
       -4    1    3    3    0  502 -0.23449826898E+03 -0.27081613071E+03  0.85108372335E+02  0.36820627744E+03  0.12699999809E+01 0. -1.
</event>
<event>
 5   0  0.4684283E-02  0.8080088E+03  0.7818609E-02  0.9548496E-01
       -2   -1    0    0    0  501  0.00000000000E+00  0.00000000000E+00  0.46138111708E+03  0.46138111709E+03  0.25500000920E-02 0.  1.
        2   -1    0    0  501    0  0.00000000000E+00  0.00000000000E+00 -0.35376299235E+03  0.35376299236E+03  0.25500000920E-02 0. -1.
    10030    2    1    2    0    0  0.00000000000E+00  0.00000000000E+00  0.10761812473E+03  0.81514410944E+03  0.80800882321E+03 0.  0.
        1    1    3    3  502    0  0.31330599423E+02  0.33368932443E+03 -0.17376980213E+03  0.37752631147E+03  0.50400001928E-02 0. -1.
       -1    1    3    3    0  502 -0.31330599423E+02 -0.33368932443E+03  0.28138792686E+03  0.43761779797E+03  0.50400001928E-02 0.  1.
</event>
<event>
 5   0  0.4377843E-02  0.7957718E+03  0.7818609E-02  0.9566157E-01
        2   -1    0    0  501    0  0.00000000000E+00  0.00000000000E+00  0.14327605417E+03  0.14327605419E+03  0.25500000920E-02 0.  1.
       -2   -1    0    0    0  501  0.00000000000E+00  0.00000000000E+00 -0.11049522996E+04  0.11049522996E+04  0.25500000920E-02 0. -1.
    10030    2    1    2    0    0  0.00000000000E+00  0.00000000000E+00 -0.96167624540E+03  0.12482283538E+04  0.79577184054E+03 0.  0.
        2    1    3    3  502    0 -0.14351114716E+03 -0.29967230004E+03 -0.82418880030E+03  0.88864285026E+03  0.25500000920E-02 0. -1.
       -2    1    3    3    0  502  0.14351114716E+03  0.29967230004E+03 -0.13748744510E+03  0.35958550351E+03  0.25500000920E-02 0.  1.
</event>
<event>
 5   0  0.2759559E-02  0.8344158E+03  0.7818609E-02  0.9511496E-01
        1   -1    0    0  501    0  0.00000000000E+00  0.00000000000E+00  0.80365076431E+03  0.80365076432E+03  0.50400001928E-02 0.  1.
       -1   -1    0    0    0  501  0.00000000000E+00  0.00000000000E+00 -0.21658965210E+03  0.21658965216E+03  0.50400001928E-02 0. -1.
    10030    2    1    2    0    0  0.00000000000E+00  0.00000000000E+00  0.58706111220E+03  0.10202404165E+04  0.83441581838E+03 0.  0.
        3    1    3    3  502    0 -0.22690167877E+03 -0.10825902306E+03 -0.11357178141E+03  0.27586762701E+03  0.10100000352E+00 0. -1.
       -3    1    3    3    0  502  0.22690167877E+03  0.10825902306E+03  0.70063289361E+03  0.74437278947E+03  0.10100000352E+00 0.  1.
</event>
<event>
 5   0  0.1786500E-02  0.6898821E+03  0.7818609E-02  0.9734693E-01
       -3   -1    0    0    0  501  0.00000000000E+00  0.00000000000E+00  0.54451804194E+03  0.54451805130E+03  0.10100000352E+00 0. -1.
        3   -1    0    0  501    0  0.00000000000E+00  0.00000000000E+00 -0.21851310539E+03  0.21851312873E+03  0.10100000352E+00 0.  1.
    10030    2    1    2    0    0  0.00000000000E+00  0.00000000000E+00  0.32600493655E+03  0.76303118004E+03  0.68988213707E+03 0.  0.
        4    1    3    3  502    0 -0.18101069784E+03 -0.26208350149E+03  0.16562542597E+02  0.31894915771E+03  0.12699999809E+01 0.  1.
       -4    1    3    3    0  502  0.18101069784E+03  0.26208350149E+03  0.30944239395E+03  0.44408202233E+03  0.12699999809E+01 0. -1.
</event>
<event>
 5   0  0.2635243E-02  0.7856596E+03  0.7818609E-02  0.9581009E-01
       -1   -1    0    0    0  501  0.00000000000E+00  0.00000000000E+00  0.96347387106E+02  0.96347387238E+02  0.50400001928E-02 0.  1.
        1   -1    0    0  501    0  0.00000000000E+00  0.00000000000E+00 -0.16016548172E+04  0.16016548172E+04  0.50400001928E-02 0. -1.
    10030    2    1    2    0    0  0.00000000000E+00  0.00000000000E+00 -0.15053074300E+04  0.16980022044E+04  0.78565961280E+03 0.  0.
        1    1    3    3  502    0  0.95923818083E+02  0.28539092553E+03 -0.20732639707E+03  0.36555928959E+03  0.50400001928E-02 0.  1.
       -1    1    3    3    0  502 -0.95923818083E+02 -0.28539092553E+03 -0.12979810330E+04  0.13324429148E+04  0.50400001928E-02 0. -1.
</event>
<event>
 5   0  0.2769394E-02  0.7666368E+03  0.7818609E-02  0.9609605E-01
        1   -1    0    0  501    0  0.00000000000E+00  0.00000000000E+00  0.89485266945E+03  0.89485266947E+03  0.50400001928E-02 0.  1.
       -1   -1    0    0    0  501  0.00000000000E+00  0.00000000000E+00 -0.16419795831E+03  0.16419795839E+03  0.50400001928E-02 0. -1.
    10030    2    1    2    0    0  0.00000000000E+00  0.00000000000E+00  0.73065471114E+03  0.10590506279E+04  0.76663676240E+03 0.  0.
        2    1    3    3  502    0 -0.18987849039E+03  0.28314358416E+03  0.60740732985E+03  0.69653987303E+03  0.25500000920E-02 0.  1.
       -2    1    3    3    0  502  0.18987849039E+03 -0.28314358416E+03  0.12324738129E+03  0.36251075483E+03  0.25500000920E-02 0. -1.
</event>
<event>
 5   0  0.4377843E-02  0.8062295E+03  0.7818609E-02  0.9551044E-01
       -2   -1    0    0    0  501  0.00000000000E+00  0.00000000000E+00  0.15193760476E+03  0.15193760478E+03  0.25500000920E-02 0.  1.
        2   -1    0    0  501    0  0.00000000000E+00  0.00000000000E+00 -0.10695279314E+04  0.10695279314E+04  0.25500000920E-02 0. -1.
    10030    2    1    2    0    0  0.00000000000E+00  0.00000000000E+00 -0.91759032663E+03  0.12214655362E+04  0.80622952597E+03 0.  0.
        2    1    3    3  502    0  0.13559525797E+03  0.21911113244E+03 -0.92846990424E+03  0.96356220631E+03  0.25500000920E-02 0. -1.
       -2    1    3    3    0  502 -0.13559525797E+03 -0.21911113244E+03  0.10879577611E+02  0.25790332987E+03  0.25500000920E-02 0.  1.
</event>
<event>
 5   0  0.4663634E-02  0.8083133E+03  0.7818609E-02  0.9548061E-01
        2   -1    0    0  501    0  0.00000000000E+00  0.00000000000E+00  0.78882591612E+03  0.78882591612E+03  0.25500000920E-02 0. -1.
       -2   -1    0    0    0  501  0.00000000000E+00  0.00000000000E+00 -0.20707052600E+03  0.20707052601E+03  0.25500000920E-02 0.  1.
    10030    2    1    2    0    0  0.00000000000E+00  0.00000000000E+00  0.58175539012E+03  0.99589644213E+03  0.80831329911E+03 0.  0.
        5    1    3    3  502    0  0.11994387568E+03  0.37936937276E+03  0.37810991899E+03  0.54890514220E+03  0.46999998093E+01 0. -1.
       -5    1    3    3    0  502 -0.11994387568E+03 -0.37936937276E+03  0.20364547114E+03  0.44699129993E+03  0.46999998093E+01 0.  1.
</event>
<event>
 5   0  0.2635243E-02  0.7486553E+03  0.7818609E-02  0.9637462E-01
        1   -1    0    0  501    0  0.00000000000E+00  0.00000000000E+00  0.37157328255E+03  0.37157328258E+03  0.50400001928E-02 0. -1.
       -1   -1    0    0    0  501  0.00000000000E+00  0.00000000000E+00 -0.37710246398E+03  0.37710246401E+03  0.50400001928E-02 0.  1.
    10030    2    1    2    0    0  0.00000000000E+00  0.00000000000E+00 -0.55291814262E+01  0.74867574659E+03  0.74865532903E+03 0.  0.
        1    1    3    3  502    0 -0.20232064471E+03  0.19056265907E+03 -0.25351717703E+03  0.37618975183E+03  0.50400001928E-02 0.  1.
       -1    1    3    3    0  502  0.20232064471E+03 -0.19056265907E+03  0.24798799560E+03  0.37248599477E+03  0.50400001928E-02 0. -1.
</event>
<event>
 5   0  0.4684283E-02  0.7565333E+03  0.7818609E-02  0.9625156E-01
       -2   -1    0    0    0  501  0.00000000000E+00  0.00000000000E+00  0.81776929663E+03  0.81776929664E+03  0.25500000920E-02 0. -1.
        2   -1    0    0  501    0  0.00000000000E+00  0.00000000000E+00 -0.17497070532E+03  0.17497070533E+03  0.25500000920E-02 0.  1.
    10030    2    1    2    0    0  0.00000000000E+00  0.00000000000E+00  0.64279859132E+03  0.99274000197E+03  0.75653333206E+03 0.  0.
        1    1    3    3  502    0 -0.35196648787E+03 -0.11750190839E+03  0.41781473028E+03  0.55879894052E+03  0.50400001928E-02 0.  1.
       -1    1    3    3    0  502  0.35196648787E+03  0.11750190839E+03  0.22498386104E+03  0.43394106145E+03  0.50400001928E-02 0. -1.
</event>
<event>
 5   0  0.2635243E-02  0.7419300E+03  0.7818609E-02  0.9648097E-01
       -1   -1    0    0    0  501  0.00000000000E+00  0.00000000000E+00  0.24969599069E+03  0.24969599074E+03  0.50400001928E-02 0.  1.
        1   -1    0    0  501    0  0.00000000000E+00  0.00000000000E+00 -0.55113031200E+03  0.55113031203E+03  0.50400001928E-02 0. -1.
    10030    2    1    2    0    0  0.00000000000E+00  0.00000000000E+00 -0.30143432132E+03  0.80082630277E+03  0.74192999477E+03 0.  0.
        1    1    3    3  502    0 -0.27849733677E+03  0.23487278240E+03 -0.75244938050E+02  0.37200509570E+03  0.50400001928E-02 0.  1.
       -1    1    3    3    0  502  0.27849733677E+03 -0.23487278240E+03 -0.22618938327E+03  0.42882120707E+03  0.50400001928E-02 0. -1.
</event>
<event>
 5   0  0.4663634E-02  0.8005055E+03  0.7818609E-02  0.9559286E-01
       -2   -1    0    0    0  501  0.00000000000E+00  0.00000000000E+00  0.26064061040E+03  0.26064061041E+03  0.25500000920E-02 0. -1.
        2   -1    0    0  501    0  0.00000000000E+00  0.00000000000E+00 -0.61464807416E+03  0.61464807417E+03  0.25500000920E-02 0.  1.
    10030    2    1    2    0    0  0.00000000000E+00  0.00000000000E+00 -0.35400746376E+03  0.87528868458E+03  0.80050546341E+03 0.  0.
        5    1    3    3  502    0 -0.25435077133E+03  0.18300142323E+03 -0.44925504402E+03  0.54775543845E+03  0.46999998093E+01 0.  1.
       -5    1    3    3    0  502  0.25435077133E+03 -0.18300142323E+03  0.95247580253E+02  0.32753324613E+03  0.46999998093E+01 0. -1.
</event>
<event>
 5   0  0.4684283E-02  0.8189719E+03  0.7818609E-02  0.9532955E-01
        2   -1    0    0  501    0  0.00000000000E+00  0.00000000000E+00  0.18217848533E+04  0.18217848533E+04  0.25500000920E-02 0. -1.
       -2   -1    0    0    0  501  0.00000000000E+00  0.00000000000E+00 -0.92040917494E+02  0.92040917529E+02  0.25500000920E-02 0.  1.
    10030    2    1    2    0    0  0.00000000000E+00  0.00000000000E+00  0.17297439358E+04  0.19138257709E+04  0.81897191505E+03 0.  0.
        1    1    3    3  502    0  0.36788802407E+03  0.71009802752E+02  0.47879577508E+03  0.60797153273E+03  0.50400001928E-02 0.  1.
       -1    1    3    3    0  502 -0.36788802407E+03 -0.71009802752E+02  0.12509481607E+04  0.13058542381E+04  0.50400001928E-02 0. -1.
</event>
<event>
 5   0  0.4663634E-02  0.4680450E+03  0.7818609E-02  0.1022473E+00
       -2   -1    0    0    0  501  0.00000000000E+00  0.00000000000E+00  0.68805866917E+02  0.68805866964E+02  0.25500000920E-02 0.  1.
        2   -1    0    0  501    0  0.00000000000E+00  0.00000000000E+00 -0.79595736906E+03  0.79595736906E+03  0.25500000920E-02 0. -1.
    10030    2    1    2    0    0  0.00000000000E+00  0.00000000000E+00 -0.72715150214E+03  0.86476323602E+03  0.46804502702E+03 0.  0.
        5    1    3    3  502    0 -0.19370861286E+01  0.84099036947E+02  0.39812513988E+02  0.93185441923E+02  0.46999998093E+01 0.  1.
       -5    1    3    3    0  502  0.19370861286E+01 -0.84099036947E+02 -0.76696401613E+03  0.77157779410E+03  0.46999998093E+01 0. -1.
</event>
<event>
 5   0  0.4663634E-02  0.8024797E+03  0.7818609E-02  0.9556435E-01
       -2   -1    0    0    0  501  0.00000000000E+00  0.00000000000E+00  0.12323683907E+03  0.12323683910E+03  0.25500000920E-02 0. -1.
        2   -1    0    0  501    0  0.00000000000E+00  0.00000000000E+00 -0.13063741516E+04  0.13063741516E+04  0.25500000920E-02 0.  1.
    10030    2    1    2    0    0  0.00000000000E+00  0.00000000000E+00 -0.11831373126E+04  0.14296109907E+04  0.80247970967E+03 0.  0.
        5    1    3    3  502    0  0.10892840156E+02 -0.39476637896E+01 -0.13060270217E+04  0.13060868690E+04  0.46999998093E+01 0.  1.
       -5    1    3    3    0  502 -0.10892840156E+02  0.39476637896E+01  0.12288970917E+03  0.12352412167E+03  0.46999998093E+01 0. -1.
</event>
<event>
 5   0  0.1786500E-02  0.7749809E+03  0.7818609E-02  0.9596954E-01
        4   -1    0    0  501    0  0.00000000000E+00  0.00000000000E+00  0.43727492069E+03  0.43727676495E+03  0.12699999809E+01 0. -1.
       -4   -1    0    0    0  501  0.00000000000E+00  0.00000000000E+00 -0.34337032262E+03  0.34337267124E+03  0.12699999809E+01 0.  1.
    10030    2    1    2    0    0  0.00000000000E+00  0.00000000000E+00  0.93904598072E+02  0.78064943619E+03  0.77498094731E+03 0.  0.
        1    1    3    3  502    0 -0.20554272485E+03 -0.13416592702E+02  0.37756178829E+03  0.43009385104E+03  0.50400001928E-02 0. -1.
       -1    1    3    3    0  502  0.20554272485E+03  0.13416592702E+02 -0.28365719021E+03  0.35055558516E+03  0.50400001928E-02 0.  1.
</event>
<event>
 5   0  0.4590462E-02  0.7909741E+03  0.7818609E-02  0.9573174E-01
       -2   -1    0    0    0  501  0.00000000000E+00  0.00000000000E+00  0.16998126804E+03  0.16998126806E+03  0.25500000920E-02 0. -1.
        2   -1    0    0  501    0  0.00000000000E+00  0.00000000000E+00 -0.92016014183E+03  0.92016014183E+03  0.25500000920E-02 0.  1.
    10030    2    1    2    0    0  0.00000000000E+00  0.00000000000E+00 -0.75017887379E+03  0.10901414099E+04  0.79097405196E+03 0.  0.
        3    1    3    3  502    0  0.29337749022E+03 -0.14537868925E+03 -0.69369522834E+02  0.33469008942E+03  0.10100000352E+00 0. -1.
       -3    1    3    3    0  502 -0.29337749022E+03  0.14537868925E+03 -0.68080935095E+03  0.75545132047E+03  0.10100000352E+00 0.  1.
</event>
<event>
 5   0  0.2769394E-02  0.7860746E+03  0.7818609E-02  0.9580395E-01
       -1   -1    0    0    0  501  0.00000000000E+00  0.00000000000E+00  0.12539854144E+03  0.12539854154E+03  0.50400001928E-02 0. -1.
        1   -1    0    0  501    0  0.00000000000E+00  0.00000000000E+00 -0.12318987289E+04  0.12318987289E+04  0.50400001928E-02 0.  1.
    10030    2    1    2    0    0  0.00000000000E+00  0.00000000000E+00 -0.11065001875E+04  0.13572972705E+04  0.78607456105E+03 0.  0.
        2    1    3    3  502    0 -0.13217144316E+03  0.12790636093E+03  0.46503770121E+02  0.18971538734E+03  0.25500000920E-02 0. -1.
       -2    1    3    3    0  502  0.13217144316E+03 -0.12790636093E+03 -0.11530039576E+04  0.11675818831E+04  0.25500000920E-02 0.  1.
</event>
<event>
 5   0  0.4700220E-02  0.8048095E+03  0.7818609E-02  0.9553082E-01
       -2   -1    0    0    0  501  0.00000000000E+00  0.00000000000E+00  0.44026867289E+03  0.44026867289E+03  0.25500000920E-02 0. -1.
        2   -1    0    0  501    0  0.00000000000E+00  0.00000000000E+00 -0.36779714941E+03  0.36779714942E+03  0.25500000920E-02 0.  1.
    10030    2    1    2    0    0  0.00000000000E+00  0.00000000000E+00  0.72471523479E+02  0.80806582231E+03  0.80480945041E+03 0.  0.
        4    1    3    3  502    0  0.32255676325E+03 -0.20893486593E+03 -0.83541961366E+02  0.39329062528E+03  0.12699999809E+01 0.  1.
       -4    1    3    3    0  502 -0.32255676325E+03  0.20893486593E+03  0.15601348485E+03  0.41477519703E+03  0.12699999809E+01 0. -1.
</event>
<event>
 5   0  0.2759559E-02  0.8150564E+03  0.7818609E-02  0.9538476E-01
       -1   -1    0    0    0  501  0.00000000000E+00  0.00000000000E+00  0.46066790104E+03  0.46066790107E+03  0.50400001928E-02 0. -1.
        1   -1    0    0  501    0  0.00000000000E+00  0.00000000000E+00 -0.36051831700E+03  0.36051831703E+03  0.50400001928E-02 0.  1.
    10030    2    1    2    0    0  0.00000000000E+00  0.00000000000E+00  0.10014958404E+03  0.82118621810E+03  0.81505635732E+03 0.  0.
        3    1    3    3  502    0  0.35178134989E+03 -0.56472039698E+02  0.24940100047E+03  0.43490237828E+03  0.10100000352E+00 0. -1.
       -3    1    3    3    0  502 -0.35178134989E+03  0.56472039698E+02 -0.14925141642E+03  0.38628383982E+03  0.10100000352E+00 0.  1.
</event>
<event>
 5   0  0.4590462E-02  0.4494367E+03  0.7818609E-02  0.1027890E+00
       -2   -1    0    0    0  501  0.00000000000E+00  0.00000000000E+00  0.21921493163E+03  0.21921493164E+03  0.25500000920E-02 0. -1.
        2   -1    0    0  501    0  0.00000000000E+00  0.00000000000E+00 -0.23035991433E+03  0.23035991434E+03  0.25500000920E-02 0.  1.
    10030    2    1    2    0    0  0.00000000000E+00  0.00000000000E+00 -0.11144982702E+02  0.44957484599E+03  0.44943668242E+03 0.  0.
        3    1    3    3  502    0  0.37735707109E+02  0.28037610376E+02 -0.22538587835E+03  0.23023660775E+03  0.10100000352E+00 0.  1.
       -3    1    3    3    0  502 -0.37735707109E+02 -0.28037610376E+02  0.21424089565E+03  0.21933823824E+03  0.10100000352E+00 0. -1.
</event>
<event>
 5   0  0.2689372E-02  0.7953934E+03  0.7818609E-02  0.9566709E-01
       -1   -1    0    0    0  501  0.00000000000E+00  0.00000000000E+00  0.23602146636E+03  0.23602146641E+03  0.50400001928E-02 0. -1.
        1   -1    0    0  501    0  0.00000000000E+00  0.00000000000E+00 -0.67011979186E+03  0.67011979188E+03  0.50400001928E-02 0.  1.
    10030    2    1    2    0    0  0.00000000000E+00  0.00000000000E+00 -0.43409832550E+03  0.90614125829E+03  0.79539337675E+03 0.  0.
        4    1    3    3  502    0  0.18491359682E+03  0.34807458269E+03 -0.15663642526E+03  0.42412915016E+03  0.12699999809E+01 0.  1.
       -4    1    3    3    0  502 -0.18491359682E+03 -0.34807458269E+03 -0.27746190024E+03  0.48201210813E+03  0.12699999809E+01 0. -1.
</event>
<event>
 5   0  0.4684283E-02  0.7900018E+03  0.7818609E-02  0.9574603E-01
        2   -1    0    0  501    0  0.00000000000E+00  0.00000000000E+00  0.78463617018E+03  0.78463617018E+03  0.25500000920E-02 0. -1.
       -2   -1    0    0    0  501  0.00000000000E+00  0.00000000000E+00 -0.19885100754E+03  0.19885100755E+03  0.25500000920E-02 0.  1.
    10030    2    1    2    0    0  0.00000000000E+00  0.00000000000E+00  0.58578516264E+03  0.98348717774E+03  0.79000175443E+03 0.  0.
        1    1    3    3  502    0 -0.29240886089E+03 -0.11924495236E+03 -0.25056752134E+01  0.31579832017E+03  0.50400001928E-02 0.  1.
       -1    1    3    3    0  502  0.29240886089E+03  0.11924495236E+03  0.58829083785E+03  0.66768885757E+03  0.50400001928E-02 0. -1.
</event>
<event>
 5   0  0.2606520E-02  0.7784554E+03  0.7818609E-02  0.9591737E-01
       -1   -1    0    0    0  501  0.00000000000E+00  0.00000000000E+00  0.34342094144E+03  0.34342094147E+03  0.50400001928E-02 0.  1.
        1   -1    0    0  501    0  0.00000000000E+00  0.00000000000E+00 -0.44114428237E+03  0.44114428240E+03  0.50400001928E-02 0. -1.
    10030    2    1    2    0    0  0.00000000000E+00  0.00000000000E+00 -0.97723340932E+02  0.78456522387E+03  0.77845535463E+03 0.  0.
        5    1    3    3  502    0 -0.24811673359E+03  0.29710540719E+03 -0.80150864218E+01  0.38719487093E+03  0.46999998093E+01 0. -1.
       -5    1    3    3    0  502  0.24811673359E+03 -0.29710540719E+03 -0.89708254510E+02  0.39737035294E+03  0.46999998093E+01 0.  1.
</event>
<event>
 5   0  0.2689372E-02  0.8391788E+03  0.7818609E-02  0.9504977E-01
       -1   -1    0    0    0  501  0.00000000000E+00  0.00000000000E+00  0.24953053040E+03  0.24953053045E+03  0.50400001928E-02 0.  1.
        1   -1    0    0  501    0  0.00000000000E+00  0.00000000000E+00 -0.70554602627E+03  0.70554602629E+03  0.50400001928E-02 0. -1.
    10030    2    1    2    0    0  0.00000000000E+00  0.00000000000E+00 -0.45601549587E+03  0.95507655675E+03  0.83917882288E+03 0.  0.
        4    1    3    3  502    0  0.33932776736E+03 -0.24183877604E+03 -0.17197010043E+03  0.45078227077E+03  0.12699999809E+01 0.  1.
       -4    1    3    3    0  502 -0.33932776736E+03  0.24183877604E+03 -0.28404539544E+03  0.50429428598E+03  0.12699999809E+01 0. -1.
</event>
<event>
 5   0  0.4590462E-02  0.8029059E+03  0.7818609E-02  0.9555820E-01
        2   -1    0    0  501    0  0.00000000000E+00  0.00000000000E+00  0.62989994434E+03  0.62989994434E+03  0.25500000920E-02 0. -1.
       -2   -1    0    0    0  501  0.00000000000E+00  0.00000000000E+00 -0.25585727428E+03  0.25585727430E+03  0.25500000920E-02 0.  1.
    10030    2    1    2    0    0  0.00000000000E+00  0.00000000000E+00  0.37404267005E+03  0.88575721864E+03  0.80290592933E+03 0.  0.
        3    1    3    3  502    0 -0.39035761414E+03 -0.84538551209E+02  0.14236411452E+03  0.42402050053E+03  0.10100000352E+00 0. -1.
       -3    1    3    3    0  502  0.39035761414E+03  0.84538551209E+02  0.23167855553E+03  0.46173671811E+03  0.10100000352E+00 0.  1.
</event>
<event>
 5   0  0.2606520E-02  0.8122193E+03  0.7818609E-02  0.9542497E-01
       -1   -1    0    0    0  501  0.00000000000E+00  0.00000000000E+00  0.39636709396E+03  0.39636709399E+03  0.50400001928E-02 0. -1.
        1   -1    0    0  501    0  0.00000000000E+00  0.00000000000E+00 -0.41609171294E+03  0.41609171297E+03  0.50400001928E-02 0.  1.
    10030    2    1    2    0    0  0.00000000000E+00  0.00000000000E+00 -0.19724618985E+02  0.81245880697E+03  0.81221933763E+03 0.  0.
        5    1    3    3  502    0  0.30734449239E+03  0.24331791204E+03 -0.11590644118E+03  0.40880390951E+03  0.46999998093E+01 0.  1.
       -5    1    3    3    0  502 -0.30734449239E+03 -0.24331791204E+03  0.96181822200E+02  0.40365489746E+03  0.46999998093E+01 0. -1.
</event>
<event>
 5   0  0.2759559E-02  0.7431909E+03  0.7818609E-02  0.9646094E-01
       -1   -1    0    0    0  501  0.00000000000E+00  0.00000000000E+00  0.29438194900E+03  0.29438194904E+03  0.50400001928E-02 0.  1.
        1   -1    0    0  501    0  0.00000000000E+00  0.00000000000E+00 -0.46906123446E+03  0.46906123449E+03  0.50400001928E-02 0. -1.
    10030    2    1    2    0    0  0.00000000000E+00  0.00000000000E+00 -0.17467928547E+03  0.76344318353E+03  0.74319085147E+03 0.  0.
        3    1    3    3  502    0 -0.15167632027E+03  0.63878668730E+02 -0.42958054222E+03  0.46002787188E+03  0.10100000352E+00 0. -1.
       -3    1    3    3    0  502  0.15167632027E+03 -0.63878668730E+02  0.25490125675E+03  0.30341531165E+03  0.10100000352E+00 0.  1.
</event>
<event>
 5   0  0.2769394E-02  0.8005321E+03  0.7818609E-02  0.9559247E-01
       -1   -1    0    0    0  501  0.00000000000E+00  0.00000000000E+00  0.14091682991E+03  0.14091683000E+03  0.50400001928E-02 0. -1.
        1   -1    0    0  501    0  0.00000000000E+00  0.00000000000E+00 -0.11369325369E+04  0.11369325369E+04  0.50400001928E-02 0.  1.
    10030    2    1    2    0    0  0.00000000000E+00  0.00000000000E+00 -0.99601570700E+03  0.12778493669E+04  0.80053214548E+03 0.  0.
        2    1    3    3  502    0  0.21986316771E+03 -0.15088911147E+00  0.35896805210E+02  0.22277436099E+03  0.25500000920E-02 0. -1.
       -2    1    3    3    0  502 -0.21986316771E+03  0.15088911147E+00 -0.10319125122E+04  0.10550750059E+04  0.25500000920E-02 0.  1.
</event>
<event>
 5   0  0.4377843E-02  0.7475201E+03  0.7818609E-02  0.9639249E-01
        2   -1    0    0  501    0  0.00000000000E+00  0.00000000000E+00  0.43298258755E+03  0.43298258756E+03  0.25500000920E-02 0. -1.
       -2   -1    0    0    0  501  0.00000000000E+00  0.00000000000E+00 -0.32263788356E+03  0.32263788357E+03  0.25500000920E-02 0.  1.
    10030    2    1    2    0    0  0.00000000000E+00  0.00000000000E+00  0.11034470400E+03  0.75562047113E+03  0.74752012862E+03 0.  0.
        2    1    3    3  502    0  0.67319562452E+02 -0.36692237739E+03  0.78501243591E+02  0.38121699827E+03  0.25500000920E-02 0.  1.
       -2    1    3    3    0  502 -0.67319562452E+02  0.36692237739E+03  0.31843460405E+02  0.37440347286E+03  0.25500000920E-02 0. -1.
</event>
<event>
 5   0  0.2769394E-02  0.6458143E+03  0.7818609E-02  0.9814665E-01
       -1   -1    0    0    0  501  0.00000000000E+00  0.00000000000E+00  0.96003253220E+02  0.96003253352E+02  0.50400001928E-02 0.  1.
        1   -1    0    0  501    0  0.00000000000E+00  0.00000000000E+00 -0.10860989914E+04  0.10860989914E+04  0.50400001928E-02 0. -1.
    10030    2    1    2    0    0  0.00000000000E+00  0.00000000000E+00 -0.99009573813E+03  0.11821022447E+04  0.64581432803E+03 0.  0.
        2    1    3    3  502    0  0.77935950936E+02 -0.10317478197E+03 -0.10366438247E+04  0.10446767287E+04  0.25500000920E-02 0. -1.
       -2    1    3    3    0  502 -0.77935950936E+02  0.10317478197E+03  0.46548086603E+02  0.13742551603E+03  0.25500000920E-02 0.  1.
</event>
<event>
 5   0  0.2769394E-02  0.7924509E+03  0.7818609E-02  0.9571009E-01
        1   -1    0    0  501    0  0.00000000000E+00  0.00000000000E+00  0.64159098402E+03  0.64159098404E+03  0.50400001928E-02 0. -1.
       -1   -1    0    0    0  501  0.00000000000E+00  0.00000000000E+00 -0.24469575617E+03  0.24469575622E+03  0.50400001928E-02 0.  1.
    10030    2    1    2    0    0  0.00000000000E+00  0.00000000000E+00  0.39689522785E+03  0.88628674025E+03  0.79245085908E+03 0.  0.
        2    1    3    3  502    0  0.35228747347E+03 -0.17937324714E+03  0.22831917275E+03  0.45652039430E+03  0.25500000920E-02 0. -1.
       -2    1    3    3    0  502 -0.35228747347E+03  0.17937324714E+03  0.16857605510E+03  0.42976634596E+03  0.25500000920E-02 0.  1.
</event>
<event>
 5   0  0.2759559E-02  0.7337521E+03  0.7818609E-02  0.9661191E-01
        1   -1    0    0  501    0  0.00000000000E+00  0.00000000000E+00  0.30886373980E+03  0.30886373984E+03  0.50400001928E-02 0. -1.
       -1   -1    0    0    0  501  0.00000000000E+00  0.00000000000E+00 -0.43578447638E+03  0.43578447640E+03  0.50400001928E-02 0.  1.
    10030    2    1    2    0    0  0.00000000000E+00  0.00000000000E+00 -0.12692073657E+03  0.74464821625E+03  0.73375206480E+03 0.  0.
        3    1    3    3  502    0 -0.17004902920E+03  0.26456570742E+02 -0.39228018090E+03  0.42836943517E+03  0.10100000352E+00 0.  1.
       -3    1    3    3    0  502  0.17004902920E+03 -0.26456570742E+02  0.26535944432E+03  0.31627878108E+03  0.10100000352E+00 0. -1.
</event>
<event>
 5   0  0.4684283E-02  0.9167024E+03  0.7818609E-02  0.9404940E-01
        2   -1    0    0  501    0  0.00000000000E+00  0.00000000000E+00  0.18709469525E+04  0.18709469525E+04  0.25500000920E-02 0.  1.
       -2   -1    0    0    0  501  0.00000000000E+00  0.00000000000E+00 -0.11228850767E+03  0.11228850770E+03  0.25500000920E-02 0. -1.
    10030    2    1    2    0    0  0.00000000000E+00  0.00000000000E+00  0.17586584448E+04  0.19832354602E+04  0.91670244081E+03 0.  0.
        1    1    3    3  502    0 -0.40576924958E+03 -0.20761037242E+03  0.98387289603E+03  0.10843231189E+04  0.50400001928E-02 0.  1.
       -1    1    3    3    0  502  0.40576924958E+03  0.20761037242E+03  0.77478554879E+03  0.89891234127E+03  0.50400001928E-02 0. -1.
</event>
<event>
 5   0  0.1786500E-02  0.7542177E+03  0.7818609E-02  0.9628757E-01
        3   -1    0    0  501    0  0.00000000000E+00  0.00000000000E+00  0.58909655386E+03  0.58909656252E+03  0.10100000352E+00 0.  1.
       -3   -1    0    0    0  501  0.00000000000E+00  0.00000000000E+00 -0.24140534809E+03  0.24140536922E+03  0.10100000352E+00 0. -1.
    10030    2    1    2    0    0  0.00000000000E+00  0.00000000000E+00  0.34769120577E+03  0.83050193173E+03  0.75421766357E+03 0.  0.
        3    1    3    3  502    0  0.25458292676E+03  0.18549017718E+03 -0.54471115440E+02  0.31966573956E+03  0.10100000352E+00 0. -1.
       -3    1    3    3    0  502 -0.25458292676E+03 -0.18549017718E+03  0.40216232121E+03  0.51083619217E+03  0.10100000352E+00 0.  1.
</event>
<event>
 5   0  0.4700220E-02  0.8203540E+03  0.7818609E-02  0.9531014E-01
        2   -1    0    0  501    0  0.00000000000E+00  0.00000000000E+00  0.49734794062E+03  0.49734794063E+03  0.25500000920E-02 0. -1.
       -2   -1    0    0    0  501  0.00000000000E+00  0.00000000000E+00 -0.33828460669E+03  0.33828460670E+03  0.25500000920E-02 0.  1.
    10030    2    1    2    0    0  0.00000000000E+00  0.00000000000E+00  0.15906333393E+03  0.83563254732E+03  0.82035395406E+03 0.  0.
        4    1    3    3  502    0 -0.17516755603E+03 -0.12432699581E+03  0.43547154139E+03  0.48556971779E+03  0.12699999809E+01 0. -1.
       -4    1    3    3    0  502  0.17516755603E+03  0.12432699581E+03 -0.27640820746E+03  0.35006282953E+03  0.12699999809E+01 0.  1.
</event>
<event>
 5   0  0.2635243E-02  0.8190165E+03  0.7818609E-02  0.9532892E-01
        1   -1    0    0  501    0  0.00000000000E+00  0.00000000000E+00  0.48014447869E+03  0.48014447872E+03  0.50400001928E-02 0. -1.
       -1   -1    0    0    0  501  0.00000000000E+00  0.00000000000E+00 -0.34926364110E+03  0.34926364114E+03  0.50400001928E-02 0.  1.
    10030    2    1    2    0    0  0.00000000000E+00  0.00000000000E+00  0.13088083759E+03  0.82940811986E+03  0.81901650511E+03 0.  0.
        1    1    3    3  502    0 -0.15600538896E+03 -0.34372203662E+03 -0.95365013095E+02  0.38932891697E+03  0.50400001928E-02 0.  1.
       -1    1    3    3    0  502  0.15600538896E+03  0.34372203662E+03  0.22624585069E+03  0.44007920289E+03  0.50400001928E-02 0. -1.
</event>
<event>
 5   0  0.4684283E-02  0.7550152E+03  0.7818609E-02  0.9627515E-01
        2   -1    0    0  501    0  0.00000000000E+00  0.00000000000E+00  0.10639528534E+04  0.10639528534E+04  0.25500000920E-02 0. -1.
       -2   -1    0    0    0  501  0.00000000000E+00  0.00000000000E+00 -0.13394578757E+03  0.13394578759E+03  0.25500000920E-02 0.  1.
    10030    2    1    2    0    0  0.00000000000E+00  0.00000000000E+00  0.93000706587E+03  0.11978986410E+04  0.75501523934E+03 0.  0.
        1    1    3    3  502    0  0.20423765851E+03 -0.68367555341E+02 -0.26902572282E+02  0.21705043699E+03  0.50400001928E-02 0.  1.
       -1    1    3    3    0  502 -0.20423765851E+03  0.68367555341E+02  0.95690963816E+03  0.98084820405E+03  0.50400001928E-02 0. -1.
</event>
<event>
 5   0  0.4700220E-02  0.8176802E+03  0.7818609E-02  0.9534773E-01
       -2   -1    0    0    0  501  0.00000000000E+00  0.00000000000E+00  0.32825753727E+03  0.32825753728E+03  0.25500000920E-02 0.  1.
        2   -1    0    0  501    0  0.00000000000E+00  0.00000000000E+00 -0.50920456721E+03  0.50920456722E+03  0.25500000920E-02 0. -1.
    10030    2    1    2    0    0  0.00000000000E+00  0.00000000000E+00 -0.18094702995E+03  0.83746210450E+03  0.81768022406E+03 0.  0.
        4    1    3    3  502    0 -0.33126251249E+03  0.22621213674E+03 -0.95568393751E+01  0.40124771534E+03  0.12699999809E+01 0.  1.
       -4    1    3    3    0  502  0.33126251249E+03 -0.22621213674E+03 -0.17139019057E+03  0.43621438916E+03  0.12699999809E+01 0. -1.
</event>
<event>
 5   0  0.4663634E-02  0.7992965E+03  0.7818609E-02  0.9561036E-01
       -2   -1    0    0    0  501  0.00000000000E+00  0.00000000000E+00  0.67069510675E+02  0.67069510724E+02  0.25500000920E-02 0. -1.
        2   -1    0    0  501    0  0.00000000000E+00  0.00000000000E+00 -0.23813908189E+04  0.23813908189E+04  0.25500000920E-02 0.  1.
    10030    2    1    2    0    0  0.00000000000E+00  0.00000000000E+00 -0.23143213082E+04  0.24484603296E+04  0.79929648319E+03 0.  0.
        5    1    3    3  502    0 -0.32828145818E+03  0.11386158113E+03 -0.55249697718E+03  0.65269301761E+03  0.46999998093E+01 0. -1.
       -5    1    3    3    0  502  0.32828145818E+03 -0.11386158113E+03 -0.17618243310E+04  0.17957673120E+04  0.46999998093E+01 0.  1.
</event>
<event>
 5   0  0.4684283E-02  0.5967897E+03  0.7818609E-02  0.9912089E-01
       -2   -1    0    0    0  501  0.00000000000E+00  0.00000000000E+00  0.38135284006E+03  0.38135284007E+03  0.25500000920E-02 0.  1.
        2   -1    0    0  501    0  0.00000000000E+00  0.00000000000E+00 -0.23348322264E+03  0.23348322265E+03  0.25500000920E-02 0. -1.
    10030    2    1    2    0    0  0.00000000000E+00  0.00000000000E+00  0.14786961742E+03  0.61483606273E+03  0.59678971194E+03 0.  0.
        1    1    3    3  502    0 -0.20006961225E+03  0.13870416465E+03  0.25170044376E+03  0.35017111310E+03  0.50400001928E-02 0.  1.
       -1    1    3    3    0  502  0.20006961225E+03 -0.13870416465E+03 -0.10383082634E+03  0.26466494962E+03  0.50400001928E-02 0. -1.
</event>
<event>
 5   0  0.4663634E-02  0.8077057E+03  0.7818609E-02  0.9548930E-01
        2   -1    0    0  501    0  0.00000000000E+00  0.00000000000E+00  0.73374968519E+03  0.73374968520E+03  0.25500000920E-02 0. -1.
       -2   -1    0    0    0  501  0.00000000000E+00  0.00000000000E+00 -0.22227897166E+03  0.22227897167E+03  0.25500000920E-02 0.  1.
    10030    2    1    2    0    0  0.00000000000E+00  0.00000000000E+00  0.51147071354E+03  0.95602865687E+03  0.80770570256E+03 0.  0.
        5    1    3    3  502    0 -0.31576139199E+03 -0.15132868102E+03  0.49384730751E+03  0.60540307193E+03  0.46999998093E+01 0. -1.
       -5    1    3    3    0  502  0.31576139199E+03  0.15132868102E+03  0.17623406027E+02  0.35062558493E+03  0.46999998093E+01 0.  1.
</event>
<event>
 5   0  0.4684283E-02  0.8345157E+03  0.7818609E-02  0.9511358E-01
       -2   -1    0    0    0  501  0.00000000000E+00  0.00000000000E+00  0.22013899647E+03  0.22013899649E+03  0.25500000920E-02 0. -1.
        2   -1    0    0  501    0  0.00000000000E+00  0.00000000000E+00 -0.79088272017E+03  0.79088272017E+03  0.25500000920E-02 0.  1.
    10030    2    1    2    0    0  0.00000000000E+00  0.00000000000E+00 -0.57074372369E+03  0.10110217167E+04  0.83451573587E+03 0.  0.
        1    1    3    3  502    0  0.21043862548E+03  0.33177346220E+03 -0.11512997138E+03  0.40940561262E+03  0.50400001928E-02 0. -1.
       -1    1    3    3    0  502 -0.21043862548E+03 -0.33177346220E+03 -0.45561375231E+03  0.60161610403E+03  0.50400001928E-02 0.  1.
</event>
<event>
 5   0  0.2689372E-02  0.8002012E+03  0.7818609E-02  0.9559726E-01
        1   -1    0    0  501    0  0.00000000000E+00  0.00000000000E+00  0.10985258719E+04  0.10985258719E+04  0.50400001928E-02 0.  1.
       -1   -1    0    0    0  501  0.00000000000E+00  0.00000000000E+00 -0.14572300705E+03  0.14572300714E+03  0.50400001928E-02 0. -1.
    10030    2    1    2    0    0  0.00000000000E+00  0.00000000000E+00  0.95280286484E+03  0.12442488790E+04  0.80020120828E+03 0.  0.
        4    1    3    3  502    0 -0.13664453155E+03  0.18460778018E+03 -0.33003086494E+02  0.23204003345E+03  0.12699999809E+01 0. -1.
       -4    1    3    3    0  502  0.13664453155E+03 -0.18460778018E+03  0.98580595133E+03  0.10122088456E+04  0.12699999809E+01 0.  1.
</event>
<event>
 5   0  0.2759559E-02  0.8112199E+03  0.7818609E-02  0.9543917E-01
       -1   -1    0    0    0  501  0.00000000000E+00  0.00000000000E+00  0.11996981628E+03  0.11996981639E+03  0.50400001928E-02 0. -1.
        1   -1    0    0  501    0  0.00000000000E+00  0.00000000000E+00 -0.13713401707E+04  0.13713401708E+04  0.50400001928E-02 0.  1.
    10030    2    1    2    0    0  0.00000000000E+00  0.00000000000E+00 -0.12513703545E+04  0.14913099871E+04  0.81121989233E+03 0.  0.
        3    1    3    3  502    0 -0.16213996531E+03 -0.19725351447E+03 -0.12050472977E+04  0.12318024668E+04  0.10100000352E+00 0.  1.
       -3    1    3    3    0  502  0.16213996531E+03  0.19725351447E+03 -0.46323056760E+02  0.25950752033E+03  0.10100000352E+00 0. -1.
</event>
<event>
 5   0  0.4684283E-02  0.7875617E+03  0.7818609E-02  0.9578198E-01
        2   -1    0    0  501    0  0.00000000000E+00  0.00000000000E+00  0.26862026944E+03  0.26862026945E+03  0.25500000920E-02 0. -1.
       -2   -1    0    0    0  501  0.00000000000E+00  0.00000000000E+00 -0.57725853798E+03  0.57725853798E+03  0.25500000920E-02 0.  1.
    10030    2    1    2    0    0  0.00000000000E+00  0.00000000000E+00 -0.30863826854E+03  0.84587880744E+03  0.78756166493E+03 0.  0.
        1    1    3    3  502    0 -0.16076480457E+03 -0.35841295905E+03 -0.12474530531E+03  0.41214871446E+03  0.50400001928E-02 0. -1.
       -1    1    3    3    0  502  0.16076480457E+03  0.35841295905E+03 -0.18389296322E+03  0.43373009298E+03  0.50400001928E-02 0.  1.
</event>
<event>
 5   0  0.2769394E-02  0.8085217E+03  0.7818609E-02  0.9547764E-01
       -1   -1    0    0    0  501  0.00000000000E+00  0.00000000000E+00  0.57819639381E+03  0.57819639384E+03  0.50400001928E-02 0.  1.
        1   -1    0    0  501    0  0.00000000000E+00  0.00000000000E+00 -0.28264934982E+03  0.28264934987E+03  0.50400001928E-02 0. -1.
    10030    2    1    2    0    0  0.00000000000E+00  0.00000000000E+00  0.29554704399E+03  0.86084574370E+03  0.80852169992E+03 0.  0.
        2    1    3    3  502    0 -0.14898654053E+03 -0.20771706719E+03  0.48122416343E+03  0.54490372061E+03  0.25500000920E-02 0.  1.
       -2    1    3    3    0  502  0.14898654053E+03  0.20771706719E+03 -0.18567711944E+03  0.31594202309E+03  0.25500000920E-02 0. -1.
</event>
<event>
 5   0  0.4377843E-02  0.8032435E+03  0.7818609E-02  0.9555334E-01
       -2   -1    0    0    0  501  0.00000000000E+00  0.00000000000E+00  0.59424927626E+02  0.59424927680E+02  0.25500000920E-02 0.  1.
        2   -1    0    0  501    0  0.00000000000E+00  0.00000000000E+00 -0.27143496069E+04  0.27143496069E+04  0.25500000920E-02 0. -1.
    10030    2    1    2    0    0  0.00000000000E+00  0.00000000000E+00 -0.26549246793E+04  0.27737745346E+04  0.80324349737E+03 0.  0.
        2    1    3    3  502    0 -0.17363818079E+03 -0.29922175282E+03 -0.62300465942E+03  0.71261397745E+03  0.25500000920E-02 0.  1.
       -2    1    3    3    0  502  0.17363818079E+03  0.29922175282E+03 -0.20319200198E+04  0.20611605571E+04  0.25500000920E-02 0. -1.
</event>
<event>
 5   0  0.2689372E-02  0.7910602E+03  0.7818609E-02  0.9573048E-01
        1   -1    0    0  501    0  0.00000000000E+00  0.00000000000E+00  0.30352371403E+03  0.30352371407E+03  0.50400001928E-02 0.  1.
       -1   -1    0    0    0  501  0.00000000000E+00  0.00000000000E+00 -0.51542613975E+03  0.51542613977E+03  0.50400001928E-02 0. -1.
    10030    2    1    2    0    0  0.00000000000E+00  0.00000000000E+00 -0.21190242572E+03  0.81894985384E+03  0.79106019056E+03 0.  0.
        4    1    3    3  502    0 -0.13035089835E+03  0.94031475825E+02  0.26818919214E+03  0.31266648498E+03  0.12699999809E+01 0.  1.
       -4    1    3    3    0  502  0.13035089835E+03 -0.94031475825E+02 -0.48009161786E+03  0.50628336887E+03  0.12699999809E+01 0. -1.
</event>
<event>
 5   0  0.4663634E-02  0.7960603E+03  0.7818609E-02  0.9565737E-01
       -2   -1    0    0    0  501  0.00000000000E+00  0.00000000000E+00  0.10393903306E+03  0.10393903309E+03  0.25500000920E-02 0.  1.
        2   -1    0    0  501    0  0.00000000000E+00  0.00000000000E+00 -0.15242396901E+04  0.15242396901E+04  0.25500000920E-02 0. -1.
    10030    2    1    2    0    0  0.00000000000E+00  0.00000000000E+00 -0.14203006571E+04  0.16281787232E+04  0.79606029815E+03 0.  0.
        5    1    3    3  502    0 -0.10007231513E+03 -0.36229141195E+03 -0.44240889885E+03  0.58053187613E+03  0.46999998093E+01 0.  1.
       -5    1    3    3    0  502  0.10007231513E+03  0.36229141195E+03 -0.97789175823E+03  0.10476468471E+04  0.46999998093E+01 0. -1.
</event>
<event>
 5   0  0.2689372E-02  0.7984401E+03  0.7818609E-02  0.9562278E-01
       -1   -1    0    0    0  501  0.00000000000E+00  0.00000000000E+00  0.27808341206E+03  0.27808341211E+03  0.50400001928E-02 0.  1.
        1   -1    0    0  501    0  0.00000000000E+00  0.00000000000E+00 -0.57312538971E+03  0.57312538973E+03  0.50400001928E-02 0. -1.
    10030    2    1    2    0    0  0.00000000000E+00  0.00000000000E+00 -0.29504197764E+03  0.85120880184E+03  0.79844013912E+03 0.  0.
        4    1    3    3  502    0  0.14660662092E+03  0.24451574538E+03 -0.44544222814E+03  0.52886845486E+03  0.12699999809E+01 0. -1.
       -4    1    3    3    0  502 -0.14660662092E+03 -0.24451574538E+03  0.15040025050E+03  0.32234034698E+03  0.12699999809E+01 0.  1.
</event>
<event>
 5   0  0.4684283E-02  0.6820107E+03  0.7818609E-02  0.9748501E-01
        2   -1    0    0  501    0  0.00000000000E+00  0.00000000000E+00  0.26902183149E+04  0.26902183149E+04  0.25500000920E-02 0. -1.
       -2   -1    0    0    0  501  0.00000000000E+00  0.00000000000E+00 -0.43224983673E+02  0.43224983749E+02  0.25500000920E-02 0.  1.
    10030    2    1    2    0    0  0.00000000000E+00  0.00000000000E+00  0.26469933313E+04  0.27334432987E+04  0.68201068275E+03 0.  0.
        1    1    3    3  502    0  0.10055906977E+03  0.10778733718E+02  0.26287271251E+04  0.26306718925E+04  0.50400001928E-02 0. -1.
       -1    1    3    3    0  502 -0.10055906977E+03 -0.10778733718E+02  0.18266206121E+02  0.10277140617E+03  0.50400001928E-02 0.  1.
</event>
<event>
 5   0  0.2769394E-02  0.7984203E+03  0.7818609E-02  0.9562306E-01
       -1   -1    0    0    0  501  0.00000000000E+00  0.00000000000E+00  0.20412381813E+03  0.20412381820E+03  0.50400001928E-02 0. -1.
        1   -1    0    0  501    0  0.00000000000E+00  0.00000000000E+00 -0.78074542895E+03  0.78074542897E+03  0.50400001928E-02 0.  1.
    10030    2    1    2    0    0  0.00000000000E+00  0.00000000000E+00 -0.57662161082E+03  0.98486924717E+03  0.79842028528E+03 0.  0.
        2    1    3    3  502    0 -0.23780787774E+03 -0.30818421078E+03 -0.17909953208E+03  0.42849356691E+03  0.25500000920E-02 0. -1.
       -2    1    3    3    0  502  0.23780787774E+03  0.30818421078E+03 -0.39752207874E+03  0.55637568025E+03  0.25500000920E-02 0.  1.
</event>
<event>
 5   0  0.2769394E-02  0.7996474E+03  0.7818609E-02  0.9560528E-01
        1   -1    0    0  501    0  0.00000000000E+00  0.00000000000E+00  0.19513876276E+04  0.19513876276E+04  0.50400001928E-02 0. -1.
       -1   -1    0    0    0  501  0.00000000000E+00  0.00000000000E+00 -0.81920679906E+02  0.81920680061E+02  0.50400001928E-02 0.  1.
    10030    2    1    2    0    0  0.00000000000E+00  0.00000000000E+00  0.18694669477E+04  0.20333083077E+04  0.79964742575E+03 0.  0.
        2    1    3    3  502    0  0.27020005577E+03 -0.13751074650E+03  0.15975189436E+04  0.16260332256E+04  0.25500000920E-02 0. -1.
       -2    1    3    3    0  502 -0.27020005577E+03  0.13751074650E+03  0.27194800406E+03  0.40727508205E+03  0.25500000920E-02 0.  1.
</event>
<event>
 5   0  0.2759559E-02  0.8302579E+03  0.7818609E-02  0.9517224E-01
       -1   -1    0    0    0  501  0.00000000000E+00  0.00000000000E+00  0.27135812669E+03  0.27135812673E+03  0.50400001928E-02 0.  1.
        1   -1    0    0  501    0  0.00000000000E+00  0.00000000000E+00 -0.63507231211E+03  0.63507231213E+03  0.50400001928E-02 0. -1.
    10030    2    1    2    0    0  0.00000000000E+00  0.00000000000E+00 -0.36371418542E+03  0.90643043886E+03  0.83025787067E+03 0.  0.
        3    1    3    3  502    0 -0.14179130084E+02  0.35955832068E+03 -0.40784789102E+03  0.54389626410E+03  0.10100000352E+00 0. -1.
       -3    1    3    3    0  502  0.14179130084E+02 -0.35955832068E+03  0.44133705596E+02  0.36253417476E+03  0.10100000352E+00 0.  1.
</event>
<event>
 5   0  0.2606520E-02  0.8291342E+03  0.7818609E-02  0.9518778E-01
        1   -1    0    0  501    0  0.00000000000E+00  0.00000000000E+00  0.59818505381E+03  0.59818505384E+03  0.50400001928E-02 0. -1.
       -1   -1    0    0    0  501  0.00000000000E+00  0.00000000000E+00 -0.28731224081E+03  0.28731224085E+03  0.50400001928E-02 0.  1.
    10030    2    1    2    0    0  0.00000000000E+00  0.00000000000E+00  0.31087281301E+03  0.88549729469E+03  0.82913421895E+03 0.  0.
        5    1    3    3  502    0  0.17682969455E+03  0.33173401841E+03 -0.31162338947E+02  0.37723915652E+03  0.46999998093E+01 0.  1.
       -5    1    3    3    0  502 -0.17682969455E+03 -0.33173401841E+03  0.34203515196E+03  0.50825813817E+03  0.46999998093E+01 0. -1.
</event>
<event>
 5   0  0.2689372E-02  0.7719462E+03  0.7818609E-02  0.9601536E-01
        1   -1    0    0  501    0  0.00000000000E+00  0.00000000000E+00  0.31227583367E+03  0.31227583371E+03  0.50400001928E-02 0. -1.
       -1   -1    0    0    0  501  0.00000000000E+00  0.00000000000E+00 -0.47706291386E+03  0.47706291388E+03  0.50400001928E-02 0.  1.
    10030    2    1    2    0    0  0.00000000000E+00  0.00000000000E+00 -0.16478708018E+03  0.78933874760E+03  0.77194616177E+03 0.  0.
        4    1    3    3  502    0 -0.14574982712E+03  0.20677592318E+03 -0.38046489243E+03  0.45689653291E+03  0.12699999809E+01 0.  1.
       -4    1    3    3    0  502  0.14574982712E+03 -0.20677592318E+03  0.21567781225E+03  0.33244221469E+03  0.12699999809E+01 0. -1.
</event>
<event>
 5   0  0.4700220E-02  0.7937002E+03  0.7818609E-02  0.9569181E-01
       -2   -1    0    0    0  501  0.00000000000E+00  0.00000000000E+00  0.15853413184E+03  0.15853413186E+03  0.25500000920E-02 0. -1.
        2   -1    0    0  501    0  0.00000000000E+00  0.00000000000E+00 -0.99341388168E+03  0.99341388169E+03  0.25500000920E-02 0.  1.
    10030    2    1    2    0    0  0.00000000000E+00  0.00000000000E+00 -0.83487974985E+03  0.11519480135E+04  0.79370021368E+03 0.  0.
        4    1    3    3  502    0 -0.96781244179E+02  0.88677055024E+02 -0.96099107564E+03  0.96991530026E+03  0.12699999809E+01 0.  1.
       -4    1    3    3    0  502  0.96781244179E+02 -0.88677055024E+02  0.12611132579E+03  0.18203271328E+03  0.12699999809E+01 0. -1.
</event>
<event>
 5   0  0.4684283E-02  0.7725086E+03  0.7818609E-02  0.9600685E-01
       -2   -1    0    0    0  501  0.00000000000E+00  0.00000000000E+00  0.22879177322E+03  0.22879177323E+03  0.25500000920E-02 0. -1.
        2   -1    0    0  501    0  0.00000000000E+00  0.00000000000E+00 -0.65208802629E+03  0.65208802630E+03  0.25500000920E-02 0.  1.
    10030    2    1    2    0    0  0.00000000000E+00  0.00000000000E+00 -0.42329625307E+03  0.88087979953E+03  0.77250857817E+03 0.  0.
        1    1    3    3  502    0 -0.78668451341E+01  0.38404976727E+03 -0.16552272751E+03  0.41827489088E+03  0.50400001928E-02 0.  1.
       -1    1    3    3    0  502  0.78668451341E+01 -0.38404976727E+03 -0.25777352556E+03  0.46260490864E+03  0.50400001928E-02 0. -1.
</event>
<event>
 5   0  0.4663634E-02  0.7917319E+03  0.7818609E-02  0.9572063E-01
       -2   -1    0    0    0  501  0.00000000000E+00  0.00000000000E+00  0.85123887593E+02  0.85123887631E+02  0.25500000920E-02 0. -1.
        2   -1    0    0  501    0  0.00000000000E+00  0.00000000000E+00 -0.18409618743E+04  0.18409618743E+04  0.25500000920E-02 0.  1.
    10030    2    1    2    0    0  0.00000000000E+00  0.00000000000E+00 -0.17558379867E+04  0.19260857619E+04  0.79173185281E+03 0.  0.
        5    1    3    3  502    0 -0.22514832815E+03  0.37966306666E+02 -0.16645461464E+04  0.16801396292E+04  0.46999998093E+01 0.  1.
       -5    1    3    3    0  502  0.22514832815E+03 -0.37966306666E+02 -0.91291840334E+02  0.24594613276E+03  0.46999998093E+01 0. -1.
</event>
<event>
 5   0  0.4377843E-02  0.8260125E+03  0.7818609E-02  0.9523110E-01
       -2   -1    0    0    0  501  0.00000000000E+00  0.00000000000E+00  0.17357020098E+03  0.17357020100E+03  0.25500000920E-02 0. -1.
        2   -1    0    0  501    0  0.00000000000E+00  0.00000000000E+00 -0.98273879431E+03  0.98273879431E+03  0.25500000920E-02 0.  1.
    10030    2    1    2    0    0  0.00000000000E+00  0.00000000000E+00 -0.80916859333E+03  0.11563089953E+04  0.82601251820E+03 0.  0.
        2    1    3    3  502    0  0.33741945977E+03 -0.10185859116E+03 -0.70595330142E+03  0.78904824201E+03  0.25500000920E-02 0.  1.
       -2    1    3    3    0  502 -0.33741945977E+03  0.10185859116E+03 -0.10321529191E+03  0.36726075331E+03  0.25500000920E-02 0. -1.
</event>
<event>
 5   0  0.2769394E-02  0.8111575E+03  0.7818609E-02  0.9544006E-01
       -1   -1    0    0    0  501  0.00000000000E+00  0.00000000000E+00  0.14643753333E+03  0.14643753342E+03  0.50400001928E-02 0. -1.
        1   -1    0    0  501    0  0.00000000000E+00  0.00000000000E+00 -0.11233057514E+04  0.11233057514E+04  0.50400001928E-02 0.  1.
    10030    2    1    2    0    0  0.00000000000E+00  0.00000000000E+00 -0.97686821805E+03  0.12697432848E+04  0.81115750252E+03 0.  0.
        2    1    3    3  502    0  0.38011989721E+03 -0.11724006050E+03 -0.36460577556E+03  0.53960517012E+03  0.25500000920E-02 0. -1.
       -2    1    3    3    0  502 -0.38011989721E+03  0.11724006050E+03 -0.61226244250E+03  0.73013811470E+03  0.25500000920E-02 0.  1.
</event>
<event>
 5   0  0.2635243E-02  0.7993020E+03  0.7818609E-02  0.9561028E-01
        1   -1    0    0  501    0  0.00000000000E+00  0.00000000000E+00  0.76147566899E+03  0.76147566900E+03  0.50400001928E-02 0.  1.
       -1   -1    0    0    0  501  0.00000000000E+00  0.00000000000E+00 -0.20975181455E+03  0.20975181461E+03  0.50400001928E-02 0. -1.
    10030    2    1    2    0    0  0.00000000000E+00  0.00000000000E+00  0.55172385444E+03  0.97122748361E+03  0.79930195381E+03 0.  0.
        1    1    3    3  502    0  0.12004971892E+03 -0.80589007708E+02  0.72857946404E+03  0.74278836732E+03  0.50400001928E-02 0.  1.
       -1    1    3    3    0  502 -0.12004971892E+03  0.80589007708E+02 -0.17685560961E+03  0.22843911629E+03  0.50400001928E-02 0. -1.
</event>
<event>
 5   0  0.4663634E-02  0.8083029E+03  0.7818609E-02  0.9548076E-01
       -2   -1    0    0    0  501  0.00000000000E+00  0.00000000000E+00  0.22830799386E+03  0.22830799387E+03  0.25500000920E-02 0.  1.
        2   -1    0    0  501    0  0.00000000000E+00  0.00000000000E+00 -0.71543001173E+03  0.71543001173E+03  0.25500000920E-02 0. -1.
    10030    2    1    2    0    0  0.00000000000E+00  0.00000000000E+00 -0.48712201787E+03  0.94373800560E+03  0.80830289058E+03 0.  0.
        5    1    3    3  502    0  0.32538121640E+03  0.16076668322E+03 -0.45110169616E+03  0.57899368969E+03  0.46999998093E+01 0. -1.
       -5    1    3    3    0  502 -0.32538121640E+03 -0.16076668322E+03 -0.36020321708E+02  0.36474431592E+03  0.46999998093E+01 0.  1.
</event>
<event>
 5   0  0.4684283E-02  0.7892124E+03  0.7818609E-02  0.9575764E-01
        2   -1    0    0  501    0  0.00000000000E+00  0.00000000000E+00  0.30799305344E+03  0.30799305345E+03  0.25500000920E-02 0.  1.
       -2   -1    0    0    0  501  0.00000000000E+00  0.00000000000E+00 -0.50557649964E+03  0.50557649964E+03  0.25500000920E-02 0. -1.
    10030    2    1    2    0    0  0.00000000000E+00  0.00000000000E+00 -0.19758344619E+03  0.81356955309E+03  0.78921239189E+03 0.  0.
        1    1    3    3  502    0  0.29229899605E+03  0.12379639570E+02 -0.37177008380E+03  0.47308028261E+03  0.50400001928E-02 0. -1.
       -1    1    3    3    0  502 -0.29229899605E+03 -0.12379639570E+02  0.17418663760E+03  0.34048927048E+03  0.50400001928E-02 0.  1.
</event>
<event>
 5   0  0.2606520E-02  0.8277384E+03  0.7818609E-02  0.9520713E-01
       -1   -1    0    0    0  501  0.00000000000E+00  0.00000000000E+00  0.17913231861E+03  0.17913231868E+03  0.50400001928E-02 0.  1.
        1   -1    0    0  501    0  0.00000000000E+00  0.00000000000E+00 -0.95620769943E+03  0.95620769944E+03  0.50400001928E-02 0. -1.
    10030    2    1    2    0    0  0.00000000000E+00  0.00000000000E+00 -0.77707538082E+03  0.11353400181E+04  0.82773837005E+03 0.  0.
        5    1    3    3  502    0 -0.14720764668E+03 -0.25833747826E+03  0.62814187668E+01  0.29743888471E+03  0.46999998093E+01 0.  1.
       -5    1    3    3    0  502  0.14720764668E+03  0.25833747826E+03 -0.78335679959E+03  0.83790113341E+03  0.46999998093E+01 0. -1.
</event>
<event>
 5   0  0.2759559E-02  0.7960690E+03  0.7818609E-02  0.9565725E-01
        1   -1    0    0  501    0  0.00000000000E+00  0.00000000000E+00  0.19054713096E+04  0.19054713096E+04  0.50400001928E-02 0. -1.
       -1   -1    0    0    0  501  0.00000000000E+00  0.00000000000E+00 -0.83145559277E+02  0.83145559429E+02  0.50400001928E-02 0.  1.
    10030    2    1    2    0    0  0.00000000000E+00  0.00000000000E+00  0.18223257503E+04  0.19886168691E+04  0.79606903691E+03 0.  0.
        3    1    3    3  502    0  0.55540251758E+02  0.87635714292E+02 -0.48771878395E+02  0.11464486167E+03  0.10100000352E+00 0.  1.
       -3    1    3    3    0  502 -0.55540251758E+02 -0.87635714292E+02  0.18710976287E+04  0.18739720074E+04  0.10100000352E+00 0. -1.
</event>
<event>
 5   0  0.4663634E-02  0.8031479E+03  0.7818609E-02  0.9555472E-01
       -2   -1    0    0    0  501  0.00000000000E+00  0.00000000000E+00  0.11679938675E+03  0.11679938678E+03  0.25500000920E-02 0.  1.
        2   -1    0    0  501    0  0.00000000000E+00  0.00000000000E+00 -0.13806720304E+04  0.13806720304E+04  0.25500000920E-02 0. -1.
    10030    2    1    2    0    0  0.00000000000E+00  0.00000000000E+00 -0.12638726437E+04  0.14974714172E+04  0.80314792281E+03 0.  0.
        5    1    3    3  502    0  0.15521422308E+02  0.38610170561E+03 -0.83553552616E+03  0.92057435718E+03  0.46999998093E+01 0.  1.
       -5    1    3    3    0  502 -0.15521422308E+02 -0.38610170561E+03 -0.42833711754E+03  0.57689706004E+03  0.46999998093E+01 0. -1.
</event>
<event>
 5   0  0.2759559E-02  0.7789627E+03  0.7818609E-02  0.9590977E-01
        1   -1    0    0  501    0  0.00000000000E+00  0.00000000000E+00  0.58749518326E+03  0.58749518328E+03  0.50400001928E-02 0.  1.
       -1   -1    0    0    0  501  0.00000000000E+00  0.00000000000E+00 -0.25820758883E+03  0.25820758888E+03  0.50400001928E-02 0. -1.
    10030    2    1    2    0    0  0.00000000000E+00  0.00000000000E+00  0.32928759443E+03  0.84570277216E+03  0.77896268139E+03 0.  0.
        3    1    3    3  502    0  0.16008561018E+03  0.33790673412E+03  0.28301429194E+03  0.46894078858E+03  0.10100000352E+00 0.  1.
       -3    1    3    3    0  502 -0.16008561018E+03 -0.33790673412E+03  0.46273302495E+02  0.37676198358E+03  0.10100000352E+00 0. -1.
</event>
<event>
 5   0  0.4663634E-02  0.8032775E+03  0.7818609E-02  0.9555285E-01
        2   -1    0    0  501    0  0.00000000000E+00  0.00000000000E+00  0.72692504499E+03  0.72692504500E+03  0.25500000920E-02 0. -1.
       -2   -1    0    0    0  501  0.00000000000E+00  0.00000000000E+00 -0.22191242674E+03  0.22191242675E+03  0.25500000920E-02 0.  1.
    10030    2    1    2    0    0  0.00000000000E+00  0.00000000000E+00  0.50501261825E+03  0.94883747175E+03  0.80327753809E+03 0.  0.
        5    1    3    3  502    0  0.10915592414E+03 -0.78178139042E+02  0.69959729467E+03  0.71238002633E+03  0.46999998093E+01 0. -1.
       -5    1    3    3    0  502 -0.10915592414E+03  0.78178139042E+02 -0.19458467642E+03  0.23645744542E+03  0.46999998093E+01 0.  1.
</event>
<event>
 5   0  0.2769394E-02  0.7225085E+03  0.7818609E-02  0.9679496E-01
       -1   -1    0    0    0  501  0.00000000000E+00  0.00000000000E+00  0.17155242681E+03  0.17155242688E+03  0.50400001928E-02 0.  1.
        1   -1    0    0  501    0  0.00000000000E+00  0.00000000000E+00 -0.76072730919E+03  0.76072730920E+03  0.50400001928E-02 0. -1.
    10030    2    1    2    0    0  0.00000000000E+00  0.00000000000E+00 -0.58917488238E+03  0.93227973609E+03  0.72250845275E+03 0.  0.
        2    1    3    3  502    0  0.13588589378E+02  0.31345684746E+03 -0.63531370180E+02  0.32011885290E+03  0.25500000920E-02 0.  1.
       -2    1    3    3    0  502 -0.13588589378E+02 -0.31345684746E+03 -0.52564351220E+03  0.61216088319E+03  0.25500000920E-02 0. -1.
</event>
<event>
 5   0  0.4684283E-02  0.8279274E+03  0.7818609E-02  0.9520450E-01
       -2   -1    0    0    0  501  0.00000000000E+00  0.00000000000E+00  0.54051310276E+03  0.54051310276E+03  0.25500000920E-02 0.  1.
        2   -1    0    0  501    0  0.00000000000E+00  0.00000000000E+00 -0.31704311074E+03  0.31704311075E+03  0.25500000920E-02 0. -1.
    10030    2    1    2    0    0  0.00000000000E+00  0.00000000000E+00  0.22346999202E+03  0.85755621351E+03  0.82792742556E+03 0.  0.
        1    1    3    3  502    0 -0.22850206957E+03 -0.20275038704E+03  0.40109798599E+03  0.50418301205E+03  0.50400001928E-02 0.  1.
       -1    1    3    3    0  502  0.22850206957E+03  0.20275038704E+03 -0.17762799397E+03  0.35337320146E+03  0.50400001928E-02 0. -1.
</event>
<event>
 5   0  0.2769394E-02  0.7336238E+03  0.7818609E-02  0.9661398E-01
       -1   -1    0    0    0  501  0.00000000000E+00  0.00000000000E+00  0.22260398666E+03  0.22260398672E+03  0.50400001928E-02 0.  1.
        1   -1    0    0  501    0  0.00000000000E+00  0.00000000000E+00 -0.60444094888E+03  0.60444094890E+03  0.50400001928E-02 0. -1.
    10030    2    1    2    0    0  0.00000000000E+00  0.00000000000E+00 -0.38183696222E+03  0.82704493562E+03  0.73362378629E+03 0.  0.
        2    1    3    3  502    0  0.18726622801E+03 -0.30064678461E+03 -0.29842362734E+03  0.46315633496E+03  0.25500000920E-02 0.  1.
       -2    1    3    3    0  502 -0.18726622801E+03  0.30064678461E+03 -0.83413334883E+02  0.36388860066E+03  0.25500000920E-02 0. -1.
</event>
<event>
 5   0  0.4700220E-02  0.7736883E+03  0.7818609E-02  0.9598903E-01
       -2   -1    0    0    0  501  0.00000000000E+00  0.00000000000E+00  0.10338774258E+03  0.10338774261E+03  0.25500000920E-02 0.  1.
        2   -1    0    0  501    0  0.00000000000E+00  0.00000000000E+00 -0.14474481318E+04  0.14474481318E+04  0.25500000920E-02 0. -1.
    10030    2    1    2    0    0  0.00000000000E+00  0.00000000000E+00 -0.13440603892E+04  0.15508358744E+04  0.77368829610E+03 0.  0.
        4    1    3    3  502    0 -0.78945001891E+02  0.13086975021E+03 -0.13843583772E+04  0.13927702375E+04  0.12699999809E+01 0. -1.
       -4    1    3    3    0  502  0.78945001891E+02 -0.13086975021E+03  0.40297988026E+02  0.15806563694E+03  0.12699999809E+01 0.  1.
</event>
<event>
 5   0  0.2689372E-02  0.7935361E+03  0.7818609E-02  0.9569421E-01
       -1   -1    0    0    0  501  0.00000000000E+00  0.00000000000E+00  0.18942431063E+03  0.18942431070E+03  0.50400001928E-02 0. -1.
        1   -1    0    0  501    0  0.00000000000E+00  0.00000000000E+00 -0.83107019224E+03  0.83107019226E+03  0.50400001928E-02 0.  1.
    10030    2    1    2    0    0  0.00000000000E+00  0.00000000000E+00 -0.64164588161E+03  0.10204945030E+04  0.79353613224E+03 0.  0.
        4    1    3    3  502    0 -0.34411889664E+03 -0.17766686965E+03 -0.20989803143E+03  0.44050213177E+03  0.12699999809E+01 0. -1.
       -4    1    3    3    0  502  0.34411889664E+03  0.17766686965E+03 -0.43174785018E+03  0.57999237118E+03  0.12699999809E+01 0.  1.
</event>
<event>
 5   0  0.1786500E-02  0.8216179E+03  0.7818609E-02  0.9529243E-01
       -4   -1    0    0    0  501  0.00000000000E+00  0.00000000000E+00  0.41582274813E+03  0.41582468753E+03  0.12699999809E+01 0.  1.
        4   -1    0    0  501    0  0.00000000000E+00  0.00000000000E+00 -0.40585176028E+03  0.40585374733E+03  0.12699999809E+01 0. -1.
    10030    2    1    2    0    0  0.00000000000E+00  0.00000000000E+00  0.99709878548E+01  0.82167843486E+03  0.82161793415E+03 0.  0.
        3    1    3    3  502    0 -0.32415831562E+03  0.73692761955E+00 -0.24739164435E+03  0.40777664541E+03  0.10100000352E+00 0. -1.
       -3    1    3    3    0  502  0.32415831562E+03 -0.73692761955E+00  0.25736263220E+03  0.41390178945E+03  0.10100000352E+00 0.  1.
</event>
<event>
 5   0  0.2759559E-02  0.7995148E+03  0.7818609E-02  0.9560720E-01
        1   -1    0    0  501    0  0.00000000000E+00  0.00000000000E+00  0.76736403892E+03  0.76736403893E+03  0.50400001928E-02 0. -1.
       -1   -1    0    0    0  501  0.00000000000E+00  0.00000000000E+00 -0.20825315335E+03  0.20825315341E+03  0.50400001928E-02 0.  1.
    10030    2    1    2    0    0  0.00000000000E+00  0.00000000000E+00  0.55911088557E+03  0.97561719234E+03  0.79951480514E+03 0.  0.
        3    1    3    3  502    0  0.33476451621E+00  0.20764271085E+03  0.69639644414E+03  0.72669362530E+03  0.10100000352E+00 0. -1.
       -3    1    3    3    0  502 -0.33476451621E+00 -0.20764271085E+03 -0.13728555857E+03  0.24892356704E+03  0.10100000352E+00 0.  1.
</event>
<event>
 5   0  0.2769394E-02  0.8008522E+03  0.7818609E-02  0.9558784E-01
       -1   -1    0    0    0  501  0.00000000000E+00  0.00000000000E+00  0.16454237230E+03  0.16454237237E+03  0.50400001928E-02 0. -1.
        1   -1    0    0  501    0  0.00000000000E+00  0.00000000000E+00 -0.97446669553E+03  0.97446669555E+03  0.50400001928E-02 0.  1.
    10030    2    1    2    0    0  0.00000000000E+00  0.00000000000E+00 -0.80992432324E+03  0.11390090679E+04  0.80085220074E+03 0.  0.
        2    1    3    3  502    0 -0.28161243459E+03 -0.88628409709E+02 -0.78970673668E+03  0.84308794814E+03  0.25500000920E-02 0.  1.
       -2    1    3    3    0  502  0.28161243459E+03  0.88628409709E+02 -0.20217586554E+02  0.29592111978E+03  0.25500000920E-02 0. -1.
</event>
<event>
 5   0  0.2759559E-02  0.8056447E+03  0.7818609E-02  0.9551882E-01
       -1   -1    0    0    0  501  0.00000000000E+00  0.00000000000E+00  0.11633791614E+04  0.11633791614E+04  0.50400001928E-02 0. -1.
        1   -1    0    0  501    0  0.00000000000E+00  0.00000000000E+00 -0.13947802394E+03  0.13947802403E+03  0.50400001928E-02 0.  1.
    10030    2    1    2    0    0  0.00000000000E+00  0.00000000000E+00  0.10239011374E+04  0.13028571854E+04  0.80564465265E+03 0.  0.
        3    1    3    3  502    0 -0.40243863938E+03 -0.15992262731E+02  0.52374647596E+03  0.66069886652E+03  0.10100000352E+00 0.  1.
       -3    1    3    3    0  502  0.40243863938E+03  0.15992262731E+02  0.50015466147E+03  0.64215831889E+03  0.10100000352E+00 0. -1.
</event>
<event>
 5   0  0.2606520E-02  0.8044623E+03  0.7818609E-02  0.9553581E-01
        1   -1    0    0  501    0  0.00000000000E+00  0.00000000000E+00  0.12453729726E+04  0.12453729726E+04  0.50400001928E-02 0. -1.
       -1   -1    0    0    0  501  0.00000000000E+00  0.00000000000E+00 -0.12991279453E+03  0.12991279463E+03  0.50400001928E-02 0.  1.
    10030    2    1    2    0    0  0.00000000000E+00  0.00000000000E+00  0.11154601780E+04  0.13752857672E+04  0.80446226305E+03 0.  0.
        5    1    3    3  502    0 -0.20870599670E+03  0.34031715644E+03  0.47408620138E+03  0.61980140074E+03  0.46999998093E+01 0.  1.
       -5    1    3    3    0  502  0.20870599670E+03 -0.34031715644E+03  0.64137397665E+03  0.75548436645E+03  0.46999998093E+01 0. -1.
</event>
<event>
 5   0  0.2606520E-02  0.7973603E+03  0.7818609E-02  0.9563846E-01
       -1   -1    0    0    0  501  0.00000000000E+00  0.00000000000E+00  0.13022985316E+03  0.13022985326E+03  0.50400001928E-02 0. -1.
        1   -1    0    0  501    0  0.00000000000E+00  0.00000000000E+00 -0.12205024798E+04  0.12205024798E+04  0.50400001928E-02 0.  1.
    10030    2    1    2    0    0  0.00000000000E+00  0.00000000000E+00 -0.10902726267E+04  0.13507323331E+04  0.79736029196E+03 0.  0.
        5    1    3    3  502    0 -0.36915905448E+03  0.13662544505E+03 -0.65199096280E+03  0.76161619292E+03  0.46999998093E+01 0.  1.
       -5    1    3    3    0  502  0.36915905448E+03 -0.13662544505E+03 -0.43828166385E+03  0.58911614017E+03  0.46999998093E+01 0. -1.
</event>
<event>
 5   0  0.2606520E-02  0.5728879E+03  0.7818609E-02  0.9963308E-01
        1   -1    0    0  501    0  0.00000000000E+00  0.00000000000E+00  0.47757168802E+03  0.47757168804E+03  0.50400001928E-02 0.  1.
       -1   -1    0    0    0  501  0.00000000000E+00  0.00000000000E+00 -0.17180697351E+03  0.17180697358E+03  0.50400001928E-02 0. -1.
    10030    2    1    2    0    0  0.00000000000E+00  0.00000000000E+00  0.30576471451E+03  0.64937866163E+03  0.57288793454E+03 0.  0.
        5    1    3    3  502    0  0.20993239420E+03 -0.12615969429E+03  0.32116366746E+03  0.40392582227E+03  0.46999998093E+01 0.  1.
       -5    1    3    3    0  502 -0.20993239420E+03  0.12615969429E+03 -0.15398952954E+02  0.24545283936E+03  0.46999998093E+01 0. -1.
</event>
<event>
 5   0  0.4700220E-02  0.8336863E+03  0.7818609E-02  0.9512498E-01
        2   -1    0    0  501    0  0.00000000000E+00  0.00000000000E+00  0.24399722750E+03  0.24399722751E+03  0.25500000920E-02 0. -1.
       -2   -1    0    0    0  501  0.00000000000E+00  0.00000000000E+00 -0.71213184528E+03  0.71213184529E+03  0.25500000920E-02 0.  1.
    10030    2    1    2    0    0  0.00000000000E+00  0.00000000000E+00 -0.46813461778E+03  0.95612907280E+03  0.83368626203E+03 0.  0.
        4    1    3    3  502    0  0.75897211038E+02  0.37406007670E+03 -0.42623294875E+03  0.57215161201E+03  0.12699999809E+01 0.  1.
       -4    1    3    3    0  502 -0.75897211038E+02 -0.37406007670E+03 -0.41901669032E+02  0.38397746079E+03  0.12699999809E+01 0. -1.
</event>
<event>
 5   0  0.2689372E-02  0.8224097E+03  0.7818609E-02  0.9528135E-01
        1   -1    0    0  501    0  0.00000000000E+00  0.00000000000E+00  0.27557893576E+03  0.27557893580E+03  0.50400001928E-02 0.  1.
       -1   -1    0    0    0  501  0.00000000000E+00  0.00000000000E+00 -0.61357895654E+03  0.61357895656E+03  0.50400001928E-02 0. -1.
    10030    2    1    2    0    0  0.00000000000E+00  0.00000000000E+00 -0.33800002078E+03  0.88915789236E+03  0.82240971754E+03 0.  0.
        4    1    3    3  502    0 -0.51934629846E+02  0.40004403422E+03 -0.25519096390E+03  0.47734314287E+03  0.12699999809E+01 0. -1.
       -4    1    3    3    0  502  0.51934629846E+02 -0.40004403422E+03 -0.82809056885E+02  0.41181474949E+03  0.12699999809E+01 0.  1.
</event>
<event>
 5   0  0.4590462E-02  0.7427997E+03  0.7818609E-02  0.9646715E-01
       -2   -1    0    0    0  501  0.00000000000E+00  0.00000000000E+00  0.74214707230E+02  0.74214707274E+02  0.25500000920E-02 0. -1.
        2   -1    0    0  501    0  0.00000000000E+00  0.00000000000E+00 -0.18586324082E+04  0.18586324082E+04  0.25500000920E-02 0.  1.
    10030    2    1    2    0    0  0.00000000000E+00  0.00000000000E+00 -0.17844177009E+04  0.19328471154E+04  0.74279973092E+03 0.  0.
        3    1    3    3  502    0  0.36875575863E+03  0.12097952666E+02 -0.10029340838E+04  0.10686458518E+04  0.10100000352E+00 0.  1.
       -3    1    3    3    0  502 -0.36875575863E+03 -0.12097952666E+02 -0.78148361718E+03  0.86420126366E+03  0.10100000352E+00 0. -1.
</event>
<event>
 5   0  0.4684283E-02  0.6936102E+03  0.7818609E-02  0.9728222E-01
        2   -1    0    0  501    0  0.00000000000E+00  0.00000000000E+00  0.94645503410E+03  0.94645503411E+03  0.25500000920E-02 0.  1.
       -2   -1    0    0    0  501  0.00000000000E+00  0.00000000000E+00 -0.12707818254E+03  0.12707818256E+03  0.25500000920E-02 0. -1.
    10030    2    1    2    0    0  0.00000000000E+00  0.00000000000E+00  0.81937685157E+03  0.10735332167E+04  0.69361022369E+03 0.  0.
        1    1    3    3  502    0 -0.20496063754E+03 -0.12857081667E+03  0.25128650991E+02  0.24325042028E+03  0.50400001928E-02 0. -1.
       -1    1    3    3    0  502  0.20496063754E+03  0.12857081667E+03  0.79424820058E+03  0.83028279639E+03  0.50400001928E-02 0.  1.
</event>
<event>
 5   0  0.2689372E-02  0.7287174E+03  0.7818609E-02  0.9669344E-01
        1   -1    0    0  501    0  0.00000000000E+00  0.00000000000E+00  0.58600911271E+03  0.58600911274E+03  0.50400001928E-02 0.  1.
       -1   -1    0    0    0  501  0.00000000000E+00  0.00000000000E+00 -0.22654468228E+03  0.22654468234E+03  0.50400001928E-02 0. -1.
    10030    2    1    2    0    0  0.00000000000E+00  0.00000000000E+00  0.35946443043E+03  0.81255379507E+03  0.72871736163E+03 0.  0.
        4    1    3    3  502    0 -0.20118711252E+03 -0.23621303986E+03  0.39271130867E+03  0.50049639289E+03  0.12699999809E+01 0.  1.
       -4    1    3    3    0  502  0.20118711252E+03  0.23621303986E+03 -0.33246878233E+02  0.31205740218E+03  0.12699999809E+01 0. -1.
</event>
<event>
 5   0  0.4684283E-02  0.7937662E+03  0.7818609E-02  0.9569084E-01
        2   -1    0    0  501    0  0.00000000000E+00  0.00000000000E+00  0.80183929728E+03  0.80183929728E+03  0.25500000920E-02 0.  1.
       -2   -1    0    0    0  501  0.00000000000E+00  0.00000000000E+00 -0.19644358038E+03  0.19644358040E+03  0.25500000920E-02 0. -1.
    10030    2    1    2    0    0  0.00000000000E+00  0.00000000000E+00  0.60539571689E+03  0.99828287768E+03  0.79376616824E+03 0.  0.
        1    1    3    3  502    0  0.19311851118E+03 -0.23317207519E+03 -0.20037243209E+02  0.30342291797E+03  0.50400001928E-02 0. -1.
       -1    1    3    3    0  502 -0.19311851118E+03  0.23317207519E+03  0.62543296010E+03  0.69485995971E+03  0.50400001928E-02 0.  1.
</event>
<event>
 5   0  0.4590462E-02  0.4335571E+03  0.7818609E-02  0.1032742E+00
       -2   -1    0    0    0  501  0.00000000000E+00  0.00000000000E+00  0.30792268749E+02  0.30792268855E+02  0.25500000920E-02 0. -1.
        2   -1    0    0  501    0  0.00000000000E+00  0.00000000000E+00 -0.15261281658E+04  0.15261281658E+04  0.25500000920E-02 0.  1.
    10030    2    1    2    0    0  0.00000000000E+00  0.00000000000E+00 -0.14953358971E+04  0.15569204347E+04  0.43355714139E+03 0.  0.
        3    1    3    3  502    0  0.80369485148E+02 -0.17023580344E+03 -0.11336579229E+04  0.11491822219E+04  0.10100000352E+00 0.  1.
       -3    1    3    3    0  502 -0.80369485148E+02  0.17023580344E+03 -0.36167797424E+03  0.40773821279E+03  0.10100000352E+00 0. -1.
</event>
<event>
 5   0  0.2769394E-02  0.7860339E+03  0.7818609E-02  0.9580455E-01
        1   -1    0    0  501    0  0.00000000000E+00  0.00000000000E+00  0.61241675396E+03  0.61241675398E+03  0.50400001928E-02 0.  1.
       -1   -1    0    0    0  501  0.00000000000E+00  0.00000000000E+00 -0.25221765135E+03  0.25221765140E+03  0.50400001928E-02 0. -1.
    10030    2    1    2    0    0  0.00000000000E+00  0.00000000000E+00  0.36019910261E+03  0.86463440537E+03  0.78603388059E+03 0.  0.
        2    1    3    3  502    0  0.87525474581E+02 -0.38279658124E+03  0.16207893704E+03  0.42480997299E+03  0.25500000920E-02 0. -1.
       -2    1    3    3    0  502 -0.87525474581E+02  0.38279658124E+03  0.19812016557E+03  0.43982443239E+03  0.25500000920E-02 0.  1.
</event>
<event>
 5   0  0.4590462E-02  0.8276990E+03  0.7818609E-02  0.9520767E-01
        2   -1    0    0  501    0  0.00000000000E+00  0.00000000000E+00  0.67223212564E+03  0.67223212565E+03  0.25500000920E-02 0.  1.
       -2   -1    0    0    0  501  0.00000000000E+00  0.00000000000E+00 -0.25478014141E+03  0.25478014143E+03  0.25500000920E-02 0. -1.
    10030    2    1    2    0    0  0.00000000000E+00  0.00000000000E+00  0.41745198423E+03  0.92701226707E+03  0.82769896953E+03 0.  0.
        3    1    3    3  502    0  0.39925350512E+03 -0.20736424617E+02  0.32850717314E+03  0.51744597173E+03  0.10100000352E+00 0.  1.
       -3    1    3    3    0  502 -0.39925350512E+03  0.20736424617E+02  0.88944811092E+02  0.40956629534E+03  0.10100000352E+00 0. -1.
</event>
<event>
 5   0  0.2689372E-02  0.8054581E+03  0.7818609E-02  0.9552150E-01
       -1   -1    0    0    0  501  0.00000000000E+00  0.00000000000E+00  0.34670243271E+03  0.34670243275E+03  0.50400001928E-02 0.  1.
        1   -1    0    0  501    0  0.00000000000E+00  0.00000000000E+00 -0.46780945794E+03  0.46780945796E+03  0.50400001928E-02 0. -1.
    10030    2    1    2    0    0  0.00000000000E+00  0.00000000000E+00 -0.12110702522E+03  0.81451189071E+03  0.80545807374E+03 0.  0.
        4    1    3    3  502    0 -0.45246629798E+01  0.37267470243E+02  0.34492713692E+03  0.34696639549E+03  0.12699999809E+01 0.  1.
       -4    1    3    3    0  502  0.45246629798E+01 -0.37267470243E+02 -0.46603416215E+03  0.46754549522E+03  0.12699999809E+01 0. -1.
</event>
<event>
 5   0  0.1786500E-02  0.8045815E+03  0.7818609E-02  0.9553409E-01
       -4   -1    0    0    0  501  0.00000000000E+00  0.00000000000E+00  0.44468929670E+03  0.44469111021E+03  0.12699999809E+01 0. -1.
        4   -1    0    0  501    0  0.00000000000E+00  0.00000000000E+00 -0.36393103481E+03  0.36393325075E+03  0.12699999809E+01 0.  1.
    10030    2    1    2    0    0  0.00000000000E+00  0.00000000000E+00  0.80758261890E+02  0.80862436096E+03  0.80458154358E+03 0.  0.
        5    1    3    3  502    0 -0.31126945110E+03 -0.25028661248E+03  0.88407490660E+02  0.40910882901E+03  0.46999998093E+01 0. -1.
       -5    1    3    3    0  502  0.31126945110E+03  0.25028661248E+03 -0.76492287700E+01  0.39951553195E+03  0.46999998093E+01 0.  1.
</event>
<event>
 5   0  0.2689372E-02  0.8061676E+03  0.7818609E-02  0.9551132E-01
       -1   -1    0    0    0  501  0.00000000000E+00  0.00000000000E+00  0.59424580507E+03  0.59424580510E+03  0.50400001928E-02 0. -1.
        1   -1    0    0  501    0  0.00000000000E+00  0.00000000000E+00 -0.27341640669E+03  0.27341640673E+03  0.50400001928E-02 0.  1.
    10030    2    1    2    0    0  0.00000000000E+00  0.00000000000E+00  0.32082939839E+03  0.86766221183E+03  0.80616760724E+03 0.  0.
        4    1    3    3  502    0  0.94644330943E+02 -0.31087537354E+03  0.41708866251E+03  0.52873964533E+03  0.12699999809E+01 0. -1.
       -4    1    3    3    0  502 -0.94644330943E+02  0.31087537354E+03 -0.96259264121E+02  0.33892256650E+03  0.12699999809E+01 0.  1.
</event>
<event>
 5   0  0.4684283E-02  0.5513874E+03  0.7818609E-02  0.1001173E+00
        2   -1    0    0  501    0  0.00000000000E+00  0.00000000000E+00  0.90230492835E+03  0.90230492836E+03  0.25500000920E-02 0.  1.
       -2   -1    0    0    0  501  0.00000000000E+00  0.00000000000E+00 -0.84236519767E+02  0.84236519806E+02  0.25500000920E-02 0. -1.
    10030    2    1    2    0    0  0.00000000000E+00  0.00000000000E+00  0.81806840858E+03  0.98654144816E+03  0.55138743893E+03 0.  0.
        1    1    3    3  502    0 -0.98954089999E+02 -0.59379711159E+01 -0.51245022895E+02  0.11159401339E+03  0.50400001928E-02 0. -1.
       -1    1    3    3    0  502  0.98954089999E+02  0.59379711159E+01  0.86931343148E+03  0.87494743477E+03  0.50400001928E-02 0.  1.
</event>
<event>
 5   0  0.2635243E-02  0.7934086E+03  0.7818609E-02  0.9569607E-01
       -1   -1    0    0    0  501  0.00000000000E+00  0.00000000000E+00  0.11410115620E+04  0.11410115620E+04  0.50400001928E-02 0. -1.
        1   -1    0    0  501    0  0.00000000000E+00  0.00000000000E+00 -0.13792523955E+03  0.13792523964E+03  0.50400001928E-02 0.  1.
    10030    2    1    2    0    0  0.00000000000E+00  0.00000000000E+00  0.10030863224E+04  0.12789368016E+04  0.79340857843E+03 0.  0.
        1    1    3    3  502    0 -0.32131703831E+03  0.72280292841E+02  0.14506759217E+03  0.35988009971E+03  0.50400001928E-02 0.  1.
       -1    1    3    3    0  502  0.32131703831E+03 -0.72280292841E+02  0.85801873028E+03  0.91905670194E+03  0.50400001928E-02 0. -1.
</event>
<event>
 5   0  0.2769394E-02  0.7868346E+03  0.7818609E-02  0.9579271E-01
       -1   -1    0    0    0  501  0.00000000000E+00  0.00000000000E+00  0.26175001687E+03  0.26175001692E+03  0.50400001928E-02 0. -1.
        1   -1    0    0  501    0  0.00000000000E+00  0.00000000000E+00 -0.59131678518E+03  0.59131678520E+03  0.50400001928E-02 0.  1.
    10030    2    1    2    0    0  0.00000000000E+00  0.00000000000E+00 -0.32956676831E+03  0.85306680212E+03  0.78683461674E+03 0.  0.
        2    1    3    3  502    0 -0.21271345111E+03  0.32981250679E+03 -0.13501538007E+03  0.41503307672E+03  0.25500000920E-02 0. -1.
       -2    1    3    3    0  502  0.21271345111E+03 -0.32981250679E+03 -0.19455138824E+03  0.43803372540E+03  0.25500000920E-02 0.  1.
</event>
<event>
 5   0  0.4377843E-02  0.8191355E+03  0.7818609E-02  0.9532725E-01
       -2   -1    0    0    0  501  0.00000000000E+00  0.00000000000E+00  0.27681675927E+03  0.27681675928E+03  0.25500000920E-02 0. -1.
        2   -1    0    0  501    0  0.00000000000E+00  0.00000000000E+00 -0.60598122801E+03  0.60598122801E+03  0.25500000920E-02 0.  1.
    10030    2    1    2    0    0  0.00000000000E+00  0.00000000000E+00 -0.32916446874E+03  0.88279798729E+03  0.81913554366E+03 0.  0.
        2    1    3    3  502    0  0.25419442725E+03 -0.81165782490E+02  0.17027995518E+03  0.31654060440E+03  0.25500000920E-02 0. -1.
       -2    1    3    3    0  502 -0.25419442725E+03  0.81165782490E+02 -0.49944442392E+03  0.56625738289E+03  0.25500000920E-02 0.  1.
</event>
<event>
 5   0  0.4377843E-02  0.8023448E+03  0.7818609E-02  0.9556629E-01
       -2   -1    0    0    0  501  0.00000000000E+00  0.00000000000E+00  0.59338889445E+03  0.59338889446E+03  0.25500000920E-02 0.  1.
        2   -1    0    0  501    0  0.00000000000E+00  0.00000000000E+00 -0.27122061928E+03  0.27122061929E+03  0.25500000920E-02 0. -1.
    10030    2    1    2    0    0  0.00000000000E+00  0.00000000000E+00  0.32216827517E+03  0.86460951375E+03  0.80234482222E+03 0.  0.
        2    1    3    3  502    0  0.26741936096E+03  0.69294326725E+02  0.47456207116E+03  0.54911199015E+03  0.25500000920E-02 0.  1.
       -2    1    3    3    0  502 -0.26741936096E+03 -0.69294326725E+02 -0.15239379599E+03  0.31549752360E+03  0.25500000920E-02 0. -1.
</event>
<event>
 5   0  0.1786500E-02  0.6917719E+03  0.7818609E-02  0.9731408E-01
        4   -1    0    0  501    0  0.00000000000E+00  0.00000000000E+00  0.70184622050E+03  0.70184736954E+03  0.12699999809E+01 0.  1.
       -4   -1    0    0    0  501  0.00000000000E+00  0.00000000000E+00 -0.17045688917E+03  0.17046162021E+03  0.12699999809E+01 0. -1.
    10030    2    1    2    0    0  0.00000000000E+00  0.00000000000E+00  0.53138933133E+03  0.87230898975E+03  0.69177189314E+03 0.  0.
        4    1    3    3  502    0  0.31177227550E+03 -0.14975619657E+03  0.26893539249E+03  0.43812866651E+03  0.12699999809E+01 0. -1.
       -4    1    3    3    0  502 -0.31177227550E+03  0.14975619657E+03  0.26245393884E+03  0.43418032324E+03  0.12699999809E+01 0.  1.
</event>
<event>
 5   0  0.4684283E-02  0.7874857E+03  0.7818609E-02  0.9578310E-01
       -2   -1    0    0    0  501  0.00000000000E+00  0.00000000000E+00  0.20440256272E+03  0.20440256274E+03  0.25500000920E-02 0. -1.
        2   -1    0    0  501    0  0.00000000000E+00  0.00000000000E+00 -0.75847103722E+03  0.75847103722E+03  0.25500000920E-02 0.  1.
    10030    2    1    2    0    0  0.00000000000E+00  0.00000000000E+00 -0.55406847450E+03  0.96287359996E+03  0.78748567928E+03 0.  0.
        1    1    3    3  502    0 -0.16545212308E+03  0.19656421009E+03 -0.64185045949E+03  0.69136380155E+03  0.50400001928E-02 0.  1.
       -1    1    3    3    0  502  0.16545212308E+03 -0.19656421009E+03  0.87781984991E+02  0.27150979841E+03  0.50400001928E-02 0. -1.
</event>
<event>
 5   0  0.2759559E-02  0.8443685E+03  0.7818609E-02  0.9497927E-01
       -1   -1    0    0    0  501  0.00000000000E+00  0.00000000000E+00  0.31789027719E+03  0.31789027723E+03  0.50400001928E-02 0. -1.
        1   -1    0    0  501    0  0.00000000000E+00  0.00000000000E+00 -0.56069519170E+03  0.56069519173E+03  0.50400001928E-02 0.  1.
    10030    2    1    2    0    0  0.00000000000E+00  0.00000000000E+00 -0.24280491451E+03  0.87858546896E+03  0.84436852129E+03 0.  0.
        3    1    3    3  502    0 -0.34036844627E+03  0.22101826245E+03 -0.24247841613E+03  0.47275315339E+03  0.10100000352E+00 0.  1.
       -3    1    3    3    0  502  0.34036844627E+03 -0.22101826245E+03 -0.32649838492E+00  0.40583231556E+03  0.10100000352E+00 0. -1.
</event>
<event>
 5   0  0.4700220E-02  0.8240759E+03  0.7818609E-02  0.9525807E-01
       -2   -1    0    0    0  501  0.00000000000E+00  0.00000000000E+00  0.12859802273E+03  0.12859802275E+03  0.25500000920E-02 0. -1.
        2   -1    0    0  501    0  0.00000000000E+00  0.00000000000E+00 -0.13202013161E+04  0.13202013161E+04  0.25500000920E-02 0.  1.
    10030    2    1    2    0    0  0.00000000000E+00  0.00000000000E+00 -0.11916032934E+04  0.14487993389E+04  0.82407591612E+03 0.  0.
        4    1    3    3  502    0 -0.23263602180E+03  0.14859879863E+03 -0.11335947600E+04  0.11667218239E+04  0.12699999809E+01 0.  1.
       -4    1    3    3    0  502  0.23263602180E+03 -0.14859879863E+03 -0.58008533376E+02  0.28207751495E+03  0.12699999809E+01 0. -1.
</event>
<event>
 5   0  0.4663634E-02  0.7958669E+03  0.7818609E-02  0.9566019E-01
        2   -1    0    0  501    0  0.00000000000E+00  0.00000000000E+00  0.23087744535E+04  0.23087744535E+04  0.25500000920E-02 0.  1.
       -2   -1    0    0    0  501  0.00000000000E+00  0.00000000000E+00 -0.68586609878E+02  0.68586609926E+02  0.25500000920E-02 0. -1.
    10030    2    1    2    0    0  0.00000000000E+00  0.00000000000E+00  0.22401878436E+04  0.23773610634E+04  0.79586685519E+03 0.  0.
        5    1    3    3  502    0 -0.34894983068E+03 -0.26877285102E+02  0.55458161570E+03  0.65579816350E+03  0.46999998093E+01 0. -1.
       -5    1    3    3    0  502  0.34894983068E+03  0.26877285102E+02  0.16856062279E+04  0.17215628999E+04  0.46999998093E+01 0.  1.
</event>
<event>
 5   0  0.4590462E-02  0.7789905E+03  0.7818609E-02  0.9590935E-01
        2   -1    0    0  501    0  0.00000000000E+00  0.00000000000E+00  0.31235455338E+03  0.31235455339E+03  0.25500000920E-02 0.  1.
       -2   -1    0    0    0  501  0.00000000000E+00  0.00000000000E+00 -0.48568703335E+03  0.48568703336E+03  0.25500000920E-02 0. -1.
    10030    2    1    2    0    0  0.00000000000E+00  0.00000000000E+00 -0.17333247997E+03  0.79804158674E+03  0.77899051699E+03 0.  0.
        3    1    3    3  502    0 -0.37778646859E+03 -0.78316134568E+02 -0.31970324435E+02  0.38714098805E+03  0.10100000352E+00 0.  1.
       -3    1    3    3    0  502  0.37778646859E+03  0.78316134568E+02 -0.14136215554E+03  0.41090059869E+03  0.10100000352E+00 0. -1.
</event>
<event>
 5   0  0.2635243E-02  0.8331940E+03  0.7818609E-02  0.9513175E-01
       -1   -1    0    0    0  501  0.00000000000E+00  0.00000000000E+00  0.31436834088E+03  0.31436834092E+03  0.50400001928E-02 0. -1.
        1   -1    0    0  501    0  0.00000000000E+00  0.00000000000E+00 -0.55206915036E+03  0.55206915038E+03  0.50400001928E-02 0.  1.
    10030    2    1    2    0    0  0.00000000000E+00  0.00000000000E+00 -0.23770080948E+03  0.86643749130E+03  0.83319400592E+03 0.  0.
        1    1    3    3  502    0  0.16330538928E+03 -0.10051602278E+03 -0.50344563535E+03  0.53872964350E+03  0.50400001928E-02 0.  1.
       -1    1    3    3    0  502 -0.16330538928E+03  0.10051602278E+03  0.26574482588E+03  0.32770784780E+03  0.50400001928E-02 0. -1.
</event>
<event>
 5   0  0.1786500E-02  0.8300629E+03  0.7818609E-02  0.9517494E-01
        4   -1    0    0  501    0  0.00000000000E+00  0.00000000000E+00  0.87384655159E+03  0.87384747446E+03  0.12699999809E+01 0. -1.
       -4   -1    0    0    0  501  0.00000000000E+00  0.00000000000E+00 -0.19711518308E+03  0.19711927430E+03  0.12699999809E+01 0.  1.
    10030    2    1    2    0    0  0.00000000000E+00  0.00000000000E+00  0.67673136851E+03  0.10709667488E+04  0.83006290835E+03 0.  0.
        3    1    3    3  502    0 -0.25002703167E+03  0.19146261358E+03  0.68715502586E+03  0.75587928185E+03  0.10100000352E+00 0. -1.
       -3    1    3    3    0  502  0.25002703167E+03 -0.19146261358E+03 -0.10423657356E+02  0.31508746690E+03  0.10100000352E+00 0.  1.
</event>
<event>
 5   0  0.2769394E-02  0.8098615E+03  0.7818609E-02  0.9545852E-01
       -1   -1    0    0    0  501  0.00000000000E+00  0.00000000000E+00  0.15336636632E+03  0.15336636641E+03  0.50400001928E-02 0. -1.
        1   -1    0    0  501    0  0.00000000000E+00  0.00000000000E+00 -0.10691321972E+04  0.10691321973E+04  0.50400001928E-02 0.  1.
    10030    2    1    2    0    0  0.00000000000E+00  0.00000000000E+00 -0.91576583093E+03  0.12224985637E+04  0.80986151969E+03 0.  0.
        2    1    3    3  502    0  0.16918462085E+03 -0.25763963621E+03 -0.85430625190E+03  0.90820745985E+03  0.25500000920E-02 0.  1.
       -2    1    3    3    0  502 -0.16918462085E+03  0.25763963621E+03 -0.61459579021E+02  0.31429110382E+03  0.25500000920E-02 0. -1.
</event>
<event>
 5   0  0.4377843E-02  0.6967952E+03  0.7818609E-02  0.9722728E-01
       -2   -1    0    0    0  501  0.00000000000E+00  0.00000000000E+00  0.14253411026E+03  0.14253411028E+03  0.25500000920E-02 0.  1.
        2   -1    0    0  501    0  0.00000000000E+00  0.00000000000E+00 -0.85159196351E+03  0.85159196351E+03  0.25500000920E-02 0. -1.
    10030    2    1    2    0    0  0.00000000000E+00  0.00000000000E+00 -0.70905785324E+03  0.99412607379E+03  0.69679524349E+03 0.  0.
        2    1    3    3  502    0 -0.26367209761E+03 -0.15736506809E+03 -0.58937005461E+03  0.66456286459E+03  0.25500000920E-02 0. -1.
       -2    1    3    3    0  502  0.26367209761E+03  0.15736506809E+03 -0.11968779863E+03  0.32956320920E+03  0.25500000920E-02 0.  1.
</event>
<event>
 5   0  0.4700220E-02  0.8226772E+03  0.7818609E-02  0.9527761E-01
       -2   -1    0    0    0  501  0.00000000000E+00  0.00000000000E+00  0.10881776137E+03  0.10881776140E+03  0.25500000920E-02 0. -1.
        2   -1    0    0  501    0  0.00000000000E+00  0.00000000000E+00 -0.15548882009E+04  0.15548882009E+04  0.25500000920E-02 0.  1.
    10030    2    1    2    0    0  0.00000000000E+00  0.00000000000E+00 -0.14460704395E+04  0.16637059623E+04  0.82267722281E+03 0.  0.
        4    1    3    3  502    0  0.11041419669E+03  0.37777796476E+03 -0.96478640173E+03  0.10419797980E+04  0.12699999809E+01 0. -1.
       -4    1    3    3    0  502 -0.11041419669E+03 -0.37777796476E+03 -0.48128403776E+03  0.62172616432E+03  0.12699999809E+01 0.  1.
</event>
<event>
 5   0  0.4663634E-02  0.8001562E+03  0.7818609E-02  0.9559791E-01
        2   -1    0    0  501    0  0.00000000000E+00  0.00000000000E+00  0.72435218717E+03  0.72435218717E+03  0.25500000920E-02 0.  1.
       -2   -1    0    0    0  501  0.00000000000E+00  0.00000000000E+00 -0.22097327163E+03  0.22097327164E+03  0.25500000920E-02 0. -1.
    10030    2    1    2    0    0  0.00000000000E+00  0.00000000000E+00  0.50337891554E+03  0.94532545882E+03  0.80015616630E+03 0.  0.
        5    1    3    3  502    0 -0.91225703363E+02  0.33706614108E+03  0.21070130300E+02  0.34985961871E+03  0.46999998093E+01 0. -1.
       -5    1    3    3    0  502  0.91225703363E+02 -0.33706614108E+03  0.48230878524E+03  0.59546584011E+03  0.46999998093E+01 0.  1.
</event>
<event>
 5   0  0.2689372E-02  0.8372342E+03  0.7818609E-02  0.9507633E-01
        1   -1    0    0  501    0  0.00000000000E+00  0.00000000000E+00  0.56376800017E+03  0.56376800019E+03  0.50400001928E-02 0. -1.
       -1   -1    0    0    0  501  0.00000000000E+00  0.00000000000E+00 -0.31083754137E+03  0.31083754141E+03  0.50400001928E-02 0.  1.
    10030    2    1    2    0    0  0.00000000000E+00  0.00000000000E+00  0.25293045880E+03  0.87460554160E+03  0.83723415865E+03 0.  0.
        4    1    3    3  502    0 -0.29889717933E+03 -0.15151674408E+03  0.38854582101E+03  0.51309484063E+03  0.12699999809E+01 0. -1.
       -4    1    3    3    0  502  0.29889717933E+03  0.15151674408E+03 -0.13561536221E+03  0.36151070097E+03  0.12699999809E+01 0.  1.
</event>
<event>
 5   0  0.2689372E-02  0.9156257E+03  0.7818609E-02  0.9406257E-01
        1   -1    0    0  501    0  0.00000000000E+00  0.00000000000E+00  0.98155368643E+03  0.98155368644E+03  0.50400001928E-02 0.  1.
       -1   -1    0    0    0  501  0.00000000000E+00  0.00000000000E+00 -0.21353147490E+03  0.21353147496E+03  0.50400001928E-02 0. -1.
    10030    2    1    2    0    0  0.00000000000E+00  0.00000000000E+00  0.76802221153E+03  0.11950851614E+04  0.91562570170E+03 0.  0.
        4    1    3    3  502    0  0.25518580152E+03 -0.37992169254E+03  0.36908895091E+03  0.58795284874E+03  0.12699999809E+01 0. -1.
       -4    1    3    3    0  502 -0.25518580152E+03  0.37992169254E+03  0.39893326062E+03  0.60713231267E+03  0.12699999809E+01 0.  1.
</event>
<event>
 5   0  0.4377843E-02  0.7994752E+03  0.7818609E-02  0.9560777E-01
        2   -1    0    0  501    0  0.00000000000E+00  0.00000000000E+00  0.92440482772E+03  0.92440482773E+03  0.25500000920E-02 0. -1.
       -2   -1    0    0    0  501  0.00000000000E+00  0.00000000000E+00 -0.17285731484E+03  0.17285731486E+03  0.25500000920E-02 0.  1.
    10030    2    1    2    0    0  0.00000000000E+00  0.00000000000E+00  0.75154751289E+03  0.10972621426E+04  0.79947516874E+03 0.  0.
        2    1    3    3  502    0  0.30889150479E+03 -0.14371953246E+03  0.66275255754E+03  0.74519139708E+03  0.25500000920E-02 0. -1.
       -2    1    3    3    0  502 -0.30889150479E+03  0.14371953246E+03  0.88794955341E+02  0.35207074551E+03  0.25500000920E-02 0.  1.
</event>
<event>
 5   0  0.4684283E-02  0.7843067E+03  0.7818609E-02  0.9583014E-01
        2   -1    0    0  501    0  0.00000000000E+00  0.00000000000E+00  0.31013613774E+03  0.31013613775E+03  0.25500000920E-02 0. -1.
       -2   -1    0    0    0  501  0.00000000000E+00  0.00000000000E+00 -0.49586047946E+03  0.49586047947E+03  0.25500000920E-02 0.  1.
    10030    2    1    2    0    0  0.00000000000E+00  0.00000000000E+00 -0.18572434172E+03  0.80599661722E+03  0.78430671033E+03 0.  0.
        1    1    3    3  502    0 -0.57348363052E+02 -0.22493853187E+03  0.23194518081E+03  0.32815353844E+03  0.50400001928E-02 0. -1.
       -1    1    3    3    0  502  0.57348363052E+02  0.22493853187E+03 -0.41766952252E+03  0.47784307878E+03  0.50400001928E-02 0.  1.
</event>
<event>
 5   0  0.4684283E-02  0.7746205E+03  0.7818609E-02  0.9597497E-01
        2   -1    0    0  501    0  0.00000000000E+00  0.00000000000E+00  0.11542201667E+04  0.11542201667E+04  0.25500000920E-02 0. -1.
       -2   -1    0    0    0  501  0.00000000000E+00  0.00000000000E+00 -0.12996586656E+03  0.12996586658E+03  0.25500000920E-02 0.  1.
    10030    2    1    2    0    0  0.00000000000E+00  0.00000000000E+00  0.10242543002E+04  0.12841860333E+04  0.77462048561E+03 0.  0.
        1    1    3    3  502    0  0.22562681598E+03  0.27671692194E+03  0.76096407705E+03  0.84056293136E+03  0.50400001928E-02 0. -1.
       -1    1    3    3    0  502 -0.22562681598E+03 -0.27671692194E+03  0.26329022312E+03  0.44362310196E+03  0.50400001928E-02 0.  1.
</event>
<event>
 5   0  0.2769394E-02  0.8075730E+03  0.7818609E-02  0.9549120E-01
        1   -1    0    0  501    0  0.00000000000E+00  0.00000000000E+00  0.14424506273E+04  0.14424506273E+04  0.50400001928E-02 0. -1.
       -1   -1    0    0    0  501  0.00000000000E+00  0.00000000000E+00 -0.11303232768E+03  0.11303232780E+03  0.50400001928E-02 0.  1.
    10030    2    1    2    0    0  0.00000000000E+00  0.00000000000E+00  0.13294182996E+04  0.15554829551E+04  0.80757303588E+03 0.  0.
        2    1    3    3  502    0  0.54610456781E+02  0.11615827483E+03  0.14021102413E+04  0.14079730734E+04  0.25500000920E-02 0. -1.
       -2    1    3    3    0  502 -0.54610456781E+02 -0.11615827483E+03 -0.72691941664E+02  0.14750988167E+03  0.25500000920E-02 0.  1.
</event>
<event>
 5   0  0.4663634E-02  0.7841155E+03  0.7818609E-02  0.9583298E-01
       -2   -1    0    0    0  501  0.00000000000E+00  0.00000000000E+00  0.25529491569E+03  0.25529491570E+03  0.25500000920E-02 0. -1.
        2   -1    0    0  501    0  0.00000000000E+00  0.00000000000E+00 -0.60208508640E+03  0.60208508641E+03  0.25500000920E-02 0.  1.
    10030    2    1    2    0    0  0.00000000000E+00  0.00000000000E+00 -0.34679017072E+03  0.85738000211E+03  0.78411545420E+03 0.  0.
        5    1    3    3  502    0  0.17980201324E+02 -0.37722520131E+03 -0.28841410411E+03  0.47521250572E+03  0.46999998093E+01 0.  1.
       -5    1    3    3    0  502 -0.17980201324E+02  0.37722520131E+03 -0.58376066603E+02  0.38216749639E+03  0.46999998093E+01 0. -1.
</event>
<event>
 5   0  0.2689372E-02  0.7885322E+03  0.7818609E-02  0.9576766E-01
        1   -1    0    0  501    0  0.00000000000E+00  0.00000000000E+00  0.15887867526E+04  0.15887867526E+04  0.50400001928E-02 0.  1.
       -1   -1    0    0    0  501  0.00000000000E+00  0.00000000000E+00 -0.97839273090E+02  0.97839273220E+02  0.50400001928E-02 0. -1.
    10030    2    1    2    0    0  0.00000000000E+00  0.00000000000E+00  0.14909474795E+04  0.16866260258E+04  0.78853215809E+03 0.  0.
        4    1    3    3  502    0  0.27193289402E+03  0.46776041431E+02  0.14310889805E+03  0.31083318115E+03  0.12699999809E+01 0. -1.
       -4    1    3    3    0  502 -0.27193289402E+03 -0.46776041431E+02  0.13478385814E+04  0.13757928447E+04  0.12699999809E+01 0.  1.
</event>
<event>
 5   0  0.2635243E-02  0.7986303E+03  0.7818609E-02  0.9562002E-01
        1   -1    0    0  501    0  0.00000000000E+00  0.00000000000E+00  0.95551395234E+03  0.95551395236E+03  0.50400001928E-02 0. -1.
       -1   -1    0    0    0  501  0.00000000000E+00  0.00000000000E+00 -0.16687627415E+03  0.16687627422E+03  0.50400001928E-02 0.  1.
    10030    2    1    2    0    0  0.00000000000E+00  0.00000000000E+00  0.78863767820E+03  0.11223902266E+04  0.79863034832E+03 0.  0.
        1    1    3    3  502    0 -0.29922051450E+02 -0.20426333407E+03  0.87469590057E+03  0.89872785497E+03  0.50400001928E-02 0. -1.
       -1    1    3    3    0  502  0.29922051450E+02  0.20426333407E+03 -0.86058222372E+02  0.22366237161E+03  0.50400001928E-02 0.  1.
</event>
<event>
 5   0  0.2635243E-02  0.7332682E+03  0.7818609E-02  0.9661972E-01
        1   -1    0    0  501    0  0.00000000000E+00  0.00000000000E+00  0.11605272033E+04  0.11605272034E+04  0.50400001928E-02 0.  1.
       -1   -1    0    0    0  501  0.00000000000E+00  0.00000000000E+00 -0.11582715754E+03  0.11582715765E+03  0.50400001928E-02 0. -1.
    10030    2    1    2    0    0  0.00000000000E+00  0.00000000000E+00  0.10447000458E+04  0.12763543610E+04  0.73326821092E+03 0.  0.
        1    1    3    3  502    0  0.54584774331E+02 -0.36205837422E+03  0.55513706616E+03  0.66501347819E+03  0.50400001928E-02 0. -1.
       -1    1    3    3    0  502 -0.54584774331E+02  0.36205837422E+03  0.48956297965E+03  0.61134088281E+03  0.50400001928E-02 0.  1.
</event>
<event>
 5   0  0.2769394E-02  0.6432205E+03  0.7818609E-02  0.9819584E-01
       -1   -1    0    0    0  501  0.00000000000E+00  0.00000000000E+00  0.16975140123E+03  0.16975140130E+03  0.50400001928E-02 0. -1.
        1   -1    0    0  501    0  0.00000000000E+00  0.00000000000E+00 -0.60932129060E+03  0.60932129062E+03  0.50400001928E-02 0.  1.
    10030    2    1    2    0    0  0.00000000000E+00  0.00000000000E+00 -0.43956988937E+03  0.77907269192E+03  0.64322046893E+03 0.  0.
        2    1    3    3  502    0  0.18641217301E+03  0.25854161617E+03 -0.16783171337E+03  0.36022319408E+03  0.25500000920E-02 0.  1.
       -2    1    3    3    0  502 -0.18641217301E+03 -0.25854161617E+03 -0.27173817600E+03  0.41884949784E+03  0.25500000920E-02 0. -1.
</event>
<event>
 5   0  0.1786500E-02  0.7638847E+03  0.7818609E-02  0.9613816E-01
       -3   -1    0    0    0  501  0.00000000000E+00  0.00000000000E+00  0.13134268673E+03  0.13134272557E+03  0.10100000352E+00 0. -1.
        3   -1    0    0  501    0  0.00000000000E+00  0.00000000000E+00 -0.11106818625E+04  0.11106818671E+04  0.10100000352E+00 0.  1.
    10030    2    1    2    0    0  0.00000000000E+00  0.00000000000E+00 -0.97933917580E+03  0.12420245927E+04  0.76388472141E+03 0.  0.
        3    1    3    3  502    0  0.17459533609E+03  0.15654324081E+03  0.51759338340E+00  0.23449860497E+03  0.10100000352E+00 0. -1.
       -3    1    3    3    0  502 -0.17459533609E+03 -0.15654324081E+03 -0.97985676918E+03  0.10075259877E+04  0.10100000352E+00 0.  1.
</event>
<event>
 5   0  0.2635243E-02  0.7529979E+03  0.7818609E-02  0.9630659E-01
       -1   -1    0    0    0  501  0.00000000000E+00  0.00000000000E+00  0.21613580607E+03  0.21613580613E+03  0.50400001928E-02 0.  1.
        1   -1    0    0  501    0  0.00000000000E+00  0.00000000000E+00 -0.65584445227E+03  0.65584445229E+03  0.50400001928E-02 0. -1.
    10030    2    1    2    0    0  0.00000000000E+00  0.00000000000E+00 -0.43970864620E+03  0.87198025842E+03  0.75299792664E+03 0.  0.
        1    1    3    3  502    0 -0.20224142146E+03  0.22624540883E+03 -0.47791918458E+03  0.56612306488E+03  0.50400001928E-02 0. -1.
       -1    1    3    3    0  502  0.20224142146E+03 -0.22624540883E+03  0.38210538377E+02  0.30585719354E+03  0.50400001928E-02 0.  1.
</event>
<event>
 5   0  0.4590462E-02  0.4438905E+03  0.7818609E-02  0.1029560E+00
       -2   -1    0    0    0  501  0.00000000000E+00  0.00000000000E+00  0.31380369141E+03  0.31380369142E+03  0.25500000920E-02 0.  1.
        2   -1    0    0  501    0  0.00000000000E+00  0.00000000000E+00 -0.15697616954E+03  0.15697616956E+03  0.25500000920E-02 0. -1.
    10030    2    1    2    0    0  0.00000000000E+00  0.00000000000E+00  0.15682752188E+03  0.47077986098E+03  0.44389053368E+03 0.  0.
        3    1    3    3  502    0 -0.20763674638E+03 -0.58506950238E+02  0.13376335255E+03  0.25382814336E+03  0.10100000352E+00 0.  1.
       -3    1    3    3    0  502  0.20763674638E+03  0.58506950238E+02  0.23064169323E+02  0.21695171763E+03  0.10100000352E+00 0. -1.
</event>
<event>
 5   0  0.2759559E-02  0.8027759E+03  0.7818609E-02  0.9556008E-01
       -1   -1    0    0    0  501  0.00000000000E+00  0.00000000000E+00  0.32892265042E+03  0.32892265046E+03  0.50400001928E-02 0.  1.
        1   -1    0    0  501    0  0.00000000000E+00  0.00000000000E+00 -0.48981812142E+03  0.48981812145E+03  0.50400001928E-02 0. -1.
    10030    2    1    2    0    0  0.00000000000E+00  0.00000000000E+00 -0.16089547100E+03  0.81874077191E+03  0.80277587096E+03 0.  0.
        3    1    3    3  502    0  0.21322415017E+03  0.32043177750E+03 -0.19660388953E+03  0.43219690169E+03  0.10100000352E+00 0. -1.
       -3    1    3    3    0  502 -0.21322415017E+03 -0.32043177750E+03  0.35708418524E+02  0.38654387022E+03  0.10100000352E+00 0.  1.
</event>
<event>
 5   0  0.4700220E-02  0.8155379E+03  0.7818609E-02  0.9537795E-01
        2   -1    0    0  501    0  0.00000000000E+00  0.00000000000E+00  0.93704589474E+03  0.93704589474E+03  0.25500000920E-02 0.  1.
       -2   -1    0    0    0  501  0.00000000000E+00  0.00000000000E+00 -0.17744652033E+03  0.17744652035E+03  0.25500000920E-02 0. -1.
    10030    2    1    2    0    0  0.00000000000E+00  0.00000000000E+00  0.75959937441E+03  0.11144924151E+04  0.81553794130E+03 0.  0.
        4    1    3    3  502    0  0.36717290100E+03 -0.10342023273E+03  0.18288866978E+03  0.42303848785E+03  0.12699999809E+01 0.  1.
       -4    1    3    3    0  502 -0.36717290100E+03  0.10342023273E+03  0.57671070463E+03  0.69145392725E+03  0.12699999809E+01 0. -1.
</event>
<event>
 5   0  0.4590462E-02  0.8034834E+03  0.7818609E-02  0.9554989E-01
        2   -1    0    0  501    0  0.00000000000E+00  0.00000000000E+00  0.12262126581E+04  0.12262126581E+04  0.25500000920E-02 0. -1.
       -2   -1    0    0    0  501  0.00000000000E+00  0.00000000000E+00 -0.13162185995E+03  0.13162185998E+03  0.25500000920E-02 0.  1.
    10030    2    1    2    0    0  0.00000000000E+00  0.00000000000E+00  0.10945907981E+04  0.13578345180E+04  0.80348339316E+03 0.  0.
        3    1    3    3  502    0  0.39723844416E+03 -0.59608022864E+02  0.53597376164E+03  0.66979055030E+03  0.10100000352E+00 0.  1.
       -3    1    3    3    0  502 -0.39723844416E+03  0.59608022864E+02  0.55861703647E+03  0.68804396774E+03  0.10100000352E+00 0. -1.
</event>
<event>
 5   0  0.4377843E-02  0.8107218E+03  0.7818609E-02  0.9544626E-01
        2   -1    0    0  501    0  0.00000000000E+00  0.00000000000E+00  0.11768007364E+04  0.11768007364E+04  0.25500000920E-02 0.  1.
       -2   -1    0    0    0  501  0.00000000000E+00  0.00000000000E+00 -0.13963064635E+03  0.13963064638E+03  0.25500000920E-02 0. -1.
    10030    2    1    2    0    0  0.00000000000E+00  0.00000000000E+00  0.10371700900E+04  0.13164313828E+04  0.81072177093E+03 0.  0.
        2    1    3    3  502    0  0.17272913252E+03  0.21316158290E+03  0.34045427593E+02  0.27646393037E+03  0.25500000920E-02 0. -1.
       -2    1    3    3    0  502 -0.17272913252E+03 -0.21316158290E+03  0.10031246624E+04  0.10399674524E+04  0.25500000920E-02 0.  1.
</event>
<event>
 5   0  0.2606520E-02  0.8143893E+03  0.7818609E-02  0.9539420E-01
        1   -1    0    0  501    0  0.00000000000E+00  0.00000000000E+00  0.38673507261E+03  0.38673507264E+03  0.50400001928E-02 0. -1.
       -1   -1    0    0    0  501  0.00000000000E+00  0.00000000000E+00 -0.42873655893E+03  0.42873655896E+03  0.50400001928E-02 0.  1.
    10030    2    1    2    0    0  0.00000000000E+00  0.00000000000E+00 -0.42001486326E+02  0.81547163160E+03  0.81438925404E+03 0.  0.
        5    1    3    3  502    0 -0.23555058178E+02 -0.13942019494E+03  0.36133462832E+03  0.38804334183E+03  0.46999998093E+01 0. -1.
       -5    1    3    3    0  502  0.23555058178E+02  0.13942019494E+03 -0.40333611464E+03  0.42742828977E+03  0.46999998093E+01 0.  1.
</event>
<event>
 5   0  0.2635243E-02  0.7974871E+03  0.7818609E-02  0.9563662E-01
        1   -1    0    0  501    0  0.00000000000E+00  0.00000000000E+00  0.16835952527E+04  0.16835952527E+04  0.50400001928E-02 0. -1.
       -1   -1    0    0    0  501  0.00000000000E+00  0.00000000000E+00 -0.94438612205E+02  0.94438612340E+02  0.50400001928E-02 0.  1.
    10030    2    1    2    0    0  0.00000000000E+00  0.00000000000E+00  0.15891566405E+04  0.17780338650E+04  0.79748705145E+03 0.  0.
        1    1    3    3  502    0  0.30067831090E+03 -0.20860966691E+03  0.44155624318E+03  0.57349573293E+03  0.50400001928E-02 0. -1.
       -1    1    3    3    0  502 -0.30067831090E+03  0.20860966691E+03  0.11476003973E+04  0.12045381321E+04  0.50400001928E-02 0.  1.
</event>
<event>
 5   0  0.4700220E-02  0.8031632E+03  0.7818609E-02  0.9555450E-01
        2   -1    0    0  501    0  0.00000000000E+00  0.00000000000E+00  0.94343295441E+03  0.94343295441E+03  0.25500000920E-02 0.  1.
       -2   -1    0    0    0  501  0.00000000000E+00  0.00000000000E+00 -0.17093717674E+03  0.17093717676E+03  0.25500000920E-02 0. -1.
    10030    2    1    2    0    0  0.00000000000E+00  0.00000000000E+00  0.77249577767E+03  0.11143701312E+04  0.80316316072E+03 0.  0.
        4    1    3    3  502    0 -0.12844694904E+03  0.24814795942E+03  0.78643359228E+03  0.83459896744E+03  0.12699999809E+01 0.  1.
       -4    1    3    3    0  502  0.12844694904E+03 -0.24814795942E+03 -0.13937814609E+02  0.27977116374E+03  0.12699999809E+01 0. -1.
</event>
<event>
 5   0  0.4700220E-02  0.7952736E+03  0.7818609E-02  0.9566884E-01
        2   -1    0    0  501    0  0.00000000000E+00  0.00000000000E+00  0.10733094982E+04  0.10733094982E+04  0.25500000920E-02 0. -1.
       -2   -1    0    0    0  501  0.00000000000E+00  0.00000000000E+00 -0.14731539654E+03  0.14731539656E+03  0.25500000920E-02 0.  1.
    10030    2    1    2    0    0  0.00000000000E+00  0.00000000000E+00  0.92599410170E+03  0.12206248948E+04  0.79527357396E+03 0.  0.
        4    1    3    3  502    0  0.38763251605E+01  0.66561555289E+02  0.10646655845E+04  0.10667520266E+04  0.12699999809E+01 0. -1.
       -4    1    3    3    0  502 -0.38763251605E+01 -0.66561555289E+02 -0.13867148278E+03  0.15387286822E+03  0.12699999809E+01 0.  1.
</event>
<event>
 5   0  0.1786500E-02  0.8063307E+03  0.7818609E-02  0.9550899E-01
        4   -1    0    0  501    0  0.00000000000E+00  0.00000000000E+00  0.41059290689E+03  0.41059487099E+03  0.12699999809E+01 0.  1.
       -4   -1    0    0    0  501  0.00000000000E+00  0.00000000000E+00 -0.39586823292E+03  0.39587027008E+03  0.12699999809E+01 0. -1.
    10030    2    1    2    0    0  0.00000000000E+00  0.00000000000E+00  0.14724673970E+02  0.80646514107E+03  0.80633070619E+03 0.  0.
        2    1    3    3  502    0  0.41607657160E+02 -0.31030172300E+03  0.26142032781E+03  0.40787123487E+03  0.25500000920E-02 0.  1.
       -2    1    3    3    0  502 -0.41607657160E+02  0.31030172300E+03 -0.24669565384E+03  0.39859390620E+03  0.25500000920E-02 0. -1.
</event>
<event>
 5   0  0.4590462E-02  0.8131508E+03  0.7818609E-02  0.9541175E-01
       -2   -1    0    0    0  501  0.00000000000E+00  0.00000000000E+00  0.38432457267E+03  0.38432457268E+03  0.25500000920E-02 0.  1.
        2   -1    0    0  501    0  0.00000000000E+00  0.00000000000E+00 -0.43011442768E+03  0.43011442769E+03  0.25500000920E-02 0. -1.
    10030    2    1    2    0    0  0.00000000000E+00  0.00000000000E+00 -0.45789855003E+02  0.81443900037E+03  0.81315076984E+03 0.  0.
        3    1    3    3  502    0  0.89952962834E+02  0.71723129533E+02 -0.41347142156E+03  0.42917871508E+03  0.10100000352E+00 0. -1.
       -3    1    3    3    0  502 -0.89952962834E+02 -0.71723129533E+02  0.36768156656E+03  0.38526028529E+03  0.10100000352E+00 0.  1.
</event>
<event>
 5   0  0.4700220E-02  0.8196046E+03  0.7818609E-02  0.9532066E-01
        2   -1    0    0  501    0  0.00000000000E+00  0.00000000000E+00  0.10278229493E+04  0.10278229493E+04  0.25500000920E-02 0. -1.
       -2   -1    0    0    0  501  0.00000000000E+00  0.00000000000E+00 -0.16339189231E+03  0.16339189233E+03  0.25500000920E-02 0.  1.
    10030    2    1    2    0    0  0.00000000000E+00  0.00000000000E+00  0.86443105699E+03  0.11912148416E+04  0.81960462823E+03 0.  0.
        4    1    3    3  502    0  0.11518055774E+03 -0.73554322889E+02  0.99372452692E+03  0.10030786846E+04  0.12699999809E+01 0. -1.
       -4    1    3    3    0  502 -0.11518055774E+03  0.73554322889E+02 -0.12929346993E+03  0.18813615698E+03  0.12699999809E+01 0.  1.
</event>
<event>
 5   0  0.1786500E-02  0.7260056E+03  0.7818609E-02  0.9673764E-01
        3   -1    0    0  501    0  0.00000000000E+00  0.00000000000E+00  0.12931240317E+03  0.12931244261E+03  0.10100000352E+00 0.  1.
       -3   -1    0    0    0  501  0.00000000000E+00  0.00000000000E+00 -0.10190130347E+04  0.10190130397E+04  0.10100000352E+00 0. -1.
    10030    2    1    2    0    0  0.00000000000E+00  0.00000000000E+00 -0.88970063156E+03  0.11483254823E+04  0.72600564708E+03 0.  0.
        5    1    3    3  502    0 -0.10035224665E+03 -0.42899240600E+02 -0.99239851525E+03  0.99839261882E+03  0.46999998093E+01 0. -1.
       -5    1    3    3    0  502  0.10035224665E+03  0.42899240600E+02  0.10269788368E+03  0.14993286352E+03  0.46999998093E+01 0.  1.
</event>
<event>
 5   0  0.2606520E-02  0.7921346E+03  0.7818609E-02  0.9571472E-01
        1   -1    0    0  501    0  0.00000000000E+00  0.00000000000E+00  0.80358111125E+03  0.80358111127E+03  0.50400001928E-02 0. -1.
       -1   -1    0    0    0  501  0.00000000000E+00  0.00000000000E+00 -0.19521276260E+03  0.19521276266E+03  0.50400001928E-02 0.  1.
    10030    2    1    2    0    0  0.00000000000E+00  0.00000000000E+00  0.60836834865E+03  0.99879387393E+03  0.79213455609E+03 0.  0.
        5    1    3    3  502    0  0.20715212492E+03 -0.52617092228E+02 -0.11621721767E+03  0.24332918636E+03  0.46999998093E+01 0.  1.
       -5    1    3    3    0  502 -0.20715212492E+03  0.52617092228E+02  0.72458556632E+03  0.75546468757E+03  0.46999998093E+01 0. -1.
</event>
<event>
 5   0  0.2769394E-02  0.7892745E+03  0.7818609E-02  0.9575673E-01
       -1   -1    0    0    0  501  0.00000000000E+00  0.00000000000E+00  0.35740605231E+03  0.35740605235E+03  0.50400001928E-02 0. -1.
        1   -1    0    0  501    0  0.00000000000E+00  0.00000000000E+00 -0.43574687769E+03  0.43574687772E+03  0.50400001928E-02 0.  1.
    10030    2    1    2    0    0  0.00000000000E+00  0.00000000000E+00 -0.78340825373E+02  0.79315293007E+03  0.78927453117E+03 0.  0.
        2    1    3    3  502    0  0.70099036594E+02 -0.81278318852E+02 -0.42079766309E+03  0.43427032286E+03  0.25500000920E-02 0.  1.
       -2    1    3    3    0  502 -0.70099036594E+02  0.81278318852E+02  0.34245683772E+03  0.35888260721E+03  0.25500000920E-02 0. -1.
</event>
<event>
 5   0  0.1786500E-02  0.8129176E+03  0.7818609E-02  0.9541505E-01
       -3   -1    0    0    0  501  0.00000000000E+00  0.00000000000E+00  0.85357466249E+03  0.85357466846E+03  0.10100000352E+00 0.  1.
        3   -1    0    0  501    0  0.00000000000E+00  0.00000000000E+00 -0.19354926343E+03  0.19354928978E+03  0.10100000352E+00 0. -1.
    10030    2    1    2    0    0  0.00000000000E+00  0.00000000000E+00  0.66002539906E+03  0.10471239582E+04  0.81291761976E+03 0.  0.
        3    1    3    3  502    0  0.51724138479E+02  0.34181970833E+03  0.60535615201E+03  0.69711704934E+03  0.10100000352E+00 0.  1.
       -3    1    3    3    0  502 -0.51724138479E+02 -0.34181970833E+03  0.54669247057E+02  0.35000690890E+03  0.10100000352E+00 0. -1.
</event>
<event>
 5   0  0.4700220E-02  0.7965407E+03  0.7818609E-02  0.9565038E-01
        2   -1    0    0  501    0  0.00000000000E+00  0.00000000000E+00  0.13699615871E+04  0.13699615871E+04  0.25500000920E-02 0. -1.
       -2   -1    0    0    0  501  0.00000000000E+00  0.00000000000E+00 -0.11578372749E+03  0.11578372752E+03  0.25500000920E-02 0.  1.
    10030    2    1    2    0    0  0.00000000000E+00  0.00000000000E+00  0.12541778596E+04  0.14857453146E+04  0.79654066839E+03 0.  0.
        4    1    3    3  502    0  0.12341302059E+03  0.19445010798E+03  0.12331537489E+04  0.12544765440E+04  0.12699999809E+01 0. -1.
       -4    1    3    3    0  502 -0.12341302059E+03 -0.19445010798E+03  0.21024110741E+02  0.23126877065E+03  0.12699999809E+01 0.  1.
</event>
<event>
 5   0  0.4590462E-02  0.8789771E+03  0.7818609E-02  0.9452249E-01
        2   -1    0    0  501    0  0.00000000000E+00  0.00000000000E+00  0.10649527771E+04  0.10649527771E+04  0.25500000920E-02 0.  1.
       -2   -1    0    0    0  501  0.00000000000E+00  0.00000000000E+00 -0.18136972732E+03  0.18136972734E+03  0.25500000920E-02 0. -1.
    10030    2    1    2    0    0  0.00000000000E+00  0.00000000000E+00  0.88358304978E+03  0.12463225044E+04  0.87897712100E+03 0.  0.
        3    1    3    3  502    0  0.17547935412E+03 -0.39122346107E+03  0.30504173667E+03  0.52621219249E+03  0.10100000352E+00 0. -1.
       -3    1    3    3    0  502 -0.17547935412E+03  0.39122346107E+03  0.57854131311E+03  0.72011031196E+03  0.10100000352E+00 0.  1.
</event>
<event>
 5   0  0.2606520E-02  0.7784763E+03  0.7818609E-02  0.9591705E-01
        1   -1    0    0  501    0  0.00000000000E+00  0.00000000000E+00  0.81861428125E+03  0.81861428127E+03  0.50400001928E-02 0. -1.
       -1   -1    0    0    0  501  0.00000000000E+00  0.00000000000E+00 -0.18507660108E+03  0.18507660115E+03  0.50400001928E-02 0.  1.
    10030    2    1    2    0    0  0.00000000000E+00  0.00000000000E+00  0.63353768017E+03  0.10036908824E+04  0.77847632929E+03 0.  0.
        5    1    3    3  502    0  0.21146838124E+03  0.49205708881E+02 -0.99705917514E+02  0.23896325667E+03  0.46999998093E+01 0.  1.
       -5    1    3    3    0  502 -0.21146838124E+03 -0.49205708881E+02  0.73324359768E+03  0.76472762575E+03  0.46999998093E+01 0. -1.
</event>
<event>
 5   0  0.4377843E-02  0.8062087E+03  0.7818609E-02  0.9551074E-01
        2   -1    0    0  501    0  0.00000000000E+00  0.00000000000E+00  0.10449710522E+04  0.10449710522E+04  0.25500000920E-02 0. -1.
       -2   -1    0    0    0  501  0.00000000000E+00  0.00000000000E+00 -0.15550009711E+03  0.15550009713E+03  0.25500000920E-02 0.  1.
    10030    2    1    2    0    0  0.00000000000E+00  0.00000000000E+00  0.88947095506E+03  0.12004711493E+04  0.80620865812E+03 0.  0.
        2    1    3    3  502    0  0.17495473802E+03 -0.35042673508E+03  0.30280758140E+03  0.49507624501E+03  0.25500000920E-02 0. -1.
       -2    1    3    3    0  502 -0.17495473802E+03  0.35042673508E+03  0.58666337366E+03  0.70539490430E+03  0.25500000920E-02 0.  1.
</event>
<event>
 5   0  0.4700220E-02  0.7857825E+03  0.7818609E-02  0.9580827E-01
       -2   -1    0    0    0  501  0.00000000000E+00  0.00000000000E+00  0.13982981721E+03  0.13982981724E+03  0.25500000920E-02 0.  1.
        2   -1    0    0  501    0  0.00000000000E+00  0.00000000000E+00 -0.11039385520E+04  0.11039385520E+04  0.25500000920E-02 0. -1.
    10030    2    1    2    0    0  0.00000000000E+00  0.00000000000E+00 -0.96410873476E+03  0.12437683692E+04  0.78578247868E+03 0.  0.
        4    1    3    3  502    0  0.11172926626E+03 -0.30870187656E+03 -0.82367534692E+03  0.88669214926E+03  0.12699999809E+01 0. -1.
       -4    1    3    3    0  502 -0.11172926626E+03  0.30870187656E+03 -0.14043338784E+03  0.35707621995E+03  0.12699999809E+01 0.  1.
</event>
<event>
 5   0  0.2635243E-02  0.7721526E+03  0.7818609E-02  0.9601223E-01
        1   -1    0    0  501    0  0.00000000000E+00  0.00000000000E+00  0.13972133627E+04  0.13972133627E+04  0.50400001928E-02 0. -1.
       -1   -1    0    0    0  501  0.00000000000E+00  0.00000000000E+00 -0.10668014484E+03  0.10668014496E+03  0.50400001928E-02 0.  1.
    10030    2    1    2    0    0  0.00000000000E+00  0.00000000000E+00  0.12905332178E+04  0.15038935076E+04  0.77215263776E+03 0.  0.
        1    1    3    3  502    0  0.51269669362E+02 -0.31040768987E+03  0.10810970026E+04  0.11259450440E+04  0.50400001928E-02 0. -1.
       -1    1    3    3    0  502 -0.51269669362E+02  0.31040768987E+03  0.20943621520E+03  0.37794846367E+03  0.50400001928E-02 0.  1.
</event>
<event>
 5   0  0.4377843E-02  0.8015537E+03  0.7818609E-02  0.9557771E-01
       -2   -1    0    0    0  501  0.00000000000E+00  0.00000000000E+00  0.10453936493E+03  0.10453936497E+03  0.25500000920E-02 0.  1.
        2   -1    0    0  501    0  0.00000000000E+00  0.00000000000E+00 -0.15364747942E+04  0.15364747942E+04  0.25500000920E-02 0. -1.
    10030    2    1    2    0    0  0.00000000000E+00  0.00000000000E+00 -0.14319354292E+04  0.16410141591E+04  0.80155373930E+03 0.  0.
        2    1    3    3  502    0 -0.37117313582E+03  0.63992703273E+02 -0.99636098299E+03  0.10651759344E+04  0.25500000920E-02 0. -1.
       -2    1    3    3    0  502  0.37117313582E+03 -0.63992703273E+02 -0.43557444624E+03  0.57583822472E+03  0.25500000920E-02 0.  1.
</event>
<event>
 5   0  0.2606520E-02  0.8086274E+03  0.7818609E-02  0.9547613E-01
       -1   -1    0    0    0  501  0.00000000000E+00  0.00000000000E+00  0.13032962038E+03  0.13032962048E+03  0.50400001928E-02 0.  1.
        1   -1    0    0  501    0  0.00000000000E+00  0.00000000000E+00 -0.12542777866E+04  0.12542777866E+04  0.50400001928E-02 0. -1.
    10030    2    1    2    0    0  0.00000000000E+00  0.00000000000E+00 -0.11239481662E+04  0.13846074071E+04  0.80862735015E+03 0.  0.
        5    1    3    3  502    0  0.27145786648E+03  0.66572000354E+02 -0.61801868399E+02  0.28629139953E+03  0.46999998093E+01 0.  1.
       -5    1    3    3    0  502 -0.27145786648E+03 -0.66572000354E+02 -0.10621462978E+04  0.10983160075E+04  0.46999998093E+01 0. -1.
</event>
<event>
 5   0  0.1786500E-02  0.7814882E+03  0.7818609E-02  0.9587206E-01
       -3   -1    0    0    0  501  0.00000000000E+00  0.00000000000E+00  0.44493535571E+03  0.44493536717E+03  0.10100000352E+00 0. -1.
        3   -1    0    0  501    0  0.00000000000E+00  0.00000000000E+00 -0.34315306779E+03  0.34315308266E+03  0.10100000352E+00 0.  1.
    10030    2    1    2    0    0  0.00000000000E+00  0.00000000000E+00  0.10178228791E+03  0.78808844983E+03  0.78148817689E+03 0.  0.
        1    1    3    3  502    0 -0.99292561519E+02 -0.37590351750E+03  0.90187875436E+02  0.39911943092E+03  0.50400001928E-02 0.  1.
       -1    1    3    3    0  502  0.99292561519E+02  0.37590351750E+03  0.11594412479E+02  0.38896901890E+03  0.50400001928E-02 0. -1.
</event>
<event>
 5   0  0.2635243E-02  0.7793006E+03  0.7818609E-02  0.9590472E-01
       -1   -1    0    0    0  501  0.00000000000E+00  0.00000000000E+00  0.26266521205E+03  0.26266521210E+03  0.50400001928E-02 0. -1.
        1   -1    0    0  501    0  0.00000000000E+00  0.00000000000E+00 -0.57802608783E+03  0.57802608785E+03  0.50400001928E-02 0.  1.
    10030    2    1    2    0    0  0.00000000000E+00  0.00000000000E+00 -0.31536087578E+03  0.84069129995E+03  0.77930057092E+03 0.  0.
        1    1    3    3  502    0 -0.15822569913E+03 -0.22001032944E+03 -0.45971369502E+03  0.53364463676E+03  0.50400001928E-02 0.  1.
       -1    1    3    3    0  502  0.15822569913E+03  0.22001032944E+03  0.14435281924E+03  0.30704666319E+03  0.50400001928E-02 0. -1.
</event>
<event>
 5   0  0.4663634E-02  0.8033856E+03  0.7818609E-02  0.9555130E-01
        2   -1    0    0  501    0  0.00000000000E+00  0.00000000000E+00  0.20947790554E+04  0.20947790554E+04  0.25500000920E-02 0. -1.
       -2   -1    0    0    0  501  0.00000000000E+00  0.00000000000E+00 -0.77028214124E+02  0.77028214166E+02  0.25500000920E-02 0.  1.
    10030    2    1    2    0    0  0.00000000000E+00  0.00000000000E+00  0.20177508413E+04  0.21718072696E+04  0.80338556041E+03 0.  0.
        5    1    3    3  502    0  0.28430400981E+03 -0.20157810803E+03  0.15486767784E+04  0.15874143622E+04  0.46999998093E+01 0. -1.
       -5    1    3    3    0  502 -0.28430400981E+03  0.20157810803E+03  0.46907406292E+03  0.58439290733E+03  0.46999998093E+01 0.  1.
</event>
<event>
 5   0  0.2606520E-02  0.7907800E+03  0.7818609E-02  0.9573459E-01
        1   -1    0    0  501    0  0.00000000000E+00  0.00000000000E+00  0.90143663382E+03  0.90143663384E+03  0.50400001928E-02 0.  1.
       -1   -1    0    0    0  501  0.00000000000E+00  0.00000000000E+00 -0.17342676337E+03  0.17342676344E+03  0.50400001928E-02 0. -1.
    10030    2    1    2    0    0  0.00000000000E+00  0.00000000000E+00  0.72800987045E+03  0.10748633973E+04  0.79077996392E+03 0.  0.
        5    1    3    3  502    0  0.93860865461E+02  0.30261668737E+03  0.42566070372E+02  0.31971969268E+03  0.46999998093E+01 0. -1.
       -5    1    3    3    0  502 -0.93860865461E+02 -0.30261668737E+03  0.68544380008E+03  0.75514370461E+03  0.46999998093E+01 0.  1.
</event>
<event>
 5   0  0.4590462E-02  0.6777698E+03  0.7818609E-02  0.9756023E-01
       -2   -1    0    0    0  501  0.00000000000E+00  0.00000000000E+00  0.18686767746E+03  0.18686767748E+03  0.25500000920E-02 0. -1.
        2   -1    0    0  501    0  0.00000000000E+00  0.00000000000E+00 -0.61456846631E+03  0.61456846631E+03  0.25500000920E-02 0.  1.
    10030    2    1    2    0    0  0.00000000000E+00  0.00000000000E+00 -0.42770078885E+03  0.80143614379E+03  0.67776981918E+03 0.  0.
        3    1    3    3  502    0  0.31143257103E+03 -0.71109142795E+02 -0.34761076625E+03  0.47210169614E+03  0.10100000352E+00 0.  1.
       -3    1    3    3    0  502 -0.31143257103E+03  0.71109142795E+02 -0.80090022597E+02  0.32933444765E+03  0.10100000352E+00 0. -1.
</event>
<event>
 5   0  0.2635243E-02  0.8687523E+03  0.7818609E-02  0.9465508E-01
        1   -1    0    0  501    0  0.00000000000E+00  0.00000000000E+00  0.17128269478E+04  0.17128269478E+04  0.50400001928E-02 0. -1.
       -1   -1    0    0    0  501  0.00000000000E+00  0.00000000000E+00 -0.11015860935E+03  0.11015860947E+03  0.50400001928E-02 0.  1.
    10030    2    1    2    0    0  0.00000000000E+00  0.00000000000E+00  0.16026683385E+04  0.18229855573E+04  0.86875228861E+03 0.  0.
        1    1    3    3  502    0  0.47978351826E+02  0.13072700664E+03  0.16647189910E+04  0.16705330860E+04  0.50400001928E-02 0. -1.
       -1    1    3    3    0  502 -0.47978351826E+02 -0.13072700664E+03 -0.62050652484E+02  0.15245247131E+03  0.50400001928E-02 0.  1.
</event>
<event>
 5   0  0.2759559E-02  0.8502811E+03  0.7818609E-02  0.9489960E-01
        1   -1    0    0  501    0  0.00000000000E+00  0.00000000000E+00  0.18783024730E+03  0.18783024737E+03  0.50400001928E-02 0. -1.
       -1   -1    0    0    0  501  0.00000000000E+00  0.00000000000E+00 -0.96227561225E+03  0.96227561226E+03  0.50400001928E-02 0.  1.
    10030    2    1    2    0    0  0.00000000000E+00  0.00000000000E+00 -0.77444536495E+03  0.11501058596E+04  0.85028105064E+03 0.  0.
        3    1    3    3  502    0  0.41020887688E+02  0.16257158164E+03 -0.91566602555E+03  0.93089017232E+03  0.10100000352E+00 0.  1.
       -3    1    3    3    0  502 -0.41020887688E+02 -0.16257158164E+03  0.14122066060E+03  0.21921568731E+03  0.10100000352E+00 0. -1.
</event>
<event>
 5   0  0.4590462E-02  0.7288377E+03  0.7818609E-02  0.9669148E-01
        2   -1    0    0  501    0  0.00000000000E+00  0.00000000000E+00  0.99137581863E+03  0.99137581864E+03  0.25500000920E-02 0. -1.
       -2   -1    0    0    0  501  0.00000000000E+00  0.00000000000E+00 -0.13395636217E+03  0.13395636219E+03  0.25500000920E-02 0.  1.
    10030    2    1    2    0    0  0.00000000000E+00  0.00000000000E+00  0.85741945646E+03  0.11253321808E+04  0.72883769997E+03 0.  0.
        3    1    3    3  502    0 -0.13438179726E+03 -0.33317896394E+03  0.33435574397E+03  0.49077536936E+03  0.10100000352E+00 0. -1.
       -3    1    3    3    0  502  0.13438179726E+03  0.33317896394E+03  0.52306371250E+03  0.63455681147E+03  0.10100000352E+00 0.  1.
</event>
<event>
 5   0  0.4663634E-02  0.8058661E+03  0.7818609E-02  0.9551565E-01
        2   -1    0    0  501    0  0.00000000000E+00  0.00000000000E+00  0.69060839481E+03  0.69060839482E+03  0.25500000920E-02 0. -1.
       -2   -1    0    0    0  501  0.00000000000E+00  0.00000000000E+00 -0.23508987346E+03  0.23508987347E+03  0.25500000920E-02 0.  1.
    10030    2    1    2    0    0  0.00000000000E+00  0.00000000000E+00  0.45551852135E+03  0.92569826829E+03  0.80586609348E+03 0.  0.
        5    1    3    3  502    0  0.84423178888E+02  0.26374387856E+03 -0.10840936455E+03  0.29742694385E+03  0.46999998093E+01 0.  1.
       -5    1    3    3    0  502 -0.84423178888E+02 -0.26374387856E+03  0.56392788591E+03  0.62827132444E+03  0.46999998093E+01 0. -1.
</event>
<event>
 5   0  0.4663634E-02  0.7982237E+03  0.7818609E-02  0.9562592E-01
        2   -1    0    0  501    0  0.00000000000E+00  0.00000000000E+00  0.14293819380E+04  0.14293819380E+04  0.25500000920E-02 0.  1.
       -2   -1    0    0    0  501  0.00000000000E+00  0.00000000000E+00 -0.11143995648E+03  0.11143995651E+03  0.25500000920E-02 0. -1.
    10030    2    1    2    0    0  0.00000000000E+00  0.00000000000E+00  0.13179419815E+04  0.15408218945E+04  0.79822368040E+03 0.  0.
        5    1    3    3  502    0 -0.13215773556E+03 -0.33418420204E+03  0.32394384782E+03  0.48384548619E+03  0.46999998093E+01 0. -1.
       -5    1    3    3    0  502  0.13215773556E+03  0.33418420204E+03  0.99399813372E+03  0.10569764083E+04  0.46999998093E+01 0.  1.
</event>
<event>
 5   0  0.2689372E-02  0.7589492E+03  0.7818609E-02  0.9621414E-01
       -1   -1    0    0    0  501  0.00000000000E+00  0.00000000000E+00  0.51260596518E+03  0.51260596520E+03  0.50400001928E-02 0.  1.
        1   -1    0    0  501    0  0.00000000000E+00  0.00000000000E+00 -0.28091943576E+03  0.28091943580E+03  0.50400001928E-02 0. -1.
    10030    2    1    2    0    0  0.00000000000E+00  0.00000000000E+00  0.23168652942E+03  0.79352540101E+03  0.75894921709E+03 0.  0.
        4    1    3    3  502    0  0.30136519370E+03  0.43995985148E+02  0.35252474857E+03  0.46586686718E+03  0.12699999809E+01 0.  1.
       -4    1    3    3    0  502 -0.30136519370E+03 -0.43995985148E+02 -0.12083821915E+03  0.32765853383E+03  0.12699999809E+01 0. -1.
</event>
<event>
 5   0  0.2606520E-02  0.7876683E+03  0.7818609E-02  0.9578040E-01
        1   -1    0    0  501    0  0.00000000000E+00  0.00000000000E+00  0.29736752825E+03  0.29736752829E+03  0.50400001928E-02 0. -1.
       -1   -1    0    0    0  501  0.00000000000E+00  0.00000000000E+00 -0.52159471633E+03  0.52159471635E+03  0.50400001928E-02 0.  1.
    10030    2    1    2    0    0  0.00000000000E+00  0.00000000000E+00 -0.22422718808E+03  0.81896224464E+03  0.78766828442E+03 0.  0.
        5    1    3    3  502    0 -0.30768237011E+03  0.17220115524E+03 -0.29447155171E+03  0.45940969026E+03  0.46999998093E+01 0.  1.
       -5    1    3    3    0  502  0.30768237011E+03 -0.17220115524E+03  0.70244363632E+02  0.35955255438E+03  0.46999998093E+01 0. -1.
</event>
<event>
 5   0  0.2689372E-02  0.8007903E+03  0.7818609E-02  0.9558874E-01
       -1   -1    0    0    0  501  0.00000000000E+00  0.00000000000E+00  0.32170926934E+03  0.32170926938E+03  0.50400001928E-02 0. -1.
        1   -1    0    0  501    0  0.00000000000E+00  0.00000000000E+00 -0.49832656327E+03  0.49832656330E+03  0.50400001928E-02 0.  1.
    10030    2    1    2    0    0  0.00000000000E+00  0.00000000000E+00 -0.17661729394E+03  0.82003583268E+03  0.80079029612E+03 0.  0.
        4    1    3    3  502    0  0.85470908195E+02  0.22611907845E+03  0.23854815917E+03  0.33962030406E+03  0.12699999809E+01 0. -1.
       -4    1    3    3    0  502 -0.85470908195E+02 -0.22611907845E+03 -0.41516545310E+03  0.48041552862E+03  0.12699999809E+01 0.  1.
</event>
<event>
 5   0  0.2635243E-02  0.8130879E+03  0.7818609E-02  0.9541264E-01
        1   -1    0    0  501    0  0.00000000000E+00  0.00000000000E+00  0.44581000051E+03  0.44581000054E+03  0.50400001928E-02 0.  1.
       -1   -1    0    0    0  501  0.00000000000E+00  0.00000000000E+00 -0.37073637938E+03  0.37073637941E+03  0.50400001928E-02 0. -1.
    10030    2    1    2    0    0  0.00000000000E+00  0.00000000000E+00  0.75073621135E+02  0.81654637995E+03  0.81308790547E+03 0.  0.
        1    1    3    3  502    0  0.32789917541E+03  0.23075487700E+03  0.10499621202E+03  0.41447543601E+03  0.50400001928E-02 0.  1.
       -1    1    3    3    0  502 -0.32789917541E+03 -0.23075487700E+03 -0.29922590880E+02  0.40207094394E+03  0.50400001928E-02 0. -1.
</event>
<event>
 5   0  0.1786500E-02  0.8444718E+03  0.7818609E-02  0.9497787E-01
       -3   -1    0    0    0  501  0.00000000000E+00  0.00000000000E+00  0.70744008976E+03  0.70744009697E+03  0.10100000352E+00 0. -1.
        3   -1    0    0  501    0  0.00000000000E+00  0.00000000000E+00 -0.25201163793E+03  0.25201165817E+03  0.10100000352E+00 0.  1.
    10030    2    1    2    0    0  0.00000000000E+00  0.00000000000E+00  0.45542845183E+03  0.95945175514E+03  0.84447178503E+03 0.  0.
        3    1    3    3  502    0  0.31826612895E+03  0.27662849027E+03  0.20317514132E+03  0.46807776995E+03  0.10100000352E+00 0.  1.
       -3    1    3    3    0  502 -0.31826612895E+03 -0.27662849027E+03  0.25225331051E+03  0.49137398520E+03  0.10100000352E+00 0. -1.
</event>
<event>
 5   0  0.2689372E-02  0.8027813E+03  0.7818609E-02  0.9556000E-01
       -1   -1    0    0    0  501  0.00000000000E+00  0.00000000000E+00  0.67171444972E+03  0.67171444974E+03  0.50400001928E-02 0.  1.
        1   -1    0    0  501    0  0.00000000000E+00  0.00000000000E+00 -0.23985558994E+03  0.23985559000E+03  0.50400001928E-02 0. -1.
    10030    2    1    2    0    0  0.00000000000E+00  0.00000000000E+00  0.43185885978E+03  0.91157003973E+03  0.80278132924E+03 0.  0.
        4    1    3    3  502    0  0.23904846434E+03 -0.28616840083E+03  0.47213447028E+02  0.37585535039E+03  0.12699999809E+01 0. -1.
       -4    1    3    3    0  502 -0.23904846434E+03  0.28616840083E+03  0.38464541275E+03  0.53571468935E+03  0.12699999809E+01 0.  1.
</event>
<event>
 5   0  0.4663634E-02  0.7933236E+03  0.7818609E-02  0.9569731E-01
        2   -1    0    0  501    0  0.00000000000E+00  0.00000000000E+00  0.36031139047E+03  0.36031139048E+03  0.25500000920E-02 0. -1.
       -2   -1    0    0    0  501  0.00000000000E+00  0.00000000000E+00 -0.43667948611E+03  0.43667948611E+03  0.25500000920E-02 0.  1.
    10030    2    1    2    0    0  0.00000000000E+00  0.00000000000E+00 -0.76368095631E+02  0.79699087660E+03  0.79332362334E+03 0.  0.
        5    1    3    3  502    0 -0.25465570585E+03  0.26781520227E+03 -0.18287758338E+03  0.41236005091E+03  0.46999998093E+01 0. -1.
       -5    1    3    3    0  502  0.25465570585E+03 -0.26781520227E+03  0.10650948775E+03  0.38463082568E+03  0.46999998093E+01 0.  1.
</event>
<event>
 5   0  0.4663634E-02  0.7889609E+03  0.7818609E-02  0.9576135E-01
        2   -1    0    0  501    0  0.00000000000E+00  0.00000000000E+00  0.52426923706E+03  0.52426923707E+03  0.25500000920E-02 0.  1.
       -2   -1    0    0    0  501  0.00000000000E+00  0.00000000000E+00 -0.29682235767E+03  0.29682235769E+03  0.25500000920E-02 0. -1.
    10030    2    1    2    0    0  0.00000000000E+00  0.00000000000E+00  0.22744687939E+03  0.82109159475E+03  0.78896091414E+03 0.  0.
        5    1    3    3  502    0 -0.22548043507E+03  0.10727259524E+02 -0.22292544604E+03  0.31729220789E+03  0.46999998093E+01 0. -1.
       -5    1    3    3    0  502  0.22548043507E+03 -0.10727259524E+02  0.45037232543E+03  0.50379938686E+03  0.46999998093E+01 0.  1.
</event>
<event>
 5   0  0.4663634E-02  0.8069474E+03  0.7818609E-02  0.9550015E-01
       -2   -1    0    0    0  501  0.00000000000E+00  0.00000000000E+00  0.21824012552E+03  0.21824012553E+03  0.25500000920E-02 0.  1.
        2   -1    0    0  501    0  0.00000000000E+00  0.00000000000E+00 -0.74592626764E+03  0.74592626764E+03  0.25500000920E-02 0. -1.
    10030    2    1    2    0    0  0.00000000000E+00  0.00000000000E+00 -0.52768614212E+03  0.96416639317E+03  0.80694743890E+03 0.  0.
        5    1    3    3  502    0  0.29408839764E+03 -0.22157985076E+03 -0.46083939494E+03  0.58989885050E+03  0.46999998093E+01 0.  1.
       -5    1    3    3    0  502 -0.29408839764E+03  0.22157985076E+03 -0.66846747176E+02  0.37426754267E+03  0.46999998093E+01 0. -1.
</event>
<event>
 5   0  0.2635243E-02  0.8103022E+03  0.7818609E-02  0.9545224E-01
        1   -1    0    0  501    0  0.00000000000E+00  0.00000000000E+00  0.10450380765E+03  0.10450380777E+03  0.50400001928E-02 0. -1.
       -1   -1    0    0    0  501  0.00000000000E+00  0.00000000000E+00 -0.15707315044E+04  0.15707315044E+04  0.50400001928E-02 0.  1.
    10030    2    1    2    0    0  0.00000000000E+00  0.00000000000E+00 -0.14662276967E+04  0.16752353121E+04  0.81030222290E+03 0.  0.
        1    1    3    3  502    0  0.41377022963E+01  0.12206711619E+03  0.65536607823E+02  0.13860933744E+03  0.50400001928E-02 0. -1.
       -1    1    3    3    0  502 -0.41377022963E+01 -0.12206711619E+03 -0.15317643045E+04  0.15366259747E+04  0.50400001928E-02 0.  1.
</event>
<event>
 5   0  0.4684283E-02  0.9931180E+03  0.7818609E-02  0.9316125E-01
        2   -1    0    0  501    0  0.00000000000E+00  0.00000000000E+00  0.64760231620E+03  0.64760231621E+03  0.25500000920E-02 0.  1.
       -2   -1    0    0    0  501  0.00000000000E+00  0.00000000000E+00 -0.38074424311E+03  0.38074424312E+03  0.25500000920E-02 0. -1.
    10030    2    1    2    0    0  0.00000000000E+00  0.00000000000E+00  0.26685807309E+03  0.10283465593E+04  0.99311802668E+03 0.  0.
        1    1    3    3  502    0 -0.38299596110E+03 -0.13784582037E+03  0.42791767301E+03  0.59059369393E+03  0.50400001928E-02 0.  1.
       -1    1    3    3    0  502  0.38299596110E+03  0.13784582037E+03 -0.16105959992E+03  0.43775286540E+03  0.50400001928E-02 0. -1.
</event>
<event>
 5   0  0.4684283E-02  0.8334858E+03  0.7818609E-02  0.9512774E-01
       -2   -1    0    0    0  501  0.00000000000E+00  0.00000000000E+00  0.68313580607E+03  0.68313580607E+03  0.25500000920E-02 0. -1.
        2   -1    0    0  501    0  0.00000000000E+00  0.00000000000E+00 -0.25423149958E+03  0.25423149960E+03  0.25500000920E-02 0.  1.
    10030    2    1    2    0    0  0.00000000000E+00  0.00000000000E+00  0.42890430648E+03  0.93736730567E+03  0.83348578969E+03 0.  0.
        1    1    3    3  502    0 -0.30003804692E+03 -0.96251718754E+02  0.52118574667E+03  0.60903350114E+03  0.50400001928E-02 0. -1.
       -1    1    3    3    0  502  0.30003804692E+03  0.96251718754E+02 -0.92281440183E+02  0.32833380452E+03  0.50400001928E-02 0.  1.
</event>
<event>
 5   0  0.2759559E-02  0.7982351E+03  0.7818609E-02  0.9562575E-01
        1   -1    0    0  501    0  0.00000000000E+00  0.00000000000E+00  0.77293259526E+03  0.77293259527E+03  0.50400001928E-02 0. -1.
       -1   -1    0    0    0  501  0.00000000000E+00  0.00000000000E+00 -0.20609145199E+03  0.20609145205E+03  0.50400001928E-02 0.  1.
    10030    2    1    2    0    0  0.00000000000E+00  0.00000000000E+00  0.56684114327E+03  0.97902404732E+03  0.79823505531E+03 0.  0.
        3    1    3    3  502    0  0.22030089600E+03 -0.33218063347E+03  0.25833503225E+03  0.47498784945E+03  0.10100000352E+00 0.  1.
       -3    1    3    3    0  502 -0.22030089600E+03  0.33218063347E+03  0.30850611102E+03  0.50403619788E+03  0.10100000352E+00 0. -1.
</event>
<event>
 5   0  0.4700220E-02  0.8046705E+03  0.7818609E-02  0.9553281E-01
        2   -1    0    0  501    0  0.00000000000E+00  0.00000000000E+00  0.49109566404E+03  0.49109566405E+03  0.25500000920E-02 0.  1.
       -2   -1    0    0    0  501  0.00000000000E+00  0.00000000000E+00 -0.32961734336E+03  0.32961734337E+03  0.25500000920E-02 0. -1.
    10030    2    1    2    0    0  0.00000000000E+00  0.00000000000E+00  0.16147832069E+03  0.82071300742E+03  0.80467048690E+03 0.  0.
        4    1    3    3  502    0  0.35539176753E+02  0.25065203314E+03 -0.23819713565E+03  0.34760460747E+03  0.12699999809E+01 0. -1.
       -4    1    3    3    0  502 -0.35539176753E+02 -0.25065203314E+03  0.39967545634E+03  0.47310839995E+03  0.12699999809E+01 0.  1.
</event>
<event>
 5   0  0.2769394E-02  0.8229092E+03  0.7818609E-02  0.9527436E-01
        1   -1    0    0  501    0  0.00000000000E+00  0.00000000000E+00  0.11761738344E+04  0.11761738344E+04  0.50400001928E-02 0. -1.
       -1   -1    0    0    0  501  0.00000000000E+00  0.00000000000E+00 -0.14393696968E+03  0.14393696977E+03  0.50400001928E-02 0.  1.
    10030    2    1    2    0    0  0.00000000000E+00  0.00000000000E+00  0.10322368647E+04  0.13201108042E+04  0.82290922370E+03 0.  0.
        2    1    3    3  502    0 -0.13690248310E+03  0.10041099478E+02  0.11383572868E+04  0.11466038662E+04  0.25500000920E-02 0. -1.
       -2    1    3    3    0  502  0.13690248310E+03 -0.10041099478E+02 -0.10612042205E+03  0.17350693802E+03  0.25500000920E-02 0.  1.
</event>
<event>
 5   0  0.4377843E-02  0.7913278E+03  0.7818609E-02  0.9572655E-01
        2   -1    0    0  501    0  0.00000000000E+00  0.00000000000E+00  0.13756608589E+04  0.13756608589E+04  0.25500000920E-02 0.  1.
       -2   -1    0    0    0  501  0.00000000000E+00  0.00000000000E+00 -0.11379979410E+03  0.11379979413E+03  0.25500000920E-02 0. -1.
    10030    2    1    2    0    0  0.00000000000E+00  0.00000000000E+00  0.12618610648E+04  0.14894606531E+04  0.79132780192E+03 0.  0.
        2    1    3    3  502    0 -0.62129080330E+02  0.22066069578E+03  0.23933335397E+02  0.23048637668E+03  0.25500000920E-02 0. -1.
       -2    1    3    3    0  502  0.62129080330E+02 -0.22066069578E+03  0.12379277294E+04  0.12589742764E+04  0.25500000920E-02 0.  1.
</event>
<event>
 5   0  0.2635243E-02  0.7792615E+03  0.7818609E-02  0.9590530E-01
       -1   -1    0    0    0  501  0.00000000000E+00  0.00000000000E+00  0.86867009705E+02  0.86867009851E+02  0.50400001928E-02 0. -1.
        1   -1    0    0  501    0  0.00000000000E+00  0.00000000000E+00 -0.17476384040E+04  0.17476384040E+04  0.50400001928E-02 0.  1.
    10030    2    1    2    0    0  0.00000000000E+00  0.00000000000E+00 -0.16607713943E+04  0.18345054139E+04  0.77926150256E+03 0.  0.
        1    1    3    3  502    0  0.28811046998E+02 -0.11184978191E+02  0.83976844968E+02  0.89483465972E+02  0.50400001928E-02 0. -1.
       -1    1    3    3    0  502 -0.28811046998E+02  0.11184978191E+02 -0.17447482393E+04  0.17450219479E+04  0.50400001928E-02 0.  1.
</event>
<event>
 5   0  0.4377843E-02  0.7944650E+03  0.7818609E-02  0.9568064E-01
        2   -1    0    0  501    0  0.00000000000E+00  0.00000000000E+00  0.10954809662E+04  0.10954809662E+04  0.25500000920E-02 0.  1.
       -2   -1    0    0    0  501  0.00000000000E+00  0.00000000000E+00 -0.14404053418E+03  0.14404053421E+03  0.25500000920E-02 0. -1.
    10030    2    1    2    0    0  0.00000000000E+00  0.00000000000E+00  0.95144043206E+03  0.12395215005E+04  0.79446501139E+03 0.  0.
        2    1    3    3  502    0 -0.17244926242E+03  0.31924562365E+03  0.22348345490E+03  0.42614712359E+03  0.25500000920E-02 0. -1.
       -2    1    3    3    0  502  0.17244926242E+03 -0.31924562365E+03  0.72795697716E+03  0.81337437686E+03  0.25500000920E-02 0.  1.
</event>
<event>
 5   0  0.4663634E-02  0.7930535E+03  0.7818609E-02  0.9570127E-01
       -2   -1    0    0    0  501  0.00000000000E+00  0.00000000000E+00  0.16231117333E+03  0.16231117335E+03  0.25500000920E-02 0. -1.
        2   -1    0    0  501    0  0.00000000000E+00  0.00000000000E+00 -0.96871616505E+03  0.96871616505E+03  0.25500000920E-02 0.  1.
    10030    2    1    2    0    0  0.00000000000E+00  0.00000000000E+00 -0.80640499172E+03  0.11310273384E+04  0.79305348468E+03 0.  0.
        5    1    3    3  502    0 -0.28928952139E+03 -0.27051271546E+03 -0.42972350311E+03  0.58442273701E+03  0.46999998093E+01 0.  1.
       -5    1    3    3    0  502  0.28928952139E+03  0.27051271546E+03 -0.37668148860E+03  0.54660460140E+03  0.46999998093E+01 0. -1.
</event>
<event>
 5   0  0.4663634E-02  0.8239229E+03  0.7818609E-02  0.9526021E-01
       -2   -1    0    0    0  501  0.00000000000E+00  0.00000000000E+00  0.18882943608E+03  0.18882943610E+03  0.25500000920E-02 0.  1.
        2   -1    0    0  501    0  0.00000000000E+00  0.00000000000E+00 -0.89875937830E+03  0.89875937830E+03  0.25500000920E-02 0. -1.
    10030    2    1    2    0    0  0.00000000000E+00  0.00000000000E+00 -0.70992994221E+03  0.10875888144E+04  0.82392287647E+03 0.  0.
        5    1    3    3  502    0  0.17179820424E+03 -0.37184537184E+03 -0.29732810744E+03  0.50617160827E+03  0.46999998093E+01 0. -1.
       -5    1    3    3    0  502 -0.17179820424E+03  0.37184537184E+03 -0.41260183477E+03  0.58141720614E+03  0.46999998093E+01 0.  1.
</event>
<event>
 5   0  0.1786500E-02  0.8041506E+03  0.7818609E-02  0.9554029E-01
        4   -1    0    0  501    0  0.00000000000E+00  0.00000000000E+00  0.63376590848E+03  0.63376718095E+03  0.12699999809E+01 0. -1.
       -4   -1    0    0    0  501  0.00000000000E+00  0.00000000000E+00 -0.25508245883E+03  0.25508562033E+03  0.12699999809E+01 0.  1.
    10030    2    1    2    0    0  0.00000000000E+00  0.00000000000E+00  0.37868344965E+03  0.88885280128E+03  0.80415057502E+03 0.  0.
        4    1    3    3  502    0  0.11134595343E+03  0.19130659507E+03  0.56035583582E+03  0.60249183422E+03  0.12699999809E+01 0. -1.
       -4    1    3    3    0  502 -0.11134595343E+03 -0.19130659507E+03 -0.18167238617E+03  0.28636096706E+03  0.12699999809E+01 0.  1.
</event>
<event>
 5   0  0.2635243E-02  0.8009434E+03  0.7818609E-02  0.9558653E-01
        1   -1    0    0  501    0  0.00000000000E+00  0.00000000000E+00  0.61687294769E+03  0.61687294771E+03  0.50400001928E-02 0.  1.
       -1   -1    0    0    0  501  0.00000000000E+00  0.00000000000E+00 -0.25998475672E+03  0.25998475677E+03  0.50400001928E-02 0. -1.
    10030    2    1    2    0    0  0.00000000000E+00  0.00000000000E+00  0.35688819097E+03  0.87685770448E+03  0.80094335196E+03 0.  0.
        1    1    3    3  502    0 -0.34230883650E+03 -0.19810173268E+03  0.24731903366E+03  0.46646151018E+03  0.50400001928E-02 0. -1.
       -1    1    3    3    0  502  0.34230883650E+03  0.19810173268E+03  0.10956915730E+03  0.41039619430E+03  0.50400001928E-02 0.  1.
</event>
<event>
 5   0  0.2635243E-02  0.7770898E+03  0.7818609E-02  0.9593784E-01
        1   -1    0    0  501    0  0.00000000000E+00  0.00000000000E+00  0.31894779744E+03  0.31894779748E+03  0.50400001928E-02 0.  1.
       -1   -1    0    0    0  501  0.00000000000E+00  0.00000000000E+00 -0.47332868333E+03  0.47332868336E+03  0.50400001928E-02 0. -1.
    10030    2    1    2    0    0  0.00000000000E+00  0.00000000000E+00 -0.15438088589E+03  0.79227648084E+03  0.77708980444E+03 0.  0.
        1    1    3    3  502    0  0.28464523533E+03  0.23026033985E+03  0.55445821554E+02  0.37029309102E+03  0.50400001928E-02 0.  1.
       -1    1    3    3    0  502 -0.28464523533E+03 -0.23026033985E+03 -0.20982670745E+03  0.42198338982E+03  0.50400001928E-02 0. -1.
</event>
<event>
 5   0  0.2759559E-02  0.8035123E+03  0.7818609E-02  0.9554947E-01
        1   -1    0    0  501    0  0.00000000000E+00  0.00000000000E+00  0.62637568504E+03  0.62637568506E+03  0.50400001928E-02 0.  1.
       -1   -1    0    0    0  501  0.00000000000E+00  0.00000000000E+00 -0.25768562975E+03  0.25768562980E+03  0.50400001928E-02 0. -1.
    10030    2    1    2    0    0  0.00000000000E+00  0.00000000000E+00  0.36869005529E+03  0.88406131486E+03  0.80351232197E+03 0.  0.
        3    1    3    3  502    0  0.35568677338E+03  0.97744861699E+02  0.35949116117E+03  0.51507382374E+03  0.10100000352E+00 0.  1.
       -3    1    3    3    0  502 -0.35568677338E+03 -0.97744861699E+02  0.91988941236E+01  0.36898749112E+03  0.10100000352E+00 0. -1.
</event>
<event>
 5   0  0.4684283E-02  0.7772085E+03  0.7818609E-02  0.9593606E-01
       -2   -1    0    0    0  501  0.00000000000E+00  0.00000000000E+00  0.12914991274E+04  0.12914991274E+04  0.25500000920E-02 0. -1.
        2   -1    0    0  501    0  0.00000000000E+00  0.00000000000E+00 -0.11692866298E+03  0.11692866301E+03  0.25500000920E-02 0.  1.
    10030    2    1    2    0    0  0.00000000000E+00  0.00000000000E+00  0.11745704644E+04  0.14084277904E+04  0.77720850799E+03 0.  0.
        1    1    3    3  502    0  0.31308898986E+03  0.14861130547E+03  0.26871955647E+03  0.43854331113E+03  0.50400001928E-02 0.  1.
       -1    1    3    3    0  502 -0.31308898986E+03 -0.14861130547E+03  0.90585090790E+03  0.96988447923E+03  0.50400001928E-02 0. -1.
</event>
<event>
 5   0  0.2606520E-02  0.7473800E+03  0.7818609E-02  0.9639470E-01
       -1   -1    0    0    0  501  0.00000000000E+00  0.00000000000E+00  0.17051989899E+03  0.17051989907E+03  0.50400001928E-02 0.  1.
        1   -1    0    0  501    0  0.00000000000E+00  0.00000000000E+00 -0.81893206235E+03  0.81893206237E+03  0.50400001928E-02 0. -1.
    10030    2    1    2    0    0  0.00000000000E+00  0.00000000000E+00 -0.64841216336E+03  0.98945196143E+03  0.74737999063E+03 0.  0.
        5    1    3    3  502    0 -0.36717260421E+02  0.20665514932E+03  0.85062701660E+02  0.22652209863E+03  0.46999998093E+01 0.  1.
       -5    1    3    3    0  502  0.36717260421E+02 -0.20665514932E+03 -0.73347486502E+03  0.76292986281E+03  0.46999998093E+01 0. -1.
</event>
<event>
 5   0  0.4684283E-02  0.8211527E+03  0.7818609E-02  0.9529894E-01
        2   -1    0    0  501    0  0.00000000000E+00  0.00000000000E+00  0.22771015773E+04  0.22771015773E+04  0.25500000920E-02 0.  1.
       -2   -1    0    0    0  501  0.00000000000E+00  0.00000000000E+00 -0.74029614113E+02  0.74029614157E+02  0.25500000920E-02 0. -1.
    10030    2    1    2    0    0  0.00000000000E+00  0.00000000000E+00  0.22030719632E+04  0.23511311915E+04  0.82115272908E+03 0.  0.
        1    1    3    3  502    0 -0.37633015774E+03 -0.14481187930E+03  0.88015826895E+03  0.96812883773E+03  0.50400001928E-02 0. -1.
       -1    1    3    3    0  502  0.37633015774E+03  0.14481187930E+03  0.13229136943E+04  0.13830023537E+04  0.50400001928E-02 0.  1.
</event>
<event>
 5   0  0.4590462E-02  0.8115747E+03  0.7818609E-02  0.9543413E-01
       -2   -1    0    0    0  501  0.00000000000E+00  0.00000000000E+00  0.33982766276E+03  0.33982766277E+03  0.25500000920E-02 0.  1.
        2   -1    0    0  501    0  0.00000000000E+00  0.00000000000E+00 -0.48454965793E+03  0.48454965794E+03  0.25500000920E-02 0. -1.
    10030    2    1    2    0    0  0.00000000000E+00  0.00000000000E+00 -0.14472199517E+03  0.82437732071E+03  0.81157471068E+03 0.  0.
        3    1    3    3  502    0  0.12010304212E+03  0.13517073908E+03  0.29664295788E+03  0.34740887164E+03  0.10100000352E+00 0.  1.
       -3    1    3    3    0  502 -0.12010304212E+03 -0.13517073908E+03 -0.44136495305E+03  0.47696844907E+03  0.10100000352E+00 0. -1.
</event>
<event>
 5   0  0.4377843E-02  0.8052833E+03  0.7818609E-02  0.9552401E-01
        2   -1    0    0  501    0  0.00000000000E+00  0.00000000000E+00  0.49980972695E+03  0.49980972695E+03  0.25500000920E-02 0. -1.
       -2   -1    0    0    0  501  0.00000000000E+00  0.00000000000E+00 -0.32436403936E+03  0.32436403937E+03  0.25500000920E-02 0.  1.
    10030    2    1    2    0    0  0.00000000000E+00  0.00000000000E+00  0.17544568758E+03  0.82417376633E+03  0.80528330903E+03 0.  0.
        2    1    3    3  502    0 -0.32835526782E+03  0.22880733521E+03  0.42524408104E+02  0.40246528278E+03  0.25500000920E-02 0.  1.
       -2    1    3    3    0  502  0.32835526782E+03 -0.22880733521E+03  0.13292127948E+03  0.42170848355E+03  0.25500000920E-02 0. -1.
</event>
<event>
 5   0  0.2769394E-02  0.7974964E+03  0.7818609E-02  0.9563648E-01
        1   -1    0    0  501    0  0.00000000000E+00  0.00000000000E+00  0.12787564765E+04  0.12787564765E+04  0.50400001928E-02 0. -1.
       -1   -1    0    0    0  501  0.00000000000E+00  0.00000000000E+00 -0.12433963720E+03  0.12433963730E+03  0.50400001928E-02 0.  1.
    10030    2    1    2    0    0  0.00000000000E+00  0.00000000000E+00  0.11544168393E+04  0.14030961138E+04  0.79749637348E+03 0.  0.
        2    1    3    3  502    0 -0.33412913239E+03 -0.19985758208E+03  0.42571002835E+03  0.57690064870E+03  0.25500000920E-02 0.  1.
       -2    1    3    3    0  502  0.33412913239E+03  0.19985758208E+03  0.72870681095E+03  0.82619546510E+03  0.25500000920E-02 0. -1.
</event>
<event>
 5   0  0.4663634E-02  0.7572505E+03  0.7818609E-02  0.9624044E-01
       -2   -1    0    0    0  501  0.00000000000E+00  0.00000000000E+00  0.25529621236E+03  0.25529621237E+03  0.25500000920E-02 0.  1.
        2   -1    0    0  501    0  0.00000000000E+00  0.00000000000E+00 -0.56153231257E+03  0.56153231257E+03  0.25500000920E-02 0. -1.
    10030    2    1    2    0    0  0.00000000000E+00  0.00000000000E+00 -0.30623610021E+03  0.81682852494E+03  0.75725048042E+03 0.  0.
        5    1    3    3  502    0  0.29554580989E+03 -0.13135353312E+03 -0.36541169124E+03  0.48800499024E+03  0.46999998093E+01 0. -1.
       -5    1    3    3    0  502 -0.29554580989E+03  0.13135353312E+03  0.59175591023E+02  0.32882353471E+03  0.46999998093E+01 0.  1.
</event>
<event>
 5   0  0.1786500E-02  0.4138978E+03  0.7818609E-02  0.1039071E+00
        3   -1    0    0  501    0  0.00000000000E+00  0.00000000000E+00  0.61713882535E+02  0.61713965183E+02  0.10100000352E+00 0. -1.
       -3   -1    0    0    0  501  0.00000000000E+00  0.00000000000E+00 -0.69397385010E+03  0.69397385745E+03  0.10100000352E+00 0.  1.
    10030    2    1    2    0    0  0.00000000000E+00  0.00000000000E+00 -0.63225996756E+03  0.75568782263E+03  0.41389783605E+03 0.  0.
        2    1    3    3  502    0 -0.42823790320E+02  0.19939330966E+03 -0.25193387664E+03  0.32413307014E+03  0.25500000920E-02 0.  1.
       -2    1    3    3    0  502  0.42823790320E+02 -0.19939330966E+03 -0.38032609092E+03  0.43155475249E+03  0.25500000920E-02 0. -1.
</event>
<event>
 5   0  0.4663634E-02  0.8391902E+03  0.7818609E-02  0.9504961E-01
       -2   -1    0    0    0  501  0.00000000000E+00  0.00000000000E+00  0.28177886327E+03  0.28177886329E+03  0.25500000920E-02 0.  1.
        2   -1    0    0  501    0  0.00000000000E+00  0.00000000000E+00 -0.62481634873E+03  0.62481634873E+03  0.25500000920E-02 0. -1.
    10030    2    1    2    0    0  0.00000000000E+00  0.00000000000E+00 -0.34303748545E+03  0.90659521202E+03  0.83919018228E+03 0.  0.
        5    1    3    3  502    0  0.32794253057E+03 -0.18024208498E+03 -0.37650797296E+03  0.53086142849E+03  0.46999998093E+01 0. -1.
       -5    1    3    3    0  502 -0.32794253057E+03  0.18024208498E+03  0.33470487506E+02  0.37573378353E+03  0.46999998093E+01 0.  1.
</event>
<event>
 5   0  0.4684283E-02  0.8400791E+03  0.7818609E-02  0.9503750E-01
       -2   -1    0    0    0  501  0.00000000000E+00  0.00000000000E+00  0.14923735644E+03  0.14923735646E+03  0.25500000920E-02 0.  1.
        2   -1    0    0  501    0  0.00000000000E+00  0.00000000000E+00 -0.11822322948E+04  0.11822322948E+04  0.25500000920E-02 0. -1.
    10030    2    1    2    0    0  0.00000000000E+00  0.00000000000E+00 -0.10329949384E+04  0.13314696513E+04  0.84007909720E+03 0.  0.
        1    1    3    3  502    0 -0.16191686757E+03  0.31866989609E+03 -0.86613846376E+03  0.93699701873E+03  0.50400001928E-02 0. -1.
       -1    1    3    3    0  502  0.16191686757E+03 -0.31866989609E+03 -0.16685647462E+03  0.39447263255E+03  0.50400001928E-02 0.  1.
</event>
<event>
 5   0  0.4700220E-02  0.8317897E+03  0.7818609E-02  0.9515110E-01
        2   -1    0    0  501    0  0.00000000000E+00  0.00000000000E+00  0.94800348451E+03  0.94800348452E+03  0.25500000920E-02 0.  1.
       -2   -1    0    0    0  501  0.00000000000E+00  0.00000000000E+00 -0.18245556484E+03  0.18245556486E+03  0.25500000920E-02 0. -1.
    10030    2    1    2    0    0  0.00000000000E+00  0.00000000000E+00  0.76554791967E+03  0.11304590494E+04  0.83178966392E+03 0.  0.
        4    1    3    3  502    0 -0.12390137690E+03  0.23729325795E+02  0.92137032626E+03  0.92996748498E+03  0.12699999809E+01 0.  1.
       -4    1    3    3    0  502  0.12390137690E+03 -0.23729325795E+02 -0.15582240659E+03  0.20049156440E+03  0.12699999809E+01 0. -1.
</event>
<event>
 5   0  0.2769394E-02  0.8712935E+03  0.7818609E-02  0.9462195E-01
        1   -1    0    0  501    0  0.00000000000E+00  0.00000000000E+00  0.58540938092E+03  0.58540938094E+03  0.50400001928E-02 0.  1.
       -1   -1    0    0    0  501  0.00000000000E+00  0.00000000000E+00 -0.32419724661E+03  0.32419724665E+03  0.50400001928E-02 0. -1.
    10030    2    1    2    0    0  0.00000000000E+00  0.00000000000E+00  0.26121213431E+03  0.90960662759E+03  0.87129354286E+03 0.  0.
        2    1    3    3  502    0 -0.20203587373E+03  0.35539826643E+03 -0.26551480316E+02  0.40967231194E+03  0.25500000920E-02 0. -1.
       -2    1    3    3    0  502  0.20203587373E+03 -0.35539826643E+03  0.28776361463E+03  0.49993431565E+03  0.25500000920E-02 0.  1.
</event>
<event>
 5   0  0.2769394E-02  0.7769650E+03  0.7818609E-02  0.9593971E-01
       -1   -1    0    0    0  501  0.00000000000E+00  0.00000000000E+00  0.11703512082E+03  0.11703512093E+03  0.50400001928E-02 0.  1.
        1   -1    0    0  501    0  0.00000000000E+00  0.00000000000E+00 -0.12895158881E+04  0.12895158882E+04  0.50400001928E-02 0. -1.
    10030    2    1    2    0    0  0.00000000000E+00  0.00000000000E+00 -0.11724807673E+04  0.14065510091E+04  0.77696498725E+03 0.  0.
        2    1    3    3  502    0  0.28924620809E+03  0.24910847190E+03 -0.71678713639E+03  0.81209740707E+03  0.25500000920E-02 0. -1.
       -2    1    3    3    0  502 -0.28924620809E+03 -0.24910847190E+03 -0.45569363093E+03  0.59445360201E+03  0.25500000920E-02 0.  1.
</event>
<event>
 5   0  0.4663634E-02  0.7977787E+03  0.7818609E-02  0.9563238E-01
        2   -1    0    0  501    0  0.00000000000E+00  0.00000000000E+00  0.11776310533E+04  0.11776310533E+04  0.25500000920E-02 0. -1.
       -2   -1    0    0    0  501  0.00000000000E+00  0.00000000000E+00 -0.13511253719E+03  0.13511253721E+03  0.25500000920E-02 0.  1.
    10030    2    1    2    0    0  0.00000000000E+00  0.00000000000E+00  0.10425185161E+04  0.13127435905E+04  0.79777871494E+03 0.  0.
        5    1    3    3  502    0 -0.94236415321E+02  0.47166545497E+02 -0.11174548217E+03  0.15366954080E+03  0.46999998093E+01 0.  1.
       -5    1    3    3    0  502  0.94236415321E+02 -0.47166545497E+02  0.11542639983E+04  0.11590740497E+04  0.46999998093E+01 0. -1.
</event>
<event>
 5   0  0.4590462E-02  0.7446557E+03  0.7818609E-02  0.9643772E-01
       -2   -1    0    0    0  501  0.00000000000E+00  0.00000000000E+00  0.30037117664E+03  0.30037117665E+03  0.25500000920E-02 0. -1.
        2   -1    0    0  501    0  0.00000000000E+00  0.00000000000E+00 -0.46152236143E+03  0.46152236144E+03  0.25500000920E-02 0.  1.
    10030    2    1    2    0    0  0.00000000000E+00  0.00000000000E+00 -0.16115118479E+03  0.76189353809E+03  0.74465566474E+03 0.  0.
        3    1    3    3  502    0 -0.32792420246E+03  0.15151921573E+03 -0.17286139663E+03  0.40046651288E+03  0.10100000352E+00 0.  1.
       -3    1    3    3    0  502  0.32792420246E+03 -0.15151921573E+03  0.11710211833E+02  0.36142702521E+03  0.10100000352E+00 0. -1.
</event>
<event>
 5   0  0.2769394E-02  0.7777148E+03  0.7818609E-02  0.9592846E-01
        1   -1    0    0  501    0  0.00000000000E+00  0.00000000000E+00  0.11801626587E+04  0.11801626588E+04  0.50400001928E-02 0.  1.
       -1   -1    0    0    0  501  0.00000000000E+00  0.00000000000E+00 -0.12812648641E+03  0.12812648651E+03  0.50400001928E-02 0. -1.
    10030    2    1    2    0    0  0.00000000000E+00  0.00000000000E+00  0.10520361723E+04  0.13082891453E+04  0.77771484472E+03 0.  0.
        2    1    3    3  502    0 -0.25008844821E+03  0.22681496709E+03  0.20147198392E+03  0.39316691307E+03  0.25500000920E-02 0. -1.
       -2    1    3    3    0  502  0.25008844821E+03 -0.22681496709E+03  0.85056418842E+03  0.91512223219E+03  0.25500000920E-02 0.  1.
</event>
<event>
 5   0  0.4377843E-02  0.8020740E+03  0.7818609E-02  0.9557020E-01
       -2   -1    0    0    0  501  0.00000000000E+00  0.00000000000E+00  0.45320553248E+03  0.45320553249E+03  0.25500000920E-02 0. -1.
        2   -1    0    0  501    0  0.00000000000E+00  0.00000000000E+00 -0.35487362316E+03  0.35487362317E+03  0.25500000920E-02 0.  1.
    10030    2    1    2    0    0  0.00000000000E+00  0.00000000000E+00  0.98331909316E+02  0.80807915566E+03  0.80207403488E+03 0.  0.
        2    1    3    3  502    0  0.11416111985E+03 -0.25091951772E+02 -0.33733148031E+03  0.35700825613E+03  0.25500000920E-02 0.  1.
       -2    1    3    3    0  502 -0.11416111985E+03  0.25091951772E+02  0.43566338963E+03  0.45107089953E+03  0.25500000920E-02 0. -1.
</event>
<event>
 5   0  0.2769394E-02  0.8162156E+03  0.7818609E-02  0.9536838E-01
       -1   -1    0    0    0  501  0.00000000000E+00  0.00000000000E+00  0.36188864753E+03  0.36188864757E+03  0.50400001928E-02 0. -1.
        1   -1    0    0  501    0  0.00000000000E+00  0.00000000000E+00 -0.46022991666E+03  0.46022991669E+03  0.50400001928E-02 0.  1.
    10030    2    1    2    0    0  0.00000000000E+00  0.00000000000E+00 -0.98341269125E+02  0.82211856426E+03  0.81621561397E+03 0.  0.
        2    1    3    3  502    0 -0.33931448335E+03 -0.22337521098E+03 -0.98862762208E+01  0.40636011363E+03  0.25500000920E-02 0. -1.
       -2    1    3    3    0  502  0.33931448335E+03  0.22337521098E+03 -0.88454992904E+02  0.41575845062E+03  0.25500000920E-02 0.  1.
</event>
<event>
 5   0  0.2759559E-02  0.8080936E+03  0.7818609E-02  0.9548375E-01
        1   -1    0    0  501    0  0.00000000000E+00  0.00000000000E+00  0.51663403089E+03  0.51663403091E+03  0.50400001928E-02 0.  1.
       -1   -1    0    0    0  501  0.00000000000E+00  0.00000000000E+00 -0.31599512172E+03  0.31599512176E+03  0.50400001928E-02 0. -1.
    10030    2    1    2    0    0  0.00000000000E+00  0.00000000000E+00  0.20063890916E+03  0.83262915267E+03  0.80809364186E+03 0.  0.
        3    1    3    3  502    0 -0.10194128561E+03 -0.14575080381E+03  0.47412728340E+03  0.50639116658E+03  0.10100000352E+00 0.  1.
       -3    1    3    3    0  502  0.10194128561E+03  0.14575080381E+03 -0.27348837424E+03  0.32623798609E+03  0.10100000352E+00 0. -1.
</event>
<event>
 5   0  0.4590462E-02  0.7805076E+03  0.7818609E-02  0.9588668E-01
        2   -1    0    0  501    0  0.00000000000E+00  0.00000000000E+00  0.10548252539E+04  0.10548252539E+04  0.25500000920E-02 0. -1.
       -2   -1    0    0    0  501  0.00000000000E+00  0.00000000000E+00 -0.14438223057E+03  0.14438223059E+03  0.25500000920E-02 0.  1.
    10030    2    1    2    0    0  0.00000000000E+00  0.00000000000E+00  0.91044302334E+03  0.11992074845E+04  0.78050758622E+03 0.  0.
        3    1    3    3  502    0 -0.41237192596E+02  0.28337842967E+03  0.47862936603E+02  0.29033551515E+03  0.10100000352E+00 0.  1.
       -3    1    3    3    0  502  0.41237192596E+02 -0.28337842967E+03  0.86258008673E+03  0.90887196936E+03  0.10100000352E+00 0. -1.
</event>
<event>
 5   0  0.2769394E-02  0.7748211E+03  0.7818609E-02  0.9597195E-01
       -1   -1    0    0    0  501  0.00000000000E+00  0.00000000000E+00  0.16506838897E+03  0.16506838905E+03  0.50400001928E-02 0. -1.
        1   -1    0    0  501    0  0.00000000000E+00  0.00000000000E+00 -0.90924081347E+03  0.90924081348E+03  0.50400001928E-02 0.  1.
    10030    2    1    2    0    0  0.00000000000E+00  0.00000000000E+00 -0.74417242450E+03  0.10743092025E+04  0.77482105370E+03 0.  0.
        2    1    3    3  502    0 -0.14167638838E+03 -0.26872706295E+02 -0.87064304802E+03  0.88250419741E+03  0.25500000920E-02 0.  1.
       -2    1    3    3    0  502  0.14167638838E+03  0.26872706295E+02  0.12647062352E+03  0.19180500512E+03  0.25500000920E-02 0. -1.
</event>
<event>
 5   0  0.4684283E-02  0.8186902E+03  0.7818609E-02  0.9533351E-01
        2   -1    0    0  501    0  0.00000000000E+00  0.00000000000E+00  0.53926138182E+03  0.53926138183E+03  0.25500000920E-02 0. -1.
       -2   -1    0    0    0  501  0.00000000000E+00  0.00000000000E+00 -0.31072765597E+03  0.31072765598E+03  0.25500000920E-02 0.  1.
    10030    2    1    2    0    0  0.00000000000E+00  0.00000000000E+00  0.22853372585E+03  0.84998903781E+03  0.81869023479E+03 0.  0.
        1    1    3    3  502    0 -0.32335282156E+03 -0.17926147887E+03 -0.68153782421E+02  0.37594768665E+03  0.50400001928E-02 0.  1.
       -1    1    3    3    0  502  0.32335282156E+03  0.17926147887E+03  0.29668750827E+03  0.47404135115E+03  0.50400001928E-02 0. -1.
</event>
<event>
 5   0  0.4590462E-02  0.7939098E+03  0.7818609E-02  0.9568874E-01
       -2   -1    0    0    0  501  0.00000000000E+00  0.00000000000E+00  0.51753441185E+03  0.51753441186E+03  0.25500000920E-02 0.  1.
        2   -1    0    0  501    0  0.00000000000E+00  0.00000000000E+00 -0.30446903976E+03  0.30446903977E+03  0.25500000920E-02 0. -1.
    10030    2    1    2    0    0  0.00000000000E+00  0.00000000000E+00  0.21306537210E+03  0.82200345163E+03  0.79390983222E+03 0.  0.
        3    1    3    3  502    0  0.17599368111E+03  0.18031539346E+03 -0.21105558252E+03  0.32868204396E+03  0.10100000352E+00 0. -1.
       -3    1    3    3    0  502 -0.17599368111E+03 -0.18031539346E+03  0.42412095462E+03  0.49332140766E+03  0.10100000352E+00 0.  1.
</event>
<event>
 5   0  0.2635243E-02  0.6545006E+03  0.7818609E-02  0.9798371E-01
       -1   -1    0    0    0  501  0.00000000000E+00  0.00000000000E+00  0.14521220542E+04  0.14521220542E+04  0.50400001928E-02 0.  1.
        1   -1    0    0  501    0  0.00000000000E+00  0.00000000000E+00 -0.73749141475E+02  0.73749141647E+02  0.50400001928E-02 0. -1.
    10030    2    1    2    0    0  0.00000000000E+00  0.00000000000E+00  0.13783729127E+04  0.15258711958E+04  0.65450058808E+03 0.  0.
        1    1    3    3  502    0  0.21852904096E+03 -0.13532501632E+03  0.11613928689E+04  0.11894961950E+04  0.50400001928E-02 0.  1.
       -1    1    3    3    0  502 -0.21852904096E+03  0.13532501632E+03  0.21698004374E+03  0.33637500085E+03  0.50400001928E-02 0. -1.
</event>
<event>
 5   0  0.2635243E-02  0.9006168E+03  0.7818609E-02  0.9424811E-01
       -1   -1    0    0    0  501  0.00000000000E+00  0.00000000000E+00  0.30510899962E+03  0.30510899967E+03  0.50400001928E-02 0.  1.
        1   -1    0    0  501    0  0.00000000000E+00  0.00000000000E+00 -0.66460724094E+03  0.66460724096E+03  0.50400001928E-02 0. -1.
    10030    2    1    2    0    0  0.00000000000E+00  0.00000000000E+00 -0.35949824132E+03  0.96971624063E+03  0.90061678966E+03 0.  0.
        1    1    3    3  502    0  0.14941254379E+03 -0.38654642673E+03  0.99360234850E+01  0.41453705847E+03  0.50400001928E-02 0.  1.
       -1    1    3    3    0  502 -0.14941254379E+03  0.38654642673E+03 -0.36943426480E+03  0.55517918215E+03  0.50400001928E-02 0. -1.
</event>
<event>
 5   0  0.4684283E-02  0.7995811E+03  0.7818609E-02  0.9560624E-01
       -2   -1    0    0    0  501  0.00000000000E+00  0.00000000000E+00  0.38595491495E+03  0.38595491496E+03  0.25500000920E-02 0.  1.
        2   -1    0    0  501    0  0.00000000000E+00  0.00000000000E+00 -0.41412221298E+03  0.41412221299E+03  0.25500000920E-02 0. -1.
    10030    2    1    2    0    0  0.00000000000E+00  0.00000000000E+00 -0.28167298027E+02  0.80007712795E+03  0.79958114910E+03 0.  0.
        1    1    3    3  502    0  0.31998820747E+03  0.15096251563E+03 -0.20034521213E+03  0.40659603797E+03  0.50400001928E-02 0. -1.
       -1    1    3    3    0  502 -0.31998820747E+03 -0.15096251563E+03  0.17217791410E+03  0.39348108998E+03  0.50400001928E-02 0.  1.
</event>
<event>
 5   0  0.2769394E-02  0.5698518E+03  0.7818609E-02  0.9970007E-01
        1   -1    0    0  501    0  0.00000000000E+00  0.00000000000E+00  0.70433098774E+03  0.70433098775E+03  0.50400001928E-02 0.  1.
       -1   -1    0    0    0  501  0.00000000000E+00  0.00000000000E+00 -0.11526223884E+03  0.11526223895E+03  0.50400001928E-02 0. -1.
    10030    2    1    2    0    0  0.00000000000E+00  0.00000000000E+00  0.58906874890E+03  0.81959322670E+03  0.56985179329E+03 0.  0.
        2    1    3    3  502    0  0.72227584451E+01 -0.77152406083E+02 -0.99815881692E+02  0.12636404650E+03  0.25500000920E-02 0. -1.
       -2    1    3    3    0  502 -0.72227584451E+01  0.77152406083E+02  0.68888463059E+03  0.69322918020E+03  0.25500000920E-02 0.  1.
</event>
<event>
 5   0  0.2635243E-02  0.7139369E+03  0.7818609E-02  0.9693691E-01
       -1   -1    0    0    0  501  0.00000000000E+00  0.00000000000E+00  0.20270020773E+03  0.20270020779E+03  0.50400001928E-02 0. -1.
        1   -1    0    0  501    0  0.00000000000E+00  0.00000000000E+00 -0.62864508138E+03  0.62864508140E+03  0.50400001928E-02 0.  1.
    10030    2    1    2    0    0  0.00000000000E+00  0.00000000000E+00 -0.42594487366E+03  0.83134528919E+03  0.71393694012E+03 0.  0.
        1    1    3    3  502    0 -0.32554425383E+03 -0.46594602519E+01 -0.38341939964E+03  0.50300219465E+03  0.50400001928E-02 0.  1.
       -1    1    3    3    0  502  0.32554425383E+03  0.46594602519E+01 -0.42525474015E+02  0.32834309455E+03  0.50400001928E-02 0. -1.
</event>
<event>
 5   0  0.4590462E-02  0.7321882E+03  0.7818609E-02  0.9663716E-01
        2   -1    0    0  501    0  0.00000000000E+00  0.00000000000E+00  0.41547832807E+03  0.41547832807E+03  0.25500000920E-02 0.  1.
       -2   -1    0    0    0  501  0.00000000000E+00  0.00000000000E+00 -0.32257977281E+03  0.32257977282E+03  0.25500000920E-02 0. -1.
    10030    2    1    2    0    0  0.00000000000E+00  0.00000000000E+00  0.92898555261E+02  0.73805810089E+03  0.73218823995E+03 0.  0.
        3    1    3    3  502    0 -0.23304185189E+03 -0.22018350445E+03  0.22460214908E+03  0.39145295495E+03  0.10100000352E+00 0.  1.
       -3    1    3    3    0  502  0.23304185189E+03  0.22018350445E+03 -0.13170359382E+03  0.34660514594E+03  0.10100000352E+00 0. -1.
</event>
<event>
 5   0  0.2689372E-02  0.7907959E+03  0.7818609E-02  0.9573436E-01
        1   -1    0    0  501    0  0.00000000000E+00  0.00000000000E+00  0.35351676056E+03  0.35351676060E+03  0.50400001928E-02 0. -1.
       -1   -1    0    0    0  501  0.00000000000E+00  0.00000000000E+00 -0.44224082023E+03  0.44224082026E+03  0.50400001928E-02 0.  1.
    10030    2    1    2    0    0  0.00000000000E+00  0.00000000000E+00 -0.88724059666E+02  0.79575758085E+03  0.79079590839E+03 0.  0.
        4    1    3    3  502    0  0.38423183498E+03  0.92928247349E+02 -0.52670169882E+02  0.39880511765E+03  0.12699999809E+01 0. -1.
       -4    1    3    3    0  502 -0.38423183498E+03 -0.92928247349E+02 -0.36053889784E+02  0.39695246320E+03  0.12699999809E+01 0.  1.
</event>
<event>
 5   0  0.2689372E-02  0.7920706E+03  0.7818609E-02  0.9571566E-01
       -1   -1    0    0    0  501  0.00000000000E+00  0.00000000000E+00  0.46376875879E+03  0.46376875882E+03  0.50400001928E-02 0.  1.
        1   -1    0    0  501    0  0.00000000000E+00  0.00000000000E+00 -0.33819430648E+03  0.33819430652E+03  0.50400001928E-02 0. -1.
    10030    2    1    2    0    0  0.00000000000E+00  0.00000000000E+00  0.12557445231E+03  0.80196306534E+03  0.79207058719E+03 0.  0.
        4    1    3    3  502    0 -0.32860726878E+03  0.20798758430E+03 -0.12985741008E+02  0.38911671088E+03  0.12699999809E+01 0. -1.
       -4    1    3    3    0  502  0.32860726878E+03 -0.20798758430E+03  0.13856019332E+03  0.41284635446E+03  0.12699999809E+01 0.  1.
</event>
<event>
 5   0  0.2689372E-02  0.8006680E+03  0.7818609E-02  0.9559051E-01
       -1   -1    0    0    0  501  0.00000000000E+00  0.00000000000E+00  0.24580091677E+03  0.24580091682E+03  0.50400001928E-02 0. -1.
        1   -1    0    0  501    0  0.00000000000E+00  0.00000000000E+00 -0.65202074930E+03  0.65202074932E+03  0.50400001928E-02 0.  1.
    10030    2    1    2    0    0  0.00000000000E+00  0.00000000000E+00 -0.40621983253E+03  0.89782166614E+03  0.80066796605E+03 0.  0.
        4    1    3    3  502    0  0.31729917456E+03  0.68006902881E+02 -0.46599673653E+03  0.56785409779E+03  0.12699999809E+01 0.  1.
       -4    1    3    3    0  502 -0.31729917456E+03 -0.68006902881E+02  0.59776904003E+02  0.32996756836E+03  0.12699999809E+01 0. -1.
</event>
<event>
 5   0  0.4377843E-02  0.7844912E+03  0.7818609E-02  0.9582741E-01
        2   -1    0    0  501    0  0.00000000000E+00  0.00000000000E+00  0.11290866532E+04  0.11290866532E+04  0.25500000920E-02 0.  1.
       -2   -1    0    0    0  501  0.00000000000E+00  0.00000000000E+00 -0.13626642874E+03  0.13626642877E+03  0.25500000920E-02 0. -1.
    10030    2    1    2    0    0  0.00000000000E+00  0.00000000000E+00  0.99282022450E+03  0.12653530820E+04  0.78449118796E+03 0.  0.
        2    1    3    3  502    0  0.98665683349E+02 -0.29438304483E+02 -0.11408004457E+03  0.15367429004E+03  0.25500000920E-02 0. -1.
       -2    1    3    3    0  502 -0.98665683349E+02  0.29438304483E+02  0.11069002691E+04  0.11116787920E+04  0.25500000920E-02 0.  1.
</event>
<event>
 5   0  0.4700220E-02  0.7989737E+03  0.7818609E-02  0.9561504E-01
        2   -1    0    0  501    0  0.00000000000E+00  0.00000000000E+00  0.13806193180E+04  0.13806193180E+04  0.25500000920E-02 0.  1.
       -2   -1    0    0    0  501  0.00000000000E+00  0.00000000000E+00 -0.11559286754E+03  0.11559286756E+03  0.25500000920E-02 0. -1.
    10030    2    1    2    0    0  0.00000000000E+00  0.00000000000E+00  0.12650264505E+04  0.14962121856E+04  0.79897370662E+03 0.  0.
        4    1    3    3  502    0 -0.90352237129E+02 -0.28644161720E+03  0.11257605310E+04  0.11651397825E+04  0.12699999809E+01 0.  1.
       -4    1    3    3    0  502  0.90352237129E+02  0.28644161720E+03  0.13926591947E+03  0.33107240302E+03  0.12699999809E+01 0. -1.
</event>
<event>
 5   0  0.4590462E-02  0.7764068E+03  0.7818609E-02  0.9594809E-01
       -2   -1    0    0    0  501  0.00000000000E+00  0.00000000000E+00  0.24527758680E+03  0.24527758681E+03  0.25500000920E-02 0. -1.
        2   -1    0    0  501    0  0.00000000000E+00  0.00000000000E+00 -0.61441360760E+03  0.61441360760E+03  0.25500000920E-02 0.  1.
    10030    2    1    2    0    0  0.00000000000E+00  0.00000000000E+00 -0.36913602080E+03  0.85969119441E+03  0.77640681856E+03 0.  0.
        3    1    3    3  502    0  0.57605274886E+02  0.35235574536E+03 -0.15808672414E+02  0.35738335623E+03  0.10100000352E+00 0.  1.
       -3    1    3    3    0  502 -0.57605274886E+02 -0.35235574536E+03 -0.35332734839E+03  0.50230783819E+03  0.10100000352E+00 0. -1.
</event>
<event>
 5   0  0.2759559E-02  0.7559793E+03  0.7818609E-02  0.9626016E-01
        1   -1    0    0  501    0  0.00000000000E+00  0.00000000000E+00  0.28610090898E+03  0.28610090902E+03  0.50400001928E-02 0.  1.
       -1   -1    0    0    0  501  0.00000000000E+00  0.00000000000E+00 -0.49939084216E+03  0.49939084219E+03  0.50400001928E-02 0. -1.
    10030    2    1    2    0    0  0.00000000000E+00  0.00000000000E+00 -0.21328993318E+03  0.78549175121E+03  0.75597929576E+03 0.  0.
        3    1    3    3  502    0  0.13385774652E+03 -0.23596289390E+03 -0.38013088986E+03  0.46700737384E+03  0.10100000352E+00 0. -1.
       -3    1    3    3    0  502 -0.13385774652E+03  0.23596289390E+03  0.16684095667E+03  0.31848437736E+03  0.10100000352E+00 0.  1.
</event>
<event>
 5   0  0.4663634E-02  0.8054766E+03  0.7818609E-02  0.9552124E-01
       -2   -1    0    0    0  501  0.00000000000E+00  0.00000000000E+00  0.20037162254E+03  0.20037162255E+03  0.25500000920E-02 0. -1.
        2   -1    0    0  501    0  0.00000000000E+00  0.00000000000E+00 -0.80948654402E+03  0.80948654402E+03  0.25500000920E-02 0.  1.
    10030    2    1    2    0    0  0.00000000000E+00  0.00000000000E+00 -0.60911492148E+03  0.10098581666E+04  0.80547658503E+03 0.  0.
        5    1    3    3  502    0 -0.27252681202E+03 -0.14045010766E+03 -0.63192273122E+03  0.70238559512E+03  0.46999998093E+01 0.  1.
       -5    1    3    3    0  502  0.27252681202E+03  0.14045010766E+03  0.22807809735E+02  0.30747257145E+03  0.46999998093E+01 0. -1.
</event>
<event>
 5   0  0.1786500E-02  0.7974334E+03  0.7818609E-02  0.9563740E-01
        3   -1    0    0  501    0  0.00000000000E+00  0.00000000000E+00  0.12839769871E+03  0.12839773843E+03  0.10100000352E+00 0.  1.
       -3   -1    0    0    0  501  0.00000000000E+00  0.00000000000E+00 -0.12381451132E+04  0.12381451174E+04  0.10100000352E+00 0. -1.
    10030    2    1    2    0    0  0.00000000000E+00  0.00000000000E+00 -0.11097474145E+04  0.13665428558E+04  0.79743341581E+03 0.  0.
        3    1    3    3  502    0 -0.89404787684E+02  0.19289831714E+03 -0.11328986399E+04  0.11526761537E+04  0.10100000352E+00 0. -1.
       -3    1    3    3    0  502  0.89404787684E+02 -0.19289831714E+03  0.23151225388E+02  0.21386670207E+03  0.10100000352E+00 0.  1.
</event>
<event>
 5   0  0.4377843E-02  0.7960693E+03  0.7818609E-02  0.9565724E-01
       -2   -1    0    0    0  501  0.00000000000E+00  0.00000000000E+00  0.10971308536E+03  0.10971308539E+03  0.25500000920E-02 0.  1.
        2   -1    0    0  501    0  0.00000000000E+00  0.00000000000E+00 -0.14440536634E+04  0.14440536634E+04  0.25500000920E-02 0. -1.
    10030    2    1    2    0    0  0.00000000000E+00  0.00000000000E+00 -0.13343405780E+04  0.15537667488E+04  0.79606930065E+03 0.  0.
        2    1    3    3  502    0 -0.35884293171E+03 -0.79926506162E+02 -0.96494005646E+03  0.10326014762E+04  0.25500000920E-02 0. -1.
       -2    1    3    3    0  502  0.35884293171E+03  0.79926506162E+02 -0.36940052156E+03  0.52116527260E+03  0.25500000920E-02 0.  1.
</event>
<event>
 5   0  0.2759559E-02  0.7970500E+03  0.7818609E-02  0.9564297E-01
       -1   -1    0    0    0  501  0.00000000000E+00  0.00000000000E+00  0.30170142517E+03  0.30170142522E+03  0.50400001928E-02 0. -1.
        1   -1    0    0  501    0  0.00000000000E+00  0.00000000000E+00 -0.52642165200E+03  0.52642165203E+03  0.50400001928E-02 0.  1.
    10030    2    1    2    0    0  0.00000000000E+00  0.00000000000E+00 -0.22472022683E+03  0.82812307724E+03  0.79704996752E+03 0.  0.
        3    1    3    3  502    0  0.14369952644E+01  0.68092264097E+02  0.29560998442E+03  0.30335440408E+03  0.10100000352E+00 0. -1.
       -3    1    3    3    0  502 -0.14369952644E+01 -0.68092264097E+02 -0.52033021126E+03  0.52476867316E+03  0.10100000352E+00 0.  1.
</event>
<event>
 5   0  0.4663634E-02  0.7946636E+03  0.7818609E-02  0.9567774E-01
        2   -1    0    0  501    0  0.00000000000E+00  0.00000000000E+00  0.83502770745E+03  0.83502770745E+03  0.25500000920E-02 0.  1.
       -2   -1    0    0    0  501  0.00000000000E+00  0.00000000000E+00 -0.18906266617E+03  0.18906266618E+03  0.25500000920E-02 0. -1.
    10030    2    1    2    0    0  0.00000000000E+00  0.00000000000E+00  0.64596504128E+03  0.10240903736E+04  0.79466361362E+03 0.  0.
        5    1    3    3  502    0  0.35278297763E+03 -0.13991665493E+03  0.17149489506E+03  0.41649140286E+03  0.46999998093E+01 0. -1.
       -5    1    3    3    0  502 -0.35278297763E+03  0.13991665493E+03  0.47447014622E+03  0.60759897077E+03  0.46999998093E+01 0.  1.
</event>
<event>
 5   0  0.2606520E-02  0.7750426E+03  0.7818609E-02  0.9596861E-01
       -1   -1    0    0    0  501  0.00000000000E+00  0.00000000000E+00  0.33229372958E+03  0.33229372962E+03  0.50400001928E-02 0. -1.
        1   -1    0    0  501    0  0.00000000000E+00  0.00000000000E+00 -0.45192773172E+03  0.45192773175E+03  0.50400001928E-02 0.  1.
    10030    2    1    2    0    0  0.00000000000E+00  0.00000000000E+00 -0.11963400214E+03  0.78422146137E+03  0.77504258335E+03 0.  0.
        5    1    3    3  502    0 -0.37465752212E+03  0.23539321731E+02  0.37384748118E+02  0.37728247764E+03  0.46999998093E+01 0. -1.
       -5    1    3    3    0  502  0.37465752212E+03 -0.23539321731E+02 -0.15701875026E+03  0.40693898373E+03  0.46999998093E+01 0.  1.
</event>
<event>
 5   0  0.4663634E-02  0.7765386E+03  0.7818609E-02  0.9594611E-01
       -2   -1    0    0    0  501  0.00000000000E+00  0.00000000000E+00  0.29984831534E+03  0.29984831535E+03  0.25500000920E-02 0.  1.
        2   -1    0    0  501    0  0.00000000000E+00  0.00000000000E+00 -0.50276431240E+03  0.50276431240E+03  0.25500000920E-02 0. -1.
    10030    2    1    2    0    0  0.00000000000E+00  0.00000000000E+00 -0.20291599706E+03  0.80261262775E+03  0.77653855562E+03 0.  0.
        5    1    3    3  502    0 -0.18978832130E+03 -0.33723590583E+03 -0.69047825552E+02  0.39311239524E+03  0.46999998093E+01 0.  1.
       -5    1    3    3    0  502  0.18978832130E+03  0.33723590583E+03 -0.13386817151E+03  0.40950023251E+03  0.46999998093E+01 0. -1.
</event>
<event>
 5   0  0.4684283E-02  0.8326617E+03  0.7818609E-02  0.9513908E-01
        2   -1    0    0  501    0  0.00000000000E+00  0.00000000000E+00  0.10600662073E+04  0.10600662073E+04  0.25500000920E-02 0. -1.
       -2   -1    0    0    0  501  0.00000000000E+00  0.00000000000E+00 -0.16350995218E+03  0.16350995220E+03  0.25500000920E-02 0.  1.
    10030    2    1    2    0    0  0.00000000000E+00  0.00000000000E+00  0.89655625508E+03  0.12235761595E+04  0.83266169571E+03 0.  0.
        1    1    3    3  502    0  0.58151882806E+02  0.24388709251E+03 -0.40129318473E+02  0.25391517795E+03  0.50400001928E-02 0.  1.
       -1    1    3    3    0  502 -0.58151882806E+02 -0.24388709251E+03  0.93668557355E+03  0.96966098152E+03  0.50400001928E-02 0. -1.
</event>
<event>
 5   0  0.4700220E-02  0.8057108E+03  0.7818609E-02  0.9551788E-01
       -2   -1    0    0    0  501  0.00000000000E+00  0.00000000000E+00  0.14887601361E+03  0.14887601363E+03  0.25500000920E-02 0. -1.
        2   -1    0    0  501    0  0.00000000000E+00  0.00000000000E+00 -0.10901182833E+04  0.10901182833E+04  0.25500000920E-02 0.  1.
    10030    2    1    2    0    0  0.00000000000E+00  0.00000000000E+00 -0.94124226973E+03  0.12389942970E+04  0.80571077789E+03 0.  0.
        4    1    3    3  502    0  0.22876399083E+03  0.32973622922E+03 -0.52459445324E+03  0.66049973326E+03  0.12699999809E+01 0. -1.
       -4    1    3    3    0  502 -0.22876399083E+03 -0.32973622922E+03 -0.41664781648E+03  0.57849456371E+03  0.12699999809E+01 0.  1.
</event>
<event>
 5   0  0.2759559E-02  0.7860918E+03  0.7818609E-02  0.9580370E-01
       -1   -1    0    0    0  501  0.00000000000E+00  0.00000000000E+00  0.12961681248E+03  0.12961681258E+03  0.50400001928E-02 0.  1.
        1   -1    0    0  501    0  0.00000000000E+00  0.00000000000E+00 -0.11918597447E+04  0.11918597447E+04  0.50400001928E-02 0. -1.
    10030    2    1    2    0    0  0.00000000000E+00  0.00000000000E+00 -0.10622429322E+04  0.13214765573E+04  0.78609175319E+03 0.  0.
        3    1    3    3  502    0  0.30617074431E+03 -0.24334956485E+03 -0.46546242463E+03  0.60795954991E+03  0.10100000352E+00 0.  1.
       -3    1    3    3    0  502 -0.30617074431E+03  0.24334956485E+03 -0.59678050760E+03  0.71351700739E+03  0.10100000352E+00 0. -1.
</event>
<event>
 5   0  0.2689372E-02  0.8250793E+03  0.7818609E-02  0.9524409E-01
       -1   -1    0    0    0  501  0.00000000000E+00  0.00000000000E+00  0.15306297181E+03  0.15306297190E+03  0.50400001928E-02 0. -1.
        1   -1    0    0  501    0  0.00000000000E+00  0.00000000000E+00 -0.11118884616E+04  0.11118884616E+04  0.50400001928E-02 0.  1.
    10030    2    1    2    0    0  0.00000000000E+00  0.00000000000E+00 -0.95882548983E+03  0.12649514335E+04  0.82507927455E+03 0.  0.
        4    1    3    3  502    0 -0.38366379052E+03  0.84868156639E+02 -0.28678197659E+03  0.48646276647E+03  0.12699999809E+01 0.  1.
       -4    1    3    3    0  502  0.38366379052E+03 -0.84868156639E+02 -0.67204351324E+03  0.77848866707E+03  0.12699999809E+01 0. -1.
</event>
<event>
 5   0  0.4684283E-02  0.7065338E+03  0.7818609E-02  0.9706123E-01
       -2   -1    0    0    0  501  0.00000000000E+00  0.00000000000E+00  0.12474662108E+03  0.12474662111E+03  0.25500000920E-02 0. -1.
        2   -1    0    0  501    0  0.00000000000E+00  0.00000000000E+00 -0.10004078144E+04  0.10004078144E+04  0.25500000920E-02 0.  1.
    10030    2    1    2    0    0  0.00000000000E+00  0.00000000000E+00 -0.87566119334E+03  0.11251544355E+04  0.70653377716E+03 0.  0.
        1    1    3    3  502    0  0.31583305690E+03 -0.92182060749E+02 -0.23296412383E+03  0.40313810931E+03  0.50400001928E-02 0. -1.
       -1    1    3    3    0  502 -0.31583305690E+03  0.92182060749E+02 -0.64269706951E+03  0.72201632623E+03  0.50400001928E-02 0.  1.
</event>
<event>
 5   0  0.2635243E-02  0.7771336E+03  0.7818609E-02  0.9593718E-01
        1   -1    0    0  501    0  0.00000000000E+00  0.00000000000E+00  0.15860935699E+04  0.15860935699E+04  0.50400001928E-02 0.  1.
       -1   -1    0    0    0  501  0.00000000000E+00  0.00000000000E+00 -0.95192464001E+02  0.95192464135E+02  0.50400001928E-02 0. -1.
    10030    2    1    2    0    0  0.00000000000E+00  0.00000000000E+00  0.14909011059E+04  0.16812860341E+04  0.77713359258E+03 0.  0.
        1    1    3    3  502    0 -0.20122576014E+03 -0.19156281504E+03  0.13331596886E+04  0.13618013342E+04  0.50400001928E-02 0.  1.
       -1    1    3    3    0  502  0.20122576014E+03  0.19156281504E+03  0.15774141734E+03  0.31948469983E+03  0.50400001928E-02 0. -1.
</event>
<event>
 5   0  0.4700220E-02  0.8063246E+03  0.7818609E-02  0.9550907E-01
       -2   -1    0    0    0  501  0.00000000000E+00  0.00000000000E+00  0.25267300665E+03  0.25267300666E+03  0.25500000920E-02 0.  1.
        2   -1    0    0  501    0  0.00000000000E+00  0.00000000000E+00 -0.64328140289E+03  0.64328140289E+03  0.25500000920E-02 0. -1.
    10030    2    1    2    0    0  0.00000000000E+00  0.00000000000E+00 -0.39060839624E+03  0.89595440955E+03  0.80632461502E+03 0.  0.
        4    1    3    3  502    0 -0.11068511938E+03 -0.31016000300E+03 -0.45372394262E+03  0.56064021629E+03  0.12699999809E+01 0. -1.
       -4    1    3    3    0  502  0.11068511938E+03  0.31016000300E+03  0.63115546379E+02  0.33531419327E+03  0.12699999809E+01 0.  1.
</event>
<event>
 5   0  0.4663634E-02  0.7937073E+03  0.7818609E-02  0.9569170E-01
       -2   -1    0    0    0  501  0.00000000000E+00  0.00000000000E+00  0.18145129513E+03  0.18145129515E+03  0.25500000920E-02 0. -1.
        2   -1    0    0  501    0  0.00000000000E+00  0.00000000000E+00 -0.86796188239E+03  0.86796188239E+03  0.25500000920E-02 0.  1.
    10030    2    1    2    0    0  0.00000000000E+00  0.00000000000E+00 -0.68651058725E+03  0.10494131775E+04  0.79370727021E+03 0.  0.
        5    1    3    3  502    0  0.11108165295E+03  0.31455742554E+03 -0.62739872243E+03  0.71058901940E+03  0.46999998093E+01 0.  1.
       -5    1    3    3    0  502 -0.11108165295E+03 -0.31455742554E+03 -0.59111864824E+02  0.33882415814E+03  0.46999998093E+01 0. -1.
</event>
<event>
 5   0  0.4663634E-02  0.7966894E+03  0.7818609E-02  0.9564822E-01
        2   -1    0    0  501    0  0.00000000000E+00  0.00000000000E+00  0.77844526518E+03  0.77844526519E+03  0.25500000920E-02 0.  1.
       -2   -1    0    0    0  501  0.00000000000E+00  0.00000000000E+00 -0.20384026300E+03  0.20384026301E+03  0.25500000920E-02 0. -1.
    10030    2    1    2    0    0  0.00000000000E+00  0.00000000000E+00  0.57460500219E+03  0.98228552820E+03  0.79668936881E+03 0.  0.
        5    1    3    3  502    0  0.23876423593E+03 -0.26695416267E+03  0.50221798789E+03  0.61686131559E+03  0.46999998093E+01 0.  1.
       -5    1    3    3    0  502 -0.23876423593E+03  0.26695416267E+03  0.72387014302E+02  0.36542421261E+03  0.46999998093E+01 0. -1.
</event>
<event>
 5   0  0.2689372E-02  0.8014394E+03  0.7818609E-02  0.9557936E-01
       -1   -1    0    0    0  501  0.00000000000E+00  0.00000000000E+00  0.14568153339E+03  0.14568153347E+03  0.50400001928E-02 0.  1.
        1   -1    0    0  501    0  0.00000000000E+00  0.00000000000E+00 -0.11022418966E+04  0.11022418966E+04  0.50400001928E-02 0. -1.
    10030    2    1    2    0    0  0.00000000000E+00  0.00000000000E+00 -0.95656036321E+03  0.12479234301E+04  0.80143942932E+03 0.  0.
        4    1    3    3  502    0  0.35139186325E+03 -0.33763897583E+02 -0.77354902408E+03  0.85029168400E+03  0.12699999809E+01 0.  1.
       -4    1    3    3    0  502 -0.35139186325E+03  0.33763897583E+02 -0.18301133913E+03  0.39763174608E+03  0.12699999809E+01 0. -1.
</event>
<event>
 5   0  0.2689372E-02  0.8166254E+03  0.7818609E-02  0.9536259E-01
        1   -1    0    0  501    0  0.00000000000E+00  0.00000000000E+00  0.13233680155E+04  0.13233680155E+04  0.50400001928E-02 0.  1.
       -1   -1    0    0    0  501  0.00000000000E+00  0.00000000000E+00 -0.12598102664E+03  0.12598102674E+03  0.50400001928E-02 0. -1.
    10030    2    1    2    0    0  0.00000000000E+00  0.00000000000E+00  0.11973869889E+04  0.14493490423E+04  0.81662540078E+03 0.  0.
        4    1    3    3  502    0  0.35645087353E+03  0.15199226203E+03  0.37031026393E+03  0.53599456847E+03  0.12699999809E+01 0. -1.
       -4    1    3    3    0  502 -0.35645087353E+03 -0.15199226203E+03  0.82707672496E+03  0.91335447381E+03  0.12699999809E+01 0.  1.
</event>
<event>
 5   0  0.1786500E-02  0.5200038E+03  0.7818609E-02  0.1008686E+00
        3   -1    0    0  501    0  0.00000000000E+00  0.00000000000E+00  0.30162850623E+03  0.30162852314E+03  0.10100000352E+00 0. -1.
       -3   -1    0    0    0  501  0.00000000000E+00  0.00000000000E+00 -0.22412001435E+03  0.22412003710E+03  0.10100000352E+00 0.  1.
    10030    2    1    2    0    0  0.00000000000E+00  0.00000000000E+00  0.77508491887E+02  0.52574856025E+03  0.52000382911E+03 0.  0.
        1    1    3    3  502    0  0.63120704599E+02 -0.75178263283E+02 -0.20466475409E+03  0.22698822923E+03  0.50400001928E-02 0.  1.
       -1    1    3    3    0  502 -0.63120704599E+02  0.75178263283E+02  0.28217324597E+03  0.29876033101E+03  0.50400001928E-02 0. -1.
</event>
<event>
 5   0  0.2635243E-02  0.7847325E+03  0.7818609E-02  0.9582383E-01
        1   -1    0    0  501    0  0.00000000000E+00  0.00000000000E+00  0.67152311316E+03  0.67152311317E+03  0.50400001928E-02 0.  1.
       -1   -1    0    0    0  501  0.00000000000E+00  0.00000000000E+00 -0.22925686253E+03  0.22925686259E+03  0.50400001928E-02 0. -1.
    10030    2    1    2    0    0  0.00000000000E+00  0.00000000000E+00  0.44226625063E+03  0.90077997576E+03  0.78473252022E+03 0.  0.
        1    1    3    3  502    0 -0.36246311664E+03  0.68718592273E+02  0.37449253173E+03  0.52568661025E+03  0.50400001928E-02 0.  1.
       -1    1    3    3    0  502  0.36246311664E+03 -0.68718592273E+02  0.67773718897E+02  0.37509336551E+03  0.50400001928E-02 0. -1.
</event>
<event>
 5   0  0.4663634E-02  0.8080045E+03  0.7818609E-02  0.9548503E-01
       -2   -1    0    0    0  501  0.00000000000E+00  0.00000000000E+00  0.48705244654E+03  0.48705244655E+03  0.25500000920E-02 0.  1.
        2   -1    0    0  501    0  0.00000000000E+00  0.00000000000E+00 -0.33511342876E+03  0.33511342877E+03  0.25500000920E-02 0. -1.
    10030    2    1    2    0    0  0.00000000000E+00  0.00000000000E+00  0.15193901778E+03  0.82216587532E+03  0.80800449344E+03 0.  0.
        5    1    3    3  502    0 -0.20986074870E+03 -0.10313925132E+03  0.41116142241E+03  0.47302753015E+03  0.46999998093E+01 0.  1.
       -5    1    3    3    0  502  0.20986074870E+03  0.10313925132E+03 -0.25922240463E+03  0.34913834517E+03  0.46999998093E+01 0. -1.
</event>
<event>
 5   0  0.4700220E-02  0.7925703E+03  0.7818609E-02  0.9570834E-01
       -2   -1    0    0    0  501  0.00000000000E+00  0.00000000000E+00  0.12030626386E+03  0.12030626389E+03  0.25500000920E-02 0.  1.
        2   -1    0    0  501    0  0.00000000000E+00  0.00000000000E+00 -0.13053510380E+04  0.13053510380E+04  0.25500000920E-02 0. -1.
    10030    2    1    2    0    0  0.00000000000E+00  0.00000000000E+00 -0.11850447741E+04  0.14256573019E+04  0.79257026547E+03 0.  0.
        4    1    3    3  502    0 -0.23878860308E+03  0.31625632066E+03 -0.58983250344E+03  0.71059274717E+03  0.12699999809E+01 0.  1.
       -4    1    3    3    0  502  0.23878860308E+03 -0.31625632066E+03 -0.59521227066E+03  0.71506455468E+03  0.12699999809E+01 0. -1.
</event>
<event>
 5   0  0.4684283E-02  0.8060266E+03  0.7818609E-02  0.9551335E-01
        2   -1    0    0  501    0  0.00000000000E+00  0.00000000000E+00  0.80089468606E+03  0.80089468606E+03  0.25500000920E-02 0.  1.
       -2   -1    0    0    0  501  0.00000000000E+00  0.00000000000E+00 -0.20279783529E+03  0.20279783531E+03  0.25500000920E-02 0. -1.
    10030    2    1    2    0    0  0.00000000000E+00  0.00000000000E+00  0.59809685077E+03  0.10036925214E+04  0.80602657186E+03 0.  0.
        1    1    3    3  502    0  0.38570505080E+03  0.75182405688E+02  0.18767867911E+03  0.43548141976E+03  0.50400001928E-02 0. -1.
       -1    1    3    3    0  502 -0.38570505080E+03 -0.75182405688E+02  0.41041817166E+03  0.56821110161E+03  0.50400001928E-02 0.  1.
</event>
<event>
 5   0  0.4684283E-02  0.7476589E+03  0.7818609E-02  0.9639030E-01
       -2   -1    0    0    0  501  0.00000000000E+00  0.00000000000E+00  0.76631595866E+03  0.76631595866E+03  0.25500000920E-02 0. -1.
        2   -1    0    0  501    0  0.00000000000E+00  0.00000000000E+00 -0.18236401667E+03  0.18236401668E+03  0.25500000920E-02 0.  1.
    10030    2    1    2    0    0  0.00000000000E+00  0.00000000000E+00  0.58395194199E+03  0.94867997535E+03  0.74765889620E+03 0.  0.
        1    1    3    3  502    0  0.10361579489E+03  0.35770496071E+02  0.74546550227E+03  0.75348163643E+03  0.50400001928E-02 0. -1.
       -1    1    3    3    0  502 -0.10361579489E+03 -0.35770496071E+02 -0.16151356027E+03  0.19519833892E+03  0.50400001928E-02 0.  1.
</event>
<event>
 5   0  0.2769394E-02  0.8139907E+03  0.7818609E-02  0.9539984E-01
       -1   -1    0    0    0  501  0.00000000000E+00  0.00000000000E+00  0.16686138516E+03  0.16686138524E+03  0.50400001928E-02 0.  1.
        1   -1    0    0  501    0  0.00000000000E+00  0.00000000000E+00 -0.99271138938E+03  0.99271138939E+03  0.50400001928E-02 0. -1.
    10030    2    1    2    0    0  0.00000000000E+00  0.00000000000E+00 -0.82585000421E+03  0.11595727746E+04  0.81399065732E+03 0.  0.
        2    1    3    3  502    0 -0.91866317634E+02  0.35503472971E+03 -0.16147580146E+03  0.40070377348E+03  0.25500000920E-02 0.  1.
       -2    1    3    3    0  502  0.91866317634E+02 -0.35503472971E+03 -0.66437420275E+03  0.75886900115E+03  0.25500000920E-02 0. -1.
</event>
<event>
 5   0  0.2606520E-02  0.8137635E+03  0.7818609E-02  0.9540306E-01
        1   -1    0    0  501    0  0.00000000000E+00  0.00000000000E+00  0.44850559074E+03  0.44850559076E+03  0.50400001928E-02 0.  1.
       -1   -1    0    0    0  501  0.00000000000E+00  0.00000000000E+00 -0.36912084902E+03  0.36912084905E+03  0.50400001928E-02 0. -1.
    10030    2    1    2    0    0  0.00000000000E+00  0.00000000000E+00  0.79384741721E+02  0.81762643981E+03  0.81376351471E+03 0.  0.
        5    1    3    3  502    0  0.11158017813E+03  0.39032209124E+03  0.12560417791E+02  0.40617893244E+03  0.46999998093E+01 0. -1.
       -5    1    3    3    0  502 -0.11158017813E+03 -0.39032209124E+03  0.66824323930E+02  0.41144750738E+03  0.46999998093E+01 0.  1.
</event>
<event>
 5   0  0.4663634E-02  0.7921635E+03  0.7818609E-02  0.9571430E-01
       -2   -1    0    0    0  501  0.00000000000E+00  0.00000000000E+00  0.96613878501E+03  0.96613878502E+03  0.25500000920E-02 0. -1.
        2   -1    0    0  501    0  0.00000000000E+00  0.00000000000E+00 -0.16237908612E+03  0.16237908614E+03  0.25500000920E-02 0.  1.
    10030    2    1    2    0    0  0.00000000000E+00  0.00000000000E+00  0.80375969890E+03  0.11285178712E+04  0.79216345027E+03 0.  0.
        5    1    3    3  502    0 -0.28284354630E+03 -0.22770025158E+03  0.62717774922E+03  0.72472194349E+03  0.46999998093E+01 0. -1.
       -5    1    3    3    0  502  0.28284354630E+03  0.22770025158E+03  0.17658194968E+03  0.40379592767E+03  0.46999998093E+01 0.  1.
</event>
<event>
 5   0  0.2689372E-02  0.8063278E+03  0.7818609E-02  0.9550903E-01
        1   -1    0    0  501    0  0.00000000000E+00  0.00000000000E+00  0.17282149384E+04  0.17282149384E+04  0.50400001928E-02 0. -1.
       -1   -1    0    0    0  501  0.00000000000E+00  0.00000000000E+00 -0.94051454340E+02  0.94051454475E+02  0.50400001928E-02 0.  1.
    10030    2    1    2    0    0  0.00000000000E+00  0.00000000000E+00  0.16341634840E+04  0.18222663929E+04  0.80632779562E+03 0.  0.
        4    1    3    3  502    0 -0.37143064840E+01  0.38469196516E+03  0.10895712288E+04  0.11554950366E+04  0.12699999809E+01 0. -1.
       -4    1    3    3    0  502  0.37143064840E+01 -0.38469196516E+03  0.54459225525E+03  0.66677135625E+03  0.12699999809E+01 0.  1.
</event>
<event>
 5   0  0.4377843E-02  0.8446722E+03  0.7818609E-02  0.9497516E-01
       -2   -1    0    0    0  501  0.00000000000E+00  0.00000000000E+00  0.41315381008E+03  0.41315381009E+03  0.25500000920E-02 0. -1.
        2   -1    0    0  501    0  0.00000000000E+00  0.00000000000E+00 -0.43172246916E+03  0.43172246917E+03  0.25500000920E-02 0.  1.
    10030    2    1    2    0    0  0.00000000000E+00  0.00000000000E+00 -0.18568659083E+02  0.84487627926E+03  0.84467220397E+03 0.  0.
        2    1    3    3  502    0  0.29074225049E+03 -0.25039641343E+03  0.16721895942E+03  0.41855895698E+03  0.25500000920E-02 0. -1.
       -2    1    3    3    0  502 -0.29074225049E+03  0.25039641343E+03 -0.18578761850E+03  0.42631732227E+03  0.25500000920E-02 0.  1.
</event>
<event>
 5   0  0.2635243E-02  0.7161820E+03  0.7818609E-02  0.9689952E-01
        1   -1    0    0  501    0  0.00000000000E+00  0.00000000000E+00  0.12985802716E+04  0.12985802716E+04  0.50400001928E-02 0. -1.
       -1   -1    0    0    0  501  0.00000000000E+00  0.00000000000E+00 -0.98745651864E+02  0.98745651993E+02  0.50400001928E-02 0.  1.
    10030    2    1    2    0    0  0.00000000000E+00  0.00000000000E+00  0.11998346197E+04  0.13973259236E+04  0.71618197551E+03 0.  0.
        1    1    3    3  502    0  0.22012646507E+02  0.34289934346E+03  0.40321008474E+03  0.52975738675E+03  0.50400001928E-02 0. -1.
       -1    1    3    3    0  502 -0.22012646507E+02 -0.34289934346E+03  0.79662453496E+03  0.86756853681E+03  0.50400001928E-02 0.  1.
</event>
<event>
 5   0  0.4590462E-02  0.9278781E+03  0.7818609E-02  0.9391388E-01
       -2   -1    0    0    0  501  0.00000000000E+00  0.00000000000E+00  0.10958814629E+04  0.10958814629E+04  0.25500000920E-02 0. -1.
        2   -1    0    0  501    0  0.00000000000E+00  0.00000000000E+00 -0.19640758168E+03  0.19640758170E+03  0.25500000920E-02 0.  1.
    10030    2    1    2    0    0  0.00000000000E+00  0.00000000000E+00  0.89947388123E+03  0.12922890446E+04  0.92787806948E+03 0.  0.
        3    1    3    3  502    0 -0.34416926338E+03 -0.11104982889E+03  0.44992301819E+02  0.36442950454E+03  0.10100000352E+00 0.  1.
       -3    1    3    3    0  502  0.34416926338E+03  0.11104982889E+03  0.85448157941E+03  0.92785954008E+03  0.10100000352E+00 0. -1.
</event>
<event>
 5   0  0.4663634E-02  0.7176444E+03  0.7818609E-02  0.9687525E-01
       -2   -1    0    0    0  501  0.00000000000E+00  0.00000000000E+00  0.10248551427E+03  0.10248551430E+03  0.25500000920E-02 0. -1.
        2   -1    0    0  501    0  0.00000000000E+00  0.00000000000E+00 -0.12563080332E+04  0.12563080332E+04  0.25500000920E-02 0.  1.
    10030    2    1    2    0    0  0.00000000000E+00  0.00000000000E+00 -0.11538225189E+04  0.13587935475E+04  0.71764441023E+03 0.  0.
        5    1    3    3  502    0 -0.22885820377E+03  0.20682196240E+03 -0.92387473605E+03  0.97402157033E+03  0.46999998093E+01 0.  1.
       -5    1    3    3    0  502  0.22885820377E+03 -0.20682196240E+03 -0.22994778288E+03  0.38477197717E+03  0.46999998093E+01 0. -1.
</event>
<event>
 5   0  0.2635243E-02  0.7296152E+03  0.7818609E-02  0.9667885E-01
        1   -1    0    0  501    0  0.00000000000E+00  0.00000000000E+00  0.19532529971E+04  0.19532529971E+04  0.50400001928E-02 0.  1.
       -1   -1    0    0    0  501  0.00000000000E+00  0.00000000000E+00 -0.68134851281E+02  0.68134851468E+02  0.50400001928E-02 0. -1.
    10030    2    1    2    0    0  0.00000000000E+00  0.00000000000E+00  0.18851181458E+04  0.20213878485E+04  0.72961524837E+03 0.  0.
        1    1    3    3  502    0 -0.35423856923E+03  0.48768607374E+02  0.74236856694E+03  0.82399904745E+03  0.50400001928E-02 0. -1.
       -1    1    3    3    0  502  0.35423856923E+03 -0.48768607374E+02  0.11427495788E+04  0.11973888011E+04  0.50400001928E-02 0.  1.
</event>
<event>
 5   0  0.2689372E-02  0.7494248E+03  0.7818609E-02  0.9636253E-01
       -1   -1    0    0    0  501  0.00000000000E+00  0.00000000000E+00  0.19503021333E+03  0.19503021339E+03  0.50400001928E-02 0. -1.
        1   -1    0    0  501    0  0.00000000000E+00  0.00000000000E+00 -0.71993652671E+03  0.71993652673E+03  0.50400001928E-02 0.  1.
    10030    2    1    2    0    0  0.00000000000E+00  0.00000000000E+00 -0.52490631338E+03  0.91496674012E+03  0.74942477788E+03 0.  0.
        4    1    3    3  502    0 -0.15343180228E+03  0.10819834568E+03 -0.65836787110E+03  0.68461526900E+03  0.12699999809E+01 0.  1.
       -4    1    3    3    0  502  0.15343180228E+03 -0.10819834568E+03  0.13346155772E+03  0.23035147112E+03  0.12699999809E+01 0. -1.
</event>
<event>
 5   0  0.2606520E-02  0.8018429E+03  0.7818609E-02  0.9557353E-01
        1   -1    0    0  501    0  0.00000000000E+00  0.00000000000E+00  0.95953251111E+03  0.95953251112E+03  0.50400001928E-02 0. -1.
       -1   -1    0    0    0  501  0.00000000000E+00  0.00000000000E+00 -0.16751700172E+03  0.16751700179E+03  0.50400001928E-02 0.  1.
    10030    2    1    2    0    0  0.00000000000E+00  0.00000000000E+00  0.79201550939E+03  0.11270495129E+04  0.80184290073E+03 0.  0.
        5    1    3    3  502    0  0.22590663960E+03  0.31293028683E+03  0.54841206817E+03  0.67062438126E+03  0.46999998093E+01 0. -1.
       -5    1    3    3    0  502 -0.22590663960E+03 -0.31293028683E+03  0.24360344122E+03  0.45642513165E+03  0.46999998093E+01 0.  1.
</event>
<event>
 5   0  0.2606520E-02  0.1007382E+04  0.7818609E-02  0.9300486E-01
       -1   -1    0    0    0  501  0.00000000000E+00  0.00000000000E+00  0.18606897258E+03  0.18606897265E+03  0.50400001928E-02 0.  1.
        1   -1    0    0  501    0  0.00000000000E+00  0.00000000000E+00 -0.13634969468E+04  0.13634969468E+04  0.50400001928E-02 0. -1.
    10030    2    1    2    0    0  0.00000000000E+00  0.00000000000E+00 -0.11774279742E+04  0.15495659195E+04  0.10073817073E+04 0.  0.
        5    1    3    3  502    0  0.37633250190E+03  0.25273192068E+03 -0.92636033720E+03  0.10313414275E+04  0.46999998093E+01 0.  1.
       -5    1    3    3    0  502 -0.37633250190E+03 -0.25273192068E+03 -0.25106763702E+03  0.51822449197E+03  0.46999998093E+01 0. -1.
</event>
<event>
 5   0  0.4663634E-02  0.7972119E+03  0.7818609E-02  0.9564061E-01
       -2   -1    0    0    0  501  0.00000000000E+00  0.00000000000E+00  0.42949795060E+03  0.42949795061E+03  0.25500000920E-02 0.  1.
        2   -1    0    0  501    0  0.00000000000E+00  0.00000000000E+00 -0.36993592829E+03  0.36993592830E+03  0.25500000920E-02 0. -1.
    10030    2    1    2    0    0  0.00000000000E+00  0.00000000000E+00  0.59562022307E+02  0.79943387891E+03  0.79721194939E+03 0.  0.
        5    1    3    3  502    0 -0.38124670877E+03 -0.10205447286E+03 -0.26055997529E+02  0.39555678907E+03  0.46999998093E+01 0. -1.
       -5    1    3    3    0  502  0.38124670877E+03  0.10205447286E+03  0.85618019836E+02  0.40387708984E+03  0.46999998093E+01 0.  1.
</event>
<event>
 5   0  0.4663634E-02  0.7003880E+03  0.7818609E-02  0.9716569E-01
        2   -1    0    0  501    0  0.00000000000E+00  0.00000000000E+00  0.21489012686E+03  0.21489012688E+03  0.25500000920E-02 0.  1.
       -2   -1    0    0    0  501  0.00000000000E+00  0.00000000000E+00 -0.57069091347E+03  0.57069091347E+03  0.25500000920E-02 0. -1.
    10030    2    1    2    0    0  0.00000000000E+00  0.00000000000E+00 -0.35580078660E+03  0.78558104035E+03  0.70038801475E+03 0.  0.
        5    1    3    3  502    0 -0.22147808515E+03 -0.12190133196E+03 -0.44965446388E+03  0.51587179010E+03  0.46999998093E+01 0. -1.
       -5    1    3    3    0  502  0.22147808515E+03  0.12190133196E+03  0.93853677271E+02  0.26970925025E+03  0.46999998093E+01 0.  1.
</event>
<event>
 5   0  0.4590462E-02  0.8018444E+03  0.7818609E-02  0.9557351E-01
       -2   -1    0    0    0  501  0.00000000000E+00  0.00000000000E+00  0.27204818495E+03  0.27204818496E+03  0.25500000920E-02 0. -1.
        2   -1    0    0  501    0  0.00000000000E+00  0.00000000000E+00 -0.59084604675E+03  0.59084604676E+03  0.25500000920E-02 0.  1.
    10030    2    1    2    0    0  0.00000000000E+00  0.00000000000E+00 -0.31879786180E+03  0.86289423172E+03  0.80184436049E+03 0.  0.
        3    1    3    3  502    0 -0.14781554111E+03  0.16455077892E+02  0.24126283170E+03  0.28342189037E+03  0.10100000352E+00 0. -1.
       -3    1    3    3    0  502  0.14781554111E+03 -0.16455077892E+02 -0.56006069350E+03  0.57947234135E+03  0.10100000352E+00 0.  1.
</event>
<event>
 5   0  0.4663634E-02  0.7979750E+03  0.7818609E-02  0.9562953E-01
       -2   -1    0    0    0  501  0.00000000000E+00  0.00000000000E+00  0.35265155553E+03  0.35265155554E+03  0.25500000920E-02 0. -1.
        2   -1    0    0  501    0  0.00000000000E+00  0.00000000000E+00 -0.45141170131E+03  0.45141170131E+03  0.25500000920E-02 0.  1.
    10030    2    1    2    0    0  0.00000000000E+00  0.00000000000E+00 -0.98760145772E+02  0.80406325686E+03  0.79797503384E+03 0.  0.
        5    1    3    3  502    0  0.71877203402E+02 -0.17456646689E+03 -0.40352878405E+03  0.44553041791E+03  0.46999998093E+01 0.  1.
       -5    1    3    3    0  502 -0.71877203402E+02  0.17456646689E+03  0.30476863827E+03  0.35853283895E+03  0.46999998093E+01 0. -1.
</event>
<event>
 5   0  0.2769394E-02  0.8071201E+03  0.7818609E-02  0.9549768E-01
        1   -1    0    0  501    0  0.00000000000E+00  0.00000000000E+00  0.30850066261E+03  0.30850066265E+03  0.50400001928E-02 0. -1.
       -1   -1    0    0    0  501  0.00000000000E+00  0.00000000000E+00 -0.52791042255E+03  0.52791042257E+03  0.50400001928E-02 0.  1.
    10030    2    1    2    0    0  0.00000000000E+00  0.00000000000E+00 -0.21940975994E+03  0.83641108522E+03  0.80712010303E+03 0.  0.
        2    1    3    3  502    0 -0.11602204230E+03  0.20384550759E+03  0.23061307632E+03  0.32893235815E+03  0.25500000920E-02 0. -1.
       -2    1    3    3    0  502  0.11602204230E+03 -0.20384550759E+03 -0.45002283626E+03  0.50747872707E+03  0.25500000920E-02 0.  1.
</event>
<event>
 5   0  0.4590462E-02  0.7930733E+03  0.7818609E-02  0.9570098E-01
       -2   -1    0    0    0  501  0.00000000000E+00  0.00000000000E+00  0.11345166677E+03  0.11345166680E+03  0.25500000920E-02 0. -1.
        2   -1    0    0  501    0  0.00000000000E+00  0.00000000000E+00 -0.13859763872E+04  0.13859763872E+04  0.25500000920E-02 0.  1.
    10030    2    1    2    0    0  0.00000000000E+00  0.00000000000E+00 -0.12725247204E+04  0.14994280540E+04  0.79307334153E+03 0.  0.
        3    1    3    3  502    0 -0.30081301246E+03 -0.77387060657E+02 -0.17020883314E+03  0.35418679069E+03  0.10100000352E+00 0. -1.
       -3    1    3    3    0  502  0.30081301246E+03  0.77387060657E+02 -0.11023158873E+04  0.11452412633E+04  0.10100000352E+00 0.  1.
</event>
<event>
 5   0  0.4377843E-02  0.6751536E+03  0.7818609E-02  0.9760692E-01
        2   -1    0    0  501    0  0.00000000000E+00  0.00000000000E+00  0.14401631246E+04  0.14401631246E+04  0.25500000920E-02 0. -1.
       -2   -1    0    0    0  501  0.00000000000E+00  0.00000000000E+00 -0.79128600700E+02  0.79128600741E+02  0.25500000920E-02 0.  1.
    10030    2    1    2    0    0  0.00000000000E+00  0.00000000000E+00  0.13610345239E+04  0.15192917253E+04  0.67515359100E+03 0.  0.
        2    1    3    3  502    0  0.24888499312E+02  0.28468559734E+03  0.27613582217E+03  0.39738686318E+03  0.25500000920E-02 0.  1.
       -2    1    3    3    0  502 -0.24888499312E+02 -0.28468559734E+03  0.10848987017E+04  0.11219048622E+04  0.25500000920E-02 0. -1.
</event>
<event>
 5   0  0.4590462E-02  0.8365895E+03  0.7818609E-02  0.9508515E-01
       -2   -1    0    0    0  501  0.00000000000E+00  0.00000000000E+00  0.14046166415E+03  0.14046166417E+03  0.25500000920E-02 0. -1.
        2   -1    0    0  501    0  0.00000000000E+00  0.00000000000E+00 -0.12456813813E+04  0.12456813813E+04  0.25500000920E-02 0.  1.
    10030    2    1    2    0    0  0.00000000000E+00  0.00000000000E+00 -0.11052197171E+04  0.13861430455E+04  0.83658945686E+03 0.  0.
        3    1    3    3  502    0 -0.48023558305E+02  0.39019276716E+03 -0.31587744933E+03  0.50431659788E+03  0.10100000352E+00 0. -1.
       -3    1    3    3    0  502  0.48023558305E+02 -0.39019276716E+03 -0.78934226781E+03  0.88182644758E+03  0.10100000352E+00 0.  1.
</event>
<event>
 5   0  0.2769394E-02  0.8027830E+03  0.7818609E-02  0.9555998E-01
        1   -1    0    0  501    0  0.00000000000E+00  0.00000000000E+00  0.59698110669E+03  0.59698110671E+03  0.50400001928E-02 0.  1.
       -1   -1    0    0    0  501  0.00000000000E+00  0.00000000000E+00 -0.26988311661E+03  0.26988311665E+03  0.50400001928E-02 0. -1.
    10030    2    1    2    0    0  0.00000000000E+00  0.00000000000E+00  0.32709799008E+03  0.86686422336E+03  0.80278296359E+03 0.  0.
        2    1    3    3  502    0 -0.35595279738E+03 -0.27846476084E+02  0.36159382328E+03  0.50816130631E+03  0.25500000920E-02 0. -1.
       -2    1    3    3    0  502  0.35595279738E+03  0.27846476084E+02 -0.34495833195E+02  0.35870291705E+03  0.25500000920E-02 0.  1.
</event>
<event>
 5   0  0.4377843E-02  0.7417285E+03  0.7818609E-02  0.9648417E-01
       -2   -1    0    0    0  501  0.00000000000E+00  0.00000000000E+00  0.30361334438E+03  0.30361334439E+03  0.25500000920E-02 0.  1.
        2   -1    0    0  501    0  0.00000000000E+00  0.00000000000E+00 -0.45301133208E+03  0.45301133208E+03  0.25500000920E-02 0. -1.
    10030    2    1    2    0    0  0.00000000000E+00  0.00000000000E+00 -0.14939798770E+03  0.75662467647E+03  0.74172848288E+03 0.  0.
        2    1    3    3  502    0 -0.15865839356E+03  0.28060169426E+03 -0.26176812758E+03  0.41524974328E+03  0.25500000920E-02 0. -1.
       -2    1    3    3    0  502  0.15865839356E+03 -0.28060169426E+03  0.11237013988E+03  0.34137493319E+03  0.25500000920E-02 0.  1.
</event>
<event>
 5   0  0.2689372E-02  0.7680579E+03  0.7818609E-02  0.9607439E-01
       -1   -1    0    0    0  501  0.00000000000E+00  0.00000000000E+00  0.21943344097E+03  0.21943344102E+03  0.50400001928E-02 0. -1.
        1   -1    0    0  501    0  0.00000000000E+00  0.00000000000E+00 -0.67208637688E+03  0.67208637690E+03  0.50400001928E-02 0.  1.
    10030    2    1    2    0    0  0.00000000000E+00  0.00000000000E+00 -0.45265293591E+03  0.89151981792E+03  0.76805787891E+03 0.  0.
        4    1    3    3  502    0  0.90766571509E+02  0.96422719729E+02 -0.64474379190E+03  0.65820367781E+03  0.12699999809E+01 0.  1.
       -4    1    3    3    0  502 -0.90766571509E+02 -0.96422719729E+02  0.19209085599E+03  0.23331614011E+03  0.12699999809E+01 0. -1.
</event>
<event>
 5   0  0.2689372E-02  0.7970821E+03  0.7818609E-02  0.9564250E-01
        1   -1    0    0  501    0  0.00000000000E+00  0.00000000000E+00  0.25832775655E+03  0.25832775660E+03  0.50400001928E-02 0.  1.
       -1   -1    0    0    0  501  0.00000000000E+00  0.00000000000E+00 -0.61485825774E+03  0.61485825776E+03  0.50400001928E-02 0. -1.
    10030    2    1    2    0    0  0.00000000000E+00  0.00000000000E+00 -0.35653050119E+03  0.87318601436E+03  0.79708206440E+03 0.  0.
        4    1    3    3  502    0  0.31822930544E+03  0.14492264169E+03 -0.38773053014E+03  0.52211975620E+03  0.12699999809E+01 0. -1.
       -4    1    3    3    0  502 -0.31822930544E+03 -0.14492264169E+03  0.31200028946E+02  0.35106625816E+03  0.12699999809E+01 0.  1.
</event>
<event>
 5   0  0.4700220E-02  0.4813598E+03  0.7818609E-02  0.1018762E+00
        2   -1    0    0  501    0  0.00000000000E+00  0.00000000000E+00  0.24675336023E+04  0.24675336023E+04  0.25500000920E-02 0. -1.
       -2   -1    0    0    0  501  0.00000000000E+00  0.00000000000E+00 -0.23475594941E+02  0.23475595079E+02  0.25500000920E-02 0.  1.
    10030    2    1    2    0    0  0.00000000000E+00  0.00000000000E+00  0.24440580074E+04  0.24910091974E+04  0.48135982186E+03 0.  0.
        4    1    3    3  502    0 -0.14291184292E+03  0.17661348583E+03  0.16330734640E+04  0.16488015860E+04  0.12699999809E+01 0. -1.
       -4    1    3    3    0  502  0.14291184292E+03 -0.17661348583E+03  0.81098454332E+03  0.84220761135E+03  0.12699999809E+01 0.  1.
</event>
<event>
 5   0  0.2759559E-02  0.7838190E+03  0.7818609E-02  0.9583738E-01
        1   -1    0    0  501    0  0.00000000000E+00  0.00000000000E+00  0.24570066771E+03  0.24570066776E+03  0.50400001928E-02 0.  1.
       -1   -1    0    0    0  501  0.00000000000E+00  0.00000000000E+00 -0.62512262323E+03  0.62512262326E+03  0.50400001928E-02 0. -1.
    10030    2    1    2    0    0  0.00000000000E+00  0.00000000000E+00 -0.37942195552E+03  0.87082329102E+03  0.78381897390E+03 0.  0.
        3    1    3    3  502    0 -0.33387800714E+03 -0.11010142692E+03 -0.38212968683E+03  0.51924941561E+03  0.10100000352E+00 0. -1.
       -3    1    3    3    0  502  0.33387800714E+03  0.11010142692E+03  0.27077313033E+01  0.35157387541E+03  0.10100000352E+00 0.  1.
</event>
<event>
 5   0  0.1786500E-02  0.1026736E+04  0.7818609E-02  0.9279697E-01
       -4   -1    0    0    0  501  0.00000000000E+00  0.00000000000E+00  0.70908276180E+03  0.70908389912E+03  0.12699999809E+01 0. -1.
        4   -1    0    0  501    0  0.00000000000E+00  0.00000000000E+00 -0.37167046772E+03  0.37167263751E+03  0.12699999809E+01 0.  1.
    10030    2    1    2    0    0  0.00000000000E+00  0.00000000000E+00  0.33741229408E+03  0.10807565366E+04  0.10267364001E+04 0.  0.
        3    1    3    3  502    0 -0.15176900258E+03  0.17187735544E+03 -0.31477611228E+03  0.38943506072E+03  0.10100000352E+00 0.  1.
       -3    1    3    3    0  502  0.15176900258E+03 -0.17187735544E+03  0.65218840636E+03  0.69132147591E+03  0.10100000352E+00 0. -1.
</event>
<event>
 5   0  0.4590462E-02  0.7991540E+03  0.7818609E-02  0.9561242E-01
       -2   -1    0    0    0  501  0.00000000000E+00  0.00000000000E+00  0.12304210129E+04  0.12304210129E+04  0.25500000920E-02 0.  1.
        2   -1    0    0  501    0  0.00000000000E+00  0.00000000000E+00 -0.12976192032E+03  0.12976192035E+03  0.25500000920E-02 0. -1.
    10030    2    1    2    0    0  0.00000000000E+00  0.00000000000E+00  0.11006590926E+04  0.13601829332E+04  0.79915403635E+03 0.  0.
        3    1    3    3  502    0 -0.38896492887E+03  0.88651694005E+01  0.70529338521E+03  0.80548809833E+03  0.10100000352E+00 0. -1.
       -3    1    3    3    0  502  0.38896492887E+03 -0.88651694005E+01  0.39536570735E+03  0.55469483491E+03  0.10100000352E+00 0.  1.
</event>
<event>
 5   0  0.4590462E-02  0.7684700E+03  0.7818609E-02  0.9606811E-01
        2   -1    0    0  501    0  0.00000000000E+00  0.00000000000E+00  0.84404640116E+03  0.84404640116E+03  0.25500000920E-02 0.  1.
       -2   -1    0    0    0  501  0.00000000000E+00  0.00000000000E+00 -0.17491520481E+03  0.17491520483E+03  0.25500000920E-02 0. -1.
    10030    2    1    2    0    0  0.00000000000E+00  0.00000000000E+00  0.66913119635E+03  0.10189616060E+04  0.76847003622E+03 0.  0.
        3    1    3    3  502    0  0.15058075222E+02  0.29523518994E+03  0.91076336817E+01  0.29575923011E+03  0.10100000352E+00 0. -1.
       -3    1    3    3    0  502 -0.15058075222E+02 -0.29523518994E+03  0.66002356267E+03  0.72320237588E+03  0.10100000352E+00 0.  1.
</event>
<event>
 5   0  0.4377843E-02  0.7990668E+03  0.7818609E-02  0.9561369E-01
        2   -1    0    0  501    0  0.00000000000E+00  0.00000000000E+00  0.88711240863E+03  0.88711240863E+03  0.25500000920E-02 0. -1.
       -2   -1    0    0    0  501  0.00000000000E+00  0.00000000000E+00 -0.17993993135E+03  0.17993993137E+03  0.25500000920E-02 0.  1.
    10030    2    1    2    0    0  0.00000000000E+00  0.00000000000E+00  0.70717247728E+03  0.10670523400E+04  0.79906682054E+03 0.  0.
        2    1    3    3  502    0 -0.67087278092E+02  0.19887382825E+03 -0.10039239025E+03  0.23265883708E+03  0.25500000920E-02 0.  1.
       -2    1    3    3    0  502  0.67087278092E+02 -0.19887382825E+03  0.80756486753E+03  0.83439350292E+03  0.25500000920E-02 0. -1.
</event>
<event>
 5   0  0.2635243E-02  0.8123775E+03  0.7818609E-02  0.9542272E-01
       -1   -1    0    0    0  501  0.00000000000E+00  0.00000000000E+00  0.32302126316E+03  0.32302126320E+03  0.50400001928E-02 0.  1.
        1   -1    0    0  501    0  0.00000000000E+00  0.00000000000E+00 -0.51076918921E+03  0.51076918923E+03  0.50400001928E-02 0. -1.
    10030    2    1    2    0    0  0.00000000000E+00  0.00000000000E+00 -0.18774792605E+03  0.83379045243E+03  0.81237751989E+03 0.  0.
        1    1    3    3  502    0  0.20047034542E+01 -0.27206091207E+03  0.21568522721E+03  0.34719054707E+03  0.50400001928E-02 0.  1.
       -1    1    3    3    0  502 -0.20047034542E+01  0.27206091207E+03 -0.40343315326E+03  0.48659990535E+03  0.50400001928E-02 0. -1.
</event>
<event>
 5   0  0.4700220E-02  0.7922989E+03  0.7818609E-02  0.9571232E-01
       -2   -1    0    0    0  501  0.00000000000E+00  0.00000000000E+00  0.78463615553E+02  0.78463615595E+02  0.25500000920E-02 0.  1.
        2   -1    0    0  501    0  0.00000000000E+00  0.00000000000E+00 -0.20000910403E+04  0.20000910403E+04  0.25500000920E-02 0. -1.
    10030    2    1    2    0    0  0.00000000000E+00  0.00000000000E+00 -0.19216274247E+04  0.20785546559E+04  0.79229886912E+03 0.  0.
        4    1    3    3  502    0 -0.82551138119E+02 -0.15336670105E+02  0.54846396204E+02  0.10029777630E+03  0.12699999809E+01 0.  1.
       -4    1    3    3    0  502  0.82551138119E+02  0.15336670105E+02 -0.19764738209E+04  0.19782568796E+04  0.12699999809E+01 0. -1.
</event>
<event>
 5   0  0.2759559E-02  0.8003378E+03  0.7818609E-02  0.9559528E-01
        1   -1    0    0  501    0  0.00000000000E+00  0.00000000000E+00  0.86883349832E+03  0.86883349833E+03  0.50400001928E-02 0. -1.
       -1   -1    0    0    0  501  0.00000000000E+00  0.00000000000E+00 -0.18431051936E+03  0.18431051943E+03  0.50400001928E-02 0.  1.
    10030    2    1    2    0    0  0.00000000000E+00  0.00000000000E+00  0.68452297895E+03  0.10531440178E+04  0.80033781207E+03 0.  0.
        3    1    3    3  502    0  0.37688349807E+03 -0.12264082406E+03  0.26955183532E+03  0.47931215817E+03  0.10100000352E+00 0.  1.
       -3    1    3    3    0  502 -0.37688349807E+03  0.12264082406E+03  0.41497114363E+03  0.57383185960E+03  0.10100000352E+00 0. -1.
</event>
<event>
 5   0  0.4590462E-02  0.8291028E+03  0.7818609E-02  0.9518822E-01
        2   -1    0    0  501    0  0.00000000000E+00  0.00000000000E+00  0.95395837050E+03  0.95395837050E+03  0.25500000920E-02 0. -1.
       -2   -1    0    0    0  501  0.00000000000E+00  0.00000000000E+00 -0.18014712539E+03  0.18014712541E+03  0.25500000920E-02 0.  1.
    10030    2    1    2    0    0  0.00000000000E+00  0.00000000000E+00  0.77381124511E+03  0.11341054959E+04  0.82910278784E+03 0.  0.
        3    1    3    3  502    0  0.87583090422E+02  0.40438122714E+03  0.35182104539E+03  0.54311419864E+03  0.10100000352E+00 0.  1.
       -3    1    3    3    0  502 -0.87583090422E+02 -0.40438122714E+03  0.42199019972E+03  0.59099129727E+03  0.10100000352E+00 0. -1.
</event>
<event>
 5   0  0.4663634E-02  0.7420515E+03  0.7818609E-02  0.9647903E-01
       -2   -1    0    0    0  501  0.00000000000E+00  0.00000000000E+00  0.36216345621E+03  0.36216345622E+03  0.25500000920E-02 0. -1.
        2   -1    0    0  501    0  0.00000000000E+00  0.00000000000E+00 -0.38010489451E+03  0.38010489452E+03  0.25500000920E-02 0.  1.
    10030    2    1    2    0    0  0.00000000000E+00  0.00000000000E+00 -0.17941438301E+02  0.74226835074E+03  0.74205148696E+03 0.  0.
        5    1    3    3  502    0  0.99739204910E+02  0.24692953956E+03  0.24939899044E+03  0.36488909675E+03  0.46999998093E+01 0. -1.
       -5    1    3    3    0  502 -0.99739204910E+02 -0.24692953956E+03 -0.26734042874E+03  0.37737925398E+03  0.46999998093E+01 0.  1.
</event>
<event>
 5   0  0.2689372E-02  0.7835069E+03  0.7818609E-02  0.9584202E-01
       -1   -1    0    0    0  501  0.00000000000E+00  0.00000000000E+00  0.21016451477E+03  0.21016451483E+03  0.50400001928E-02 0.  1.
        1   -1    0    0  501    0  0.00000000000E+00  0.00000000000E+00 -0.73024106558E+03  0.73024106560E+03  0.50400001928E-02 0. -1.
    10030    2    1    2    0    0  0.00000000000E+00  0.00000000000E+00 -0.52007655081E+03  0.94040558043E+03  0.78350688382E+03 0.  0.
        4    1    3    3  502    0  0.13981802803E+03 -0.22818979159E+03  0.83345961617E+02  0.28029952580E+03  0.12699999809E+01 0.  1.
       -4    1    3    3    0  502 -0.13981802803E+03  0.22818979159E+03 -0.60342251243E+03  0.66010605463E+03  0.12699999809E+01 0. -1.
</event>
<event>
 5   0  0.2635243E-02  0.7985023E+03  0.7818609E-02  0.9562187E-01
       -1   -1    0    0    0  501  0.00000000000E+00  0.00000000000E+00  0.30955139909E+03  0.30955139913E+03  0.50400001928E-02 0. -1.
        1   -1    0    0  501    0  0.00000000000E+00  0.00000000000E+00 -0.51494355093E+03  0.51494355096E+03  0.50400001928E-02 0.  1.
    10030    2    1    2    0    0  0.00000000000E+00  0.00000000000E+00 -0.20539215185E+03  0.82449495008E+03  0.79850233981E+03 0.  0.
        1    1    3    3  502    0 -0.24693759614E+03 -0.58361251636E+02  0.21558668330E+03  0.33295920189E+03  0.50400001928E-02 0. -1.
       -1    1    3    3    0  502  0.24693759614E+03  0.58361251636E+02 -0.42097883515E+03  0.49153574819E+03  0.50400001928E-02 0.  1.
</event>
<event>
 5   0  0.4684283E-02  0.8045819E+03  0.7818609E-02  0.9553409E-01
        2   -1    0    0  501    0  0.00000000000E+00  0.00000000000E+00  0.12100463416E+04  0.12100463416E+04  0.25500000920E-02 0. -1.
       -2   -1    0    0    0  501  0.00000000000E+00  0.00000000000E+00 -0.13374531170E+03  0.13374531172E+03  0.25500000920E-02 0.  1.
    10030    2    1    2    0    0  0.00000000000E+00  0.00000000000E+00  0.10763010299E+04  0.13437916533E+04  0.80458194147E+03 0.  0.
        1    1    3    3  502    0  0.13205357916E+03 -0.36115138185E+03  0.73555316163E+03  0.83000416987E+03  0.50400001928E-02 0. -1.
       -1    1    3    3    0  502 -0.13205357916E+03  0.36115138185E+03  0.34074786822E+03  0.51378748341E+03  0.50400001928E-02 0.  1.
</event>
<event>
 5   0  0.2689372E-02  0.7923557E+03  0.7818609E-02  0.9571148E-01
       -1   -1    0    0    0  501  0.00000000000E+00  0.00000000000E+00  0.13002302443E+03  0.13002302453E+03  0.50400001928E-02 0.  1.
        1   -1    0    0  501    0  0.00000000000E+00  0.00000000000E+00 -0.12071470122E+04  0.12071470122E+04  0.50400001928E-02 0. -1.
    10030    2    1    2    0    0  0.00000000000E+00  0.00000000000E+00 -0.10771239877E+04  0.13371700367E+04  0.79235574216E+03 0.  0.
        4    1    3    3  502    0  0.16134746497E+03  0.11536294851E+03 -0.11173177761E+04  0.11347873105E+04  0.12699999809E+01 0. -1.
       -4    1    3    3    0  502 -0.16134746497E+03 -0.11536294851E+03  0.40193788388E+02  0.20238272621E+03  0.12699999809E+01 0.  1.
</event>
<event>
 5   0  0.4663634E-02  0.9880340E+03  0.7818609E-02  0.9321767E-01
       -2   -1    0    0    0  501  0.00000000000E+00  0.00000000000E+00  0.18003102597E+03  0.18003102599E+03  0.25500000920E-02 0.  1.
        2   -1    0    0  501    0  0.00000000000E+00  0.00000000000E+00 -0.13556151266E+04  0.13556151266E+04  0.25500000920E-02 0. -1.
    10030    2    1    2    0    0  0.00000000000E+00  0.00000000000E+00 -0.11755841006E+04  0.15356461526E+04  0.98803397123E+03 0.  0.
        5    1    3    3  502    0 -0.39524800989E+03 -0.38009891481E+02 -0.13103207143E+03  0.41815934153E+03  0.46999998093E+01 0.  1.
       -5    1    3    3    0  502  0.39524800989E+03  0.38009891481E+02 -0.10445520292E+04  0.11174868111E+04  0.46999998093E+01 0. -1.
</event>
<event>
 5   0  0.2769394E-02  0.7976845E+03  0.7818609E-02  0.9563375E-01
        1   -1    0    0  501    0  0.00000000000E+00  0.00000000000E+00  0.65112287873E+03  0.65112287874E+03  0.50400001928E-02 0.  1.
       -1   -1    0    0    0  501  0.00000000000E+00  0.00000000000E+00 -0.24430894660E+03  0.24430894665E+03  0.50400001928E-02 0. -1.
    10030    2    1    2    0    0  0.00000000000E+00  0.00000000000E+00  0.40681393213E+03  0.89543182539E+03  0.79768451067E+03 0.  0.
        2    1    3    3  502    0  0.26939700283E+03 -0.12323603608E+03  0.50317586282E+03  0.58390736822E+03  0.25500000920E-02 0.  1.
       -2    1    3    3    0  502 -0.26939700283E+03  0.12323603608E+03 -0.96361930698E+02  0.31152445718E+03  0.25500000920E-02 0. -1.
</event>
<event>
 5   0  0.2606520E-02  0.7983319E+03  0.7818609E-02  0.9562435E-01
       -1   -1    0    0    0  501  0.00000000000E+00  0.00000000000E+00  0.14233034391E+03  0.14233034400E+03  0.50400001928E-02 0.  1.
        1   -1    0    0  501    0  0.00000000000E+00  0.00000000000E+00 -0.11194623491E+04  0.11194623491E+04  0.50400001928E-02 0. -1.
    10030    2    1    2    0    0  0.00000000000E+00  0.00000000000E+00 -0.97713200521E+03  0.12617926931E+04  0.79833191396E+03 0.  0.
        5    1    3    3  502    0 -0.21253891713E+03  0.31108728550E+03 -0.28029902689E+03  0.46961444289E+03  0.46999998093E+01 0.  1.
       -5    1    3    3    0  502  0.21253891713E+03 -0.31108728550E+03 -0.69683297832E+03  0.79217825025E+03  0.46999998093E+01 0. -1.
</event>
<event>
 5   0  0.2635243E-02  0.7975594E+03  0.7818609E-02  0.9563556E-01
       -1   -1    0    0    0  501  0.00000000000E+00  0.00000000000E+00  0.16014988911E+03  0.16014988919E+03  0.50400001928E-02 0. -1.
        1   -1    0    0  501    0  0.00000000000E+00  0.00000000000E+00 -0.99297761889E+03  0.99297761891E+03  0.50400001928E-02 0.  1.
    10030    2    1    2    0    0  0.00000000000E+00  0.00000000000E+00 -0.83282772978E+03  0.11531275081E+04  0.79755941624E+03 0.  0.
        1    1    3    3  502    0  0.83269935943E+02 -0.10431777471E+02  0.14723826322E+03  0.16947510258E+03  0.50400001928E-02 0. -1.
       -1    1    3    3    0  502 -0.83269935943E+02  0.10431777471E+02 -0.98006599300E+03  0.98365240552E+03  0.50400001928E-02 0.  1.
</event>
<event>
 5   0  0.4663634E-02  0.8269348E+03  0.7818609E-02  0.9521828E-01
       -2   -1    0    0    0  501  0.00000000000E+00  0.00000000000E+00  0.23807235252E+03  0.23807235254E+03  0.25500000920E-02 0. -1.
        2   -1    0    0  501    0  0.00000000000E+00  0.00000000000E+00 -0.71808120196E+03  0.71808120196E+03  0.25500000920E-02 0.  1.
    10030    2    1    2    0    0  0.00000000000E+00  0.00000000000E+00 -0.48000884943E+03  0.95615355450E+03  0.82693477629E+03 0.  0.
        5    1    3    3  502    0  0.32566411186E+03  0.15117530440E+03 -0.47703004268E+03  0.59706853713E+03  0.46999998093E+01 0.  1.
       -5    1    3    3    0  502 -0.32566411186E+03 -0.15117530440E+03 -0.29788067499E+01  0.35908501737E+03  0.46999998093E+01 0. -1.
</event>
<event>
 5   0  0.2769394E-02  0.7852574E+03  0.7818609E-02  0.9581605E-01
        1   -1    0    0  501    0  0.00000000000E+00  0.00000000000E+00  0.61810743532E+03  0.61810743535E+03  0.50400001928E-02 0.  1.
       -1   -1    0    0    0  501  0.00000000000E+00  0.00000000000E+00 -0.24940211586E+03  0.24940211591E+03  0.50400001928E-02 0. -1.
    10030    2    1    2    0    0  0.00000000000E+00  0.00000000000E+00  0.36870531947E+03  0.86750955126E+03  0.78525741570E+03 0.  0.
        2    1    3    3  502    0  0.86836595141E+02 -0.24056327183E+03  0.51345931276E+03  0.57363032336E+03  0.25500000920E-02 0.  1.
       -2    1    3    3    0  502 -0.86836595141E+02  0.24056327183E+03 -0.14475399329E+03  0.29387922790E+03  0.25500000920E-02 0. -1.
</event>
<event>
 5   0  0.2759559E-02  0.7671043E+03  0.7818609E-02  0.9608892E-01
       -1   -1    0    0    0  501  0.00000000000E+00  0.00000000000E+00  0.17605777316E+03  0.17605777323E+03  0.50400001928E-02 0. -1.
        1   -1    0    0  501    0  0.00000000000E+00  0.00000000000E+00 -0.83559080415E+03  0.83559080416E+03  0.50400001928E-02 0.  1.
    10030    2    1    2    0    0  0.00000000000E+00  0.00000000000E+00 -0.65953303098E+03  0.10116485774E+04  0.76710431180E+03 0.  0.
        3    1    3    3  502    0 -0.93070001568E+02 -0.29230394899E+03 -0.26133837622E+02  0.30787434361E+03  0.10100000352E+00 0. -1.
       -3    1    3    3    0  502  0.93070001568E+02  0.29230394899E+03 -0.63339919336E+03  0.70377423378E+03  0.10100000352E+00 0.  1.
</event>
<event>
 5   0  0.4590462E-02  0.8022823E+03  0.7818609E-02  0.9556719E-01
        2   -1    0    0  501    0  0.00000000000E+00  0.00000000000E+00  0.45601169905E+03  0.45601169906E+03  0.25500000920E-02 0.  1.
       -2   -1    0    0    0  501  0.00000000000E+00  0.00000000000E+00 -0.35287303919E+03  0.35287303920E+03  0.25500000920E-02 0. -1.
    10030    2    1    2    0    0  0.00000000000E+00  0.00000000000E+00  0.10313865986E+03  0.80888473825E+03  0.80228232974E+03 0.  0.
        3    1    3    3  502    0 -0.16480560815E+03 -0.34639301540E+03  0.16986011218E+03  0.41952530020E+03  0.10100000352E+00 0.  1.
       -3    1    3    3    0  502  0.16480560815E+03  0.34639301540E+03 -0.66721452318E+02  0.38935943805E+03  0.10100000352E+00 0. -1.
</event>
<event>
 5   0  0.4663634E-02  0.8100604E+03  0.7818609E-02  0.9545568E-01
        2   -1    0    0  501    0  0.00000000000E+00  0.00000000000E+00  0.23259840626E+03  0.23259840627E+03  0.25500000920E-02 0.  1.
       -2   -1    0    0    0  501  0.00000000000E+00  0.00000000000E+00 -0.70529054283E+03  0.70529054284E+03  0.25500000920E-02 0. -1.
    10030    2    1    2    0    0  0.00000000000E+00  0.00000000000E+00 -0.47269213658E+03  0.93788894911E+03  0.81006038348E+03 0.  0.
        5    1    3    3  502    0 -0.24277829222E+03 -0.32394509695E+03 -0.22237350245E+03  0.46190235938E+03  0.46999998093E+01 0.  1.
       -5    1    3    3    0  502  0.24277829222E+03  0.32394509695E+03 -0.25031863412E+03  0.47598658973E+03  0.46999998093E+01 0. -1.
</event>
<event>
 5   0  0.4684283E-02  0.7975727E+03  0.7818609E-02  0.9563537E-01
        2   -1    0    0  501    0  0.00000000000E+00  0.00000000000E+00  0.51173864788E+03  0.51173864789E+03  0.25500000920E-02 0.  1.
       -2   -1    0    0    0  501  0.00000000000E+00  0.00000000000E+00 -0.31076519873E+03  0.31076519874E+03  0.25500000920E-02 0. -1.
    10030    2    1    2    0    0  0.00000000000E+00  0.00000000000E+00  0.20097344915E+03  0.82250384663E+03  0.79757272424E+03 0.  0.
        1    1    3    3  502    0 -0.65510960854E+02 -0.12324226737E+03 -0.28475463536E+03  0.31712071021E+03  0.50400001928E-02 0. -1.
       -1    1    3    3    0  502  0.65510960854E+02  0.12324226737E+03  0.48572808452E+03  0.50538313641E+03  0.50400001928E-02 0.  1.
</event>
<event>
 5   0  0.2689372E-02  0.8201402E+03  0.7818609E-02  0.9531314E-01
       -1   -1    0    0    0  501  0.00000000000E+00  0.00000000000E+00  0.45540681180E+03  0.45540681183E+03  0.50400001928E-02 0. -1.
        1   -1    0    0  501    0  0.00000000000E+00  0.00000000000E+00 -0.36924678980E+03  0.36924678984E+03  0.50400001928E-02 0.  1.
    10030    2    1    2    0    0  0.00000000000E+00  0.00000000000E+00  0.86160022000E+02  0.82465360167E+03  0.82014024005E+03 0.  0.
        4    1    3    3  502    0 -0.45318015604E+02  0.42538452879E+01 -0.36669685074E+03  0.36951320813E+03  0.12699999809E+01 0.  1.
       -4    1    3    3    0  502  0.45318015604E+02 -0.42538452879E+01  0.45285687274E+03  0.45514039354E+03  0.12699999809E+01 0. -1.
</event>
<event>
 5   0  0.2759559E-02  0.4392252E+03  0.7818609E-02  0.1030985E+00
       -1   -1    0    0    0  501  0.00000000000E+00  0.00000000000E+00  0.46426871863E+02  0.46426872137E+02  0.50400001928E-02 0. -1.
        1   -1    0    0  501    0  0.00000000000E+00  0.00000000000E+00 -0.10388314239E+04  0.10388314239E+04  0.50400001928E-02 0.  1.
    10030    2    1    2    0    0  0.00000000000E+00  0.00000000000E+00 -0.99240455207E+03  0.10852582961E+04  0.43922519764E+03 0.  0.
        3    1    3    3  502    0  0.15792724351E+03  0.38484883829E+02 -0.86108191783E+03  0.87629000904E+03  0.10100000352E+00 0.  1.
       -3    1    3    3    0  502 -0.15792724351E+03 -0.38484883829E+02 -0.13132263424E+03  0.20896828704E+03  0.10100000352E+00 0. -1.
</event>
<event>
 5   0  0.2635243E-02  0.7518784E+03  0.7818609E-02  0.9632408E-01
        1   -1    0    0  501    0  0.00000000000E+00  0.00000000000E+00  0.71908263964E+03  0.71908263965E+03  0.50400001928E-02 0. -1.
       -1   -1    0    0    0  501  0.00000000000E+00  0.00000000000E+00 -0.19654249065E+03  0.19654249072E+03  0.50400001928E-02 0.  1.
    10030    2    1    2    0    0  0.00000000000E+00  0.00000000000E+00  0.52254014898E+03  0.91562513037E+03  0.75187842905E+03 0.  0.
        1    1    3    3  502    0 -0.21931378706E+03  0.22408651297E+03  0.86952322995E+01  0.31367006484E+03  0.50400001928E-02 0.  1.
       -1    1    3    3    0  502  0.21931378706E+03 -0.22408651297E+03  0.51384491668E+03  0.60195506553E+03  0.50400001928E-02 0. -1.
</event>
<event>
 5   0  0.4377843E-02  0.7383423E+03  0.7818609E-02  0.9653819E-01
        2   -1    0    0  501    0  0.00000000000E+00  0.00000000000E+00  0.28994376497E+03  0.28994376498E+03  0.25500000920E-02 0. -1.
       -2   -1    0    0    0  501  0.00000000000E+00  0.00000000000E+00 -0.47004753904E+03  0.47004753904E+03  0.25500000920E-02 0.  1.
    10030    2    1    2    0    0  0.00000000000E+00  0.00000000000E+00 -0.18010377407E+03  0.75999130402E+03  0.73834234116E+03 0.  0.
        2    1    3    3  502    0 -0.29695674580E+03 -0.99678040791E+02 -0.29114742862E+03  0.42765154728E+03  0.25500000920E-02 0.  1.
       -2    1    3    3    0  502  0.29695674580E+03  0.99678040791E+02  0.11104365454E+03  0.33233975674E+03  0.25500000920E-02 0. -1.
</event>
<event>
 5   0  0.2635243E-02  0.7918051E+03  0.7818609E-02  0.9571955E-01
        1   -1    0    0  501    0  0.00000000000E+00  0.00000000000E+00  0.29977054693E+03  0.29977054698E+03  0.50400001928E-02 0. -1.
       -1   -1    0    0    0  501  0.00000000000E+00  0.00000000000E+00 -0.52286264471E+03  0.52286264473E+03  0.50400001928E-02 0.  1.
    10030    2    1    2    0    0  0.00000000000E+00  0.00000000000E+00 -0.22309209777E+03  0.82263319171E+03  0.79180507956E+03 0.  0.
        1    1    3    3  502    0 -0.25404073160E+03  0.43623015917E+02  0.20065172393E+03  0.32665084597E+03  0.50400001928E-02 0. -1.
       -1    1    3    3    0  502  0.25404073160E+03 -0.43623015917E+02 -0.42374382170E+03  0.49598234574E+03  0.50400001928E-02 0.  1.
</event>
<event>
 5   0  0.1786500E-02  0.8004247E+03  0.7818609E-02  0.9559403E-01
        4   -1    0    0  501    0  0.00000000000E+00  0.00000000000E+00  0.18512039971E+03  0.18512475601E+03  0.12699999809E+01 0. -1.
       -4   -1    0    0    0  501  0.00000000000E+00  0.00000000000E+00 -0.86520529423E+03  0.86520622632E+03  0.12699999809E+01 0.  1.
    10030    2    1    2    0    0  0.00000000000E+00  0.00000000000E+00 -0.68008489453E+03  0.10503309823E+04  0.80042470519E+03 0.  0.
        3    1    3    3  502    0 -0.37953083639E+03  0.60269688861E+02 -0.19336835309E+03  0.43019463194E+03  0.10100000352E+00 0. -1.
       -3    1    3    3    0  502  0.37953083639E+03 -0.60269688861E+02 -0.48671654144E+03  0.62013635039E+03  0.10100000352E+00 0.  1.
</event>
<event>
 5   0  0.2689372E-02  0.8157338E+03  0.7818609E-02  0.9537518E-01
        1   -1    0    0  501    0  0.00000000000E+00  0.00000000000E+00  0.49955989566E+03  0.49955989569E+03  0.50400001928E-02 0. -1.
       -1   -1    0    0    0  501  0.00000000000E+00  0.00000000000E+00 -0.33300394833E+03  0.33300394837E+03  0.50400001928E-02 0.  1.
    10030    2    1    2    0    0  0.00000000000E+00  0.00000000000E+00  0.16655594734E+03  0.83256384405E+03  0.81573382352E+03 0.  0.
        4    1    3    3  502    0  0.38863138568E+03 -0.10057629097E+03  0.96518557022E+01  0.40155288003E+03  0.12699999809E+01 0.  1.
       -4    1    3    3    0  502 -0.38863138568E+03  0.10057629097E+03  0.15690409163E+03  0.43101096403E+03  0.12699999809E+01 0. -1.
</event>
<event>
 5   0  0.4590462E-02  0.8543794E+03  0.7818609E-02  0.9484478E-01
       -2   -1    0    0    0  501  0.00000000000E+00  0.00000000000E+00  0.28673506028E+03  0.28673506029E+03  0.25500000920E-02 0. -1.
        2   -1    0    0  501    0  0.00000000000E+00  0.00000000000E+00 -0.63644483540E+03  0.63644483541E+03  0.25500000920E-02 0.  1.
    10030    2    1    2    0    0  0.00000000000E+00  0.00000000000E+00 -0.34970977513E+03  0.92317989570E+03  0.85437941981E+03 0.  0.
        3    1    3    3  502    0  0.39942362377E+03  0.10953155939E+03 -0.61762154310E+02  0.41874928971E+03  0.10100000352E+00 0. -1.
       -3    1    3    3    0  502 -0.39942362377E+03 -0.10953155939E+03 -0.28794762082E+03  0.50443060599E+03  0.10100000352E+00 0.  1.
</event>
<event>
 5   0  0.4590462E-02  0.1027868E+04  0.7818609E-02  0.9278497E-01
        2   -1    0    0  501    0  0.00000000000E+00  0.00000000000E+00  0.85097106074E+03  0.85097106074E+03  0.25500000920E-02 0. -1.
       -2   -1    0    0    0  501  0.00000000000E+00  0.00000000000E+00 -0.31038436270E+03  0.31038436271E+03  0.25500000920E-02 0.  1.
    10030    2    1    2    0    0  0.00000000000E+00  0.00000000000E+00  0.54058669804E+03  0.11613554235E+04  0.10278679105E+04 0.  0.
        3    1    3    3  502    0  0.57287022707E+02  0.90834575083E+02  0.83815238867E+03  0.84500423657E+03  0.10100000352E+00 0. -1.
       -3    1    3    3    0  502 -0.57287022707E+02 -0.90834575083E+02 -0.29756569063E+03  0.31635118688E+03  0.10100000352E+00 0.  1.
</event>
<event>
 5   0  0.2769394E-02  0.7636983E+03  0.7818609E-02  0.9614102E-01
       -1   -1    0    0    0  501  0.00000000000E+00  0.00000000000E+00  0.18057830986E+03  0.18057830993E+03  0.50400001928E-02 0. -1.
        1   -1    0    0  501    0  0.00000000000E+00  0.00000000000E+00 -0.80745461497E+03  0.80745461499E+03  0.50400001928E-02 0.  1.
    10030    2    1    2    0    0  0.00000000000E+00  0.00000000000E+00 -0.62687630511E+03  0.98803292492E+03  0.76369834281E+03 0.  0.
        2    1    3    3  502    0 -0.14484736561E+03  0.24670370661E+03  0.13768276739E+02  0.28641411214E+03  0.25500000920E-02 0. -1.
       -2    1    3    3    0  502  0.14484736561E+03 -0.24670370661E+03 -0.64064458185E+03  0.70161881278E+03  0.25500000920E-02 0.  1.
</event>
<event>
 5   0  0.1786500E-02  0.8062466E+03  0.7818609E-02  0.9551019E-01
        3   -1    0    0  501    0  0.00000000000E+00  0.00000000000E+00  0.44154475655E+03  0.44154476810E+03  0.10100000352E+00 0. -1.
       -3   -1    0    0    0  501  0.00000000000E+00  0.00000000000E+00 -0.36804508710E+03  0.36804510096E+03  0.10100000352E+00 0.  1.
    10030    2    1    2    0    0  0.00000000000E+00  0.00000000000E+00  0.73499669451E+02  0.80958986906E+03  0.80624658429E+03 0.  0.
        4    1    3    3  502    0 -0.35120606373E+03 -0.17878381786E+03 -0.48439591300E+02  0.39706090167E+03  0.12699999809E+01 0. -1.
       -4    1    3    3    0  502  0.35120606373E+03  0.17878381786E+03  0.12193926075E+03  0.41252896739E+03  0.12699999809E+01 0.  1.
</event>
<event>
 5   0  0.2606520E-02  0.7898713E+03  0.7818609E-02  0.9574795E-01
       -1   -1    0    0    0  501  0.00000000000E+00  0.00000000000E+00  0.45752463392E+03  0.45752463395E+03  0.50400001928E-02 0. -1.
        1   -1    0    0  501    0  0.00000000000E+00  0.00000000000E+00 -0.34090882771E+03  0.34090882774E+03  0.50400001928E-02 0.  1.
    10030    2    1    2    0    0  0.00000000000E+00  0.00000000000E+00  0.11661580621E+03  0.79843346169E+03  0.78987134806E+03 0.  0.
        5    1    3    3  502    0 -0.26994639478E+03 -0.24571536783E+03 -0.94007249059E+02  0.37697022551E+03  0.46999998093E+01 0.  1.
       -5    1    3    3    0  502  0.26994639478E+03  0.24571536783E+03  0.21062305527E+03  0.42146323618E+03  0.46999998093E+01 0. -1.
</event>
<event>
 5   0  0.4663634E-02  0.8323494E+03  0.7818609E-02  0.9514338E-01
        2   -1    0    0  501    0  0.00000000000E+00  0.00000000000E+00  0.57238085242E+03  0.57238085243E+03  0.25500000920E-02 0. -1.
       -2   -1    0    0    0  501  0.00000000000E+00  0.00000000000E+00 -0.30259811095E+03  0.30259811096E+03  0.25500000920E-02 0.  1.
    10030    2    1    2    0    0  0.00000000000E+00  0.00000000000E+00  0.26978274147E+03  0.87497896339E+03  0.83234936101E+03 0.  0.
        5    1    3    3  502    0  0.52428823763E+02  0.17550285008E+03  0.52769921555E+03  0.55860413894E+03  0.46999998093E+01 0. -1.
       -5    1    3    3    0  502 -0.52428823763E+02 -0.17550285008E+03 -0.25791647408E+03  0.31637482445E+03  0.46999998093E+01 0.  1.
</event>
<event>
 5   0  0.4684283E-02  0.8027634E+03  0.7818609E-02  0.9556026E-01
       -2   -1    0    0    0  501  0.00000000000E+00  0.00000000000E+00  0.31883092269E+03  0.31883092270E+03  0.25500000920E-02 0. -1.
        2   -1    0    0  501    0  0.00000000000E+00  0.00000000000E+00 -0.50530630319E+03  0.50530630320E+03  0.25500000920E-02 0.  1.
    10030    2    1    2    0    0  0.00000000000E+00  0.00000000000E+00 -0.18647538051E+03  0.82413722590E+03  0.80276341444E+03 0.  0.
        1    1    3    3  502    0 -0.44911137122E+02 -0.28251106706E+03  0.19582207770E+03  0.34666381321E+03  0.50400001928E-02 0. -1.
       -1    1    3    3    0  502  0.44911137122E+02  0.28251106706E+03 -0.38229745820E+03  0.47747341269E+03  0.50400001928E-02 0.  1.
</event>
<event>
 5   0  0.2606520E-02  0.8197326E+03  0.7818609E-02  0.9531886E-01
       -1   -1    0    0    0  501  0.00000000000E+00  0.00000000000E+00  0.16348533484E+03  0.16348533491E+03  0.50400001928E-02 0.  1.
        1   -1    0    0  501    0  0.00000000000E+00  0.00000000000E+00 -0.10275563420E+04  0.10275563420E+04  0.50400001928E-02 0. -1.
    10030    2    1    2    0    0  0.00000000000E+00  0.00000000000E+00 -0.86407100716E+03  0.11910416769E+04  0.81973262150E+03 0.  0.
        5    1    3    3  502    0 -0.38633861889E+03  0.10630257050E+03 -0.30695788546E+03  0.50478014856E+03  0.46999998093E+01 0. -1.
       -5    1    3    3    0  502  0.38633861889E+03 -0.10630257050E+03 -0.55711312170E+03  0.68626152836E+03  0.46999998093E+01 0.  1.
</event>
<event>
 5   0  0.2689372E-02  0.8085231E+03  0.7818609E-02  0.9547761E-01
       -1   -1    0    0    0  501  0.00000000000E+00  0.00000000000E+00  0.24357286333E+03  0.24357286338E+03  0.50400001928E-02 0. -1.
        1   -1    0    0  501    0  0.00000000000E+00  0.00000000000E+00 -0.67095906407E+03  0.67095906409E+03  0.50400001928E-02 0.  1.
    10030    2    1    2    0    0  0.00000000000E+00  0.00000000000E+00 -0.42738620075E+03  0.91453192747E+03  0.80852314857E+03 0.  0.
        4    1    3    3  502    0 -0.27232986700E+03 -0.29660035800E+03 -0.25432637620E+03  0.47625502345E+03  0.12699999809E+01 0. -1.
       -4    1    3    3    0  502  0.27232986700E+03  0.29660035800E+03 -0.17305982455E+03  0.43827690403E+03  0.12699999809E+01 0.  1.
</event>
<event>
 5   0  0.4700220E-02  0.7982862E+03  0.7818609E-02  0.9562501E-01
        2   -1    0    0  501    0  0.00000000000E+00  0.00000000000E+00  0.70836438213E+03  0.70836438213E+03  0.25500000920E-02 0. -1.
       -2   -1    0    0    0  501  0.00000000000E+00  0.00000000000E+00 -0.22490574528E+03  0.22490574529E+03  0.25500000920E-02 0.  1.
    10030    2    1    2    0    0  0.00000000000E+00  0.00000000000E+00  0.48345863685E+03  0.93327012742E+03  0.79828621258E+03 0.  0.
        4    1    3    3  502    0 -0.40698081628E+02 -0.18830174944E+03  0.65040975477E+03  0.67834235066E+03  0.12699999809E+01 0. -1.
       -4    1    3    3    0  502  0.40698081628E+02  0.18830174944E+03 -0.16695111792E+03  0.25492777677E+03  0.12699999809E+01 0.  1.
</event>
<event>
 5   0  0.4590462E-02  0.8006636E+03  0.7818609E-02  0.9559057E-01
        2   -1    0    0  501    0  0.00000000000E+00  0.00000000000E+00  0.96276257062E+03  0.96276257062E+03  0.25500000920E-02 0.  1.
       -2   -1    0    0    0  501  0.00000000000E+00  0.00000000000E+00 -0.16646425645E+03  0.16646425647E+03  0.25500000920E-02 0. -1.
    10030    2    1    2    0    0  0.00000000000E+00  0.00000000000E+00  0.79629831417E+03  0.11292268271E+04  0.80066361344E+03 0.  0.
        3    1    3    3  502    0  0.23783584874E+03  0.24709965144E+03  0.10691191695E+03  0.35924127946E+03  0.10100000352E+00 0. -1.
       -3    1    3    3    0  502 -0.23783584874E+03 -0.24709965144E+03  0.68938639722E+03  0.76998554763E+03  0.10100000352E+00 0.  1.
</event>
<event>
 5   0  0.4663634E-02  0.7938512E+03  0.7818609E-02  0.9568960E-01
       -2   -1    0    0    0  501  0.00000000000E+00  0.00000000000E+00  0.27093730375E+03  0.27093730376E+03  0.25500000920E-02 0. -1.
        2   -1    0    0  501    0  0.00000000000E+00  0.00000000000E+00 -0.58149961135E+03  0.58149961135E+03  0.25500000920E-02 0.  1.
    10030    2    1    2    0    0  0.00000000000E+00  0.00000000000E+00 -0.31056230760E+03  0.85243691511E+03  0.79385121235E+03 0.  0.
        5    1    3    3  502    0  0.20393849082E+03  0.34022691176E+03 -0.16979085399E+03  0.43150467393E+03  0.46999998093E+01 0. -1.
       -5    1    3    3    0  502 -0.20393849082E+03 -0.34022691176E+03 -0.14077145360E+03  0.42093224119E+03  0.46999998093E+01 0.  1.
</event>
<event>
 5   0  0.4663634E-02  0.7937661E+03  0.7818609E-02  0.9569085E-01
        2   -1    0    0  501    0  0.00000000000E+00  0.00000000000E+00  0.99887998961E+03  0.99887998962E+03  0.25500000920E-02 0.  1.
       -2   -1    0    0    0  501  0.00000000000E+00  0.00000000000E+00 -0.15769275761E+03  0.15769275763E+03  0.25500000920E-02 0. -1.
    10030    2    1    2    0    0  0.00000000000E+00  0.00000000000E+00  0.84118723200E+03  0.11565727472E+04  0.79376606150E+03 0.  0.
        5    1    3    3  502    0  0.13629795684E+03 -0.29493875796E+03  0.88560486033E+02  0.33679526967E+03  0.46999998093E+01 0. -1.
       -5    1    3    3    0  502 -0.13629795684E+03  0.29493875796E+03  0.75262674597E+03  0.81977747757E+03  0.46999998093E+01 0.  1.
</event>
<event>
 5   0  0.4663634E-02  0.7880615E+03  0.7818609E-02  0.9577460E-01
       -2   -1    0    0    0  501  0.00000000000E+00  0.00000000000E+00  0.10600425825E+03  0.10600425828E+03  0.25500000920E-02 0.  1.
        2   -1    0    0  501    0  0.00000000000E+00  0.00000000000E+00 -0.14646604406E+04  0.14646604406E+04  0.25500000920E-02 0. -1.
    10030    2    1    2    0    0  0.00000000000E+00  0.00000000000E+00 -0.13586561824E+04  0.15706646989E+04  0.78806152962E+03 0.  0.
        5    1    3    3  502    0  0.13380177623E+03  0.16260416520E+02  0.58569152784E+02  0.14703656730E+03  0.46999998093E+01 0.  1.
       -5    1    3    3    0  502 -0.13380177623E+03 -0.16260416520E+02 -0.14172253352E+04  0.14236281316E+04  0.46999998093E+01 0. -1.
</event>
<event>
 5   0  0.2606520E-02  0.8020853E+03  0.7818609E-02  0.9557004E-01
       -1   -1    0    0    0  501  0.00000000000E+00  0.00000000000E+00  0.23808502190E+03  0.23808502196E+03  0.50400001928E-02 0.  1.
        1   -1    0    0  501    0  0.00000000000E+00  0.00000000000E+00 -0.67553692051E+03  0.67553692053E+03  0.50400001928E-02 0. -1.
    10030    2    1    2    0    0  0.00000000000E+00  0.00000000000E+00 -0.43745189861E+03  0.91362194249E+03  0.80208533848E+03 0.  0.
        5    1    3    3  502    0 -0.22230921042E+03 -0.29759390615E+03 -0.46620257630E+02  0.37440493645E+03  0.46999998093E+01 0.  1.
       -5    1    3    3    0  502  0.22230921042E+03  0.29759390615E+03 -0.39083164098E+03  0.53921700604E+03  0.46999998093E+01 0. -1.
</event>
<event>
 5   0  0.4684283E-02  0.8003893E+03  0.7818609E-02  0.9559454E-01
       -2   -1    0    0    0  501  0.00000000000E+00  0.00000000000E+00  0.25914560257E+03  0.25914560258E+03  0.25500000920E-02 0.  1.
        2   -1    0    0  501    0  0.00000000000E+00  0.00000000000E+00 -0.61801463563E+03  0.61801463564E+03  0.25500000920E-02 0. -1.
    10030    2    1    2    0    0  0.00000000000E+00  0.00000000000E+00 -0.35886903307E+03  0.87716023822E+03  0.80038934314E+03 0.  0.
        1    1    3    3  502    0  0.18476138429E+03  0.90787552958E+02  0.19666882681E+03  0.28470647404E+03  0.50400001928E-02 0.  1.
       -1    1    3    3    0  502 -0.18476138429E+03 -0.90787552958E+02 -0.55553785988E+03  0.59245376417E+03  0.50400001928E-02 0. -1.
</event>
<event>
 5   0  0.2769394E-02  0.7629113E+03  0.7818609E-02  0.9615309E-01
        1   -1    0    0  501    0  0.00000000000E+00  0.00000000000E+00  0.82193466508E+03  0.82193466509E+03  0.50400001928E-02 0. -1.
       -1   -1    0    0    0  501  0.00000000000E+00  0.00000000000E+00 -0.17703161765E+03  0.17703161773E+03  0.50400001928E-02 0.  1.
    10030    2    1    2    0    0  0.00000000000E+00  0.00000000000E+00  0.64490304742E+03  0.99896628282E+03  0.76291132750E+03 0.  0.
        2    1    3    3  502    0  0.13334530778E+03  0.33280549297E+03  0.15188588951E+03  0.38937101933E+03  0.25500000920E-02 0.  1.
       -2    1    3    3    0  502 -0.13334530778E+03 -0.33280549297E+03  0.49301715791E+03  0.60959526348E+03  0.25500000920E-02 0. -1.
</event>
<event>
 5   0  0.2769394E-02  0.8347314E+03  0.7818609E-02  0.9511062E-01
        1   -1    0    0  501    0  0.00000000000E+00  0.00000000000E+00  0.16434973420E+04  0.16434973420E+04  0.50400001928E-02 0. -1.
       -1   -1    0    0    0  501  0.00000000000E+00  0.00000000000E+00 -0.10598990479E+03  0.10598990491E+03  0.50400001928E-02 0.  1.
    10030    2    1    2    0    0  0.00000000000E+00  0.00000000000E+00  0.15375074372E+04  0.17494872469E+04  0.83473139851E+03 0.  0.
        2    1    3    3  502    0 -0.10407494022E+01  0.13647778031E+03 -0.57898000086E+02  0.14825466636E+03  0.25500000920E-02 0.  1.
       -2    1    3    3    0  502  0.10407494022E+01 -0.13647778031E+03  0.15954054373E+04  0.16012325805E+04  0.25500000920E-02 0. -1.
</event>
<event>
 5   0  0.2759559E-02  0.7983324E+03  0.7818609E-02  0.9562434E-01
       -1   -1    0    0    0  501  0.00000000000E+00  0.00000000000E+00  0.20761467535E+03  0.20761467541E+03  0.50400001928E-02 0.  1.
        1   -1    0    0  501    0  0.00000000000E+00  0.00000000000E+00 -0.76744890568E+03  0.76744890569E+03  0.50400001928E-02 0. -1.
    10030    2    1    2    0    0  0.00000000000E+00  0.00000000000E+00 -0.55983423033E+03  0.97506358110E+03  0.79833240054E+03 0.  0.
        3    1    3    3  502    0 -0.25996081479E+03  0.10118560557E+03  0.68796786018E+02  0.28731717660E+03  0.10100000352E+00 0.  1.
       -3    1    3    3    0  502  0.25996081479E+03 -0.10118560557E+03 -0.62863101634E+03  0.68774640451E+03  0.10100000352E+00 0. -1.
</event>
<event>
 5   0  0.4684283E-02  0.6860617E+03  0.7818609E-02  0.9741370E-01
       -2   -1    0    0    0  501  0.00000000000E+00  0.00000000000E+00  0.13494981000E+03  0.13494981002E+03  0.25500000920E-02 0.  1.
        2   -1    0    0  501    0  0.00000000000E+00  0.00000000000E+00 -0.87195490114E+03  0.87195490114E+03  0.25500000920E-02 0. -1.
    10030    2    1    2    0    0  0.00000000000E+00  0.00000000000E+00 -0.73700509114E+03  0.10069047112E+04  0.68606165393E+03 0.  0.
        1    1    3    3  502    0  0.19654059791E+03 -0.27930078137E+02  0.42079815918E+02  0.20292611174E+03  0.50400001928E-02 0.  1.
       -1    1    3    3    0  502 -0.19654059791E+03  0.27930078137E+02 -0.77908490706E+03  0.80397859942E+03  0.50400001928E-02 0. -1.
</event>
<event>
 5   0  0.2689372E-02  0.7894436E+03  0.7818609E-02  0.9575424E-01
       -1   -1    0    0    0  501  0.00000000000E+00  0.00000000000E+00  0.49193224151E+03  0.49193224153E+03  0.50400001928E-02 0.  1.
        1   -1    0    0  501    0  0.00000000000E+00  0.00000000000E+00 -0.31672106740E+03  0.31672106744E+03  0.50400001928E-02 0. -1.
    10030    2    1    2    0    0  0.00000000000E+00  0.00000000000E+00  0.17521117411E+03  0.80865330897E+03  0.78944361329E+03 0.  0.
        4    1    3    3  502    0  0.14500444256E+03 -0.36340137304E+03  0.14099728346E+03  0.41589505062E+03  0.12699999809E+01 0. -1.
       -4    1    3    3    0  502 -0.14500444256E+03  0.36340137304E+03  0.34213890654E+02  0.39275825835E+03  0.12699999809E+01 0.  1.
</event>
<event>
 5   0  0.2689372E-02  0.7298032E+03  0.7818609E-02  0.9667580E-01
        1   -1    0    0  501    0  0.00000000000E+00  0.00000000000E+00  0.14567464180E+03  0.14567464189E+03  0.50400001928E-02 0. -1.
       -1   -1    0    0    0  501  0.00000000000E+00  0.00000000000E+00 -0.91404487735E+03  0.91404487737E+03  0.50400001928E-02 0.  1.
    10030    2    1    2    0    0  0.00000000000E+00  0.00000000000E+00 -0.76837023555E+03  0.10597195193E+04  0.72980315196E+03 0.  0.
        4    1    3    3  502    0 -0.47794066740E+02 -0.13201595164E+03  0.10487980418E+03  0.17525373185E+03  0.12699999809E+01 0. -1.
       -4    1    3    3    0  502  0.47794066740E+02  0.13201595164E+03 -0.87325003973E+03  0.88446578740E+03  0.12699999809E+01 0.  1.
</event>
<event>
 5   0  0.2606520E-02  0.8177798E+03  0.7818609E-02  0.9534632E-01
       -1   -1    0    0    0  501  0.00000000000E+00  0.00000000000E+00  0.47311535936E+03  0.47311535938E+03  0.50400001928E-02 0.  1.
        1   -1    0    0  501    0  0.00000000000E+00  0.00000000000E+00 -0.35338305626E+03  0.35338305630E+03  0.50400001928E-02 0. -1.
    10030    2    1    2    0    0  0.00000000000E+00  0.00000000000E+00  0.11973230309E+03  0.82649841568E+03  0.81777980332E+03 0.  0.
        5    1    3    3  502    0 -0.32008872835E+03 -0.22065628391E+03 -0.68064857970E+02  0.39471623292E+03  0.46999998093E+01 0. -1.
       -5    1    3    3    0  502  0.32008872835E+03  0.22065628391E+03  0.18779716106E+03  0.43178218276E+03  0.46999998093E+01 0.  1.
</event>
<event>
 5   0  0.4377843E-02  0.8203642E+03  0.7818609E-02  0.9531000E-01
       -2   -1    0    0    0  501  0.00000000000E+00  0.00000000000E+00  0.16849195806E+03  0.16849195808E+03  0.25500000920E-02 0.  1.
        2   -1    0    0  501    0  0.00000000000E+00  0.00000000000E+00 -0.99856018330E+03  0.99856018330E+03  0.25500000920E-02 0. -1.
    10030    2    1    2    0    0  0.00000000000E+00  0.00000000000E+00 -0.83006822524E+03  0.11670521414E+04  0.82036421312E+03 0.  0.
        2    1    3    3  502    0 -0.11514195132E+03  0.25240985490E+02  0.14387773939E+03  0.18599887151E+03  0.25500000920E-02 0.  1.
       -2    1    3    3    0  502  0.11514195132E+03 -0.25240985490E+02 -0.97394596463E+03  0.98105326988E+03  0.25500000920E-02 0. -1.
</event>
<event>
 5   0  0.4700220E-02  0.8007186E+03  0.7818609E-02  0.9558978E-01
       -2   -1    0    0    0  501  0.00000000000E+00  0.00000000000E+00  0.10514927300E+03  0.10514927303E+03  0.25500000920E-02 0.  1.
        2   -1    0    0  501    0  0.00000000000E+00  0.00000000000E+00 -0.15243810689E+04  0.15243810689E+04  0.25500000920E-02 0. -1.
    10030    2    1    2    0    0  0.00000000000E+00  0.00000000000E+00 -0.14192317960E+04  0.16295303420E+04  0.80071858027E+03 0.  0.
        4    1    3    3  502    0  0.29536248159E+03 -0.25796201254E+03 -0.54550988634E+03  0.67183781111E+03  0.12699999809E+01 0.  1.
       -4    1    3    3    0  502 -0.29536248159E+03  0.25796201254E+03 -0.87372190961E+03  0.95769253087E+03  0.12699999809E+01 0. -1.
</event>
<event>
 5   0  0.4663634E-02  0.8056037E+03  0.7818609E-02  0.9551941E-01
       -2   -1    0    0    0  501  0.00000000000E+00  0.00000000000E+00  0.10292759783E+04  0.10292759783E+04  0.25500000920E-02 0. -1.
        2   -1    0    0  501    0  0.00000000000E+00  0.00000000000E+00 -0.15763442373E+03  0.15763442375E+03  0.25500000920E-02 0.  1.
    10030    2    1    2    0    0  0.00000000000E+00  0.00000000000E+00  0.87164155459E+03  0.11869104021E+04  0.80560368846E+03 0.  0.
        5    1    3    3  502    0  0.36020477031E+03  0.16958955201E+03  0.52567074588E+03  0.65943909178E+03  0.46999998093E+01 0. -1.
       -5    1    3    3    0  502 -0.36020477031E+03 -0.16958955201E+03  0.34597080871E+03  0.52747131029E+03  0.46999998093E+01 0.  1.
</event>
<event>
 5   0  0.4590462E-02  0.8122587E+03  0.7818609E-02  0.9542441E-01
        2   -1    0    0  501    0  0.00000000000E+00  0.00000000000E+00  0.17757425757E+04  0.17757425757E+04  0.25500000920E-02 0. -1.
       -2   -1    0    0    0  501  0.00000000000E+00  0.00000000000E+00 -0.92885665171E+02  0.92885665206E+02  0.25500000920E-02 0.  1.
    10030    2    1    2    0    0  0.00000000000E+00  0.00000000000E+00  0.16828569105E+04  0.18686282409E+04  0.81225865424E+03 0.  0.
        3    1    3    3  502    0  0.23066768922E+03  0.10672716516E+03  0.11269021525E+03  0.27802403753E+03  0.10100000352E+00 0.  1.
       -3    1    3    3    0  502 -0.23066768922E+03 -0.10672716516E+03  0.15701666952E+04  0.15906042033E+04  0.10100000352E+00 0. -1.
</event>
<event>
 5   0  0.4663634E-02  0.7658928E+03  0.7818609E-02  0.9610742E-01
        2   -1    0    0  501    0  0.00000000000E+00  0.00000000000E+00  0.10255404604E+04  0.10255404604E+04  0.25500000920E-02 0. -1.
       -2   -1    0    0    0  501  0.00000000000E+00  0.00000000000E+00 -0.14299577036E+03  0.14299577038E+03  0.25500000920E-02 0.  1.
    10030    2    1    2    0    0  0.00000000000E+00  0.00000000000E+00  0.88254469002E+03  0.11685362308E+04  0.76589280759E+03 0.  0.
        5    1    3    3  502    0 -0.37196531069E+03 -0.95981845991E+01  0.30331893723E+03  0.48007789491E+03  0.46999998093E+01 0.  1.
       -5    1    3    3    0  502  0.37196531069E+03  0.95981845991E+01  0.57922575279E+03  0.68845833585E+03  0.46999998093E+01 0. -1.
</event>
<event>
 5   0  0.4377843E-02  0.6428716E+03  0.7818609E-02  0.9820248E-01
        2   -1    0    0  501    0  0.00000000000E+00  0.00000000000E+00  0.28821266210E+03  0.28821266212E+03  0.25500000920E-02 0.  1.
       -2   -1    0    0    0  501  0.00000000000E+00  0.00000000000E+00 -0.35848868826E+03  0.35848868827E+03  0.25500000920E-02 0. -1.
    10030    2    1    2    0    0  0.00000000000E+00  0.00000000000E+00 -0.70276026154E+02  0.64670135038E+03  0.64287161762E+03 0.  0.
        2    1    3    3  502    0  0.14907831913E+03  0.28147765769E+03  0.83277465409E+01  0.31862731895E+03  0.25500000920E-02 0. -1.
       -2    1    3    3    0  502 -0.14907831913E+03 -0.28147765769E+03 -0.78603772695E+02  0.32807403143E+03  0.25500000920E-02 0.  1.
</event>
<event>
 5   0  0.2635243E-02  0.8116588E+03  0.7818609E-02  0.9543293E-01
       -1   -1    0    0    0  501  0.00000000000E+00  0.00000000000E+00  0.52397949017E+03  0.52397949019E+03  0.50400001928E-02 0. -1.
        1   -1    0    0  501    0  0.00000000000E+00  0.00000000000E+00 -0.31432050623E+03  0.31432050627E+03  0.50400001928E-02 0.  1.
    10030    2    1    2    0    0  0.00000000000E+00  0.00000000000E+00  0.20965898394E+03  0.83829999647E+03  0.81165879194E+03 0.  0.
        1    1    3    3  502    0 -0.11564142284E+03  0.38819998677E+03  0.79002093137E+02  0.41269056102E+03  0.50400001928E-02 0. -1.
       -1    1    3    3    0  502  0.11564142284E+03 -0.38819998677E+03  0.13065689080E+03  0.42560943545E+03  0.50400001928E-02 0.  1.
</event>
<event>
 5   0  0.2689372E-02  0.7865011E+03  0.7818609E-02  0.9579764E-01
       -1   -1    0    0    0  501  0.00000000000E+00  0.00000000000E+00  0.29905099691E+03  0.29905099695E+03  0.50400001928E-02 0.  1.
        1   -1    0    0  501    0  0.00000000000E+00  0.00000000000E+00 -0.51712255031E+03  0.51712255034E+03  0.50400001928E-02 0. -1.
    10030    2    1    2    0    0  0.00000000000E+00  0.00000000000E+00 -0.21807155340E+03  0.81617354728E+03  0.78650114868E+03 0.  0.
        4    1    3    3  502    0  0.28105964252E+03  0.33306099390E+02  0.17428573118E+03  0.33238674447E+03  0.12699999809E+01 0.  1.
       -4    1    3    3    0  502 -0.28105964252E+03 -0.33306099390E+02 -0.39235728458E+03  0.48378680281E+03  0.12699999809E+01 0. -1.
</event>
<event>
 5   0  0.4700220E-02  0.5045599E+03  0.7818609E-02  0.1012596E+00
       -2   -1    0    0    0  501  0.00000000000E+00  0.00000000000E+00  0.51343877695E+03  0.51343877696E+03  0.25500000920E-02 0. -1.
        2   -1    0    0  501    0  0.00000000000E+00  0.00000000000E+00 -0.12395863571E+03  0.12395863574E+03  0.25500000920E-02 0.  1.
    10030    2    1    2    0    0  0.00000000000E+00  0.00000000000E+00  0.38948014124E+03  0.63739741269E+03  0.50455988870E+03 0.  0.
        4    1    3    3  502    0  0.15737964453E+02 -0.18603288953E+03  0.40907876940E+03  0.44966984776E+03  0.12699999809E+01 0. -1.
       -4    1    3    3    0  502 -0.15737964453E+02  0.18603288953E+03 -0.19598628157E+02  0.18772756493E+03  0.12699999809E+01 0.  1.
</event>
<event>
 5   0  0.4700220E-02  0.1068120E+04  0.7818609E-02  0.9236833E-01
       -2   -1    0    0    0  501  0.00000000000E+00  0.00000000000E+00  0.29904235373E+03  0.29904235374E+03  0.25500000920E-02 0. -1.
        2   -1    0    0  501    0  0.00000000000E+00  0.00000000000E+00 -0.95377899501E+03  0.95377899502E+03  0.25500000920E-02 0.  1.
    10030    2    1    2    0    0  0.00000000000E+00  0.00000000000E+00 -0.65473664128E+03  0.12528213488E+04  0.10681204344E+04 0.  0.
        4    1    3    3  502    0  0.39538425981E+03  0.18843634479E+03  0.31057995111E+02  0.43909359014E+03  0.12699999809E+01 0. -1.
       -4    1    3    3    0  502 -0.39538425981E+03 -0.18843634479E+03 -0.68579463639E+03  0.81372775862E+03  0.12699999809E+01 0.  1.
</event>
<event>
 5   0  0.2769394E-02  0.7803743E+03  0.7818609E-02  0.9588867E-01
        1   -1    0    0  501    0  0.00000000000E+00  0.00000000000E+00  0.15101491344E+03  0.15101491352E+03  0.50400001928E-02 0. -1.
       -1   -1    0    0    0  501  0.00000000000E+00  0.00000000000E+00 -0.10081522355E+04  0.10081522355E+04  0.50400001928E-02 0.  1.
    10030    2    1    2    0    0  0.00000000000E+00  0.00000000000E+00 -0.85713732206E+03  0.11591671490E+04  0.78037432718E+03 0.  0.
        2    1    3    3  502    0  0.34484435532E+03 -0.56460250917E+02 -0.17068770135E+03  0.38889546247E+03  0.25500000920E-02 0. -1.
       -2    1    3    3    0  502 -0.34484435532E+03  0.56460250917E+02 -0.68644962071E+03  0.77027168656E+03  0.25500000920E-02 0.  1.
</event>
<event>
 5   0  0.2769394E-02  0.8044330E+03  0.7818609E-02  0.9553623E-01
        1   -1    0    0  501    0  0.00000000000E+00  0.00000000000E+00  0.77817208684E+03  0.77817208686E+03  0.50400001928E-02 0.  1.
       -1   -1    0    0    0  501  0.00000000000E+00  0.00000000000E+00 -0.20789505842E+03  0.20789505848E+03  0.50400001928E-02 0. -1.
    10030    2    1    2    0    0  0.00000000000E+00  0.00000000000E+00  0.57027702842E+03  0.98606714534E+03  0.80443304630E+03 0.  0.
        2    1    3    3  502    0  0.27485634007E+03 -0.28659488340E+03  0.36358434584E+03  0.53840153363E+03  0.25500000920E-02 0.  1.
       -2    1    3    3    0  502 -0.27485634007E+03  0.28659488340E+03  0.20669268258E+03  0.44766561171E+03  0.25500000920E-02 0. -1.
</event>
<event>
 5   0  0.4377843E-02  0.8146993E+03  0.7818609E-02  0.9538981E-01
        2   -1    0    0  501    0  0.00000000000E+00  0.00000000000E+00  0.74880983032E+03  0.74880983033E+03  0.25500000920E-02 0.  1.
       -2   -1    0    0    0  501  0.00000000000E+00  0.00000000000E+00 -0.22159665037E+03  0.22159665038E+03  0.25500000920E-02 0. -1.
    10030    2    1    2    0    0  0.00000000000E+00  0.00000000000E+00  0.52721317996E+03  0.97040648071E+03  0.81469933146E+03 0.  0.
        2    1    3    3  502    0 -0.21245673313E+03  0.34561759504E+03  0.21993340349E+03  0.46147598792E+03  0.25500000920E-02 0.  1.
       -2    1    3    3    0  502  0.21245673313E+03 -0.34561759504E+03  0.30727977647E+03  0.50893049279E+03  0.25500000920E-02 0. -1.
</event>
<event>
 5   0  0.4590462E-02  0.8029033E+03  0.7818609E-02  0.9555824E-01
        2   -1    0    0  501    0  0.00000000000E+00  0.00000000000E+00  0.39315262657E+03  0.39315262658E+03  0.25500000920E-02 0.  1.
       -2   -1    0    0    0  501  0.00000000000E+00  0.00000000000E+00 -0.40992590629E+03  0.40992590629E+03  0.25500000920E-02 0. -1.
    10030    2    1    2    0    0  0.00000000000E+00  0.00000000000E+00 -0.16773279715E+02  0.80307853287E+03  0.80290334851E+03 0.  0.
        3    1    3    3  502    0  0.20513962696E+02  0.25478346798E+03  0.30124187959E+03  0.39507229521E+03  0.10100000352E+00 0.  1.
       -3    1    3    3    0  502 -0.20513962696E+02 -0.25478346798E+03 -0.31801515931E+03  0.40800623766E+03  0.10100000352E+00 0. -1.
</event>
<event>
 5   0  0.1786500E-02  0.8411836E+03  0.7818609E-02  0.9502247E-01
        3   -1    0    0  501    0  0.00000000000E+00  0.00000000000E+00  0.13390468710E+03  0.13390472519E+03  0.10100000352E+00 0. -1.
       -3   -1    0    0    0  501  0.00000000000E+00  0.00000000000E+00 -0.13210697641E+04  0.13210697680E+04  0.10100000352E+00 0.  1.
    10030    2    1    2    0    0  0.00000000000E+00  0.00000000000E+00 -0.11871650770E+04  0.14549744932E+04  0.84118360402E+03 0.  0.
        3    1    3    3  502    0  0.13799649532E+03  0.36526486554E+03 -0.32319938424E+03  0.50687208139E+03  0.10100000352E+00 0. -1.
       -3    1    3    3    0  502 -0.13799649532E+03 -0.36526486554E+03 -0.86396569277E+03  0.94810241177E+03  0.10100000352E+00 0.  1.
</event>
<event>
 5   0  0.4377843E-02  0.7971048E+03  0.7818609E-02  0.9564217E-01
       -2   -1    0    0    0  501  0.00000000000E+00  0.00000000000E+00  0.27059289541E+03  0.27059289542E+03  0.25500000920E-02 0. -1.
        2   -1    0    0  501    0  0.00000000000E+00  0.00000000000E+00 -0.58702216189E+03  0.58702216190E+03  0.25500000920E-02 0.  1.
    10030    2    1    2    0    0  0.00000000000E+00  0.00000000000E+00 -0.31642926649E+03  0.85761505732E+03  0.79710482739E+03 0.  0.
        2    1    3    3  502    0 -0.35503547387E+03  0.89018598959E+02 -0.32788684757E+03  0.49141050404E+03  0.25500000920E-02 0. -1.
       -2    1    3    3    0  502  0.35503547387E+03 -0.89018598959E+02  0.11457581081E+02  0.36620455328E+03  0.25500000920E-02 0.  1.
</event>
<event>
 5   0  0.4684283E-02  0.7915490E+03  0.7818609E-02  0.9572331E-01
        2   -1    0    0  501    0  0.00000000000E+00  0.00000000000E+00  0.59339682902E+03  0.59339682903E+03  0.25500000920E-02 0. -1.
       -2   -1    0    0    0  501  0.00000000000E+00  0.00000000000E+00 -0.26396744529E+03  0.26396744530E+03  0.25500000920E-02 0.  1.
    10030    2    1    2    0    0  0.00000000000E+00  0.00000000000E+00  0.32942938373E+03  0.85736427433E+03  0.79154897513E+03 0.  0.
        1    1    3    3  502    0 -0.61506466757E+02 -0.32654702555E+03  0.39758243059E+03  0.51815807867E+03  0.50400001928E-02 0. -1.
       -1    1    3    3    0  502  0.61506466757E+02  0.32654702555E+03 -0.68153046861E+02  0.33920619566E+03  0.50400001928E-02 0.  1.
</event>
<event>
 5   0  0.2759559E-02  0.7910188E+03  0.7818609E-02  0.9573109E-01
        1   -1    0    0  501    0  0.00000000000E+00  0.00000000000E+00  0.22341797282E+04  0.22341797282E+04  0.50400001928E-02 0.  1.
       -1   -1    0    0    0  501  0.00000000000E+00  0.00000000000E+00 -0.70015719742E+02  0.70015719923E+02  0.50400001928E-02 0. -1.
    10030    2    1    2    0    0  0.00000000000E+00  0.00000000000E+00  0.21641640084E+04  0.23041954481E+04  0.79101884154E+03 0.  0.
        3    1    3    3  502    0  0.26698309140E+03 -0.27302175851E+03  0.78207907512E+03  0.87032668675E+03  0.10100000352E+00 0. -1.
       -3    1    3    3    0  502 -0.26698309140E+03  0.27302175851E+03  0.13820849333E+04  0.14338687614E+04  0.10100000352E+00 0.  1.
</event>
<event>
 5   0  0.4663634E-02  0.8022500E+03  0.7818609E-02  0.9556766E-01
        2   -1    0    0  501    0  0.00000000000E+00  0.00000000000E+00  0.13157728535E+04  0.13157728535E+04  0.25500000920E-02 0. -1.
       -2   -1    0    0    0  501  0.00000000000E+00  0.00000000000E+00 -0.12228652139E+03  0.12228652142E+03  0.25500000920E-02 0.  1.
    10030    2    1    2    0    0  0.00000000000E+00  0.00000000000E+00  0.11934863321E+04  0.14380593749E+04  0.80225004883E+03 0.  0.
        5    1    3    3  502    0  0.38469493021E+03 -0.72891461696E+02  0.44072237257E+03  0.58954359822E+03  0.46999998093E+01 0.  1.
       -5    1    3    3    0  502 -0.38469493021E+03  0.72891461696E+02  0.75276395949E+03  0.84851577665E+03  0.46999998093E+01 0. -1.
</event>
<event>
 5   0  0.4700220E-02  0.8140248E+03  0.7818609E-02  0.9539936E-01
        2   -1    0    0  501    0  0.00000000000E+00  0.00000000000E+00  0.92531567683E+03  0.92531567683E+03  0.25500000920E-02 0. -1.
       -2   -1    0    0    0  501  0.00000000000E+00  0.00000000000E+00 -0.17902981804E+03  0.17902981806E+03  0.25500000920E-02 0.  1.
    10030    2    1    2    0    0  0.00000000000E+00  0.00000000000E+00  0.74628585879E+03  0.11043454949E+04  0.81402480863E+03 0.  0.
        4    1    3    3  502    0 -0.20033588522E+03 -0.16783044749E+03  0.79644324385E+03  0.83822728396E+03  0.12699999809E+01 0. -1.
       -4    1    3    3    0  502  0.20033588522E+03  0.16783044749E+03 -0.50157385063E+02  0.26611821093E+03  0.12699999809E+01 0.  1.
</event>
<event>
 5   0  0.4377843E-02  0.8180180E+03  0.7818609E-02  0.9534297E-01
        2   -1    0    0  501    0  0.00000000000E+00  0.00000000000E+00  0.78794174595E+03  0.78794174596E+03  0.25500000920E-02 0.  1.
       -2   -1    0    0    0  501  0.00000000000E+00  0.00000000000E+00 -0.21231056416E+03  0.21231056418E+03  0.25500000920E-02 0. -1.
    10030    2    1    2    0    0  0.00000000000E+00  0.00000000000E+00  0.57563118179E+03  0.10002523101E+04  0.81801798665E+03 0.  0.
        2    1    3    3  502    0  0.22409238441E+02 -0.30457071360E+03 -0.44866673909E+02  0.30867217560E+03  0.25500000920E-02 0. -1.
       -2    1    3    3    0  502 -0.22409238441E+02  0.30457071360E+03  0.62049785570E+03  0.69158013454E+03  0.25500000920E-02 0.  1.
</event>
<event>
 5   0  0.2759559E-02  0.7973194E+03  0.7818609E-02  0.9563905E-01
        1   -1    0    0  501    0  0.00000000000E+00  0.00000000000E+00  0.62231371858E+03  0.62231371860E+03  0.50400001928E-02 0.  1.
       -1   -1    0    0    0  501  0.00000000000E+00  0.00000000000E+00 -0.25538495816E+03  0.25538495821E+03  0.50400001928E-02 0. -1.
    10030    2    1    2    0    0  0.00000000000E+00  0.00000000000E+00  0.36692876042E+03  0.87769867680E+03  0.79731941657E+03 0.  0.
        3    1    3    3  502    0 -0.83650163407E+02 -0.17030358044E+03  0.56942241776E+03  0.60020209879E+03  0.10100000352E+00 0.  1.
       -3    1    3    3    0  502  0.83650163407E+02  0.17030358044E+03 -0.20249365733E+03  0.27749657801E+03  0.10100000352E+00 0. -1.
</event>
<event>
 5   0  0.2606520E-02  0.7881221E+03  0.7818609E-02  0.9577371E-01
        1   -1    0    0  501    0  0.00000000000E+00  0.00000000000E+00  0.15239906931E+04  0.15239906931E+04  0.50400001928E-02 0. -1.
       -1   -1    0    0    0  501  0.00000000000E+00  0.00000000000E+00 -0.10189308296E+03  0.10189308308E+03  0.50400001928E-02 0.  1.
    10030    2    1    2    0    0  0.00000000000E+00  0.00000000000E+00  0.14220976102E+04  0.16258837762E+04  0.78812209772E+03 0.  0.
        5    1    3    3  502    0 -0.11373724915E+03  0.27194790475E+03  0.17162587503E+03  0.34112952924E+03  0.46999998093E+01 0.  1.
       -5    1    3    3    0  502  0.11373724915E+03 -0.27194790475E+03  0.12504717351E+04  0.12847542470E+04  0.46999998093E+01 0. -1.
</event>
<event>
 5   0  0.4684283E-02  0.7929103E+03  0.7818609E-02  0.9570336E-01
       -2   -1    0    0    0  501  0.00000000000E+00  0.00000000000E+00  0.74751770115E+02  0.74751770158E+02  0.25500000920E-02 0. -1.
        2   -1    0    0  501    0  0.00000000000E+00  0.00000000000E+00 -0.21026484546E+04  0.21026484546E+04  0.25500000920E-02 0.  1.
    10030    2    1    2    0    0  0.00000000000E+00  0.00000000000E+00 -0.20278966845E+04  0.21774002247E+04  0.79291032017E+03 0.  0.
        1    1    3    3  502    0 -0.20044121221E+03 -0.23393705981E+03 -0.32867204008E+03  0.45047590108E+03  0.50400001928E-02 0. -1.
       -1    1    3    3    0  502  0.20044121221E+03  0.23393705981E+03 -0.16992246444E+04  0.17269243237E+04  0.50400001928E-02 0.  1.
</event>
<event>
 5   0  0.4663634E-02  0.7883254E+03  0.7818609E-02  0.9577071E-01
        2   -1    0    0  501    0  0.00000000000E+00  0.00000000000E+00  0.77312324285E+03  0.77312324285E+03  0.25500000920E-02 0.  1.
       -2   -1    0    0    0  501  0.00000000000E+00  0.00000000000E+00 -0.20095661211E+03  0.20095661213E+03  0.25500000920E-02 0. -1.
    10030    2    1    2    0    0  0.00000000000E+00  0.00000000000E+00  0.57216663073E+03  0.97407985498E+03  0.78832538368E+03 0.  0.
        5    1    3    3  502    0 -0.36886277627E+02  0.34485683727E+03  0.51743139935E+03  0.62293192142E+03  0.46999998093E+01 0.  1.
       -5    1    3    3    0  502  0.36886277627E+02 -0.34485683727E+03  0.54735231382E+02  0.35114793356E+03  0.46999998093E+01 0. -1.
</event>
<event>
 5   0  0.4663634E-02  0.8061234E+03  0.7818609E-02  0.9551196E-01
       -2   -1    0    0    0  501  0.00000000000E+00  0.00000000000E+00  0.15684868683E+03  0.15684868685E+03  0.25500000920E-02 0.  1.
        2   -1    0    0  501    0  0.00000000000E+00  0.00000000000E+00 -0.10357673095E+04  0.10357673095E+04  0.25500000920E-02 0. -1.
    10030    2    1    2    0    0  0.00000000000E+00  0.00000000000E+00 -0.87891862264E+03  0.11926159963E+04  0.80612342073E+03 0.  0.
        5    1    3    3  502    0  0.30051680104E+03  0.25120555047E+03 -0.29893471924E+03  0.49274601232E+03  0.46999998093E+01 0.  1.
       -5    1    3    3    0  502 -0.30051680104E+03 -0.25120555047E+03 -0.57998390340E+03  0.69986998399E+03  0.46999998093E+01 0. -1.
</event>
<event>
 5   0  0.2689372E-02  0.6585637E+03  0.7818609E-02  0.9790841E-01
       -1   -1    0    0    0  501  0.00000000000E+00  0.00000000000E+00  0.28467575838E+03  0.28467575843E+03  0.50400001928E-02 0.  1.
        1   -1    0    0  501    0  0.00000000000E+00  0.00000000000E+00 -0.38087731404E+03  0.38087731407E+03  0.50400001928E-02 0. -1.
    10030    2    1    2    0    0  0.00000000000E+00  0.00000000000E+00 -0.96201555655E+02  0.66555307249E+03  0.65856370458E+03 0.  0.
        4    1    3    3  502    0  0.68438740251E+02 -0.63988675329E+01  0.27734191713E+03  0.28573581955E+03  0.12699999809E+01 0.  1.
       -4    1    3    3    0  502 -0.68438740251E+02  0.63988675329E+01 -0.37354347279E+03  0.37981725295E+03  0.12699999809E+01 0. -1.
</event>
<event>
 5   0  0.2689372E-02  0.7821229E+03  0.7818609E-02  0.9586260E-01
        1   -1    0    0  501    0  0.00000000000E+00  0.00000000000E+00  0.56518601567E+03  0.56518601569E+03  0.50400001928E-02 0.  1.
       -1   -1    0    0    0  501  0.00000000000E+00  0.00000000000E+00 -0.27058179141E+03  0.27058179146E+03  0.50400001928E-02 0. -1.
    10030    2    1    2    0    0  0.00000000000E+00  0.00000000000E+00  0.29460422425E+03  0.83576780715E+03  0.78212286664E+03 0.  0.
        4    1    3    3  502    0  0.29978687653E+03  0.21964205753E+03  0.17247218578E+02  0.37204016480E+03  0.12699999809E+01 0. -1.
       -4    1    3    3    0  502 -0.29978687653E+03 -0.21964205753E+03  0.27735700568E+03  0.46372764235E+03  0.12699999809E+01 0.  1.
</event>
<event>
 5   0  0.2769394E-02  0.8306940E+03  0.7818609E-02  0.9516621E-01
        1   -1    0    0  501    0  0.00000000000E+00  0.00000000000E+00  0.10518620369E+04  0.10518620370E+04  0.50400001928E-02 0. -1.
       -1   -1    0    0    0  501  0.00000000000E+00  0.00000000000E+00 -0.16400739080E+03  0.16400739088E+03  0.50400001928E-02 0.  1.
    10030    2    1    2    0    0  0.00000000000E+00  0.00000000000E+00  0.88785464614E+03  0.12158694278E+04  0.83069404288E+03 0.  0.
        2    1    3    3  502    0  0.92625248509E+02  0.13544442626E+03 -0.11455496792E+03  0.20011863968E+03  0.25500000920E-02 0.  1.
       -2    1    3    3    0  502 -0.92625248509E+02 -0.13544442626E+03  0.10024096141E+04  0.10157507882E+04  0.25500000920E-02 0. -1.
</event>
<event>
 5   0  0.4684283E-02  0.8471431E+03  0.7818609E-02  0.9494179E-01
        2   -1    0    0  501    0  0.00000000000E+00  0.00000000000E+00  0.10863579424E+04  0.10863579424E+04  0.25500000920E-02 0.  1.
       -2   -1    0    0    0  501  0.00000000000E+00  0.00000000000E+00 -0.16515079183E+03  0.16515079185E+03  0.25500000920E-02 0. -1.
    10030    2    1    2    0    0  0.00000000000E+00  0.00000000000E+00  0.92120715056E+03  0.12515087342E+04  0.84714313883E+03 0.  0.
        1    1    3    3  502    0 -0.14746183467E+03 -0.31578258208E+03  0.81623568736E+03  0.88752708644E+03  0.50400001928E-02 0.  1.
       -1    1    3    3    0  502  0.14746183467E+03  0.31578258208E+03  0.10497146320E+03  0.36398164781E+03  0.50400001928E-02 0. -1.
</event>
<event>
 5   0  0.4663634E-02  0.7759719E+03  0.7818609E-02  0.9595463E-01
       -2   -1    0    0    0  501  0.00000000000E+00  0.00000000000E+00  0.87105132994E+02  0.87105133031E+02  0.25500000920E-02 0.  1.
        2   -1    0    0  501    0  0.00000000000E+00  0.00000000000E+00 -0.17281770123E+04  0.17281770123E+04  0.25500000920E-02 0. -1.
    10030    2    1    2    0    0  0.00000000000E+00  0.00000000000E+00 -0.16410718793E+04  0.18152821453E+04  0.77597187715E+03 0.  0.
        5    1    3    3  502    0 -0.26732759649E+03 -0.99249888470E+02 -0.14359110823E+04  0.14639594634E+04  0.46999998093E+01 0. -1.
       -5    1    3    3    0  502  0.26732759649E+03  0.99249888470E+02 -0.20516079697E+03  0.35132268190E+03  0.46999998093E+01 0.  1.
</event>
<event>
 5   0  0.4590462E-02  0.8032581E+03  0.7818609E-02  0.9555313E-01
        2   -1    0    0  501    0  0.00000000000E+00  0.00000000000E+00  0.91440842892E+03  0.91440842892E+03  0.25500000920E-02 0.  1.
       -2   -1    0    0    0  501  0.00000000000E+00  0.00000000000E+00 -0.17640464153E+03  0.17640464155E+03  0.25500000920E-02 0. -1.
    10030    2    1    2    0    0  0.00000000000E+00  0.00000000000E+00  0.73800378739E+03  0.10908130705E+04  0.80325809334E+03 0.  0.
        3    1    3    3  502    0 -0.10322419519E+03 -0.36661811529E+03  0.19593565475E+03  0.42831631761E+03  0.10100000352E+00 0. -1.
       -3    1    3    3    0  502  0.10322419519E+03  0.36661811529E+03  0.54206813264E+03  0.66249675286E+03  0.10100000352E+00 0.  1.
</event>
<event>
 5   0  0.2689372E-02  0.4980154E+03  0.7818609E-02  0.1014298E+00
        1   -1    0    0  501    0  0.00000000000E+00  0.00000000000E+00  0.34144441174E+03  0.34144441178E+03  0.50400001928E-02 0. -1.
       -1   -1    0    0    0  501  0.00000000000E+00  0.00000000000E+00 -0.18159571446E+03  0.18159571453E+03  0.50400001928E-02 0.  1.
    10030    2    1    2    0    0  0.00000000000E+00  0.00000000000E+00  0.15984869727E+03  0.52304012631E+03  0.49801542919E+03 0.  0.
        4    1    3    3  502    0  0.16278412006E+03 -0.68246070120E+02 -0.10453425239E+03  0.20514682219E+03  0.12699999809E+01 0.  1.
       -4    1    3    3    0  502 -0.16278412006E+03  0.68246070120E+02  0.26438294967E+03  0.31789330412E+03  0.12699999809E+01 0. -1.
</event>
<event>
 5   0  0.4684283E-02  0.7978487E+03  0.7818609E-02  0.9563136E-01
        2   -1    0    0  501    0  0.00000000000E+00  0.00000000000E+00  0.17002052978E+04  0.17002052978E+04  0.25500000920E-02 0.  1.
       -2   -1    0    0    0  501  0.00000000000E+00  0.00000000000E+00 -0.93600829226E+02  0.93600829261E+02  0.25500000920E-02 0. -1.
    10030    2    1    2    0    0  0.00000000000E+00  0.00000000000E+00  0.16066044686E+04  0.17938061271E+04  0.79784867177E+03 0.  0.
        1    1    3    3  502    0  0.15494592583E+03 -0.82069900294E+02 -0.23215420952E+01  0.17535420739E+03  0.50400001928E-02 0. -1.
       -1    1    3    3    0  502 -0.15494592583E+03  0.82069900294E+02  0.16089260107E+04  0.16184519197E+04  0.50400001928E-02 0.  1.
</event>
<event>
 5   0  0.2689372E-02  0.7832138E+03  0.7818609E-02  0.9584637E-01
       -1   -1    0    0    0  501  0.00000000000E+00  0.00000000000E+00  0.35953728195E+03  0.35953728198E+03  0.50400001928E-02 0.  1.
        1   -1    0    0  501    0  0.00000000000E+00  0.00000000000E+00 -0.42653700762E+03  0.42653700765E+03  0.50400001928E-02 0. -1.
    10030    2    1    2    0    0  0.00000000000E+00  0.00000000000E+00 -0.66999725671E+02  0.78607428963E+03  0.78321378025E+03 0.  0.
        4    1    3    3  502    0 -0.27268554637E+03  0.94753113891E+02  0.23207719361E+03  0.37040112916E+03  0.12699999809E+01 0.  1.
       -4    1    3    3    0  502  0.27268554637E+03 -0.94753113891E+02 -0.29907691928E+03  0.41567316047E+03  0.12699999809E+01 0. -1.
</event>
<event>
 5   0  0.4590462E-02  0.8186423E+03  0.7818609E-02  0.9533418E-01
        2   -1    0    0  501    0  0.00000000000E+00  0.00000000000E+00  0.31301543924E+03  0.31301543925E+03  0.25500000920E-02 0.  1.
       -2   -1    0    0    0  501  0.00000000000E+00  0.00000000000E+00 -0.53525730165E+03  0.53525730166E+03  0.25500000920E-02 0. -1.
    10030    2    1    2    0    0  0.00000000000E+00  0.00000000000E+00 -0.22224186241E+03  0.84827274091E+03  0.81864228913E+03 0.  0.
        3    1    3    3  502    0  0.19281686131E+03 -0.34928218752E+03 -0.20590527730E+03  0.44896924388E+03  0.10100000352E+00 0.  1.
       -3    1    3    3    0  502 -0.19281686131E+03  0.34928218752E+03 -0.16336585109E+02  0.39930349703E+03  0.10100000352E+00 0. -1.
</event>
<event>
 5   0  0.4700220E-02  0.7968162E+03  0.7818609E-02  0.9564637E-01
       -2   -1    0    0    0  501  0.00000000000E+00  0.00000000000E+00  0.24893905121E+03  0.24893905123E+03  0.25500000920E-02 0.  1.
        2   -1    0    0  501    0  0.00000000000E+00  0.00000000000E+00 -0.63762203885E+03  0.63762203886E+03  0.25500000920E-02 0. -1.
    10030    2    1    2    0    0  0.00000000000E+00  0.00000000000E+00 -0.38868298764E+03  0.88656109008E+03  0.79681622823E+03 0.  0.
        4    1    3    3  502    0 -0.27949719284E+03  0.26507089757E+03 -0.30751373112E+03  0.49289711834E+03  0.12699999809E+01 0.  1.
       -4    1    3    3    0  502  0.27949719284E+03 -0.26507089757E+03 -0.81169256521E+02  0.39366397174E+03  0.12699999809E+01 0. -1.
</event>
<event>
 5   0  0.2635243E-02  0.8303802E+03  0.7818609E-02  0.9517055E-01
        1   -1    0    0  501    0  0.00000000000E+00  0.00000000000E+00  0.32146301468E+03  0.32146301472E+03  0.50400001928E-02 0.  1.
       -1   -1    0    0    0  501  0.00000000000E+00  0.00000000000E+00 -0.53624467422E+03  0.53624467424E+03  0.50400001928E-02 0. -1.
    10030    2    1    2    0    0  0.00000000000E+00  0.00000000000E+00 -0.21478165954E+03  0.85770768897E+03  0.83038022522E+03 0.  0.
        1    1    3    3  502    0  0.26781226456E+03 -0.17950421114E+03 -0.37760609314E+03  0.49651941802E+03  0.50400001928E-02 0. -1.
       -1    1    3    3    0  502 -0.26781226456E+03  0.17950421114E+03  0.16282443360E+03  0.36118827095E+03  0.50400001928E-02 0.  1.
</event>
<event>
 5   0  0.4684283E-02  0.7808139E+03  0.7818609E-02  0.9588211E-01
       -2   -1    0    0    0  501  0.00000000000E+00  0.00000000000E+00  0.15905104474E+03  0.15905104476E+03  0.25500000920E-02 0.  1.
        2   -1    0    0  501    0  0.00000000000E+00  0.00000000000E+00 -0.95829350896E+03  0.95829350896E+03  0.25500000920E-02 0. -1.
    10030    2    1    2    0    0  0.00000000000E+00  0.00000000000E+00 -0.79924246422E+03  0.11173445537E+04  0.78081389275E+03 0.  0.
        1    1    3    3  502    0 -0.54366368414E+02 -0.45480054035E+02  0.14976613827E+03  0.16569258742E+03  0.50400001928E-02 0.  1.
       -1    1    3    3    0  502  0.54366368414E+02  0.45480054035E+02 -0.94900860249E+03  0.95165196630E+03  0.50400001928E-02 0. -1.
</event>
<event>
 5   0  0.2606520E-02  0.7917552E+03  0.7818609E-02  0.9572028E-01
       -1   -1    0    0    0  501  0.00000000000E+00  0.00000000000E+00  0.59212748026E+03  0.59212748028E+03  0.50400001928E-02 0. -1.
        1   -1    0    0  501    0  0.00000000000E+00  0.00000000000E+00 -0.26467115720E+03  0.26467115725E+03  0.50400001928E-02 0.  1.
    10030    2    1    2    0    0  0.00000000000E+00  0.00000000000E+00  0.32745632306E+03  0.85679863753E+03  0.79175517792E+03 0.  0.
        5    1    3    3  502    0 -0.19596163171E+03  0.30724790685E+03  0.33100622500E+03  0.49233062910E+03  0.46999998093E+01 0. -1.
       -5    1    3    3    0  502  0.19596163171E+03 -0.30724790685E+03 -0.35499019363E+01  0.36446800843E+03  0.46999998093E+01 0.  1.
</event>
<event>
 5   0  0.2606520E-02  0.8082641E+03  0.7818609E-02  0.9548132E-01
        1   -1    0    0  501    0  0.00000000000E+00  0.00000000000E+00  0.45722232931E+03  0.45722232934E+03  0.50400001928E-02 0. -1.
       -1   -1    0    0    0  501  0.00000000000E+00  0.00000000000E+00 -0.35720635468E+03  0.35720635472E+03  0.50400001928E-02 0.  1.
    10030    2    1    2    0    0  0.00000000000E+00  0.00000000000E+00  0.10001597463E+03  0.81442868406E+03  0.80826411911E+03 0.  0.
        5    1    3    3  502    0 -0.26878520151E+03  0.27892891629E+03 -0.65995241339E+02  0.39296855698E+03  0.46999998093E+01 0.  1.
       -5    1    3    3    0  502  0.26878520151E+03 -0.27892891629E+03  0.16601121597E+03  0.42146012708E+03  0.46999998093E+01 0. -1.
</event>
<event>
 5   0  0.2689372E-02  0.7926841E+03  0.7818609E-02  0.9570667E-01
        1   -1    0    0  501    0  0.00000000000E+00  0.00000000000E+00  0.46530009956E+03  0.46530009959E+03  0.50400001928E-02 0.  1.
       -1   -1    0    0    0  501  0.00000000000E+00  0.00000000000E+00 -0.33760368343E+03  0.33760368347E+03  0.50400001928E-02 0. -1.
    10030    2    1    2    0    0  0.00000000000E+00  0.00000000000E+00  0.12769641613E+03  0.80290378305E+03  0.79268411751E+03 0.  0.
        4    1    3    3  502    0 -0.47836740162E+02 -0.37383942109E+03 -0.60375315084E+02  0.38169498038E+03  0.12699999809E+01 0.  1.
       -4    1    3    3    0  502  0.47836740162E+02  0.37383942109E+03  0.18807173121E+03  0.42120880268E+03  0.12699999809E+01 0. -1.
</event>
<event>
 5   0  0.2759559E-02  0.6075041E+03  0.7818609E-02  0.9889959E-01
       -1   -1    0    0    0  501  0.00000000000E+00  0.00000000000E+00  0.13286075695E+04  0.13286075695E+04  0.50400001928E-02 0.  1.
        1   -1    0    0  501    0  0.00000000000E+00  0.00000000000E+00 -0.69445107597E+02  0.69445107780E+02  0.50400001928E-02 0. -1.
    10030    2    1    2    0    0  0.00000000000E+00  0.00000000000E+00  0.12591624619E+04  0.13980526773E+04  0.60750406007E+03 0.  0.
        3    1    3    3  502    0 -0.17321437859E+03  0.10009920352E+03  0.11555804967E+04  0.11727699544E+04  0.10100000352E+00 0.  1.
       -3    1    3    3    0  502  0.17321437859E+03 -0.10009920352E+03  0.10358196521E+03  0.22528272285E+03  0.10100000352E+00 0. -1.
</event>
<event>
 5   0  0.2759559E-02  0.7748979E+03  0.7818609E-02  0.9597079E-01
       -1   -1    0    0    0  501  0.00000000000E+00  0.00000000000E+00  0.34324485380E+03  0.34324485384E+03  0.50400001928E-02 0.  1.
        1   -1    0    0  501    0  0.00000000000E+00  0.00000000000E+00 -0.43734580995E+03  0.43734580998E+03  0.50400001928E-02 0. -1.
    10030    2    1    2    0    0  0.00000000000E+00  0.00000000000E+00 -0.94100956149E+02  0.78059066382E+03  0.77489792521E+03 0.  0.
        3    1    3    3  502    0 -0.18496487683E+03 -0.34033409955E+03 -0.55911889097E+02  0.39136358354E+03  0.10100000352E+00 0. -1.
       -3    1    3    3    0  502  0.18496487683E+03  0.34033409955E+03 -0.38189067052E+02  0.38922708028E+03  0.10100000352E+00 0.  1.
</event>
<event>
 5   0  0.2689372E-02  0.1093218E+04  0.7818609E-02  0.9211828E-01
        1   -1    0    0  501    0  0.00000000000E+00  0.00000000000E+00  0.78273241424E+03  0.78273241426E+03  0.50400001928E-02 0. -1.
       -1   -1    0    0    0  501  0.00000000000E+00  0.00000000000E+00 -0.38171560712E+03  0.38171560716E+03  0.50400001928E-02 0.  1.
    10030    2    1    2    0    0  0.00000000000E+00  0.00000000000E+00  0.40101680712E+03  0.11644480214E+04  0.10932175973E+04 0.  0.
        4    1    3    3  502    0 -0.45999209695E+03 -0.16580682992E+03 -0.59736494055E+02  0.49259993476E+03  0.12699999809E+01 0.  1.
       -4    1    3    3    0  502  0.45999209695E+03  0.16580682992E+03  0.46075330117E+03  0.67184808666E+03  0.12699999809E+01 0. -1.
</event>
<event>
 5   0  0.2759559E-02  0.7911897E+03  0.7818609E-02  0.9572858E-01
        1   -1    0    0  501    0  0.00000000000E+00  0.00000000000E+00  0.90069721974E+03  0.90069721976E+03  0.50400001928E-02 0. -1.
       -1   -1    0    0    0  501  0.00000000000E+00  0.00000000000E+00 -0.17374906634E+03  0.17374906641E+03  0.50400001928E-02 0.  1.
    10030    2    1    2    0    0  0.00000000000E+00  0.00000000000E+00  0.72694815340E+03  0.10744462862E+04  0.79118973965E+03 0.  0.
        3    1    3    3  502    0  0.13801234747E+03  0.15533493612E+03  0.82062048816E+03  0.84651895798E+03  0.10100000352E+00 0. -1.
       -3    1    3    3    0  502 -0.13801234747E+03 -0.15533493612E+03 -0.93672334758E+02  0.22792732819E+03  0.10100000352E+00 0.  1.
</event>
<event>
 5   0  0.2635243E-02  0.7817472E+03  0.7818609E-02  0.9586820E-01
        1   -1    0    0  501    0  0.00000000000E+00  0.00000000000E+00  0.29268397688E+03  0.29268397693E+03  0.50400001928E-02 0. -1.
       -1   -1    0    0    0  501  0.00000000000E+00  0.00000000000E+00 -0.52200389416E+03  0.52200389419E+03  0.50400001928E-02 0.  1.
    10030    2    1    2    0    0  0.00000000000E+00  0.00000000000E+00 -0.22931991728E+03  0.81468787111E+03  0.78174721162E+03 0.  0.
        1    1    3    3  502    0 -0.14964030536E+03 -0.34595558493E+03 -0.22248308395E+03  0.43769419736E+03  0.50400001928E-02 0.  1.
       -1    1    3    3    0  502  0.14964030536E+03  0.34595558493E+03 -0.68368333283E+01  0.37699367375E+03  0.50400001928E-02 0. -1.
</event>
<event>
 5   0  0.2606520E-02  0.8041889E+03  0.7818609E-02  0.9553974E-01
        1   -1    0    0  501    0  0.00000000000E+00  0.00000000000E+00  0.32644336411E+03  0.32644336415E+03  0.50400001928E-02 0.  1.
       -1   -1    0    0    0  501  0.00000000000E+00  0.00000000000E+00 -0.49527715604E+03  0.49527715606E+03  0.50400001928E-02 0. -1.
    10030    2    1    2    0    0  0.00000000000E+00  0.00000000000E+00 -0.16883379192E+03  0.82172052021E+03  0.80418888580E+03 0.  0.
        5    1    3    3  502    0 -0.25351654321E+03  0.38521524061E+02  0.23201689476E+03  0.34584458207E+03  0.46999998093E+01 0.  1.
       -5    1    3    3    0  502  0.25351654321E+03 -0.38521524061E+02 -0.40085068668E+03  0.47587593814E+03  0.46999998093E+01 0. -1.
</event>
<event>
 5   0  0.4590462E-02  0.8892942E+03  0.7818609E-02  0.9439064E-01
        2   -1    0    0  501    0  0.00000000000E+00  0.00000000000E+00  0.11754251599E+04  0.11754251599E+04  0.25500000920E-02 0. -1.
       -2   -1    0    0    0  501  0.00000000000E+00  0.00000000000E+00 -0.16820386832E+03  0.16820386834E+03  0.25500000920E-02 0.  1.
    10030    2    1    2    0    0  0.00000000000E+00  0.00000000000E+00  0.10072212916E+04  0.13436290282E+04  0.88929423438E+03 0.  0.
        3    1    3    3  502    0 -0.10035139170E+03  0.17159246401E+03 -0.97331376693E+02  0.22133183822E+03  0.10100000352E+00 0.  1.
       -3    1    3    3    0  502  0.10035139170E+03 -0.17159246401E+03  0.11045526683E+04  0.11222971900E+04  0.10100000352E+00 0. -1.
</event>
<event>
 5   0  0.4377843E-02  0.7832478E+03  0.7818609E-02  0.9584587E-01
        2   -1    0    0  501    0  0.00000000000E+00  0.00000000000E+00  0.30143921202E+03  0.30143921203E+03  0.25500000920E-02 0. -1.
       -2   -1    0    0    0  501  0.00000000000E+00  0.00000000000E+00 -0.50879005235E+03  0.50879005236E+03  0.25500000920E-02 0.  1.
    10030    2    1    2    0    0  0.00000000000E+00  0.00000000000E+00 -0.20735084033E+03  0.81022926439E+03  0.78324778320E+03 0.  0.
        2    1    3    3  502    0 -0.34506258747E+03  0.95747181912E+02  0.60321524807E+02  0.36314514795E+03  0.25500000920E-02 0.  1.
       -2    1    3    3    0  502  0.34506258747E+03 -0.95747181912E+02 -0.26767236514E+03  0.44708411645E+03  0.25500000920E-02 0. -1.
</event>
<event>
 5   0  0.2606520E-02  0.7774030E+03  0.7818609E-02  0.9593314E-01
       -1   -1    0    0    0  501  0.00000000000E+00  0.00000000000E+00  0.17765288833E+03  0.17765288840E+03  0.50400001928E-02 0.  1.
        1   -1    0    0  501    0  0.00000000000E+00  0.00000000000E+00 -0.85047238040E+03  0.85047238041E+03  0.50400001928E-02 0. -1.
    10030    2    1    2    0    0  0.00000000000E+00  0.00000000000E+00 -0.67281949207E+03  0.10281252688E+04  0.77740304827E+03 0.  0.
        5    1    3    3  502    0  0.18187990415E+03 -0.55721444697E+02 -0.78466464324E+03  0.80740688088E+03  0.46999998093E+01 0. -1.
       -5    1    3    3    0  502 -0.18187990415E+03  0.55721444697E+02  0.11184515118E+03  0.22071838794E+03  0.46999998093E+01 0.  1.
</event>
<event>
 5   0  0.4590462E-02  0.8273518E+03  0.7818609E-02  0.9521249E-01
       -2   -1    0    0    0  501  0.00000000000E+00  0.00000000000E+00  0.12692968751E+03  0.12692968753E+03  0.25500000920E-02 0. -1.
        2   -1    0    0  501    0  0.00000000000E+00  0.00000000000E+00 -0.13482091398E+04  0.13482091398E+04  0.25500000920E-02 0.  1.
    10030    2    1    2    0    0  0.00000000000E+00  0.00000000000E+00 -0.12212794523E+04  0.14751388273E+04  0.82735183526E+03 0.  0.
        3    1    3    3  502    0 -0.28688088547E+03 -0.21921923231E+03 -0.25063083194E+03  0.43951511735E+03  0.10100000352E+00 0. -1.
       -3    1    3    3    0  502  0.28688088547E+03  0.21921923231E+03 -0.97064862036E+03  0.10356237100E+04  0.10100000352E+00 0.  1.
</event>
<event>
 5   0  0.4684283E-02  0.7836673E+03  0.7818609E-02  0.9583964E-01
        2   -1    0    0  501    0  0.00000000000E+00  0.00000000000E+00  0.62196666673E+03  0.62196666674E+03  0.25500000920E-02 0.  1.
       -2   -1    0    0    0  501  0.00000000000E+00  0.00000000000E+00 -0.24685184550E+03  0.24685184552E+03  0.25500000920E-02 0. -1.
    10030    2    1    2    0    0  0.00000000000E+00  0.00000000000E+00  0.37511482123E+03  0.86881851226E+03  0.78366732619E+03 0.  0.
        1    1    3    3  502    0 -0.29042767205E+03 -0.25429417203E+03  0.11302247849E+03  0.40222859084E+03  0.50400001928E-02 0. -1.
       -1    1    3    3    0  502  0.29042767205E+03  0.25429417203E+03  0.26209234274E+03  0.46658992142E+03  0.50400001928E-02 0.  1.
</event>
<event>
 5   0  0.4700220E-02  0.8262911E+03  0.7818609E-02  0.9522723E-01
       -2   -1    0    0    0  501  0.00000000000E+00  0.00000000000E+00  0.11104312660E+03  0.11104312663E+03  0.25500000920E-02 0. -1.
        2   -1    0    0  501    0  0.00000000000E+00  0.00000000000E+00 -0.15371436408E+04  0.15371436408E+04  0.25500000920E-02 0.  1.
    10030    2    1    2    0    0  0.00000000000E+00  0.00000000000E+00 -0.14261005142E+04  0.16481867675E+04  0.82629107688E+03 0.  0.
        4    1    3    3  502    0 -0.23724371414E+03  0.20369421056E+03 -0.12516572743E+04  0.12901253647E+04  0.12699999809E+01 0.  1.
       -4    1    3    3    0  502  0.23724371414E+03 -0.20369421056E+03 -0.17444323992E+03  0.35806140279E+03  0.12699999809E+01 0. -1.
</event>
<event>
 5   0  0.4377843E-02  0.7964054E+03  0.7818609E-02  0.9565235E-01
       -2   -1    0    0    0  501  0.00000000000E+00  0.00000000000E+00  0.44142155991E+03  0.44142155991E+03  0.25500000920E-02 0.  1.
        2   -1    0    0  501    0  0.00000000000E+00  0.00000000000E+00 -0.35921530685E+03  0.35921530686E+03  0.25500000920E-02 0. -1.
    10030    2    1    2    0    0  0.00000000000E+00  0.00000000000E+00  0.82206253059E+02  0.80063686677E+03  0.79640537692E+03 0.  0.
        2    1    3    3  502    0 -0.44042459388E+02  0.59678673175E+02 -0.35220966415E+03  0.35993461877E+03  0.25500000920E-02 0. -1.
       -2    1    3    3    0  502  0.44042459388E+02 -0.59678673175E+02  0.43441591721E+03  0.44070224800E+03  0.25500000920E-02 0.  1.
</event>
<event>
 5   0  0.2606520E-02  0.7932293E+03  0.7818609E-02  0.9569869E-01
        1   -1    0    0  501    0  0.00000000000E+00  0.00000000000E+00  0.31000239147E+03  0.31000239151E+03  0.50400001928E-02 0.  1.
       -1   -1    0    0    0  501  0.00000000000E+00  0.00000000000E+00 -0.50742567459E+03  0.50742567461E+03  0.50400001928E-02 0. -1.
    10030    2    1    2    0    0  0.00000000000E+00  0.00000000000E+00 -0.19742328312E+03  0.81742806612E+03  0.79322927995E+03 0.  0.
        5    1    3    3  502    0 -0.20538141863E+03 -0.33886721349E+03 -0.11559960389E+03  0.41279277357E+03  0.46999998093E+01 0.  1.
       -5    1    3    3    0  502  0.20538141863E+03  0.33886721349E+03 -0.81823679234E+02  0.40463529255E+03  0.46999998093E+01 0. -1.
</event>
<event>
 5   0  0.4377843E-02  0.7997335E+03  0.7818609E-02  0.9560403E-01
       -2   -1    0    0    0  501  0.00000000000E+00  0.00000000000E+00  0.26097231314E+03  0.26097231316E+03  0.25500000920E-02 0.  1.
        2   -1    0    0  501    0  0.00000000000E+00  0.00000000000E+00 -0.61268351075E+03  0.61268351075E+03  0.25500000920E-02 0. -1.
    10030    2    1    2    0    0  0.00000000000E+00  0.00000000000E+00 -0.35171119760E+03  0.87365582391E+03  0.79973353820E+03 0.  0.
        2    1    3    3  502    0  0.38101819798E+03  0.12130576322E+03 -0.17381838018E+03  0.43600778052E+03  0.25500000920E-02 0.  1.
       -2    1    3    3    0  502 -0.38101819798E+03 -0.12130576322E+03 -0.17789281742E+03  0.43764804338E+03  0.25500000920E-02 0. -1.
</event>
<event>
 5   0  0.2606520E-02  0.7919865E+03  0.7818609E-02  0.9571689E-01
        1   -1    0    0  501    0  0.00000000000E+00  0.00000000000E+00  0.36527996818E+03  0.36527996821E+03  0.50400001928E-02 0. -1.
       -1   -1    0    0    0  501  0.00000000000E+00  0.00000000000E+00 -0.42928896161E+03  0.42928896164E+03  0.50400001928E-02 0.  1.
    10030    2    1    2    0    0  0.00000000000E+00  0.00000000000E+00 -0.64008993436E+02  0.79456892985E+03  0.79198651065E+03 0.  0.
        5    1    3    3  502    0 -0.39190566415E+03  0.17572387073E+02  0.21926993285E+02  0.39293984452E+03  0.46999998093E+01 0.  1.
       -5    1    3    3    0  502  0.39190566415E+03 -0.17572387073E+02 -0.85935986721E+02  0.40162908534E+03  0.46999998093E+01 0. -1.
</event>
<event>
 5   0  0.2769394E-02  0.7760326E+03  0.7818609E-02  0.9595372E-01
       -1   -1    0    0    0  501  0.00000000000E+00  0.00000000000E+00  0.13362808385E+04  0.13362808385E+04  0.50400001928E-02 0. -1.
        1   -1    0    0  501    0  0.00000000000E+00  0.00000000000E+00 -0.11266843269E+03  0.11266843280E+03  0.50400001928E-02 0.  1.
    10030    2    1    2    0    0  0.00000000000E+00  0.00000000000E+00  0.12236124058E+04  0.14489492713E+04  0.77603264825E+03 0.  0.
        2    1    3    3  502    0  0.94254926398E+02  0.15609439803E+03  0.12512988439E+04  0.12645150252E+04  0.25500000920E-02 0. -1.
       -2    1    3    3    0  502 -0.94254926398E+02 -0.15609439803E+03 -0.27686438140E+02  0.18443424604E+03  0.25500000920E-02 0.  1.
</event>
<event>
 5   0  0.2769394E-02  0.8229745E+03  0.7818609E-02  0.9527345E-01
        1   -1    0    0  501    0  0.00000000000E+00  0.00000000000E+00  0.54649079514E+03  0.54649079516E+03  0.50400001928E-02 0.  1.
       -1   -1    0    0    0  501  0.00000000000E+00  0.00000000000E+00 -0.30983458226E+03  0.30983458230E+03  0.50400001928E-02 0. -1.
    10030    2    1    2    0    0  0.00000000000E+00  0.00000000000E+00  0.23665621288E+03  0.85632537746E+03  0.82297447651E+03 0.  0.
        2    1    3    3  502    0 -0.15177187100E+02  0.37972641551E+03  0.28251768104E+03  0.47353852827E+03  0.25500000920E-02 0. -1.
       -2    1    3    3    0  502  0.15177187100E+02 -0.37972641551E+03 -0.45861468168E+02  0.38278684919E+03  0.25500000920E-02 0.  1.
</event>
<event>
 5   0  0.2689372E-02  0.8358525E+03  0.7818609E-02  0.9509524E-01
        1   -1    0    0  501    0  0.00000000000E+00  0.00000000000E+00  0.68716976029E+03  0.68716976031E+03  0.50400001928E-02 0. -1.
       -1   -1    0    0    0  501  0.00000000000E+00  0.00000000000E+00 -0.25417643627E+03  0.25417643632E+03  0.50400001928E-02 0.  1.
    10030    2    1    2    0    0  0.00000000000E+00  0.00000000000E+00  0.43299332403E+03  0.94134619663E+03  0.83585252483E+03 0.  0.
        4    1    3    3  502    0  0.38433905069E+03 -0.10161992960E+03  0.71317501304E+02  0.40389468289E+03  0.12699999809E+01 0.  1.
       -4    1    3    3    0  502 -0.38433905069E+03  0.10161992960E+03  0.36167582272E+03  0.53745151374E+03  0.12699999809E+01 0. -1.
</event>
<event>
 5   0  0.4684283E-02  0.8083029E+03  0.7818609E-02  0.9548076E-01
        2   -1    0    0  501    0  0.00000000000E+00  0.00000000000E+00  0.76350611675E+03  0.76350611676E+03  0.25500000920E-02 0.  1.
       -2   -1    0    0    0  501  0.00000000000E+00  0.00000000000E+00 -0.21393197971E+03  0.21393197973E+03  0.25500000920E-02 0. -1.
    10030    2    1    2    0    0  0.00000000000E+00  0.00000000000E+00  0.54957413704E+03  0.97743809648E+03  0.80830285187E+03 0.  0.
        1    1    3    3  502    0  0.20268425438E+03 -0.32920995824E+03  0.41724375561E+03  0.56881671494E+03  0.50400001928E-02 0. -1.
       -1    1    3    3    0  502 -0.20268425438E+03  0.32920995824E+03  0.13233038143E+03  0.40862138154E+03  0.50400001928E-02 0.  1.
</event>
<event>
 5   0  0.4700220E-02  0.8123420E+03  0.7818609E-02  0.9542322E-01
        2   -1    0    0  501    0  0.00000000000E+00  0.00000000000E+00  0.20182630093E+04  0.20182630093E+04  0.25500000920E-02 0.  1.
       -2   -1    0    0    0  501  0.00000000000E+00  0.00000000000E+00 -0.81741016923E+02  0.81741016963E+02  0.25500000920E-02 0. -1.
    10030    2    1    2    0    0  0.00000000000E+00  0.00000000000E+00  0.19365219924E+04  0.21000040263E+04  0.81234197439E+03 0.  0.
        4    1    3    3  502    0  0.38604917597E+03 -0.39750674976E+02  0.12780357248E+04  0.13356612629E+04  0.12699999809E+01 0.  1.
       -4    1    3    3    0  502 -0.38604917597E+03  0.39750674976E+02  0.65848626753E+03  0.76434276333E+03  0.12699999809E+01 0. -1.
</event>
<event>
 5   0  0.2759559E-02  0.8142219E+03  0.7818609E-02  0.9539657E-01
       -1   -1    0    0    0  501  0.00000000000E+00  0.00000000000E+00  0.29339433378E+03  0.29339433383E+03  0.50400001928E-02 0. -1.
        1   -1    0    0  501    0  0.00000000000E+00  0.00000000000E+00 -0.56490296775E+03  0.56490296777E+03  0.50400001928E-02 0.  1.
    10030    2    1    2    0    0  0.00000000000E+00  0.00000000000E+00 -0.27150863397E+03  0.85829730160E+03  0.81422191055E+03 0.  0.
        3    1    3    3  502    0 -0.40049039523E+03 -0.64681535691E+02 -0.99804524275E+02  0.41777650843E+03  0.10100000352E+00 0. -1.
       -3    1    3    3    0  502  0.40049039523E+03  0.64681535691E+02 -0.17170410969E+03  0.44052079317E+03  0.10100000352E+00 0.  1.
</event>
<event>
 5   0  0.4590462E-02  0.7731587E+03  0.7818609E-02  0.9599703E-01
       -2   -1    0    0    0  501  0.00000000000E+00  0.00000000000E+00  0.11639714634E+03  0.11639714637E+03  0.25500000920E-02 0.  1.
        2   -1    0    0  501    0  0.00000000000E+00  0.00000000000E+00 -0.12839110388E+04  0.12839110388E+04  0.25500000920E-02 0. -1.
    10030    2    1    2    0    0  0.00000000000E+00  0.00000000000E+00 -0.11675138925E+04  0.14003081852E+04  0.77315866702E+03 0.  0.
        3    1    3    3  502    0 -0.18280689141E+03 -0.27710716185E+03 -0.22499863801E+03  0.40103757430E+03  0.10100000352E+00 0.  1.
       -3    1    3    3    0  502  0.18280689141E+03  0.27710716185E+03 -0.94251525445E+03  0.99927061088E+03  0.10100000352E+00 0. -1.
</event>
<event>
 5   0  0.2759559E-02  0.8080918E+03  0.7818609E-02  0.9548378E-01
        1   -1    0    0  501    0  0.00000000000E+00  0.00000000000E+00  0.33944416687E+03  0.33944416691E+03  0.50400001928E-02 0. -1.
       -1   -1    0    0    0  501  0.00000000000E+00  0.00000000000E+00 -0.48094242447E+03  0.48094242449E+03  0.50400001928E-02 0.  1.
    10030    2    1    2    0    0  0.00000000000E+00  0.00000000000E+00 -0.14149825759E+03  0.82038659140E+03  0.80809182798E+03 0.  0.
        3    1    3    3  502    0 -0.38144943574E+03 -0.43049844668E+02  0.57248973673E+02  0.38811649842E+03  0.10100000352E+00 0. -1.
       -3    1    3    3    0  502  0.38144943574E+03  0.43049844668E+02 -0.19874723127E+03  0.43227009299E+03  0.10100000352E+00 0.  1.
</event>
<event>
 5   0  0.2769394E-02  0.7981859E+03  0.7818609E-02  0.9562647E-01
        1   -1    0    0  501    0  0.00000000000E+00  0.00000000000E+00  0.38097519393E+03  0.38097519396E+03  0.50400001928E-02 0. -1.
       -1   -1    0    0    0  501  0.00000000000E+00  0.00000000000E+00 -0.41807228199E+03  0.41807228202E+03  0.50400001928E-02 0.  1.
    10030    2    1    2    0    0  0.00000000000E+00  0.00000000000E+00 -0.37097088055E+02  0.79904747598E+03  0.79818586490E+03 0.  0.
        2    1    3    3  502    0 -0.97998448138E+02 -0.10596943452E+03  0.35393098390E+03  0.38223076572E+03  0.25500000920E-02 0. -1.
       -2    1    3    3    0  502  0.97998448138E+02  0.10596943452E+03 -0.39102807196E+03  0.41681671026E+03  0.25500000920E-02 0.  1.
</event>
<event>
 5   0  0.4377843E-02  0.7704907E+03  0.7818609E-02  0.9603741E-01
       -2   -1    0    0    0  501  0.00000000000E+00  0.00000000000E+00  0.24723221815E+03  0.24723221817E+03  0.25500000920E-02 0.  1.
        2   -1    0    0  501    0  0.00000000000E+00  0.00000000000E+00 -0.60030195895E+03  0.60030195896E+03  0.25500000920E-02 0. -1.
    10030    2    1    2    0    0  0.00000000000E+00  0.00000000000E+00 -0.35306974080E+03  0.84753417712E+03  0.77049071346E+03 0.  0.
        2    1    3    3  502    0  0.16579143686E+03  0.16487639230E+03 -0.51332483482E+03  0.56406862289E+03  0.25500000920E-02 0. -1.
       -2    1    3    3    0  502 -0.16579143686E+03 -0.16487639230E+03  0.16025509402E+03  0.28346555424E+03  0.25500000920E-02 0.  1.
</event>
<event>
 5   0  0.2606520E-02  0.7876736E+03  0.7818609E-02  0.9578032E-01
       -1   -1    0    0    0  501  0.00000000000E+00  0.00000000000E+00  0.63977023603E+03  0.63977023605E+03  0.50400001928E-02 0.  1.
        1   -1    0    0  501    0  0.00000000000E+00  0.00000000000E+00 -0.24244238708E+03  0.24244238713E+03  0.50400001928E-02 0. -1.
    10030    2    1    2    0    0  0.00000000000E+00  0.00000000000E+00  0.39732784895E+03  0.88221262319E+03  0.78767359544E+03 0.  0.
        5    1    3    3  502    0 -0.28697880621E+03  0.10409150240E+03 -0.79979854359E+02  0.31561169685E+03  0.46999998093E+01 0. -1.
       -5    1    3    3    0  502  0.28697880621E+03 -0.10409150240E+03  0.47730770331E+03  0.56660092634E+03  0.46999998093E+01 0.  1.
</event>
<event>
 5   0  0.2635243E-02  0.7403995E+03  0.7818609E-02  0.9650534E-01
       -1   -1    0    0    0  501  0.00000000000E+00  0.00000000000E+00  0.85970005620E+03  0.85970005622E+03  0.50400001928E-02 0.  1.
        1   -1    0    0  501    0  0.00000000000E+00  0.00000000000E+00 -0.15941357795E+03  0.15941357803E+03  0.50400001928E-02 0. -1.
    10030    2    1    2    0    0  0.00000000000E+00  0.00000000000E+00  0.70028647825E+03  0.10191136342E+04  0.74039951910E+03 0.  0.
        1    1    3    3  502    0  0.15362982020E+03 -0.28032374826E+03  0.93134917296E+02  0.33295290709E+03  0.50400001928E-02 0. -1.
       -1    1    3    3    0  502 -0.15362982020E+03  0.28032374826E+03  0.60715156096E+03  0.68616072716E+03  0.50400001928E-02 0.  1.
</event>
<event>
 5   0  0.4700220E-02  0.8060714E+03  0.7818609E-02  0.9551270E-01
        2   -1    0    0  501    0  0.00000000000E+00  0.00000000000E+00  0.16180832067E+04  0.16180832067E+04  0.25500000920E-02 0. -1.
       -2   -1    0    0    0  501  0.00000000000E+00  0.00000000000E+00 -0.10038900513E+03  0.10038900516E+03  0.25500000920E-02 0.  1.
    10030    2    1    2    0    0  0.00000000000E+00  0.00000000000E+00  0.15176942016E+04  0.17184722119E+04  0.80607136995E+03 0.  0.
        4    1    3    3  502    0  0.27688612847E+03 -0.26709766969E+03  0.50275982819E+03  0.63306883594E+03  0.12699999809E+01 0.  1.
       -4    1    3    3    0  502 -0.27688612847E+03  0.26709766969E+03  0.10149343734E+04  0.10854033759E+04  0.12699999809E+01 0. -1.
</event>
<event>
 5   0  0.2635243E-02  0.7872815E+03  0.7818609E-02  0.9578611E-01
       -1   -1    0    0    0  501  0.00000000000E+00  0.00000000000E+00  0.26962307623E+03  0.26962307628E+03  0.50400001928E-02 0. -1.
        1   -1    0    0  501    0  0.00000000000E+00  0.00000000000E+00 -0.57470239900E+03  0.57470239902E+03  0.50400001928E-02 0.  1.
    10030    2    1    2    0    0  0.00000000000E+00  0.00000000000E+00 -0.30507932277E+03  0.84432547530E+03  0.78728147130E+03 0.  0.
        1    1    3    3  502    0 -0.25931578218E+03 -0.21900660804E+03 -0.36634481053E+03  0.49941674930E+03  0.50400001928E-02 0.  1.
       -1    1    3    3    0  502  0.25931578218E+03  0.21900660804E+03  0.61265487762E+02  0.34490872600E+03  0.50400001928E-02 0. -1.
</event>
<event>
 5   0  0.4700220E-02  0.8038560E+03  0.7818609E-02  0.9554452E-01
       -2   -1    0    0    0  501  0.00000000000E+00  0.00000000000E+00  0.30618854728E+03  0.30618854729E+03  0.25500000920E-02 0.  1.
        2   -1    0    0  501    0  0.00000000000E+00  0.00000000000E+00 -0.52760343384E+03  0.52760343385E+03  0.25500000920E-02 0. -1.
    10030    2    1    2    0    0  0.00000000000E+00  0.00000000000E+00 -0.22141488657E+03  0.83379198114E+03  0.80385602929E+03 0.  0.
        4    1    3    3  502    0  0.35060440768E+02 -0.11731108528E+03  0.28637197424E+03  0.31145087215E+03  0.12699999809E+01 0.  1.
       -4    1    3    3    0  502 -0.35060440768E+02  0.11731108528E+03 -0.50778686080E+03  0.52234110899E+03  0.12699999809E+01 0. -1.
</event>
<event>
 5   0  0.4663634E-02  0.7976435E+03  0.7818609E-02  0.9563434E-01
        2   -1    0    0  501    0  0.00000000000E+00  0.00000000000E+00  0.95330265135E+03  0.95330265135E+03  0.25500000920E-02 0.  1.
       -2   -1    0    0    0  501  0.00000000000E+00  0.00000000000E+00 -0.16685025628E+03  0.16685025630E+03  0.25500000920E-02 0. -1.
    10030    2    1    2    0    0  0.00000000000E+00  0.00000000000E+00  0.78645239506E+03  0.11201529077E+04  0.79764350861E+03 0.  0.
        5    1    3    3  502    0  0.79848091457E+02 -0.21508821603E+03 -0.64847437355E+02  0.23846580156E+03  0.46999998093E+01 0. -1.
       -5    1    3    3    0  502 -0.79848091457E+02  0.21508821603E+03  0.85129983242E+03  0.88168710609E+03  0.46999998093E+01 0.  1.
</event>
<event>
 5   0  0.2689372E-02  0.7949988E+03  0.7818609E-02  0.9567284E-01
       -1   -1    0    0    0  501  0.00000000000E+00  0.00000000000E+00  0.44312190908E+03  0.44312190911E+03  0.50400001928E-02 0.  1.
        1   -1    0    0  501    0  0.00000000000E+00  0.00000000000E+00 -0.35657404831E+03  0.35657404835E+03  0.50400001928E-02 0. -1.
    10030    2    1    2    0    0  0.00000000000E+00  0.00000000000E+00  0.86547860768E+02  0.79969595746E+03  0.79499880011E+03 0.  0.
        4    1    3    3  502    0  0.30766878996E+03  0.20042247263E+03 -0.10985859318E+03  0.38327506473E+03  0.12699999809E+01 0.  1.
       -4    1    3    3    0  502 -0.30766878996E+03 -0.20042247263E+03  0.19640645395E+03  0.41642089273E+03  0.12699999809E+01 0. -1.
</event>
<event>
 5   0  0.4663634E-02  0.7060584E+03  0.7818609E-02  0.9706927E-01
        2   -1    0    0  501    0  0.00000000000E+00  0.00000000000E+00  0.17114408243E+04  0.17114408243E+04  0.25500000920E-02 0.  1.
       -2   -1    0    0    0  501  0.00000000000E+00  0.00000000000E+00 -0.72821457258E+02  0.72821457303E+02  0.25500000920E-02 0. -1.
    10030    2    1    2    0    0  0.00000000000E+00  0.00000000000E+00  0.16386193670E+04  0.17842622816E+04  0.70605839667E+03 0.  0.
        5    1    3    3  502    0 -0.85761051970E+02 -0.17207889906E+03  0.15674322823E+04  0.15791871818E+04  0.46999998093E+01 0.  1.
       -5    1    3    3    0  502  0.85761051970E+02  0.17207889906E+03  0.71187084754E+02  0.20507509983E+03  0.46999998093E+01 0. -1.
</event>
<event>
 5   0  0.1786500E-02  0.7944080E+03  0.7818609E-02  0.9568147E-01
        4   -1    0    0  501    0  0.00000000000E+00  0.00000000000E+00  0.26575334492E+03  0.26575637948E+03  0.12699999809E+01 0.  1.
       -4   -1    0    0    0  501  0.00000000000E+00  0.00000000000E+00 -0.59366749743E+03  0.59366885585E+03  0.12699999809E+01 0. -1.
    10030    2    1    2    0    0  0.00000000000E+00  0.00000000000E+00 -0.32791415252E+03  0.85942523534E+03  0.79440798316E+03 0.  0.
        5    1    3    3  502    0  0.23684434963E+03  0.28478657841E+03 -0.31904335342E+03  0.48888586864E+03  0.46999998093E+01 0. -1.
       -5    1    3    3    0  502 -0.23684434963E+03 -0.28478657841E+03 -0.88707990962E+01  0.37053936670E+03  0.46999998093E+01 0.  1.
</event>
<event>
 5   0  0.4377843E-02  0.8429731E+03  0.7818609E-02  0.9499817E-01
       -2   -1    0    0    0  501  0.00000000000E+00  0.00000000000E+00  0.17175918290E+03  0.17175918292E+03  0.25500000920E-02 0. -1.
        2   -1    0    0  501    0  0.00000000000E+00  0.00000000000E+00 -0.10343022555E+04  0.10343022555E+04  0.25500000920E-02 0.  1.
    10030    2    1    2    0    0  0.00000000000E+00  0.00000000000E+00 -0.86254307262E+03  0.12060614385E+04  0.84297309636E+03 0.  0.
        2    1    3    3  502    0 -0.37888878359E+03  0.56678416104E+00 -0.69544787913E+03  0.79196261538E+03  0.25500000920E-02 0.  1.
       -2    1    3    3    0  502  0.37888878359E+03 -0.56678416104E+00 -0.16709519349E+03  0.41409882307E+03  0.25500000920E-02 0. -1.
</event>
<event>
 5   0  0.2606520E-02  0.8064686E+03  0.7818609E-02  0.9550701E-01
        1   -1    0    0  501    0  0.00000000000E+00  0.00000000000E+00  0.52406637801E+03  0.52406637803E+03  0.50400001928E-02 0.  1.
       -1   -1    0    0    0  501  0.00000000000E+00  0.00000000000E+00 -0.31026205202E+03  0.31026205206E+03  0.50400001928E-02 0. -1.
    10030    2    1    2    0    0  0.00000000000E+00  0.00000000000E+00  0.21380432599E+03  0.83432843009E+03  0.80646862273E+03 0.  0.
        5    1    3    3  502    0 -0.27790194397E+03  0.28628417669E+02 -0.19387623053E+03  0.34008698817E+03  0.46999998093E+01 0. -1.
       -5    1    3    3    0  502  0.27790194397E+03 -0.28628417669E+02  0.40768055651E+03  0.49424144193E+03  0.46999998093E+01 0.  1.
</event>
</LesHouchesEvents>
